
     Program PWSCF v.6.2 (svn rev. 14038) starts on 22Mar2020 at 16: 6:19 

     This program is part of the open-source Quantum ESPRESSO suite
     for quantum simulation of materials; please cite
         "P. Giannozzi et al., J. Phys.:Condens. Matter 21 395502 (2009);
         "P. Giannozzi et al., J. Phys.:Condens. Matter 29 465901 (2017);
          URL http://www.quantum-espresso.org", 
     in publications or presentations arising from this work. More details at
     http://www.quantum-espresso.org/quote

     Parallel version (MPI), running on    40 processors

     MPI processes distributed on     4 nodes
     K-points division:     npool     =      40
     Reading input from scf.in

     Current dimensions of program PWSCF are:
     Max number of different atomic species (ntypx) = 10
     Max number of k-points (npk) =  40000
     Max angular momentum in pseudopotentials (lmaxx) =  3

     Subspace diagonalization in iterative solution of the eigenvalue problem:
     a serial algorithm will be used

 
     G-vector sticks info
     --------------------
     sticks:   dense  smooth     PW     G-vecs:    dense   smooth      PW
     Sum        7749    7749   2079               502657   502657   69685
 


     bravais-lattice index     =            0
     lattice parameter (alat)  =      13.9371  a.u.
     unit-cell volume          =    2829.8020 (a.u.)^3
     number of atoms/cell      =           32
     number of atomic types    =            2
     number of electrons       =       368.60
     number of Kohn-Sham states=          221
     kinetic-energy cutoff     =     120.0000  Ry
     charge density cutoff     =     480.0000  Ry
     convergence threshold     =      1.0E-08
     mixing beta               =       0.7000
     number of iterations used =            8  plain     mixing
     Exchange-correlation      = SLA PW NOGX NOGC ( 1  4  0  0 0 0)

     celldm(1)=  13.937096  celldm(2)=   0.000000  celldm(3)=   0.000000
     celldm(4)=   0.000000  celldm(5)=   0.000000  celldm(6)=   0.000000

     crystal axes: (cart. coord. in units of alat)
               a(1) = (   1.000000   0.000000   0.000000 )  
               a(2) = (   0.000000   1.045128   0.000000 )  
               a(3) = (   0.000000   0.000000   1.000161 )  

     reciprocal axes: (cart. coord. in units 2 pi/alat)
               b(1) = (  1.000000  0.000000  0.000000 )  
               b(2) = (  0.000000  0.956821  0.000000 )  
               b(3) = (  0.000000  0.000000  0.999839 )  


     PseudoPot. # 1 for W  read from file:
     /cluster/scratch/mnoe/QE/pps/W_ONCV_LDA-4.0.upf
     MD5 check sum: ba0307d5d4cd419d6f1d13dc49d7c13a
     Pseudo is Norm-conserving + core correction, Zval = 28.0
     Generated using ONCVPSP code by D. R. Hamann
     Using radial grid of 1380 points,  8 beta functions with: 
                l(1) =   0
                l(2) =   0
                l(3) =   1
                l(4) =   1
                l(5) =   2
                l(6) =   2
                l(7) =   3
                l(8) =   3

     PseudoPot. # 2 for O  read from file:
     /cluster/scratch/mnoe/QE/pps/O_ONCV_LDA-3.0.upf
     MD5 check sum: a1bd6164e7280c17a38c229939bfbd54
     Pseudo is Norm-conserving + core correction, Zval =  6.0
     Generated using ONCVPSP code by D. R. Hamann
     Using radial grid of  926 points,  5 beta functions with: 
                l(1) =   0
                l(2) =   0
                l(3) =   1
                l(4) =   1
                l(5) =   2

     atomic species   valence    mass     pseudopotential
        W             28.00   183.84000     W ( 1.00)
        O              6.00    15.99940     O ( 1.00)

      8 Sym. Ops., with inversion, found ( 6 have fractional translation)



   Cartesian axes

     site n.     atom                  positions (alat units)
         1           W   tau(   1) = (   0.2472281   0.2912962   0.0026180  )
         2           W   tau(   2) = (   0.7527718   0.7538313  -0.0026180  )
         3           W   tau(   3) = (   0.2527719   0.2312676   0.5026984  )
         4           W   tau(   4) = (   0.7472281   0.8138600   0.4974625  )
         5           W   tau(   5) = (   0.7527718   0.2912962   0.4974625  )
         6           W   tau(   6) = (   0.2472281   0.7538313   0.5026984  )
         7           W   tau(   7) = (   0.7472281   0.2312676  -0.0026180  )
         8           W   tau(   8) = (   0.2527719   0.8138600   0.0026180  )
         9           O   tau(   9) = (   0.2448863   0.0078010   0.0008137  )
        10           O   tau(  10) = (   0.7551137  -0.0078010  -0.0008137  )
        11           O   tau(  11) = (   0.2551137   0.5147628   0.5008942  )
        12           O   tau(  12) = (   0.7448863   0.5303647   0.4992668  )
        13           O   tau(  13) = (   0.7551137   0.0078010   0.4992668  )
        14           O   tau(  14) = (   0.2448863  -0.0078010   0.5008942  )
        15           O   tau(  15) = (   0.7448863   0.5147628  -0.0008137  )
        16           O   tau(  16) = (   0.2551137   0.5303647   0.0008137  )
        17           O   tau(  17) = (   0.5007581   0.2557996   0.4572956  )
        18           O   tau(  18) = (   0.4992419   0.7893279   0.5428654  )
        19           O   tau(  19) = (  -0.0007581   0.2667642   0.9573761  )
        20           O   tau(  20) = (   0.0007581   0.7783634   0.0427849  )
        21           O   tau(  21) = (   0.4992419   0.2557996   0.0427849  )
        22           O   tau(  22) = (   0.5007581   0.7893279   0.9573761  )
        23           O   tau(  23) = (   0.0007581   0.2667642   0.5428654  )
        24           O   tau(  24) = (  -0.0007581   0.7783634   0.4572956  )
        25           O   tau(  25) = (   0.7072220   0.2600855   0.7489713  )
        26           O   tau(  26) = (   0.2927780   0.7850420   0.2511896  )
        27           O   tau(  27) = (   0.7927780   0.2624782   0.2488909  )
        28           O   tau(  28) = (   0.2072220   0.7826493   0.7512701  )
        29           O   tau(  29) = (   0.2927780   0.2600855   0.7512701  )
        30           O   tau(  30) = (   0.7072220   0.7850420   0.2488909  )
        31           O   tau(  31) = (   0.2072220   0.2624782   0.2511896  )
        32           O   tau(  32) = (   0.7927780   0.7826493   0.7489713  )

     number of k points=    64  gaussian smearing, width (Ry)=  0.0007
                       cart. coord. in units 2pi/alat
        k(    1) = (   0.0000000   0.0000000   0.0000000), wk =   0.0092593
        k(    2) = (   0.0000000   0.0000000   0.1666398), wk =   0.0185185
        k(    3) = (   0.0000000   0.0000000   0.3332797), wk =   0.0185185
        k(    4) = (   0.0000000   0.0000000  -0.4999195), wk =   0.0092593
        k(    5) = (   0.0000000   0.1594702   0.0000000), wk =   0.0185185
        k(    6) = (   0.0000000   0.1594702   0.1666398), wk =   0.0370370
        k(    7) = (   0.0000000   0.1594702   0.3332797), wk =   0.0370370
        k(    8) = (   0.0000000   0.1594702  -0.4999195), wk =   0.0185185
        k(    9) = (   0.0000000   0.3189403   0.0000000), wk =   0.0185185
        k(   10) = (   0.0000000   0.3189403   0.1666398), wk =   0.0370370
        k(   11) = (   0.0000000   0.3189403   0.3332797), wk =   0.0370370
        k(   12) = (   0.0000000   0.3189403  -0.4999195), wk =   0.0185185
        k(   13) = (   0.0000000  -0.4784105   0.0000000), wk =   0.0092593
        k(   14) = (   0.0000000  -0.4784105   0.1666398), wk =   0.0185185
        k(   15) = (   0.0000000  -0.4784105   0.3332797), wk =   0.0185185
        k(   16) = (   0.0000000  -0.4784105  -0.4999195), wk =   0.0092593
        k(   17) = (   0.1666667   0.0000000   0.0000000), wk =   0.0185185
        k(   18) = (   0.1666667   0.0000000   0.1666398), wk =   0.0370370
        k(   19) = (   0.1666667   0.0000000   0.3332797), wk =   0.0370370
        k(   20) = (   0.1666667   0.0000000  -0.4999195), wk =   0.0185185
        k(   21) = (   0.1666667   0.1594702   0.0000000), wk =   0.0370370
        k(   22) = (   0.1666667   0.1594702   0.1666398), wk =   0.0740741
        k(   23) = (   0.1666667   0.1594702   0.3332797), wk =   0.0740741
        k(   24) = (   0.1666667   0.1594702  -0.4999195), wk =   0.0370370
        k(   25) = (   0.1666667   0.3189403   0.0000000), wk =   0.0370370
        k(   26) = (   0.1666667   0.3189403   0.1666398), wk =   0.0740741
        k(   27) = (   0.1666667   0.3189403   0.3332797), wk =   0.0740741
        k(   28) = (   0.1666667   0.3189403  -0.4999195), wk =   0.0370370
        k(   29) = (   0.1666667  -0.4784105   0.0000000), wk =   0.0185185
        k(   30) = (   0.1666667  -0.4784105   0.1666398), wk =   0.0370370
        k(   31) = (   0.1666667  -0.4784105   0.3332797), wk =   0.0370370
        k(   32) = (   0.1666667  -0.4784105  -0.4999195), wk =   0.0185185
        k(   33) = (   0.3333333   0.0000000   0.0000000), wk =   0.0185185
        k(   34) = (   0.3333333   0.0000000   0.1666398), wk =   0.0370370
        k(   35) = (   0.3333333   0.0000000   0.3332797), wk =   0.0370370
        k(   36) = (   0.3333333   0.0000000  -0.4999195), wk =   0.0185185
        k(   37) = (   0.3333333   0.1594702   0.0000000), wk =   0.0370370
        k(   38) = (   0.3333333   0.1594702   0.1666398), wk =   0.0740741
        k(   39) = (   0.3333333   0.1594702   0.3332797), wk =   0.0740741
        k(   40) = (   0.3333333   0.1594702  -0.4999195), wk =   0.0370370
        k(   41) = (   0.3333333   0.3189403   0.0000000), wk =   0.0370370
        k(   42) = (   0.3333333   0.3189403   0.1666398), wk =   0.0740741
        k(   43) = (   0.3333333   0.3189403   0.3332797), wk =   0.0740741
        k(   44) = (   0.3333333   0.3189403  -0.4999195), wk =   0.0370370
        k(   45) = (   0.3333333  -0.4784105   0.0000000), wk =   0.0185185
        k(   46) = (   0.3333333  -0.4784105   0.1666398), wk =   0.0370370
        k(   47) = (   0.3333333  -0.4784105   0.3332797), wk =   0.0370370
        k(   48) = (   0.3333333  -0.4784105  -0.4999195), wk =   0.0185185
        k(   49) = (  -0.5000000   0.0000000   0.0000000), wk =   0.0092593
        k(   50) = (  -0.5000000   0.0000000   0.1666398), wk =   0.0185185
        k(   51) = (  -0.5000000   0.0000000   0.3332797), wk =   0.0185185
        k(   52) = (  -0.5000000   0.0000000  -0.4999195), wk =   0.0092593
        k(   53) = (  -0.5000000   0.1594702   0.0000000), wk =   0.0185185
        k(   54) = (  -0.5000000   0.1594702   0.1666398), wk =   0.0370370
        k(   55) = (  -0.5000000   0.1594702   0.3332797), wk =   0.0370370
        k(   56) = (  -0.5000000   0.1594702  -0.4999195), wk =   0.0185185
        k(   57) = (  -0.5000000   0.3189403   0.0000000), wk =   0.0185185
        k(   58) = (  -0.5000000   0.3189403   0.1666398), wk =   0.0370370
        k(   59) = (  -0.5000000   0.3189403   0.3332797), wk =   0.0370370
        k(   60) = (  -0.5000000   0.3189403  -0.4999195), wk =   0.0185185
        k(   61) = (  -0.5000000  -0.4784105   0.0000000), wk =   0.0092593
        k(   62) = (  -0.5000000  -0.4784105   0.1666398), wk =   0.0185185
        k(   63) = (  -0.5000000  -0.4784105   0.3332797), wk =   0.0185185
        k(   64) = (  -0.5000000  -0.4784105  -0.4999195), wk =   0.0092593

     Dense  grid:   502657 G-vectors     FFT dimensions: ( 100, 108, 100)

     Estimated max dynamical RAM per process >       3.15 GB

     Estimated total dynamical RAM >     126.15 GB

     Initial potential from superposition of free atoms

     starting charge  367.99656, renormalised to  368.60000
     Starting wfc are  232 randomized atomic wfcs

     total cpu time spent up to now is       52.1 secs

     Self-consistent Calculation

     iteration #  1     ecut=   120.00 Ry     beta= 0.70
     Davidson diagonalization with overlap
     ethr =  1.00E-02,  avg # of iterations =  5.2

     total cpu time spent up to now is      235.1 secs

     total energy              =   -6253.43169328 Ry
     Harris-Foulkes estimate   =   -6264.29459792 Ry
     estimated scf accuracy    <      13.68337417 Ry

     iteration #  2     ecut=   120.00 Ry     beta= 0.70
     Davidson diagonalization with overlap
     ethr =  3.71E-03,  avg # of iterations =  3.7

     total cpu time spent up to now is      416.0 secs

     total energy              =   -6250.42179841 Ry
     Harris-Foulkes estimate   =   -6270.32981502 Ry
     estimated scf accuracy    <      52.91991001 Ry

     iteration #  3     ecut=   120.00 Ry     beta= 0.70
     Davidson diagonalization with overlap
     ethr =  3.71E-03,  avg # of iterations =  3.4

     total cpu time spent up to now is      582.6 secs

     total energy              =   -6260.68416308 Ry
     Harris-Foulkes estimate   =   -6260.95123876 Ry
     estimated scf accuracy    <       0.89971049 Ry

     iteration #  4     ecut=   120.00 Ry     beta= 0.70
     Davidson diagonalization with overlap
     ethr =  2.44E-04,  avg # of iterations =  3.2

     total cpu time spent up to now is      719.5 secs

     total energy              =   -6260.66680138 Ry
     Harris-Foulkes estimate   =   -6260.74556608 Ry
     estimated scf accuracy    <       0.22360477 Ry

     iteration #  5     ecut=   120.00 Ry     beta= 0.70
     Davidson diagonalization with overlap
     ethr =  6.07E-05,  avg # of iterations =  4.7

     total cpu time spent up to now is      869.2 secs

     total energy              =   -6260.67970555 Ry
     Harris-Foulkes estimate   =   -6260.70552871 Ry
     estimated scf accuracy    <       0.06032883 Ry

     iteration #  6     ecut=   120.00 Ry     beta= 0.70
     Davidson diagonalization with overlap
     ethr =  1.64E-05,  avg # of iterations =  5.2

     total cpu time spent up to now is     1022.7 secs

     total energy              =   -6260.69162564 Ry
     Harris-Foulkes estimate   =   -6260.69473404 Ry
     estimated scf accuracy    <       0.00796465 Ry

     iteration #  7     ecut=   120.00 Ry     beta= 0.70
     Davidson diagonalization with overlap
     ethr =  2.16E-06,  avg # of iterations =  5.9

     total cpu time spent up to now is     1172.1 secs

     total energy              =   -6260.69274525 Ry
     Harris-Foulkes estimate   =   -6260.69281101 Ry
     estimated scf accuracy    <       0.00010965 Ry

     iteration #  8     ecut=   120.00 Ry     beta= 0.70
     Davidson diagonalization with overlap
     ethr =  2.97E-08,  avg # of iterations =  3.6

     total cpu time spent up to now is     1359.5 secs

     total energy              =   -6260.69280786 Ry
     Harris-Foulkes estimate   =   -6260.69282157 Ry
     estimated scf accuracy    <       0.00006633 Ry

     iteration #  9     ecut=   120.00 Ry     beta= 0.70
     Davidson diagonalization with overlap
     ethr =  1.80E-08,  avg # of iterations =  1.0

     total cpu time spent up to now is     1484.7 secs

     total energy              =   -6260.69280104 Ry
     Harris-Foulkes estimate   =   -6260.69281102 Ry
     estimated scf accuracy    <       0.00002732 Ry

     iteration # 10     ecut=   120.00 Ry     beta= 0.70
     Davidson diagonalization with overlap
     ethr =  7.41E-09,  avg # of iterations =  2.1

     total cpu time spent up to now is     1616.5 secs

     total energy              =   -6260.69280477 Ry
     Harris-Foulkes estimate   =   -6260.69280522 Ry
     estimated scf accuracy    <       0.00000101 Ry

     iteration # 11     ecut=   120.00 Ry     beta= 0.70
     Davidson diagonalization with overlap
     ethr =  2.75E-10,  avg # of iterations =  3.0

     total cpu time spent up to now is     1783.9 secs

     total energy              =   -6260.69280503 Ry
     Harris-Foulkes estimate   =   -6260.69280513 Ry
     estimated scf accuracy    <       0.00000029 Ry

     iteration # 12     ecut=   120.00 Ry     beta= 0.70
     Davidson diagonalization with overlap
     ethr =  7.93E-11,  avg # of iterations =  2.1

     total cpu time spent up to now is     1919.6 secs

     total energy              =   -6260.69280500 Ry
     Harris-Foulkes estimate   =   -6260.69280505 Ry
     estimated scf accuracy    <       0.00000008 Ry

     iteration # 13     ecut=   120.00 Ry     beta= 0.70
     Davidson diagonalization with overlap
     ethr =  2.30E-11,  avg # of iterations =  2.7

     total cpu time spent up to now is     2085.2 secs

     End of self-consistent calculation

          k = 0.0000 0.0000 0.0000 ( 62863 PWs)   bands (ev):

   -66.1963 -66.1959 -66.1954 -66.1954 -66.1950 -66.1950 -66.1945 -66.1941
   -30.6274 -30.6238 -30.6237 -30.6201 -30.5643 -30.5608 -30.5606 -30.5573
   -30.5336 -30.5331 -30.5301 -30.5285 -30.5283 -30.5280 -30.5251 -30.5239
   -30.4366 -30.4360 -30.4337 -30.4329 -30.4324 -30.4317 -30.4294 -30.4286
   -20.3489 -20.3487 -20.3485 -20.3483 -20.3480 -20.3479 -20.3479 -20.3478
   -20.3478 -20.3478 -20.3476 -20.3476 -20.3430 -20.3426 -20.3426 -20.3422
   -20.3382 -20.3382 -20.3381 -20.3380 -20.3370 -20.3369 -20.3368 -20.3368
   -20.3352 -20.3352 -20.3351 -20.3350 -20.3341 -20.3339 -20.3338 -20.3338
   -20.3252 -20.3251 -20.3246 -20.3246 -20.3245 -20.3245 -20.3240 -20.3239
   -20.2973 -20.2972 -20.2970 -20.2970 -20.2957 -20.2957 -20.2955 -20.2955
   -20.2914 -20.2914 -20.2912 -20.2912 -20.2899 -20.2899 -20.2897 -20.2896
   -10.0422  -9.7428  -9.6395  -9.6394  -9.3466  -9.3451  -9.2514  -9.1338
    -9.1187  -9.0314  -9.0027  -9.0023  -7.9660  -7.9088  -7.9078  -7.8580
    -7.8406  -7.8397  -7.8109  -7.8108  -7.7227  -7.7219  -7.6974  -7.6969
     1.0821   1.0841   1.1527   1.1543   1.1887   1.1919   1.2041   1.4238
     1.4551   1.4573   1.4902   1.6988   2.3573   2.4412   2.4583   2.4595
     2.5952   2.5973   4.0997   4.1035   4.2945   4.3008   4.6806   4.6887
     4.6964   4.6990   4.7329   4.7331   4.8478   4.8479   4.9727   5.3518
     5.3596   5.3611   5.3649   5.4481   5.4526   5.4621   5.4648   5.7244
     5.7248   5.7532   5.7579   5.7815   5.8579   6.0241   6.0264   6.0288
     6.0296   6.2130   6.2145   6.3974   6.3981   6.7240   6.7291   6.7509
     6.7722   6.7755   6.9295   6.9430   6.9886   6.9915   7.2475   7.2511
     7.2672   7.2704   7.8439   7.8573   7.9800   7.9860   8.0473   8.0533
     9.1401   9.1480   9.7436   9.7450   9.7530   9.7550  12.2303  12.2313
    12.2669  12.2734  12.3198  12.3244  12.4219  12.4258  12.9418  12.9989
    13.0735  13.1198  13.2130  13.2179  13.7734  14.0240  14.0538  14.0645
    14.0817  14.2795  14.3165  14.7071  15.2250  15.2356  15.4397  15.9470
    15.9514  16.7983  16.9892  16.9941  17.1520

          k = 0.0000 0.0000 0.1666 ( 62861 PWs)   bands (ev):

   -66.1962 -66.1958 -66.1955 -66.1953 -66.1950 -66.1949 -66.1945 -66.1941
   -30.6272 -30.6240 -30.6235 -30.6204 -30.5642 -30.5611 -30.5606 -30.5575
   -30.5327 -30.5291 -30.5283 -30.5262 -30.5242 -30.5236 -30.5217 -30.5187
   -30.4431 -30.4402 -30.4388 -30.4359 -30.4357 -30.4326 -30.4319 -30.4289
   -20.3489 -20.3486 -20.3486 -20.3483 -20.3480 -20.3479 -20.3479 -20.3478
   -20.3478 -20.3478 -20.3476 -20.3476 -20.3430 -20.3427 -20.3426 -20.3423
   -20.3382 -20.3380 -20.3380 -20.3379 -20.3369 -20.3368 -20.3368 -20.3367
   -20.3354 -20.3353 -20.3352 -20.3350 -20.3342 -20.3340 -20.3339 -20.3338
   -20.3251 -20.3250 -20.3247 -20.3246 -20.3245 -20.3244 -20.3241 -20.3240
   -20.2970 -20.2970 -20.2968 -20.2968 -20.2956 -20.2956 -20.2953 -20.2953
   -20.2918 -20.2918 -20.2911 -20.2911 -20.2903 -20.2903 -20.2898 -20.2898
    -9.9976  -9.6898  -9.6541  -9.5822  -9.3570  -9.2594  -9.2565  -9.0974
    -9.0771  -9.0159  -9.0059  -8.9679  -7.9682  -7.9644  -7.9465  -7.9124
    -7.8986  -7.8612  -7.8547  -7.8327  -7.8296  -7.8033  -7.7296  -7.7044
     1.1504   1.1552   1.1720   1.1967   1.2790   1.3046   1.4180   1.4525
     1.4532   1.5688   1.6690   1.8277   2.4427   2.4668   2.5302   2.5461
     2.5867   2.6839   4.0279   4.1048   4.2688   4.2873   4.3176   4.3701
     4.4907   4.6161   4.6753   4.7692   4.7851   4.8414   4.9568   5.1901
     5.2106   5.3394   5.3435   5.4450   5.4809   5.4826   5.4886   5.5047
     5.6327   5.7000   5.7489   5.7733   5.8705   5.9721   6.0297   6.0807
     6.2194   6.3691   6.3879   6.4298   6.5864   6.6222   6.6879   6.6951
     6.7458   6.7685   6.8724   6.8844   6.9378   6.9990   7.0116   7.0190
     7.0750   7.1165   7.8354   7.8389   7.9443   8.0016   8.0070   8.0482
     9.4992   9.5146   9.7454   9.7516  10.0223  10.0488  12.1591  12.2041
    12.2164  12.3002  12.3178  12.3524  12.4272  12.5149  12.8457  12.9260
    12.9701  13.1329  13.1924  13.2140  13.8816  13.9072  13.9314  14.0225
    14.0926  14.3120  14.4209  14.8179  15.2760  15.3070  15.4064  15.9242
    16.2849  16.6919  16.9734  17.1816  17.2406

          k = 0.0000 0.0000 0.3333 ( 62760 PWs)   bands (ev):

   -66.1961 -66.1956 -66.1956 -66.1952 -66.1952 -66.1947 -66.1947 -66.1943
   -30.6267 -30.6248 -30.6230 -30.6212 -30.5637 -30.5619 -30.5602 -30.5583
   -30.5318 -30.5292 -30.5277 -30.5252 -30.5089 -30.5060 -30.5041 -30.5012
   -30.4608 -30.4579 -30.4563 -30.4534 -30.4349 -30.4327 -30.4318 -30.4297
   -20.3489 -20.3487 -20.3486 -20.3484 -20.3480 -20.3479 -20.3479 -20.3478
   -20.3478 -20.3478 -20.3476 -20.3476 -20.3430 -20.3428 -20.3426 -20.3424
   -20.3381 -20.3380 -20.3375 -20.3373 -20.3369 -20.3367 -20.3363 -20.3362
   -20.3359 -20.3358 -20.3353 -20.3349 -20.3348 -20.3344 -20.3339 -20.3338
   -20.3250 -20.3249 -20.3247 -20.3246 -20.3244 -20.3243 -20.3241 -20.3240
   -20.2966 -20.2966 -20.2959 -20.2959 -20.2959 -20.2958 -20.2943 -20.2943
   -20.2929 -20.2929 -20.2914 -20.2914 -20.2908 -20.2908 -20.2900 -20.2900
    -9.8910  -9.6996  -9.5699  -9.4531  -9.3939  -9.2863  -9.0494  -9.0160
    -8.9995  -8.9280  -8.8965  -8.8349  -8.2717  -8.2674  -8.1944  -8.1818
    -7.9452  -7.9219  -7.8933  -7.8700  -7.8088  -7.7821  -7.7506  -7.7250
     1.1577   1.1628   1.2091   1.2249   1.3752   1.4023   1.4052   1.4451
     2.1611   2.2029   2.3338   2.4111   2.4904   2.5722   2.6901   2.7855
     2.7907   2.9199   3.6744   3.7370   3.7719   3.9188   4.0017   4.1970
     4.2461   4.3944   4.4600   4.6457   4.6513   4.6967   4.8373   4.9026
     5.0237   5.0244   5.0493   5.2464   5.2946   5.3786   5.5465   5.5671
     5.6436   5.6535   5.7192   5.8307   5.8994   6.0710   6.1693   6.2011
     6.2169   6.2773   6.3537   6.4282   6.4366   6.4645   6.5416   6.6528
     6.7436   6.7637   6.7775   6.8818   6.9458   6.9598   6.9935   7.0345
     7.1819   7.2246   7.7164   7.7457   7.8201   7.8598   8.0345   8.0497
     9.7400   9.7479  10.2333  10.2861  10.6713  10.7426  11.7507  11.7889
    12.0019  12.3123  12.4323  12.4669  12.4853  12.5205  12.6003  12.7665
    12.9262  13.0473  13.0698  13.2252  13.5617  13.5888  13.9974  14.0183
    14.1864  14.2974  14.7673  15.1120  15.2987  15.4668  15.7554  15.8394
    16.1233  17.1816  17.2705  17.5296  17.7652

          k = 0.0000 0.0000-0.4999 ( 62832 PWs)   bands (ev):

   -66.1959 -66.1958 -66.1954 -66.1954 -66.1949 -66.1949 -66.1945 -66.1945
   -30.6258 -30.6258 -30.6222 -30.6222 -30.5629 -30.5629 -30.5593 -30.5593
   -30.5305 -30.5305 -30.5264 -30.5264 -30.4849 -30.4849 -30.4820 -30.4820
   -30.4803 -30.4802 -30.4773 -30.4773 -30.4338 -30.4338 -30.4308 -30.4308
   -20.3488 -20.3488 -20.3485 -20.3485 -20.3480 -20.3480 -20.3479 -20.3479
   -20.3478 -20.3478 -20.3476 -20.3476 -20.3429 -20.3429 -20.3425 -20.3425
   -20.3381 -20.3380 -20.3371 -20.3371 -20.3366 -20.3366 -20.3364 -20.3364
   -20.3357 -20.3357 -20.3355 -20.3355 -20.3348 -20.3348 -20.3338 -20.3338
   -20.3249 -20.3249 -20.3248 -20.3248 -20.3243 -20.3243 -20.3242 -20.3242
   -20.2963 -20.2962 -20.2962 -20.2962 -20.2944 -20.2944 -20.2944 -20.2944
   -20.2929 -20.2929 -20.2929 -20.2929 -20.2904 -20.2904 -20.2904 -20.2904
    -9.7799  -9.7798  -9.4618  -9.4618  -9.3445  -9.3445  -9.0302  -9.0302
    -8.6398  -8.6398  -8.6235  -8.6235  -8.6181  -8.6181  -8.5558  -8.5558
    -7.9346  -7.9346  -7.8819  -7.8819  -7.7795  -7.7795  -7.7533  -7.7533
     1.1610   1.1610   1.2231   1.2231   1.3917   1.3917   1.4345   1.4345
     2.5213   2.5213   2.9201   2.9201   3.0366   3.0366   3.0657   3.0657
     3.1885   3.1885   3.2561   3.2561   3.3514   3.3514   3.6612   3.6612
     3.7306   3.7306   4.3422   4.3422   4.6009   4.6009   4.8123   4.8123
     5.1144   5.1144   5.1789   5.1789   5.2114   5.2114   5.6147   5.6147
     5.6469   5.6469   5.8369   5.8369   6.0258   6.0258   6.1232   6.1232
     6.2172   6.2172   6.2957   6.2957   6.3661   6.3661   6.4513   6.4513
     6.7075   6.7075   6.7621   6.7621   6.9778   6.9778   7.4120   7.4120
     7.4818   7.4818   7.5782   7.5782   7.5949   7.5949   8.0478   8.0478
     9.7434   9.7434  11.0457  11.0457  11.1012  11.1012  11.4152  11.4152
    11.5603  11.5603  12.4636  12.4636  12.7005  12.7005  12.7668  12.7668
    12.8256  12.8256  13.1508  13.1508  13.2952  13.2952  14.0126  14.0126
    14.2657  14.2657  15.0923  15.0923  15.5609  15.5609  15.6872  15.6872
    16.5483  16.5483  17.6961  17.6961  17.8412

          k = 0.0000 0.1595 0.0000 ( 62809 PWs)   bands (ev):

   -66.1963 -66.1959 -66.1954 -66.1954 -66.1950 -66.1950 -66.1945 -66.1941
   -30.6232 -30.6195 -30.6195 -30.6159 -30.5685 -30.5650 -30.5648 -30.5615
   -30.5334 -30.5328 -30.5303 -30.5289 -30.5281 -30.5277 -30.5253 -30.5242
   -30.4364 -30.4358 -30.4339 -30.4331 -30.4322 -30.4315 -30.4296 -30.4288
   -20.3486 -20.3484 -20.3482 -20.3480 -20.3480 -20.3479 -20.3479 -20.3478
   -20.3478 -20.3477 -20.3476 -20.3474 -20.3434 -20.3431 -20.3430 -20.3426
   -20.3381 -20.3381 -20.3380 -20.3379 -20.3371 -20.3370 -20.3369 -20.3369
   -20.3351 -20.3351 -20.3350 -20.3350 -20.3341 -20.3340 -20.3339 -20.3338
   -20.3252 -20.3251 -20.3246 -20.3246 -20.3246 -20.3245 -20.3240 -20.3239
   -20.2973 -20.2973 -20.2970 -20.2970 -20.2957 -20.2957 -20.2955 -20.2955
   -20.2914 -20.2914 -20.2912 -20.2912 -20.2899 -20.2899 -20.2897 -20.2896
   -10.0105  -9.7543  -9.5994  -9.5992  -9.3541  -9.3526  -9.1746  -9.1328
    -9.1197  -8.9848  -8.9648  -8.9645  -8.0667  -8.0145  -8.0137  -7.9707
    -7.8387  -7.8383  -7.8130  -7.8128  -7.7210  -7.7204  -7.6992  -7.6986
     1.0822   1.0839   1.1727   1.1749   1.1888   1.1920   1.3400   1.4897
     1.6237   1.6846   1.6863   1.8600   2.3627   2.4354   2.5315   2.5330
     2.6653   2.6677   3.9545   3.9591   4.0181   4.0234   4.6854   4.6973
     4.7019   4.7258   4.7291   4.7506   4.7914   4.8075   4.8077   5.1602
     5.1633   5.3079   5.3085   5.4998   5.5232   5.5251   5.5729   5.5793
     5.6629   5.6645   5.8223   5.8368   5.8394   6.0117   6.0118   6.0420
     6.0436   6.1995   6.2037   6.4210   6.4233   6.7361   6.7399   6.7462
     6.7633   6.7976   6.7989   6.8941   6.8953   6.9190   7.2530   7.2560
     7.2680   7.2705   7.8476   7.8566   7.9388   7.9437   7.9698   7.9741
     9.1411   9.1476   9.9480   9.9484   9.9618   9.9619  12.0976  12.1052
    12.2574  12.2610  12.2783  12.2817  12.3193  12.3223  12.9574  13.0055
    13.1043  13.1437  13.2217  13.2260  13.9236  13.9489  13.9496  13.9655
    14.1567  14.5574  14.5699  14.8790  15.2253  15.2343  15.8495  15.9146
    15.9186  16.4643  17.1309  17.1358  17.3898

          k = 0.0000 0.1595 0.1666 ( 62832 PWs)   bands (ev):

   -66.1962 -66.1958 -66.1954 -66.1953 -66.1950 -66.1949 -66.1945 -66.1941
   -30.6230 -30.6198 -30.6193 -30.6162 -30.5684 -30.5653 -30.5648 -30.5618
   -30.5325 -30.5293 -30.5281 -30.5262 -30.5246 -30.5239 -30.5215 -30.5189
   -30.4429 -30.4404 -30.4386 -30.4361 -30.4355 -30.4328 -30.4317 -30.4291
   -20.3486 -20.3484 -20.3482 -20.3480 -20.3480 -20.3479 -20.3479 -20.3478
   -20.3478 -20.3477 -20.3476 -20.3475 -20.3434 -20.3431 -20.3430 -20.3427
   -20.3381 -20.3379 -20.3379 -20.3378 -20.3369 -20.3369 -20.3369 -20.3368
   -20.3353 -20.3353 -20.3351 -20.3350 -20.3343 -20.3341 -20.3340 -20.3339
   -20.3251 -20.3250 -20.3247 -20.3246 -20.3245 -20.3244 -20.3241 -20.3240
   -20.2970 -20.2970 -20.2968 -20.2968 -20.2956 -20.2956 -20.2953 -20.2953
   -20.2918 -20.2918 -20.2911 -20.2911 -20.2903 -20.2903 -20.2898 -20.2898
    -9.9646  -9.7013  -9.6139  -9.5371  -9.3647  -9.2640  -9.1826  -9.0946
    -9.0782  -8.9725  -8.9681  -8.9350  -8.0664  -8.0246  -8.0125  -7.9776
    -7.9625  -7.9349  -7.8531  -7.8322  -7.8278  -7.8052  -7.7281  -7.7061
     1.1670   1.1721   1.1783   1.1967   1.3973   1.4416   1.4525   1.6297
     1.6683   1.6825   1.7199   1.9316   2.4491   2.5235   2.5401   2.6212
     2.6576   2.7541   3.9247   3.9755   4.0116   4.0562   4.3010   4.3680
     4.5368   4.5516   4.6696   4.7614   4.7662   4.7941   4.8200   5.1083
     5.1242   5.1829   5.2149   5.3277   5.4313   5.4826   5.5260   5.6173
     5.6214   5.6789   5.7483   5.7698   5.8093   6.0115   6.0292   6.0777
     6.1390   6.3527   6.3988   6.4127   6.6011   6.6897   6.6937   6.6989
     6.7326   6.8057   6.8511   6.8754   6.8959   6.9040   7.0127   7.0181
     7.0871   7.1177   7.8371   7.8397   7.9034   7.9334   7.9456   7.9711
     9.5043   9.5153   9.9502   9.9620  10.1986  10.2078  12.0851  12.1726
    12.1769  12.2041  12.2632  12.2915  12.3325  12.4116  12.8832  12.9306
    12.9904  13.1487  13.1954  13.2203  13.7992  13.8319  13.9322  13.9477
    14.2698  14.5654  14.7251  14.9755  15.2755  15.3080  15.8165  15.8918
    16.2504  16.6172  16.8195  17.3016  17.4625

          k = 0.0000 0.1595 0.3333 ( 62795 PWs)   bands (ev):

   -66.1960 -66.1957 -66.1956 -66.1952 -66.1951 -66.1948 -66.1947 -66.1943
   -30.6225 -30.6206 -30.6188 -30.6170 -30.5679 -30.5661 -30.5644 -30.5625
   -30.5315 -30.5290 -30.5280 -30.5255 -30.5088 -30.5062 -30.5040 -30.5014
   -30.4606 -30.4581 -30.4562 -30.4536 -30.4347 -30.4325 -30.4321 -30.4299
   -20.3485 -20.3483 -20.3483 -20.3481 -20.3480 -20.3479 -20.3479 -20.3478
   -20.3478 -20.3477 -20.3475 -20.3475 -20.3434 -20.3432 -20.3430 -20.3428
   -20.3380 -20.3379 -20.3374 -20.3372 -20.3369 -20.3368 -20.3364 -20.3363
   -20.3358 -20.3357 -20.3353 -20.3349 -20.3348 -20.3345 -20.3340 -20.3339
   -20.3250 -20.3249 -20.3247 -20.3246 -20.3244 -20.3243 -20.3241 -20.3241
   -20.2966 -20.2966 -20.2959 -20.2959 -20.2959 -20.2958 -20.2943 -20.2943
   -20.2929 -20.2929 -20.2914 -20.2914 -20.2908 -20.2908 -20.2900 -20.2900
    -9.8549  -9.6598  -9.5809  -9.4022  -9.3934  -9.2101  -9.0224  -9.0075
    -8.9782  -8.9299  -8.8804  -8.8166  -8.2748  -8.2696  -8.2114  -8.1797
    -8.0413  -8.0218  -7.9977  -7.9718  -7.8073  -7.7840  -7.7491  -7.7267
     1.1873   1.2022   1.2091   1.2250   1.5801   1.5928   1.6628   1.6795
     2.1598   2.2126   2.3348   2.4274   2.5629   2.6379   2.7001   2.7870
     2.8626   2.9842   3.6744   3.7487   3.7668   3.8637   4.0269   4.0589
     4.0659   4.2101   4.4778   4.6191   4.6503   4.6697   4.7025   4.7418
     4.8667   5.0066   5.0179   5.0374   5.2389   5.2588   5.3957   5.5199
     5.5868   5.6558   5.7033   5.7845   5.8478   6.0359   6.1027   6.1972
     6.2143   6.3785   6.4275   6.4440   6.5364   6.5617   6.6091   6.7003
     6.7231   6.7346   6.8204   6.8577   6.8939   6.9242   6.9941   7.0243
     7.1773   7.2214   7.7203   7.7434   7.7865   7.8040   7.9642   7.9733
     9.9489   9.9564  10.2422  10.2880  10.7913  10.8415  11.7524  11.7872
    11.9713  12.2712  12.3599  12.4040  12.4296  12.4980  12.5320  12.6599
    12.9292  13.0569  13.0784  13.2214  13.4537  13.4926  13.9363  13.9442
    14.4549  14.5525  15.1210  15.2487  15.4566  15.7086  15.7793  15.8090
    16.2511  17.0563  17.1387  17.3317  17.7254

          k = 0.0000 0.1595-0.4999 ( 62790 PWs)   bands (ev):

   -66.1958 -66.1958 -66.1954 -66.1954 -66.1949 -66.1949 -66.1945 -66.1945
   -30.6216 -30.6216 -30.6180 -30.6180 -30.5671 -30.5670 -30.5635 -30.5635
   -30.5303 -30.5303 -30.5268 -30.5268 -30.4847 -30.4847 -30.4822 -30.4822
   -30.4801 -30.4801 -30.4775 -30.4775 -30.4336 -30.4336 -30.4310 -30.4310
   -20.3484 -20.3484 -20.3482 -20.3482 -20.3480 -20.3480 -20.3479 -20.3479
   -20.3478 -20.3477 -20.3475 -20.3475 -20.3433 -20.3433 -20.3429 -20.3429
   -20.3380 -20.3380 -20.3371 -20.3370 -20.3365 -20.3365 -20.3364 -20.3364
   -20.3358 -20.3357 -20.3355 -20.3355 -20.3348 -20.3348 -20.3339 -20.3339
   -20.3249 -20.3249 -20.3248 -20.3248 -20.3243 -20.3243 -20.3242 -20.3242
   -20.2963 -20.2962 -20.2962 -20.2962 -20.2944 -20.2944 -20.2944 -20.2944
   -20.2929 -20.2929 -20.2929 -20.2929 -20.2904 -20.2904 -20.2904 -20.2904
    -9.7412  -9.7412  -9.4713  -9.4713  -9.2720  -9.2720  -8.9938  -8.9938
    -8.6439  -8.6439  -8.6273  -8.6273  -8.6192  -8.6192  -8.5501  -8.5501
    -8.0345  -8.0345  -7.9870  -7.9870  -7.7780  -7.7780  -7.7552  -7.7552
     1.1981   1.1981   1.2231   1.2231   1.5981   1.5981   1.6783   1.6783
     2.5915   2.5915   2.9377   2.9377   3.0583   3.0583   3.0838   3.0838
     3.1954   3.1954   3.2526   3.2526   3.3417   3.3417   3.6736   3.6736
     3.7796   3.7796   4.1280   4.1280   4.5383   4.5383   4.6266   4.6266
     4.9235   4.9235   5.1498   5.1498   5.2013   5.2013   5.3685   5.3685
     5.5939   5.5939   5.7504   5.7504   6.0390   6.0390   6.2019   6.2019
     6.2360   6.2360   6.3215   6.3215   6.4364   6.4364   6.5610   6.5610
     6.7636   6.7636   6.7705   6.7705   6.8793   6.8793   7.4246   7.4246
     7.4763   7.4763   7.5523   7.5523   7.5697   7.5697   7.9729   7.9729
     9.9544   9.9544  11.0514  11.0514  11.0998  11.0999  11.4859  11.4859
    11.6248  11.6248  12.3131  12.3131  12.6710  12.6710  12.7683  12.7683
    12.7794  12.7794  13.0496  13.0496  13.2554  13.2555  13.9395  13.9395
    14.5256  14.5257  15.4710  15.4710  15.6634  15.6634  15.7069  15.7069
    16.5978  16.5978  17.4897  17.4897  17.8610

          k = 0.0000 0.3189 0.0000 ( 62831 PWs)   bands (ev):

   -66.1962 -66.1960 -66.1953 -66.1953 -66.1951 -66.1951 -66.1944 -66.1942
   -30.6116 -30.6080 -30.6079 -30.6045 -30.5799 -30.5765 -30.5764 -30.5731
   -30.5329 -30.5322 -30.5308 -30.5298 -30.5276 -30.5270 -30.5260 -30.5250
   -30.4359 -30.4352 -30.4344 -30.4337 -30.4317 -30.4310 -30.4300 -30.4293
   -20.3481 -20.3480 -20.3480 -20.3479 -20.3479 -20.3479 -20.3478 -20.3478
   -20.3473 -20.3470 -20.3469 -20.3466 -20.3445 -20.3441 -20.3441 -20.3437
   -20.3379 -20.3379 -20.3378 -20.3377 -20.3373 -20.3372 -20.3372 -20.3371
   -20.3350 -20.3348 -20.3348 -20.3348 -20.3344 -20.3342 -20.3341 -20.3341
   -20.3251 -20.3251 -20.3246 -20.3246 -20.3245 -20.3245 -20.3240 -20.3240
   -20.2973 -20.2973 -20.2970 -20.2970 -20.2957 -20.2957 -20.2955 -20.2955
   -20.2914 -20.2914 -20.2912 -20.2912 -20.2899 -20.2899 -20.2897 -20.2896
    -9.9340  -9.7899  -9.5092  -9.5087  -9.3786  -9.3773  -9.1301  -9.1225
    -8.9572  -8.8383  -8.8334  -8.8332  -8.3226  -8.2799  -8.2792  -8.2559
    -7.8334  -7.8332  -7.8185  -7.8183  -7.7165  -7.7160  -7.7039  -7.7033
     1.0826   1.0835   1.1851   1.1879   1.1889   1.1920   1.4533   1.4874
     2.2207   2.3559   2.3583   2.3777   2.4197   2.5113   2.7471   2.7505
     2.8703   2.8747   3.5367   3.5421   3.5880   3.5938   4.0406   4.3434
     4.3474   4.6071   4.7036   4.7090   4.7285   4.7340   4.8814   4.8853
     4.9247   4.9283   5.2174   5.2198   5.4598   5.4600   5.5812   5.5835
     5.7999   5.8009   5.8373   5.8394   5.9402   5.9913   5.9921   6.0641
     6.0653   6.1511   6.1584   6.4119   6.4888   6.4912   6.7307   6.7328
     6.7980   6.8876   6.9943   6.9952   7.0038   7.0039   7.2597   7.2601
     7.2721   7.2724   7.7374   7.7399   7.7593   7.7618   7.8526   7.8561
     9.1428   9.1464  10.4527  10.4566  10.5030  10.5052  11.6933  11.7010
    11.8056  11.8092  12.2985  12.3027  12.3168  12.3197  12.9859  13.0090
    13.2180  13.2384  13.2951  13.2993  13.6979  13.6987  13.7229  13.7295
    14.7352  15.1251  15.1282  15.2264  15.2313  15.5131  15.8043  15.8071
    15.8871  16.8699  17.1317  17.6141  17.6184

          k = 0.0000 0.3189 0.1666 ( 62823 PWs)   bands (ev):

   -66.1961 -66.1959 -66.1953 -66.1952 -66.1951 -66.1950 -66.1944 -66.1942
   -30.6115 -30.6083 -30.6078 -30.6048 -30.5798 -30.5768 -30.5763 -30.5734
   -30.5318 -30.5299 -30.5274 -30.5259 -30.5254 -30.5245 -30.5210 -30.5195
   -30.4424 -30.4409 -30.4381 -30.4366 -30.4349 -30.4334 -30.4312 -30.4297
   -20.3481 -20.3480 -20.3480 -20.3479 -20.3479 -20.3479 -20.3478 -20.3478
   -20.3473 -20.3470 -20.3469 -20.3467 -20.3445 -20.3442 -20.3441 -20.3438
   -20.3378 -20.3377 -20.3377 -20.3376 -20.3371 -20.3371 -20.3371 -20.3370
   -20.3352 -20.3350 -20.3349 -20.3348 -20.3346 -20.3343 -20.3342 -20.3341
   -20.3251 -20.3250 -20.3246 -20.3246 -20.3245 -20.3244 -20.3240 -20.3240
   -20.2970 -20.2970 -20.2968 -20.2968 -20.2956 -20.2956 -20.2953 -20.2953
   -20.2918 -20.2918 -20.2911 -20.2911 -20.2903 -20.2903 -20.2898 -20.2898
    -9.8851  -9.7371  -9.5233  -9.4343  -9.3900  -9.2894  -9.0900  -9.0811
    -8.9650  -8.8373  -8.8311  -8.8161  -8.3228  -8.2868  -8.2760  -8.2616
    -7.9576  -7.9435  -7.8486  -7.8363  -7.8238  -7.8104  -7.7236  -7.7109
     1.1718   1.1723   1.1923   1.1967   1.4421   1.4521   1.6198   1.6655
     2.2226   2.3402   2.3582   2.4641   2.5070   2.5076   2.7547   2.8489
     2.8633   2.9668   3.5435   3.5824   3.5848   3.6329   4.0332   4.3094
     4.3246   4.3598   4.3892   4.6106   4.6118   4.7075   4.7650   4.7793
     4.8855   4.9395   5.0104   5.1783   5.2610   5.3239   5.4660   5.5446
     5.5830   5.6763   5.7180   5.7810   5.9775   6.0293   6.0527   6.0643
     6.1165   6.3492   6.3627   6.4764   6.4798   6.7193   6.7328   6.8106
     6.8565   6.8794   6.9622   6.9820   6.9918   6.9972   7.0174   7.0355
     7.1183   7.1294   7.7133   7.7308   7.7394   7.7484   7.8411   7.8431
     9.5108   9.5153  10.4616  10.5041  10.6358  10.6745  11.7001  11.7858
    11.8091  11.8868  12.1871  12.2008  12.3536  12.3750  12.9490  13.0194
    13.0287  13.2273  13.2296  13.2913  13.5407  13.5985  13.6987  13.7200
    14.8638  15.1201  15.2720  15.3180  15.3615  15.5825  15.7823  16.0447
    16.1312  16.8340  17.2067  17.2182  17.4808

          k = 0.0000 0.3189 0.3333 ( 62811 PWs)   bands (ev):

   -66.1960 -66.1957 -66.1955 -66.1953 -66.1951 -66.1948 -66.1946 -66.1944
   -30.6110 -30.6091 -30.6074 -30.6055 -30.5794 -30.5776 -30.5759 -30.5741
   -30.5308 -30.5289 -30.5283 -30.5263 -30.5083 -30.5068 -30.5035 -30.5020
   -30.4601 -30.4586 -30.4556 -30.4542 -30.4341 -30.4326 -30.4320 -30.4305
   -20.3480 -20.3480 -20.3480 -20.3479 -20.3479 -20.3479 -20.3479 -20.3478
   -20.3473 -20.3471 -20.3469 -20.3467 -20.3445 -20.3443 -20.3441 -20.3439
   -20.3378 -20.3377 -20.3373 -20.3371 -20.3371 -20.3369 -20.3366 -20.3365
   -20.3357 -20.3355 -20.3352 -20.3350 -20.3348 -20.3346 -20.3342 -20.3341
   -20.3250 -20.3249 -20.3247 -20.3247 -20.3244 -20.3243 -20.3241 -20.3241
   -20.2966 -20.2966 -20.2959 -20.2959 -20.2959 -20.2959 -20.2943 -20.2943
   -20.2929 -20.2929 -20.2914 -20.2914 -20.2908 -20.2908 -20.2900 -20.2900
    -9.7687  -9.6158  -9.5688  -9.4295  -9.2461  -9.0364  -8.9949  -8.9710
    -8.9356  -8.8495  -8.7920  -8.7421  -8.3612  -8.3492  -8.2796  -8.2673
    -8.2635  -8.2049  -8.1734  -8.1280  -7.8026  -7.7890  -7.7445  -7.7316
     1.2039   1.2091   1.2201   1.2249   2.0614   2.1479   2.1560   2.2366
     2.3315   2.3563   2.3867   2.6035   2.7231   2.7555   2.7756   2.8556
     3.0942   3.1831   3.5262   3.5553   3.6530   3.6798   3.7534   3.7645
     4.0123   4.1373   4.2387   4.2707   4.3711   4.4394   4.5290   4.6556
     4.6708   4.6934   4.8426   4.9086   5.0261   5.0559   5.0919   5.2007
     5.2553   5.4693   5.5226   5.7286   6.0590   6.0982   6.1313   6.2002
     6.2909   6.4449   6.5206   6.5239   6.5682   6.6878   6.7010   6.7232
     6.7975   6.8795   6.9213   6.9466   6.9654   7.0446   7.0653   7.0957
     7.1662   7.2128   7.6291   7.6337   7.7044   7.7422   7.7462   7.7834
    10.2575  10.2650  10.4805  10.5021  11.1222  11.1429  11.6852  11.7536
    11.7820  11.8400  12.0695  12.1316  12.4951  12.5166  12.5422  12.5560
    12.8781  13.0265  13.0959  13.2385  13.2881  13.3357  13.7004  13.7156
    14.9903  15.0959  15.4154  15.7070  15.7564  15.9238  15.9336  16.5331
    16.6537  16.7090  16.9886  17.4689  17.5588

          k = 0.0000 0.3189-0.4999 ( 62826 PWs)   bands (ev):

   -66.1957 -66.1957 -66.1955 -66.1955 -66.1948 -66.1948 -66.1946 -66.1946
   -30.6101 -30.6101 -30.6065 -30.6065 -30.5786 -30.5785 -30.5751 -30.5751
   -30.5296 -30.5296 -30.5276 -30.5276 -30.4842 -30.4842 -30.4827 -30.4827
   -30.4796 -30.4795 -30.4781 -30.4781 -30.4331 -30.4330 -30.4315 -30.4315
   -20.3480 -20.3480 -20.3480 -20.3480 -20.3479 -20.3479 -20.3479 -20.3479
   -20.3472 -20.3472 -20.3468 -20.3468 -20.3444 -20.3444 -20.3440 -20.3440
   -20.3377 -20.3377 -20.3372 -20.3372 -20.3364 -20.3364 -20.3362 -20.3362
   -20.3359 -20.3359 -20.3357 -20.3357 -20.3347 -20.3347 -20.3342 -20.3342
   -20.3248 -20.3248 -20.3248 -20.3248 -20.3242 -20.3242 -20.3242 -20.3242
   -20.2963 -20.2962 -20.2962 -20.2962 -20.2944 -20.2944 -20.2944 -20.2944
   -20.2929 -20.2929 -20.2929 -20.2929 -20.2904 -20.2904 -20.2904 -20.2904
    -9.6507  -9.6507  -9.5023  -9.5023  -9.0722  -9.0722  -8.8772  -8.8772
    -8.6709  -8.6709  -8.6579  -8.6579  -8.6008  -8.6008  -8.5278  -8.5278
    -8.2774  -8.2774  -8.2394  -8.2394  -7.7734  -7.7734  -7.7601  -7.7601
     1.2173   1.2173   1.2230   1.2230   2.2236   2.2236   2.3475   2.3475
     2.7944   2.7944   2.9869   2.9869   3.0340   3.0340   3.1774   3.1774
     3.2318   3.2318   3.2404   3.2404   3.3047   3.3047   3.5554   3.5554
     3.9111   3.9111   3.9646   3.9646   3.9990   3.9990   4.2333   4.2333
     4.6919   4.6919   4.7804   4.7804   4.9723   4.9723   5.1208   5.1208
     5.2908   5.2908   5.6224   5.6224   6.1885   6.1885   6.2375   6.2375
     6.3587   6.3587   6.3940   6.3940   6.4340   6.4340   6.6503   6.6503
     6.9364   6.9364   6.9519   6.9519   7.0038   7.0038   7.4182   7.4182
     7.4570   7.4570   7.4574   7.4574   7.5092   7.5092   7.7557   7.7558
    10.4819  10.4819  11.0634  11.0634  11.0968  11.0968  11.5931  11.5931
    11.8257  11.8257  11.9897  11.9897  12.5022  12.5022  12.5208  12.5208
    12.7995  12.7995  12.8824  12.8824  13.2826  13.2827  13.7078  13.7078
    15.0524  15.0524  15.5803  15.5804  16.1439  16.1439  16.4292  16.4292
    16.8060  16.8060  17.0930  17.0930  17.8827

          k = 0.0000-0.4784 0.0000 ( 62874 PWs)   bands (ev):

   -66.1961 -66.1961 -66.1952 -66.1952 -66.1952 -66.1952 -66.1943 -66.1943
   -30.5958 -30.5958 -30.5923 -30.5923 -30.5922 -30.5922 -30.5888 -30.5888
   -30.5322 -30.5322 -30.5307 -30.5307 -30.5268 -30.5268 -30.5261 -30.5261
   -30.4352 -30.4352 -30.4344 -30.4344 -30.4311 -30.4311 -30.4300 -30.4300
   -20.3480 -20.3480 -20.3479 -20.3479 -20.3479 -20.3479 -20.3478 -20.3478
   -20.3460 -20.3460 -20.3456 -20.3456 -20.3455 -20.3455 -20.3452 -20.3452
   -20.3377 -20.3377 -20.3375 -20.3375 -20.3374 -20.3374 -20.3373 -20.3373
   -20.3347 -20.3347 -20.3346 -20.3346 -20.3345 -20.3345 -20.3344 -20.3344
   -20.3251 -20.3251 -20.3246 -20.3246 -20.3245 -20.3245 -20.3240 -20.3240
   -20.2973 -20.2973 -20.2970 -20.2970 -20.2957 -20.2957 -20.2955 -20.2955
   -20.2914 -20.2914 -20.2912 -20.2912 -20.2899 -20.2899 -20.2896 -20.2896
    -9.8517  -9.8517  -9.4279  -9.4279  -9.4268  -9.4268  -9.1263  -9.1263
    -8.6442  -8.6442  -8.5894  -8.5894  -8.5889  -8.5889  -8.5863  -8.5863
    -7.8268  -7.8268  -7.8249  -7.8249  -7.7102  -7.7102  -7.7097  -7.7097
     1.0830   1.0830   1.1883   1.1883   1.1913   1.1913   1.4798   1.4798
     2.3985   2.3985   3.0604   3.0604   3.0928   3.0928   3.1419   3.1419
     3.1781   3.1781   3.1832   3.1832   3.3303   3.3303   3.3367   3.3367
     3.5149   3.5149   4.7144   4.7144   4.7194   4.7194   5.0559   5.0559
     5.0627   5.0628   5.1816   5.1816   5.1846   5.1846   5.6644   5.6644
     5.6669   5.6669   5.9480   5.9480   5.9535   5.9535   6.0912   6.0912
     6.1019   6.1019   6.1462   6.1462   6.5937   6.5937   6.5961   6.5961
     6.8434   6.8434   7.2544   7.2544   7.2568   7.2568   7.3820   7.3820
     7.3830   7.3830   7.4256   7.4256   7.4264   7.4264   7.8542   7.8542
     9.1447   9.1447  11.0943  11.0943  11.1008  11.1008  11.1715  11.1715
    11.1790  11.1790  12.3109  12.3109  12.3145  12.3145  13.0032  13.0032
    13.4215  13.4215  13.4363  13.4363  13.4725  13.4725  13.4772  13.4772
    15.2283  15.2283  15.2967  15.2967  15.5676  15.5676  15.5695  15.5695
    16.4248  16.4248  17.7238  17.7238  18.0621

          k = 0.0000-0.4784 0.1666 ( 62804 PWs)   bands (ev):

   -66.1960 -66.1960 -66.1952 -66.1952 -66.1951 -66.1951 -66.1943 -66.1943
   -30.5956 -30.5956 -30.5926 -30.5926 -30.5921 -30.5921 -30.5891 -30.5891
   -30.5308 -30.5308 -30.5264 -30.5264 -30.5252 -30.5252 -30.5203 -30.5203
   -30.4417 -30.4417 -30.4373 -30.4373 -30.4342 -30.4342 -30.4304 -30.4304
   -20.3480 -20.3480 -20.3479 -20.3479 -20.3479 -20.3479 -20.3478 -20.3478
   -20.3459 -20.3459 -20.3456 -20.3456 -20.3455 -20.3455 -20.3452 -20.3452
   -20.3375 -20.3375 -20.3374 -20.3374 -20.3374 -20.3374 -20.3373 -20.3373
   -20.3349 -20.3349 -20.3347 -20.3347 -20.3345 -20.3345 -20.3344 -20.3344
   -20.3251 -20.3251 -20.3246 -20.3246 -20.3245 -20.3245 -20.3240 -20.3240
   -20.2970 -20.2970 -20.2968 -20.2968 -20.2956 -20.2956 -20.2953 -20.2953
   -20.2918 -20.2918 -20.2911 -20.2911 -20.2903 -20.2903 -20.2898 -20.2898
    -9.8001  -9.8001  -9.4406  -9.4406  -9.3425  -9.3425  -9.0853  -9.0853
    -8.6499  -8.6499  -8.5946  -8.5946  -8.5848  -8.5848  -8.5820  -8.5820
    -7.9507  -7.9507  -7.8425  -7.8425  -7.8173  -7.8173  -7.7173  -7.7173
     1.1724   1.1724   1.1960   1.1960   1.4502   1.4502   1.6560   1.6560
     2.4863   2.4863   3.0701   3.0701   3.0980   3.0980   3.1396   3.1396
     3.1794   3.1794   3.2193   3.2193   3.3327   3.3327   3.3883   3.3884
     3.5470   3.5470   4.3458   4.3458   4.7642   4.7642   4.8198   4.8198
     4.9715   4.9715   5.0516   5.0516   5.1954   5.1954   5.3862   5.3862
     5.6399   5.6399   5.6906   5.6906   6.0474   6.0474   6.0564   6.0564
     6.2695   6.2695   6.3538   6.3538   6.5845   6.5845   6.7800   6.7800
     6.9051   6.9051   7.0132   7.0132   7.0774   7.0774   7.3682   7.3682
     7.3887   7.3887   7.4038   7.4038   7.4163   7.4163   7.8414   7.8414
     9.5141   9.5141  11.1054  11.1054  11.1715  11.1715  11.2206  11.2206
    11.2940  11.2940  12.1952  12.1952  12.3661  12.3661  13.0063  13.0063
    13.2415  13.2415  13.3467  13.3467  13.4474  13.4474  13.4706  13.4706
    15.2392  15.2392  15.4964  15.4964  15.5518  15.5518  15.8672  15.8672
    16.4946  16.4946  17.6981  17.6981  17.7656

          k = 0.0000-0.4784 0.3333 ( 62810 PWs)   bands (ev):

   -66.1959 -66.1959 -66.1954 -66.1954 -66.1949 -66.1949 -66.1945 -66.1945
   -30.5952 -30.5952 -30.5934 -30.5933 -30.5916 -30.5916 -30.5899 -30.5899
   -30.5299 -30.5299 -30.5273 -30.5273 -30.5076 -30.5076 -30.5027 -30.5027
   -30.4594 -30.4594 -30.4549 -30.4549 -30.4334 -30.4334 -30.4312 -30.4312
   -20.3480 -20.3480 -20.3479 -20.3479 -20.3479 -20.3479 -20.3478 -20.3478
   -20.3459 -20.3459 -20.3457 -20.3457 -20.3455 -20.3455 -20.3453 -20.3453
   -20.3375 -20.3375 -20.3374 -20.3374 -20.3369 -20.3369 -20.3367 -20.3367
   -20.3354 -20.3354 -20.3353 -20.3353 -20.3345 -20.3345 -20.3344 -20.3344
   -20.3250 -20.3250 -20.3247 -20.3247 -20.3244 -20.3244 -20.3241 -20.3241
   -20.2966 -20.2966 -20.2959 -20.2959 -20.2959 -20.2959 -20.2943 -20.2943
   -20.2929 -20.2929 -20.2914 -20.2914 -20.2908 -20.2908 -20.2900 -20.2900
    -9.6792  -9.6792  -9.4833  -9.4833  -9.1072  -9.1072  -8.9467  -8.9467
    -8.6812  -8.6812  -8.6154  -8.6154  -8.5741  -8.5741  -8.5548  -8.5548
    -8.2516  -8.2516  -8.1616  -8.1616  -7.7959  -7.7959  -7.7381  -7.7381
     1.2081   1.2081   1.2240   1.2240   2.1453   2.1453   2.3105   2.3105
     2.7413   2.7413   3.0794   3.0794   3.1116   3.1116   3.1345   3.1345
     3.1664   3.1664   3.2875   3.2875   3.3268   3.3268   3.5571   3.5571
     3.6300   3.6300   3.7483   3.7483   4.3294   4.3294   4.4811   4.4811
     4.6894   4.6894   4.7361   4.7361   5.0597   5.0597   5.0845   5.0845
     5.2463   5.2463   5.5553   5.5553   6.1014   6.1014   6.1898   6.1898
     6.4070   6.4070   6.5405   6.5405   6.5671   6.5671   6.7319   6.7319
     6.9165   6.9165   7.0673   7.0673   7.0926   7.0926   7.3421   7.3421
     7.3626   7.3626   7.3966   7.3966   7.4117   7.4117   7.7479   7.7479
    10.2674  10.2674  11.1193  11.1193  11.1549  11.1549  11.5915  11.5915
    11.6438  11.6438  11.7782  11.7782  12.5316  12.5316  12.6975  12.6975
    12.7672  12.7672  13.1329  13.1329  13.4442  13.4442  13.4668  13.4668
    15.2950  15.2950  15.4948  15.4948  16.0885  16.0885  16.6340  16.6340
    16.7542  16.7542  17.1869  17.1869  17.8727

          k = 0.0000-0.4784-0.4999 ( 62852 PWs)   bands (ev):

   -66.1956 -66.1956 -66.1956 -66.1956 -66.1947 -66.1947 -66.1947 -66.1947
   -30.5943 -30.5943 -30.5943 -30.5943 -30.5908 -30.5908 -30.5908 -30.5908
   -30.5286 -30.5286 -30.5286 -30.5286 -30.4835 -30.4835 -30.4835 -30.4835
   -30.4788 -30.4788 -30.4788 -30.4788 -30.4323 -30.4323 -30.4323 -30.4323
   -20.3480 -20.3479 -20.3479 -20.3479 -20.3479 -20.3479 -20.3479 -20.3479
   -20.3458 -20.3458 -20.3458 -20.3458 -20.3454 -20.3454 -20.3454 -20.3454
   -20.3374 -20.3374 -20.3374 -20.3374 -20.3361 -20.3361 -20.3361 -20.3361
   -20.3360 -20.3360 -20.3360 -20.3360 -20.3345 -20.3345 -20.3345 -20.3345
   -20.3248 -20.3248 -20.3248 -20.3248 -20.3242 -20.3242 -20.3242 -20.3242
   -20.2963 -20.2963 -20.2962 -20.2962 -20.2944 -20.2944 -20.2944 -20.2944
   -20.2929 -20.2929 -20.2929 -20.2929 -20.2904 -20.2904 -20.2904 -20.2904
    -9.5615  -9.5615  -9.5615  -9.5615  -8.8188  -8.8188  -8.8188  -8.8188
    -8.7194  -8.7194  -8.7194  -8.7194  -8.5168  -8.5168  -8.5168  -8.5168
    -8.4551  -8.4551  -8.4551  -8.4551  -7.7668  -7.7668  -7.7668  -7.7668
     1.2219   1.2219   1.2219   1.2219   2.9374   2.9374   2.9374   2.9374
     3.0536   3.0536   3.0536   3.0536   3.1207   3.1207   3.1207   3.1207
     3.1889   3.1889   3.1889   3.1889   3.3431   3.3431   3.3431   3.3431
     3.4840   3.4840   3.4840   3.4840   4.1665   4.1665   4.1665   4.1665
     4.2659   4.2659   4.2659   4.2659   5.0600   5.0600   5.0600   5.0600
     5.3923   5.3923   5.3923   5.3923   6.2333   6.2333   6.2333   6.2333
     6.4168   6.4168   6.4168   6.4168   6.5135   6.5135   6.5135   6.5135
     7.1999   7.1999   7.1999   7.1999   7.2633   7.2633   7.2633   7.2633
     7.3579   7.3579   7.3579   7.3579   7.5272   7.5272   7.5272   7.5272
    11.0464  11.0464  11.0464  11.0464  11.1709  11.1709  11.1709  11.1709
    12.1473  12.1473  12.1473  12.1473  12.1657  12.1657  12.1657  12.1657
    12.8216  12.8217  12.8217  12.8217  13.4542  13.4542  13.4542  13.4542
    15.4008  15.4008  15.4008  15.4008  16.6773  16.6773  16.6773  16.6773
    17.3493  17.3494  17.3494  17.3494  17.4798

          k = 0.1667 0.0000 0.0000 ( 62853 PWs)   bands (ev):

   -66.1962 -66.1958 -66.1955 -66.1953 -66.1950 -66.1949 -66.1945 -66.1941
   -30.6272 -30.6240 -30.6236 -30.6204 -30.5641 -30.5608 -30.5608 -30.5575
   -30.5331 -30.5298 -30.5286 -30.5263 -30.5255 -30.5225 -30.5213 -30.5176
   -30.4425 -30.4394 -30.4381 -30.4363 -30.4352 -30.4334 -30.4324 -30.4297
   -20.3489 -20.3487 -20.3485 -20.3483 -20.3480 -20.3479 -20.3479 -20.3478
   -20.3478 -20.3477 -20.3477 -20.3476 -20.3430 -20.3427 -20.3426 -20.3423
   -20.3382 -20.3381 -20.3380 -20.3377 -20.3371 -20.3369 -20.3366 -20.3366
   -20.3353 -20.3352 -20.3352 -20.3352 -20.3341 -20.3340 -20.3339 -20.3338
   -20.3251 -20.3250 -20.3246 -20.3246 -20.3245 -20.3245 -20.3241 -20.3240
   -20.2972 -20.2971 -20.2966 -20.2966 -20.2958 -20.2958 -20.2951 -20.2951
   -20.2916 -20.2916 -20.2913 -20.2913 -20.2901 -20.2901 -20.2900 -20.2899
    -9.9977  -9.6901  -9.6542  -9.5823  -9.3585  -9.2594  -9.2550  -9.0977
    -9.0769  -9.0155  -9.0064  -8.9674  -7.9752  -7.9540  -7.9476  -7.9114
    -7.9005  -7.8613  -7.8529  -7.8320  -7.8313  -7.8037  -7.7303  -7.7049
     1.1493   1.1537   1.1700   1.1935   1.2787   1.3050   1.4180   1.4510
     1.4553   1.5716   1.6709   1.8289   2.4422   2.4684   2.5299   2.5451
     2.5887   2.6822   4.0259   4.1077   4.2673   4.2823   4.3231   4.3702
     4.4882   4.6128   4.6844   4.7651   4.7884   4.8352   4.9530   5.1986
     5.2146   5.3256   5.3567   5.4425   5.4758   5.4862   5.4870   5.5075
     5.6326   5.7046   5.7459   5.7721   5.8737   5.9713   6.0285   6.0800
     6.2251   6.3677   6.3866   6.4243   6.5912   6.6245   6.6845   6.6890
     6.7533   6.7651   6.8673   6.8900   6.9372   6.9947   7.0142   7.0219
     7.0741   7.1137   7.8357   7.8388   7.9392   8.0016   8.0075   8.0540
     9.4990   9.5178   9.7437   9.7537  10.0214  10.0476  12.1706  12.1902
    12.2156  12.2950  12.3302  12.3472  12.4235  12.5180  12.8252  12.9172
    13.0447  13.0845  13.1953  13.2186  13.8364  13.9143  13.9929  14.0519
    14.0630  14.2747  14.4337  14.8183  15.2759  15.3050  15.4062  15.9198
    16.2887  16.6886  16.9727  17.1867  17.2406

          k = 0.1667 0.0000 0.1666 ( 62833 PWs)   bands (ev):

   -66.1962 -66.1957 -66.1954 -66.1954 -66.1950 -66.1950 -66.1946 -66.1942
   -30.6271 -30.6239 -30.6238 -30.6207 -30.5641 -30.5610 -30.5608 -30.5578
   -30.5267 -30.5261 -30.5233 -30.5228 -30.5219 -30.5211 -30.5190 -30.5179
   -30.4428 -30.4422 -30.4400 -30.4392 -30.4391 -30.4383 -30.4361 -30.4353
   -20.3489 -20.3487 -20.3486 -20.3483 -20.3480 -20.3479 -20.3479 -20.3478
   -20.3478 -20.3477 -20.3477 -20.3476 -20.3430 -20.3427 -20.3427 -20.3423
   -20.3380 -20.3380 -20.3379 -20.3377 -20.3369 -20.3367 -20.3366 -20.3366
   -20.3354 -20.3353 -20.3353 -20.3352 -20.3342 -20.3341 -20.3340 -20.3339
   -20.3251 -20.3250 -20.3246 -20.3246 -20.3245 -20.3244 -20.3241 -20.3240
   -20.2968 -20.2968 -20.2965 -20.2965 -20.2954 -20.2954 -20.2952 -20.2952
   -20.2917 -20.2917 -20.2915 -20.2915 -20.2904 -20.2904 -20.2902 -20.2902
    -9.9510  -9.6316  -9.5968  -9.5968  -9.2686  -9.2676  -9.2671  -9.0563
    -9.0407  -9.0071  -8.9719  -8.9713  -7.9762  -7.9576  -7.9500  -7.9404
    -7.9400  -7.9032  -7.9004  -7.8807  -7.8646  -7.8599  -7.8394  -7.8157
     1.2621   1.2999   1.2999   1.3468   1.3493   1.4120   1.4576   1.4604
     1.5707   1.5735   1.7588   1.9114   2.5275   2.5530   2.5543   2.6221
     2.6608   2.6925   4.0301   4.0350   4.2427   4.2436   4.3787   4.3791
     4.4334   4.4344   4.5216   4.5229   4.5843   4.6416   4.9388   5.1392
     5.1603   5.2128   5.2265   5.3887   5.3931   5.4800   5.4816   5.5900
     5.5904   5.6533   5.6547   5.6831   5.7348   5.8820   6.1827   6.3799
     6.3956   6.4285   6.4579   6.5660   6.5693   6.5841   6.5990   6.6252
     6.6265   6.6951   6.6987   6.7566   6.7961   6.8897   6.8901   6.9755
     7.1611   7.2011   7.8232   7.8241   7.9471   7.9841   8.0028   8.0079
     9.7303   9.7842  10.0022  10.0236  10.0244  10.1070  12.2136  12.2223
    12.2390  12.2449  12.2610  12.2940  12.5041  12.5076  12.8282  12.8471
    12.9289  13.0177  13.1002  13.2576  13.8676  13.8807  13.9050  13.9558
    14.0583  14.4139  14.4268  14.9387  15.3727  15.3845  15.3964  16.2528
    16.2565  16.8524  16.8549  17.1138  17.3283

          k = 0.1667 0.0000 0.3333 ( 62807 PWs)   bands (ev):

   -66.1960 -66.1956 -66.1956 -66.1952 -66.1951 -66.1948 -66.1948 -66.1943
   -30.6265 -30.6247 -30.6233 -30.6215 -30.5636 -30.5618 -30.5604 -30.5586
   -30.5252 -30.5227 -30.5214 -30.5189 -30.5086 -30.5057 -30.5044 -30.5015
   -30.4605 -30.4576 -30.4567 -30.4537 -30.4414 -30.4392 -30.4383 -30.4361
   -20.3489 -20.3487 -20.3486 -20.3484 -20.3480 -20.3479 -20.3479 -20.3478
   -20.3478 -20.3478 -20.3476 -20.3476 -20.3430 -20.3428 -20.3426 -20.3424
   -20.3379 -20.3378 -20.3375 -20.3373 -20.3367 -20.3365 -20.3364 -20.3362
   -20.3359 -20.3358 -20.3355 -20.3351 -20.3347 -20.3345 -20.3341 -20.3340
   -20.3250 -20.3249 -20.3247 -20.3246 -20.3244 -20.3243 -20.3242 -20.3241
   -20.2963 -20.2963 -20.2958 -20.2958 -20.2955 -20.2955 -20.2944 -20.2944
   -20.2928 -20.2928 -20.2915 -20.2915 -20.2912 -20.2912 -20.2905 -20.2905
    -9.8394  -9.6423  -9.4970  -9.4666  -9.3049  -9.2956  -9.0124  -9.0114
    -8.9817  -8.9062  -8.8895  -8.8405  -8.2638  -8.2592  -8.2087  -8.1924
    -7.9488  -7.9326  -7.9289  -7.8998  -7.8966  -7.8759  -7.8718  -7.8523
     1.2733   1.2898   1.3678   1.3987   1.4735   1.4827   1.5463   1.5790
     2.1666   2.2082   2.3251   2.4069   2.5750   2.6508   2.7829   2.7929
     2.8954   2.9289   3.7176   3.7521   3.8422   3.8910   3.9955   4.2186
     4.2235   4.3776   4.3993   4.4527   4.4586   4.6220   4.6434   4.7862
     4.8911   4.9171   4.9589   5.1091   5.1337   5.2655   5.4571   5.5185
     5.6292   5.6630   5.6662   5.7355   5.7402   5.8913   6.0198   6.0825
     6.3272   6.3277   6.4014   6.4498   6.4621   6.5702   6.5887   6.5920
     6.6522   6.7691   6.7835   6.7862   7.0210   7.0435   7.0722   7.0957
     7.1904   7.2501   7.7251   7.7424   7.8312   7.8618   7.9960   8.0050
    10.0117  10.0204  10.3736  10.4307  10.6761  10.7637  11.8079  11.8446
    12.0422  12.3117  12.3905  12.3914  12.4605  12.5050  12.6482  12.7449
    12.8122  12.9643  12.9906  13.1407  13.5448  13.5650  13.8859  13.9089
    14.2407  14.4038  14.7541  15.2526  15.2695  15.6920  15.8667  16.1621
    16.2624  17.1519  17.2791  17.3959  17.4973

          k = 0.1667 0.0000-0.4999 ( 62836 PWs)   bands (ev):

   -66.1958 -66.1958 -66.1954 -66.1953 -66.1950 -66.1950 -66.1946 -66.1946
   -30.6257 -30.6257 -30.6225 -30.6225 -30.5628 -30.5628 -30.5596 -30.5596
   -30.5239 -30.5239 -30.5201 -30.5201 -30.4846 -30.4846 -30.4817 -30.4816
   -30.4806 -30.4806 -30.4776 -30.4776 -30.4403 -30.4403 -30.4372 -30.4372
   -20.3488 -20.3488 -20.3485 -20.3485 -20.3480 -20.3480 -20.3479 -20.3479
   -20.3478 -20.3478 -20.3476 -20.3476 -20.3429 -20.3429 -20.3426 -20.3426
   -20.3379 -20.3378 -20.3369 -20.3369 -20.3366 -20.3366 -20.3363 -20.3363
   -20.3358 -20.3358 -20.3355 -20.3355 -20.3349 -20.3349 -20.3340 -20.3340
   -20.3248 -20.3248 -20.3247 -20.3247 -20.3243 -20.3243 -20.3242 -20.3242
   -20.2959 -20.2959 -20.2959 -20.2959 -20.2943 -20.2943 -20.2943 -20.2943
   -20.2930 -20.2930 -20.2930 -20.2930 -20.2908 -20.2908 -20.2908 -20.2908
    -9.7240  -9.7240  -9.3768  -9.3768  -9.3555  -9.3555  -8.9961  -8.9961
    -8.6461  -8.6461  -8.6342  -8.6342  -8.6011  -8.6011  -8.5580  -8.5580
    -7.9381  -7.9380  -7.9036  -7.9036  -7.8850  -7.8850  -7.8783  -7.8783
     1.2801   1.2801   1.3846   1.3846   1.4879   1.4879   1.5813   1.5813
     2.6023   2.6023   2.9289   2.9289   2.9993   2.9993   3.1110   3.1110
     3.2042   3.2042   3.3318   3.3318   3.4118   3.4118   3.6788   3.6788
     3.7244   3.7245   4.3053   4.3053   4.3982   4.3982   4.7913   4.7913
     4.9112   4.9112   4.9237   4.9237   5.1131   5.1131   5.5485   5.5485
     5.6457   5.6457   5.7072   5.7072   5.7890   5.7890   5.8764   5.8764
     6.2316   6.2316   6.3291   6.3291   6.5654   6.5654   6.5979   6.5979
     6.7185   6.7185   6.8600   6.8600   6.9176   6.9176   7.4537   7.4537
     7.5002   7.5002   7.5862   7.5862   7.6006   7.6006   8.0048   8.0048
    10.0207  10.0207  11.1232  11.1232  11.1819  11.1819  11.4316  11.4316
    11.5731  11.5731  12.5262  12.5262  12.6042  12.6042  12.6575  12.6575
    12.8086  12.8086  13.1269  13.1269  13.2027  13.2027  13.8947  13.8947
    14.3536  14.3536  15.0699  15.0699  15.7044  15.7044  15.9842  15.9842
    16.6646  16.6646  17.6879  17.6879  17.7230

          k = 0.1667 0.1595 0.0000 ( 62835 PWs)   bands (ev):

   -66.1962 -66.1958 -66.1954 -66.1953 -66.1950 -66.1949 -66.1945 -66.1941
   -30.6230 -30.6198 -30.6194 -30.6162 -30.5683 -30.5651 -30.5650 -30.5618
   -30.5330 -30.5301 -30.5285 -30.5261 -30.5257 -30.5227 -30.5211 -30.5179
   -30.4423 -30.4396 -30.4379 -30.4361 -30.4354 -30.4336 -30.4323 -30.4299
   -20.3486 -20.3484 -20.3482 -20.3480 -20.3480 -20.3479 -20.3479 -20.3478
   -20.3478 -20.3477 -20.3476 -20.3475 -20.3434 -20.3431 -20.3430 -20.3427
   -20.3381 -20.3380 -20.3379 -20.3377 -20.3371 -20.3370 -20.3367 -20.3367
   -20.3352 -20.3352 -20.3351 -20.3351 -20.3342 -20.3341 -20.3340 -20.3339
   -20.3251 -20.3250 -20.3246 -20.3246 -20.3245 -20.3245 -20.3241 -20.3240
   -20.2971 -20.2971 -20.2966 -20.2966 -20.2958 -20.2958 -20.2951 -20.2951
   -20.2916 -20.2916 -20.2913 -20.2913 -20.2901 -20.2901 -20.2900 -20.2899
    -9.9647  -9.7015  -9.6142  -9.5370  -9.3662  -9.2626  -9.1826  -9.0947
    -9.0780  -8.9723  -8.9684  -8.9346  -8.0666  -8.0241  -8.0130  -7.9777
    -7.9610  -7.9342  -7.8525  -7.8309  -7.8295  -7.8057  -7.7287  -7.7067
     1.1655   1.1701   1.1762   1.1936   1.3986   1.4418   1.4554   1.6300
     1.6692   1.6820   1.7220   1.9323   2.4488   2.5235   2.5414   2.6199
     2.6600   2.7520   3.9209   3.9773   4.0099   4.0605   4.3004   4.3682
     4.5333   4.5427   4.7233   4.7326   4.7542   4.7940   4.8127   5.1202
     5.1252   5.1736   5.2188   5.3291   5.4320   5.4805   5.5237   5.6180
     5.6223   5.6810   5.7492   5.7689   5.8116   6.0083   6.0312   6.0761
     6.1420   6.3572   6.3909   6.4111   6.6016   6.6808   6.6968   6.7008
     6.7331   6.8064   6.8488   6.8778   6.8925   6.9085   7.0153   7.0216
     7.0849   7.1150   7.8371   7.8397   7.8993   7.9299   7.9504   7.9750
     9.5043   9.5168   9.9501   9.9600  10.2022  10.2053  12.0790  12.1762
    12.1813  12.2057  12.2600  12.2923  12.3295  12.4114  12.8647  12.9173
    13.0813  13.0852  13.2002  13.2244  13.7908  13.8223  13.9475  13.9634
    14.2632  14.5540  14.7290  14.9759  15.2758  15.3058  15.8151  15.8891
    16.2537  16.6166  16.8170  17.3054  17.4632

          k = 0.1667 0.1595 0.1666 ( 62845 PWs)   bands (ev):

   -66.1962 -66.1958 -66.1954 -66.1954 -66.1950 -66.1950 -66.1946 -66.1942
   -30.6229 -30.6197 -30.6196 -30.6165 -30.5682 -30.5652 -30.5650 -30.5621
   -30.5265 -30.5259 -30.5235 -30.5228 -30.5217 -30.5211 -30.5192 -30.5182
   -30.4426 -30.4420 -30.4402 -30.4394 -30.4389 -30.4382 -30.4363 -30.4355
   -20.3486 -20.3484 -20.3482 -20.3481 -20.3480 -20.3479 -20.3479 -20.3478
   -20.3478 -20.3477 -20.3476 -20.3475 -20.3434 -20.3431 -20.3431 -20.3427
   -20.3379 -20.3379 -20.3378 -20.3377 -20.3369 -20.3368 -20.3367 -20.3367
   -20.3353 -20.3353 -20.3352 -20.3351 -20.3343 -20.3342 -20.3341 -20.3340
   -20.3251 -20.3250 -20.3246 -20.3245 -20.3245 -20.3245 -20.3241 -20.3240
   -20.2968 -20.2968 -20.2965 -20.2965 -20.2954 -20.2954 -20.2952 -20.2952
   -20.2917 -20.2917 -20.2915 -20.2915 -20.2904 -20.2904 -20.2902 -20.2902
    -9.9163  -9.6431  -9.5519  -9.5517  -9.2763  -9.2749  -9.1909  -9.0552
    -9.0417  -8.9636  -8.9388  -8.9383  -8.0676  -8.0227  -8.0220  -7.9855
    -7.9549  -7.9535  -7.9272  -7.9269  -7.8807  -7.8564  -7.8383  -7.8174
     1.3464   1.3489   1.3992   1.4005   1.4560   1.4576   1.4622   1.6293
     1.7181   1.7202   1.7582   1.9911   2.5364   2.6150   2.6281   2.6290
     2.7350   2.7583   3.9314   3.9522   4.0384   4.0408   4.3563   4.3591
     4.4351   4.4378   4.5175   4.5448   4.5545   4.5988   4.7120   5.0601
     5.1021   5.1350   5.1435   5.2260   5.2610   5.4319   5.4331   5.5139
     5.6492   5.6507   5.7108   5.7165   5.7183   5.7973   6.2071   6.2897
     6.2964   6.4256   6.4519   6.5328   6.5618   6.6068   6.6424   6.6679
     6.6712   6.7330   6.7541   6.7593   6.8552   6.8644   6.8698   6.9835
     7.1631   7.2008   7.8236   7.8238   7.8929   7.9302   7.9316   7.9345
     9.7494   9.7824  10.1676  10.2003  10.2040  10.2540  12.1365  12.1742
    12.2240  12.2262  12.2327  12.2341  12.3603  12.3626  12.8692  12.8869
    12.9204  13.0161  13.0981  13.2622  13.7799  13.7897  13.7980  13.8622
    14.3754  14.7195  14.7244  15.0805  15.3843  15.3955  15.7845  16.2199
    16.2232  16.7390  16.9579  16.9600  17.5329

          k = 0.1667 0.1595 0.3333 ( 62817 PWs)   bands (ev):

   -66.1960 -66.1956 -66.1955 -66.1952 -66.1952 -66.1948 -66.1947 -66.1944
   -30.6223 -30.6205 -30.6191 -30.6173 -30.5678 -30.5660 -30.5647 -30.5628
   -30.5249 -30.5225 -30.5217 -30.5192 -30.5084 -30.5059 -30.5043 -30.5017
   -30.4603 -30.4578 -30.4565 -30.4539 -30.4412 -30.4390 -30.4385 -30.4363
   -20.3485 -20.3483 -20.3483 -20.3481 -20.3480 -20.3479 -20.3479 -20.3478
   -20.3478 -20.3477 -20.3476 -20.3475 -20.3434 -20.3432 -20.3430 -20.3428
   -20.3378 -20.3377 -20.3374 -20.3372 -20.3367 -20.3366 -20.3364 -20.3363
   -20.3358 -20.3357 -20.3354 -20.3351 -20.3348 -20.3345 -20.3342 -20.3341
   -20.3250 -20.3249 -20.3247 -20.3246 -20.3244 -20.3243 -20.3242 -20.3241
   -20.2963 -20.2963 -20.2958 -20.2958 -20.2955 -20.2955 -20.2944 -20.2944
   -20.2928 -20.2928 -20.2915 -20.2915 -20.2912 -20.2912 -20.2905 -20.2905
    -9.8006  -9.5980  -9.5083  -9.4073  -9.3134  -9.2195  -9.0206  -8.9850
    -8.9485  -8.9078  -8.8754  -8.8218  -8.2667  -8.2618  -8.2265  -8.1902
    -8.0393  -8.0232  -8.0027  -7.9768  -7.9318  -7.9072  -7.8744  -7.8526
     1.4054   1.4176   1.4733   1.4826   1.5913   1.5998   1.6741   1.7188
     2.1654   2.2178   2.3256   2.4218   2.6489   2.7190   2.8018   2.8682
     2.8916   2.9865   3.7184   3.7657   3.8339   3.8451   4.0291   4.0476
     4.1171   4.2254   4.4242   4.4706   4.4909   4.5719   4.6175   4.6600
     4.7521   4.7853   4.8226   5.0271   5.0582   5.1325   5.1976   5.4803
     5.5126   5.5496   5.6496   5.6969   5.7546   5.7619   6.0235   6.0792
     6.2527   6.3984   6.4462   6.5166   6.5839   6.5896   6.6169   6.6611
     6.7106   6.7810   6.8065   6.8439   7.0137   7.0389   7.0655   7.1044
     7.1857   7.2467   7.7236   7.7392   7.7886   7.8058   7.9310   7.9345
    10.1700  10.1980  10.3904  10.4382  10.7955  10.8584  11.8089  11.8424
    12.0234  12.3397  12.3456  12.3702  12.3897  12.4047  12.5646  12.6189
    12.8482  12.9527  12.9675  13.1452  13.4301  13.4616  13.7911  13.8159
    14.5730  14.7066  15.1110  15.3677  15.6759  15.6928  15.8801  16.1318
    16.3698  17.1124  17.1141  17.3365  17.4432

          k = 0.1667 0.1595-0.4999 ( 62816 PWs)   bands (ev):

   -66.1958 -66.1958 -66.1954 -66.1954 -66.1950 -66.1950 -66.1946 -66.1946
   -30.6215 -30.6215 -30.6183 -30.6183 -30.5670 -30.5669 -30.5638 -30.5638
   -30.5237 -30.5237 -30.5204 -30.5204 -30.4844 -30.4844 -30.4819 -30.4819
   -30.4804 -30.4804 -30.4778 -30.4778 -30.4401 -30.4401 -30.4374 -30.4374
   -20.3484 -20.3484 -20.3483 -20.3482 -20.3480 -20.3480 -20.3479 -20.3479
   -20.3477 -20.3477 -20.3475 -20.3475 -20.3433 -20.3433 -20.3430 -20.3430
   -20.3378 -20.3378 -20.3369 -20.3369 -20.3365 -20.3365 -20.3363 -20.3363
   -20.3358 -20.3358 -20.3355 -20.3355 -20.3349 -20.3349 -20.3341 -20.3341
   -20.3248 -20.3248 -20.3247 -20.3247 -20.3243 -20.3243 -20.3242 -20.3242
   -20.2959 -20.2959 -20.2959 -20.2959 -20.2943 -20.2943 -20.2943 -20.2943
   -20.2930 -20.2930 -20.2930 -20.2930 -20.2908 -20.2908 -20.2908 -20.2908
    -9.6815  -9.6815  -9.3866  -9.3866  -9.2834  -9.2834  -8.9632  -8.9632
    -8.6521  -8.6521  -8.6369  -8.6369  -8.6009  -8.6009  -8.5528  -8.5528
    -8.0334  -8.0334  -7.9931  -7.9931  -7.9032  -7.9032  -7.8801  -7.8801
     1.4125   1.4125   1.4877   1.4877   1.6042   1.6042   1.7145   1.7145
     2.6729   2.6729   2.9477   2.9477   3.0239   3.0239   3.1217   3.1217
     3.2066   3.2066   3.3360   3.3360   3.4047   3.4048   3.6919   3.6919
     3.7734   3.7734   4.1387   4.1387   4.4142   4.4142   4.5631   4.5631
     4.8086   4.8086   4.8954   4.8954   4.9558   4.9558   5.3226   5.3226
     5.5785   5.5785   5.6194   5.6194   5.7832   5.7832   5.7895   5.7895
     6.3637   6.3637   6.5102   6.5102   6.5365   6.5366   6.6327   6.6327
     6.8002   6.8002   6.8207   6.8207   6.9460   6.9460   7.4517   7.4517
     7.4945   7.4945   7.5593   7.5593   7.5752   7.5752   7.9355   7.9355
    10.1942  10.1942  11.1297  11.1298  11.1821  11.1821  11.5031  11.5031
    11.6366  11.6366  12.3756  12.3756  12.5953  12.5953  12.6418  12.6418
    12.7993  12.7993  13.0161  13.0161  13.1283  13.1283  13.7996  13.7996
    14.6673  14.6673  15.4558  15.4558  15.8244  15.8244  15.9631  15.9631
    16.7020  16.7020  17.5073  17.5073  17.7282

          k = 0.1667 0.3189 0.0000 ( 62825 PWs)   bands (ev):

   -66.1961 -66.1959 -66.1953 -66.1952 -66.1951 -66.1950 -66.1944 -66.1942
   -30.6114 -30.6082 -30.6079 -30.6048 -30.5798 -30.5766 -30.5764 -30.5734
   -30.5324 -30.5307 -30.5279 -30.5263 -30.5254 -30.5235 -30.5205 -30.5186
   -30.4417 -30.4402 -30.4374 -30.4359 -30.4356 -30.4341 -30.4318 -30.4304
   -20.3481 -20.3480 -20.3480 -20.3479 -20.3479 -20.3479 -20.3478 -20.3478
   -20.3473 -20.3470 -20.3469 -20.3467 -20.3445 -20.3441 -20.3441 -20.3438
   -20.3379 -20.3378 -20.3377 -20.3374 -20.3373 -20.3372 -20.3370 -20.3368
   -20.3350 -20.3350 -20.3349 -20.3348 -20.3344 -20.3344 -20.3343 -20.3342
   -20.3251 -20.3250 -20.3246 -20.3246 -20.3245 -20.3245 -20.3240 -20.3240
   -20.2971 -20.2971 -20.2966 -20.2966 -20.2958 -20.2958 -20.2951 -20.2951
   -20.2916 -20.2916 -20.2913 -20.2913 -20.2901 -20.2901 -20.2899 -20.2899
    -9.8852  -9.7373  -9.5239  -9.4338  -9.3913  -9.2882  -9.0899  -9.0810
    -8.9650  -8.8373  -8.8311  -8.8160  -8.3227  -8.2863  -8.2765  -8.2617
    -7.9567  -7.9425  -7.8483  -7.8356  -7.8246  -7.8109  -7.7241  -7.7114
     1.1701   1.1704   1.1896   1.1937   1.4444   1.4546   1.6214   1.6673
     2.2226   2.3401   2.3580   2.4643   2.5060   2.5076   2.7582   2.8452
     2.8685   2.9629   3.5373   3.5767   3.5915   3.6385   4.0333   4.3053
     4.3264   4.3608   4.3936   4.6103   4.6117   4.7109   4.7554   4.7784
     4.8867   4.9359   5.0144   5.1795   5.2610   5.3266   5.4659   5.5428
     5.5846   5.6767   5.7182   5.7803   5.9813   6.0273   6.0510   6.0673
     6.1146   6.3408   6.3647   6.4720   6.4861   6.7214   6.7316   6.8092
     6.8575   6.8789   6.9652   6.9756   6.9866   7.0068   7.0284   7.0308
     7.1169   7.1268   7.7109   7.7288   7.7419   7.7514   7.8413   7.8431
     9.5111   9.5159  10.4577  10.5003  10.6410  10.6754  11.6924  11.7901
    11.8089  11.8899  12.1898  12.2031  12.3497  12.3727  12.9513  12.9672
    13.1012  13.1898  13.2469  13.2953  13.5418  13.5918  13.6981  13.7262
    14.8654  15.1181  15.2675  15.3143  15.3661  15.5823  15.7797  16.0438
    16.1332  16.8340  17.1943  17.2296  17.7294

          k = 0.1667 0.3189 0.1666 ( 62820 PWs)   bands (ev):

   -66.1961 -66.1958 -66.1953 -66.1953 -66.1951 -66.1951 -66.1945 -66.1943
   -30.6113 -30.6082 -30.6081 -30.6051 -30.5797 -30.5767 -30.5766 -30.5736
   -30.5260 -30.5254 -30.5240 -30.5232 -30.5213 -30.5208 -30.5198 -30.5189
   -30.4421 -30.4415 -30.4407 -30.4399 -30.4384 -30.4377 -30.4367 -30.4360
   -20.3481 -20.3480 -20.3480 -20.3479 -20.3479 -20.3479 -20.3478 -20.3478
   -20.3473 -20.3470 -20.3469 -20.3467 -20.3445 -20.3442 -20.3441 -20.3438
   -20.3377 -20.3377 -20.3376 -20.3374 -20.3371 -20.3370 -20.3369 -20.3368
   -20.3351 -20.3351 -20.3350 -20.3350 -20.3345 -20.3344 -20.3343 -20.3343
   -20.3251 -20.3250 -20.3246 -20.3245 -20.3245 -20.3245 -20.3241 -20.3240
   -20.2968 -20.2968 -20.2965 -20.2965 -20.2954 -20.2954 -20.2952 -20.2952
   -20.2917 -20.2917 -20.2915 -20.2915 -20.2904 -20.2904 -20.2902 -20.2902
    -9.8328  -9.6796  -9.4492  -9.4487  -9.3024  -9.3011  -9.0524  -9.0447
    -8.9732  -8.8245  -8.8200  -8.8198  -8.3243  -8.2834  -8.2828  -8.2667
    -7.9499  -7.9495  -7.9351  -7.9348  -7.8763  -7.8627  -7.8341  -7.8220
     1.3469   1.3483   1.4468   1.4491   1.4572   1.4597   1.6941   1.7545
     2.2242   2.3406   2.3426   2.4932   2.5549   2.6050   2.8525   2.8556
     2.9562   2.9609   3.5808   3.5868   3.6040   3.6520   4.0266   4.3290
     4.3322   4.3776   4.3807   4.4503   4.4561   4.5815   4.6013   4.6809
     4.7188   4.7230   4.9667   5.0103   5.2525   5.2631   5.2634   5.3035
     5.5559   5.5704   5.6597   5.6610   5.7391   5.7396   6.2894   6.3067
     6.3153   6.4162   6.4363   6.5247   6.6002   6.6081   6.7197   6.7231
     6.8105   6.8126   6.8907   6.9011   6.9873   7.0069   7.0073   7.0250
     7.1810   7.2069   7.7060   7.7144   7.7156   7.7377   7.8267   7.8325
     9.7689   9.7802  10.6120  10.6628  10.6756  10.6863  11.7654  11.8108
    11.8852  11.8876  12.2353  12.2376  12.2635  12.2655  12.9373  12.9781
    13.0252  13.0775  13.1064  13.2957  13.5282  13.5375  13.5446  13.6383
    15.0293  15.3456  15.3552  15.3919  15.3965  15.6458  16.1044  16.1071
    16.1655  16.7999  17.2632  17.2955  17.3046

          k = 0.1667 0.3189 0.3333 ( 62794 PWs)   bands (ev):

   -66.1959 -66.1957 -66.1955 -66.1952 -66.1951 -66.1949 -66.1947 -66.1944
   -30.6108 -30.6090 -30.6077 -30.6058 -30.5793 -30.5775 -30.5762 -30.5744
   -30.5243 -30.5225 -30.5218 -30.5199 -30.5079 -30.5065 -30.5038 -30.5023
   -30.4598 -30.4583 -30.4559 -30.4545 -30.4406 -30.4391 -30.4384 -30.4369
   -20.3480 -20.3480 -20.3480 -20.3479 -20.3479 -20.3479 -20.3479 -20.3478
   -20.3472 -20.3471 -20.3469 -20.3468 -20.3445 -20.3443 -20.3441 -20.3439
   -20.3376 -20.3375 -20.3372 -20.3371 -20.3369 -20.3368 -20.3366 -20.3365
   -20.3357 -20.3355 -20.3353 -20.3350 -20.3349 -20.3347 -20.3344 -20.3343
   -20.3249 -20.3249 -20.3247 -20.3246 -20.3244 -20.3244 -20.3241 -20.3241
   -20.2963 -20.2963 -20.2958 -20.2958 -20.2955 -20.2955 -20.2944 -20.2944
   -20.2928 -20.2928 -20.2915 -20.2915 -20.2912 -20.2912 -20.2905 -20.2905
    -9.7077  -9.5446  -9.4954  -9.3418  -9.2611  -9.0503  -9.0044  -8.9398
    -8.9121  -8.8313  -8.7882  -8.7463  -8.3726  -8.3430  -8.2792  -8.2737
    -8.2550  -8.2001  -8.1834  -8.1338  -7.9275  -7.9139  -7.8703  -7.8576
     1.4612   1.4727   1.4742   1.4824   2.0653   2.1396   2.1617   2.2343
     2.3224   2.3430   2.3883   2.5805   2.8188   2.8672   2.8786   2.9483
     3.0975   3.1798   3.5668   3.5833   3.6422   3.6836   3.8055   3.8703
     4.0075   4.1433   4.2296   4.2839   4.3615   4.4366   4.4906   4.5336
     4.5779   4.6262   4.6853   4.7243   4.7747   4.8431   4.9844   5.0615
     5.2084   5.2149   5.3025   5.5148   5.6852   5.7477   6.0625   6.0790
     6.4325   6.4985   6.5366   6.6354   6.6924   6.7030   6.8317   6.8549
     6.8926   6.9207   6.9385   6.9662   7.0287   7.0728   7.0923   7.1518
     7.1821   7.2363   7.6224   7.6326   7.6916   7.7216   7.7408   7.7739
    10.3852  10.4087  10.6632  10.6758  11.1290  11.1552  11.7671  11.8078
    11.8216  11.9442  12.0722  12.1249  12.3944  12.4634  12.5233  12.5369
    12.8616  12.9674  12.9727  13.1751  13.1894  13.2420  13.5409  13.5825
    15.2159  15.3334  15.6588  15.8365  15.9190  15.9702  16.0328  16.5936
    16.6804  16.7111  16.9827  17.4855  17.5182

          k = 0.1667 0.3189-0.4999 ( 62822 PWs)   bands (ev):

   -66.1957 -66.1957 -66.1955 -66.1955 -66.1949 -66.1949 -66.1947 -66.1947
   -30.6100 -30.6099 -30.6068 -30.6068 -30.5784 -30.5784 -30.5754 -30.5754
   -30.5230 -30.5230 -30.5212 -30.5212 -30.4839 -30.4839 -30.4824 -30.4824
   -30.4799 -30.4799 -30.4784 -30.4784 -30.4395 -30.4395 -30.4380 -30.4380
   -20.3480 -20.3480 -20.3480 -20.3479 -20.3479 -20.3479 -20.3479 -20.3479
   -20.3472 -20.3472 -20.3468 -20.3468 -20.3444 -20.3444 -20.3440 -20.3440
   -20.3375 -20.3375 -20.3370 -20.3370 -20.3364 -20.3364 -20.3362 -20.3362
   -20.3359 -20.3359 -20.3357 -20.3357 -20.3349 -20.3349 -20.3343 -20.3343
   -20.3248 -20.3248 -20.3247 -20.3247 -20.3243 -20.3243 -20.3242 -20.3242
   -20.2959 -20.2959 -20.2959 -20.2959 -20.2943 -20.2943 -20.2943 -20.2943
   -20.2930 -20.2930 -20.2930 -20.2930 -20.2908 -20.2908 -20.2908 -20.2908
    -9.5813  -9.5813  -9.4191  -9.4191  -9.0849  -9.0849  -8.8556  -8.8556
    -8.6885  -8.6885  -8.6491  -8.6491  -8.5905  -8.5905  -8.5317  -8.5317
    -8.2746  -8.2746  -8.2441  -8.2441  -7.8989  -7.8989  -7.8857  -7.8857
     1.4754   1.4755   1.4872   1.4872   2.2256   2.2256   2.3336   2.3336
     2.8745   2.8745   3.0012   3.0012   3.0352   3.0352   3.1761   3.1761
     3.2124   3.2124   3.3489   3.3489   3.3787   3.3787   3.6003   3.6003
     3.9156   3.9156   3.9600   3.9600   3.9982   3.9982   4.2413   4.2413
     4.5982   4.5982   4.6853   4.6853   4.8562   4.8562   4.8778   4.8778
     5.0012   5.0012   5.3914   5.3914   5.7857   5.7857   5.8089   5.8089
     6.5586   6.5586   6.6653   6.6653   6.7203   6.7203   6.7535   6.7535
     6.9165   6.9165   6.9582   6.9582   7.0744   7.0744   7.4161   7.4161
     7.4566   7.4566   7.4830   7.4830   7.5242   7.5242   7.7339   7.7339
    10.6495  10.6495  11.1422  11.1422  11.1833  11.1833  11.6462  11.6462
    11.8360  11.8360  12.0276  12.0276  12.4869  12.4869  12.4992  12.4992
    12.7220  12.7220  12.8194  12.8194  13.1155  13.1155  13.5560  13.5560
    15.2916  15.2916  15.8813  15.8813  16.2149  16.2149  16.4164  16.4164
    16.8655  16.8655  17.1355  17.1355  17.7271

          k = 0.1667-0.4784 0.0000 ( 62816 PWs)   bands (ev):

   -66.1960 -66.1960 -66.1952 -66.1952 -66.1951 -66.1951 -66.1943 -66.1943
   -30.5956 -30.5956 -30.5925 -30.5925 -30.5922 -30.5922 -30.5891 -30.5891
   -30.5316 -30.5316 -30.5271 -30.5271 -30.5245 -30.5245 -30.5196 -30.5196
   -30.4410 -30.4410 -30.4367 -30.4367 -30.4349 -30.4349 -30.4311 -30.4311
   -20.3480 -20.3480 -20.3479 -20.3479 -20.3479 -20.3479 -20.3478 -20.3478
   -20.3459 -20.3459 -20.3456 -20.3456 -20.3456 -20.3456 -20.3453 -20.3453
   -20.3376 -20.3376 -20.3375 -20.3375 -20.3372 -20.3372 -20.3371 -20.3371
   -20.3347 -20.3347 -20.3347 -20.3347 -20.3346 -20.3346 -20.3345 -20.3345
   -20.3251 -20.3251 -20.3246 -20.3245 -20.3245 -20.3245 -20.3240 -20.3240
   -20.2971 -20.2971 -20.2966 -20.2966 -20.2958 -20.2958 -20.2951 -20.2951
   -20.2916 -20.2916 -20.2913 -20.2913 -20.2901 -20.2901 -20.2899 -20.2899
    -9.8002  -9.8002  -9.4416  -9.4416  -9.3416  -9.3416  -9.0852  -9.0852
    -8.6500  -8.6499  -8.5945  -8.5945  -8.5847  -8.5846  -8.5821  -8.5821
    -7.9498  -7.9498  -7.8420  -7.8420  -7.8178  -7.8178  -7.7178  -7.7178
     1.1706   1.1706   1.1930   1.1930   1.4527   1.4527   1.6578   1.6578
     2.4862   2.4862   3.0646   3.0646   3.1009   3.1009   3.1428   3.1428
     3.1782   3.1782   3.2211   3.2211   3.3303   3.3304   3.3905   3.3905
     3.5465   3.5465   4.3475   4.3475   4.7473   4.7473   4.8347   4.8347
     4.9724   4.9724   5.0504   5.0504   5.1943   5.1943   5.3886   5.3886
     5.6386   5.6386   5.6910   5.6910   6.0469   6.0469   6.0573   6.0573
     6.2704   6.2704   6.3503   6.3503   6.5861   6.5861   6.7795   6.7795
     6.9057   6.9057   7.0160   7.0160   7.0752   7.0752   7.3677   7.3678
     7.3892   7.3892   7.4027   7.4027   7.4181   7.4181   7.8416   7.8416
     9.5145   9.5145  11.0991  11.0991  11.1645  11.1645  11.2277  11.2277
    11.2989  11.2989  12.1979  12.1979  12.3629  12.3629  13.0017  13.0017
    13.2464  13.2464  13.3627  13.3627  13.4299  13.4299  13.4744  13.4744
    15.2417  15.2417  15.4928  15.4929  15.5499  15.5499  15.8676  15.8676
    16.4945  16.4945  17.6986  17.6986  17.7655

          k = 0.1667-0.4784 0.1666 ( 62826 PWs)   bands (ev):

   -66.1960 -66.1960 -66.1952 -66.1952 -66.1952 -66.1952 -66.1944 -66.1944
   -30.5955 -30.5955 -30.5925 -30.5925 -30.5924 -30.5924 -30.5894 -30.5894
   -30.5254 -30.5253 -30.5240 -30.5240 -30.5206 -30.5206 -30.5199 -30.5199
   -30.4414 -30.4414 -30.4407 -30.4407 -30.4378 -30.4377 -30.4367 -30.4367
   -20.3480 -20.3480 -20.3479 -20.3479 -20.3479 -20.3479 -20.3478 -20.3478
   -20.3459 -20.3459 -20.3456 -20.3456 -20.3456 -20.3456 -20.3453 -20.3453
   -20.3374 -20.3374 -20.3374 -20.3374 -20.3372 -20.3372 -20.3371 -20.3371
   -20.3349 -20.3349 -20.3348 -20.3348 -20.3347 -20.3347 -20.3346 -20.3346
   -20.3250 -20.3250 -20.3246 -20.3246 -20.3245 -20.3245 -20.3240 -20.3240
   -20.2968 -20.2968 -20.2965 -20.2965 -20.2954 -20.2954 -20.2952 -20.2952
   -20.2917 -20.2917 -20.2915 -20.2915 -20.2904 -20.2904 -20.2902 -20.2902
    -9.7443  -9.7443  -9.3566  -9.3565  -9.3556  -9.3555  -9.0485  -9.0485
    -8.6569  -8.6568  -8.5880  -8.5877  -8.5873  -8.5871  -8.5819  -8.5819
    -7.9436  -7.9434  -7.9417  -7.9415  -7.8697  -7.8697  -7.8281  -7.8281
     1.3475   1.3476   1.4549   1.4554   1.4575   1.4580   1.7426   1.7427
     2.5762   2.5763   3.0741   3.0749   3.1023   3.1073   3.1408   3.1414
     3.1788   3.1800   3.2625   3.2668   3.3837   3.3869   3.3883   3.3929
     3.5693   3.5698   4.3869   4.3901   4.4283   4.4326   4.7779   4.7815
     4.8525   4.8542   4.9545   4.9577   4.9970   5.0001   5.3390   5.3398
     5.3839   5.3841   5.6718   5.6751   5.6979   5.7002   6.3706   6.3831
[...]
    11.4793  11.4793  11.4793  11.4793  11.5197  11.5197  11.5197  11.5197
    11.9082  11.9082  11.9082  11.9082  12.0389  12.0389  12.0389  12.0389
    12.8768  12.8768  12.8768  12.8768  13.0468  13.0468  13.0468  13.0468
    15.2503  15.2503  15.2503  15.2503  16.6306  16.6306  16.6306  16.6306
    17.6073  17.6073  17.6073  17.6073  17.8560

          k =-0.5000 0.3189 0.0000 ( 62834 PWs)   bands (ev):

   -66.1957 -66.1957 -66.1955 -66.1955 -66.1948 -66.1948 -66.1946 -66.1946
   -30.6100 -30.6100 -30.6066 -30.6066 -30.5784 -30.5784 -30.5751 -30.5751
   -30.5301 -30.5301 -30.5285 -30.5285 -30.4836 -30.4836 -30.4820 -30.4820
   -30.4789 -30.4789 -30.4773 -30.4773 -30.4337 -30.4337 -30.4323 -30.4323
   -20.3480 -20.3480 -20.3480 -20.3480 -20.3478 -20.3478 -20.3478 -20.3478
   -20.3471 -20.3471 -20.3469 -20.3469 -20.3444 -20.3444 -20.3440 -20.3440
   -20.3379 -20.3379 -20.3373 -20.3373 -20.3362 -20.3362 -20.3362 -20.3362
   -20.3357 -20.3357 -20.3356 -20.3356 -20.3349 -20.3349 -20.3343 -20.3343
   -20.3248 -20.3248 -20.3247 -20.3247 -20.3243 -20.3243 -20.3242 -20.3242
   -20.2965 -20.2965 -20.2965 -20.2965 -20.2942 -20.2942 -20.2942 -20.2942
   -20.2927 -20.2927 -20.2927 -20.2927 -20.2906 -20.2906 -20.2906 -20.2906
    -9.6513  -9.6513  -9.5035  -9.5035  -9.0725  -9.0725  -8.8776  -8.8776
    -8.6696  -8.6696  -8.6576  -8.6576  -8.5995  -8.5995  -8.5271  -8.5271
    -8.2768  -8.2768  -8.2394  -8.2394  -7.7740  -7.7740  -7.7608  -7.7608
     1.2145   1.2145   1.2200   1.2200   2.2232   2.2232   2.3469   2.3469
     2.7987   2.7987   2.9833   2.9833   3.0322   3.0322   3.1832   3.1832
     3.2101   3.2101   3.2649   3.2649   3.3026   3.3026   3.5541   3.5541
     3.9089   3.9089   3.9514   3.9514   4.0170   4.0171   4.2378   4.2378
     4.6911   4.6911   4.7745   4.7745   4.9722   4.9722   5.1217   5.1218
     5.2911   5.2911   5.6224   5.6224   6.1885   6.1885   6.2360   6.2360
     6.3590   6.3590   6.3958   6.3958   6.4338   6.4338   6.6514   6.6514
     6.9343   6.9343   6.9532   6.9532   7.0025   7.0025   7.4172   7.4172
     7.4459   7.4459   7.4702   7.4702   7.5108   7.5108   7.7573   7.7573
    10.4794  10.4794  11.0648  11.0648  11.0967  11.0967  11.5834  11.5834
    11.8269  11.8269  11.9915  11.9915  12.5026  12.5026  12.5272  12.5272
    12.7986  12.7986  12.8872  12.8872  13.2821  13.2821  13.7125  13.7125
    15.0507  15.0507  15.5769  15.5769  16.1436  16.1436  16.4280  16.4280
    16.7986  16.7986  17.0940  17.0940  17.8795

          k =-0.5000 0.3189 0.1666 ( 62820 PWs)   bands (ev):

   -66.1957 -66.1957 -66.1955 -66.1955 -66.1949 -66.1949 -66.1947 -66.1947
   -30.6099 -30.6099 -30.6068 -30.6068 -30.5783 -30.5783 -30.5754 -30.5754
   -30.5236 -30.5236 -30.5220 -30.5220 -30.4833 -30.4833 -30.4816 -30.4816
   -30.4792 -30.4792 -30.4776 -30.4776 -30.4402 -30.4402 -30.4387 -30.4387
   -20.3480 -20.3480 -20.3480 -20.3480 -20.3479 -20.3479 -20.3478 -20.3478
   -20.3471 -20.3471 -20.3469 -20.3469 -20.3444 -20.3444 -20.3440 -20.3440
   -20.3376 -20.3376 -20.3372 -20.3372 -20.3362 -20.3362 -20.3362 -20.3362
   -20.3357 -20.3357 -20.3356 -20.3356 -20.3350 -20.3350 -20.3345 -20.3345
   -20.3248 -20.3248 -20.3247 -20.3247 -20.3243 -20.3243 -20.3243 -20.3243
   -20.2961 -20.2961 -20.2961 -20.2961 -20.2941 -20.2941 -20.2941 -20.2941
   -20.2928 -20.2928 -20.2928 -20.2928 -20.2910 -20.2910 -20.2910 -20.2910
    -9.5818  -9.5818  -9.4202  -9.4202  -9.0851  -9.0851  -8.8561  -8.8561
    -8.6875  -8.6875  -8.6485  -8.6484  -8.5894  -8.5894  -8.5309  -8.5309
    -8.2741  -8.2741  -8.2440  -8.2440  -7.8996  -7.8996  -7.8865  -7.8865
     1.4730   1.4730   1.4845   1.4845   2.2253   2.2253   2.3332   2.3332
     2.8787   2.8787   2.9983   2.9983   3.0329   3.0329   3.1780   3.1780
     3.2122   3.2122   3.3555   3.3555   3.3764   3.3764   3.5991   3.5991
     3.9125   3.9125   3.9491   3.9491   4.0154   4.0154   4.2449   4.2449
     4.5958   4.5958   4.6821   4.6821   4.8560   4.8560   4.8787   4.8787
     5.0018   5.0018   5.3912   5.3912   5.7848   5.7848   5.8082   5.8082
     6.5588   6.5588   6.6674   6.6674   6.7211   6.7211   6.7539   6.7539
     6.9143   6.9143   6.9591   6.9591   7.0731   7.0731   7.4152   7.4152
     7.4530   7.4530   7.4877   7.4877   7.5252   7.5252   7.7350   7.7350
    10.6479  10.6479  11.1428  11.1428  11.1829  11.1829  11.6374  11.6374
    11.8372  11.8372  12.0292  12.0292  12.4873  12.4873  12.5058  12.5058
    12.7224  12.7224  12.8233  12.8233  13.1137  13.1137  13.5584  13.5584
    15.2916  15.2916  15.8786  15.8786  16.2144  16.2145  16.4161  16.4161
    16.8590  16.8590  17.1366  17.1366  17.7246

          k =-0.5000 0.3189 0.3333 ( 62806 PWs)   bands (ev):

   -66.1955 -66.1955 -66.1953 -66.1953 -66.1951 -66.1951 -66.1948 -66.1948
   -30.6094 -30.6094 -30.6076 -30.6076 -30.5779 -30.5779 -30.5762 -30.5761
   -30.5060 -30.5060 -30.5045 -30.5045 -30.4824 -30.4824 -30.4808 -30.4808
   -30.4801 -30.4801 -30.4785 -30.4785 -30.4578 -30.4578 -30.4563 -30.4563
   -20.3480 -20.3480 -20.3479 -20.3479 -20.3479 -20.3479 -20.3479 -20.3479
   -20.3471 -20.3471 -20.3470 -20.3470 -20.3443 -20.3443 -20.3441 -20.3441
   -20.3371 -20.3371 -20.3367 -20.3367 -20.3362 -20.3362 -20.3361 -20.3361
   -20.3358 -20.3358 -20.3356 -20.3356 -20.3354 -20.3354 -20.3350 -20.3350
   -20.3246 -20.3246 -20.3246 -20.3246 -20.3244 -20.3244 -20.3243 -20.3243
   -20.2951 -20.2951 -20.2951 -20.2951 -20.2938 -20.2938 -20.2938 -20.2938
   -20.2931 -20.2931 -20.2931 -20.2931 -20.2922 -20.2922 -20.2922 -20.2922
    -9.4071  -9.4071  -9.1920  -9.1920  -9.1293  -9.1293  -8.7782  -8.7781
    -8.7422  -8.7421  -8.6179  -8.6179  -8.5669  -8.5669  -8.5392  -8.5392
    -8.2837  -8.2837  -8.2597  -8.2597  -8.2031  -8.2031  -8.1657  -8.1657
     2.0929   2.0929   2.1875   2.1875   2.2325   2.2325   2.3749   2.3749
     2.9857   2.9857   3.0335   3.0335   3.0878   3.0878   3.1727   3.1727
     3.2433   3.2433   3.5339   3.5339   3.6179   3.6179   3.7086   3.7086
     3.9051   3.9051   3.9563   3.9563   4.0145   4.0145   4.1079   4.1079
     4.2074   4.2074   4.3559   4.3559   4.4713   4.4713   4.7095   4.7095
     4.8315   4.8315   4.8776   4.8776   4.9463   4.9463   5.1878   5.1878
     6.7540   6.7540   6.8114   6.8114   6.8692   6.8692   6.9258   6.9258
     7.0478   7.0478   7.1703   7.1703   7.2869   7.2870   7.3972   7.3972
     7.4475   7.4475   7.5184   7.5184   7.5407   7.5407   7.6731   7.6731
    11.0952  11.0952  11.3871  11.3871  11.4619  11.4619  11.7240  11.7240
    11.8806  11.8806  12.1833  12.1833  12.2628  12.2628  12.3292  12.3292
    12.5749  12.5749  12.6654  12.6654  12.7161  12.7161  13.1581  13.1581
    15.8543  15.8543  16.3500  16.3500  16.4486  16.4486  16.6752  16.6752
    17.0923  17.0923  17.2134  17.2134  17.4510

          k =-0.5000 0.3189-0.4999 ( 62808 PWs)   bands (ev):

   -66.1953 -66.1953 -66.1953 -66.1953 -66.1951 -66.1951 -66.1951 -66.1951
   -30.6086 -30.6086 -30.6086 -30.6086 -30.5771 -30.5771 -30.5771 -30.5771
   -30.4830 -30.4829 -30.4829 -30.4829 -30.4815 -30.4815 -30.4815 -30.4815
   -30.4801 -30.4801 -30.4801 -30.4801 -30.4787 -30.4787 -30.4787 -30.4787
   -20.3480 -20.3480 -20.3479 -20.3479 -20.3479 -20.3479 -20.3479 -20.3479
   -20.3471 -20.3470 -20.3470 -20.3470 -20.3443 -20.3442 -20.3442 -20.3442
   -20.3365 -20.3365 -20.3365 -20.3365 -20.3362 -20.3362 -20.3362 -20.3362
   -20.3357 -20.3357 -20.3357 -20.3357 -20.3355 -20.3355 -20.3355 -20.3355
   -20.3245 -20.3245 -20.3245 -20.3245 -20.3245 -20.3245 -20.3244 -20.3244
   -20.2938 -20.2938 -20.2938 -20.2938 -20.2937 -20.2937 -20.2937 -20.2937
   -20.2934 -20.2934 -20.2934 -20.2934 -20.2933 -20.2933 -20.2933 -20.2933
    -9.2300  -9.2300  -9.2300  -9.2300  -8.9104  -8.9104  -8.9104  -8.9104
    -8.6204  -8.6204  -8.6204  -8.6204  -8.4971  -8.4971  -8.4971  -8.4971
    -8.4814  -8.4814  -8.4814  -8.4814  -8.2469  -8.2469  -8.2469  -8.2468
     2.2343   2.2343   2.2343   2.2343   2.9381   2.9381   2.9381   2.9381
     3.0224   3.0224   3.0225   3.0225   3.1484   3.1484   3.1484   3.1484
     3.2098   3.2098   3.2098   3.2098   3.8465   3.8465   3.8465   3.8465
     3.8803   3.8803   3.8803   3.8803   3.9455   3.9455   3.9455   3.9455
     4.1969   4.1969   4.1969   4.1969   4.2228   4.2228   4.2228   4.2228
     4.5832   4.5832   4.5832   4.5832   4.9035   4.9035   4.9035   4.9035
     6.8192   6.8192   6.8192   6.8192   6.9042   6.9042   6.9042   6.9042
     7.2893   7.2893   7.2893   7.2893   7.3731   7.3731   7.3731   7.3731
     7.4829   7.4829   7.4829   7.4829   7.5890   7.5890   7.5890   7.5890
    11.6506  11.6506  11.6506  11.6506  11.6732  11.6732  11.6733  11.6733
    11.9373  11.9373  11.9373  11.9373  12.1111  12.1111  12.1111  12.1111
    12.5422  12.5422  12.5422  12.5422  12.7251  12.7251  12.7251  12.7251
    16.2192  16.2192  16.2192  16.2192  16.8149  16.8149  16.8149  16.8149
    17.3533  17.3533  17.3534  17.3534  17.8643

          k =-0.5000-0.4784 0.0000 ( 62852 PWs)   bands (ev):

   -66.1956 -66.1956 -66.1956 -66.1956 -66.1947 -66.1947 -66.1947 -66.1947
   -30.5943 -30.5943 -30.5942 -30.5942 -30.5909 -30.5909 -30.5908 -30.5908
   -30.5293 -30.5293 -30.5293 -30.5293 -30.4829 -30.4829 -30.4827 -30.4827
   -30.4782 -30.4782 -30.4781 -30.4781 -30.4330 -30.4330 -30.4330 -30.4330
   -20.3480 -20.3480 -20.3480 -20.3480 -20.3478 -20.3478 -20.3478 -20.3478
   -20.3458 -20.3458 -20.3458 -20.3458 -20.3455 -20.3455 -20.3454 -20.3454
   -20.3376 -20.3376 -20.3376 -20.3376 -20.3360 -20.3360 -20.3360 -20.3360
   -20.3359 -20.3359 -20.3358 -20.3358 -20.3346 -20.3346 -20.3346 -20.3346
   -20.3248 -20.3248 -20.3248 -20.3248 -20.3243 -20.3243 -20.3243 -20.3243
   -20.2965 -20.2965 -20.2965 -20.2965 -20.2942 -20.2942 -20.2942 -20.2942
   -20.2927 -20.2927 -20.2927 -20.2927 -20.2906 -20.2906 -20.2906 -20.2906
    -9.5631  -9.5631  -9.5618  -9.5618  -8.8215  -8.8215  -8.8158  -8.8158
    -8.7214  -8.7214  -8.7167  -8.7167  -8.5211  -8.5211  -8.5109  -8.5109
    -8.4593  -8.4592  -8.4498  -8.4498  -7.7675  -7.7674  -7.7674  -7.7674
     1.2183   1.2183   1.2197   1.2197   2.9159   2.9159   2.9582   2.9582
     3.0509   3.0509   3.0724   3.0724   3.0955   3.0955   3.1053   3.1053
     3.2079   3.2079   3.2117   3.2117   3.3192   3.3192   3.3574   3.3574
     3.4346   3.4346   3.5358   3.5358   4.1542   4.1542   4.1775   4.1775
     4.2469   4.2469   4.2816   4.2816   5.0539   5.0539   5.0656   5.0656
     5.3844   5.3844   5.3998   5.3998   6.2297   6.2297   6.2335   6.2335
     6.4190   6.4190   6.4208   6.4208   6.5056   6.5056   6.5206   6.5206
     7.1917   7.1917   7.2063   7.2063   7.2338   7.2338   7.2934   7.2935
     7.3431   7.3432   7.3767   7.3767   7.5258   7.5258   7.5281   7.5281
    11.0463  11.0463  11.0551  11.0551  11.1559  11.1559  11.1661  11.1661
    12.1292  12.1292  12.1473  12.1473  12.1744  12.1744  12.1844  12.1844
    12.8227  12.8227  12.8237  12.8237  13.4513  13.4513  13.4612  13.4612
    15.3993  15.3993  15.3998  15.3998  16.6651  16.6651  16.6856  16.6857
    17.3370  17.3370  17.3561  17.3562  17.4700

          k =-0.5000-0.4784 0.1666 ( 62860 PWs)   bands (ev):

   -66.1956 -66.1956 -66.1956 -66.1956 -66.1948 -66.1948 -66.1948 -66.1948
   -30.5942 -30.5942 -30.5941 -30.5941 -30.5912 -30.5912 -30.5911 -30.5911
   -30.5228 -30.5228 -30.5228 -30.5228 -30.4826 -30.4826 -30.4824 -30.4824
   -30.4785 -30.4785 -30.4784 -30.4784 -30.4395 -30.4395 -30.4395 -30.4395
   -20.3480 -20.3480 -20.3480 -20.3480 -20.3478 -20.3478 -20.3478 -20.3478
   -20.3458 -20.3458 -20.3458 -20.3458 -20.3455 -20.3455 -20.3455 -20.3455
   -20.3374 -20.3374 -20.3374 -20.3374 -20.3360 -20.3360 -20.3359 -20.3359
   -20.3359 -20.3359 -20.3358 -20.3358 -20.3348 -20.3348 -20.3348 -20.3348
   -20.3247 -20.3247 -20.3247 -20.3247 -20.3243 -20.3243 -20.3243 -20.3243
   -20.2961 -20.2961 -20.2961 -20.2961 -20.2941 -20.2941 -20.2941 -20.2941
   -20.2928 -20.2928 -20.2928 -20.2928 -20.2910 -20.2910 -20.2910 -20.2910
    -9.4844  -9.4844  -9.4829  -9.4829  -8.8378  -8.8378  -8.8319  -8.8319
    -8.7060  -8.7060  -8.7001  -8.7000  -8.5188  -8.5187  -8.5083  -8.5083
    -8.4614  -8.4614  -8.4522  -8.4522  -7.8933  -7.8933  -7.8930  -7.8930
     1.4814   1.4814   1.4834   1.4834   2.9185   2.9185   2.9581   2.9581
     3.0386   3.0386   3.0505   3.0505   3.1157   3.1157   3.1645   3.1645
     3.1985   3.1985   3.2936   3.2936   3.3793   3.3793   3.4144   3.4144
     3.4730   3.4730   3.5674   3.5674   4.1572   4.1572   4.1792   4.1792
     4.2397   4.2397   4.2745   4.2745   4.7425   4.7425   4.8771   4.8771
     5.0379   5.0379   5.1633   5.1633   5.7865   5.7865   5.7994   5.7994
     6.6369   6.6369   6.6766   6.6766   6.7488   6.7488   6.7854   6.7854
     7.1830   7.1830   7.2047   7.2048   7.2487   7.2487   7.2961   7.2961
     7.3387   7.3387   7.3858   7.3858   7.5236   7.5236   7.5503   7.5503
    11.1065  11.1065  11.1492  11.1492  11.2512  11.2512  11.3187  11.3187
    12.1299  12.1299  12.1487  12.1487  12.1791  12.1791  12.1872  12.1872
    12.7008  12.7008  12.7716  12.7716  13.2659  13.2659  13.3170  13.3170
    15.6834  15.6834  15.7025  15.7025  16.7265  16.7265  16.7485  16.7485
    17.3334  17.3334  17.3684  17.3685  17.4572

          k =-0.5000-0.4784 0.3333 ( 62772 PWs)   bands (ev):

   -66.1954 -66.1954 -66.1954 -66.1954 -66.1949 -66.1949 -66.1949 -66.1949
   -30.5937 -30.5937 -30.5936 -30.5936 -30.5920 -30.5920 -30.5918 -30.5918
   -30.5052 -30.5052 -30.5052 -30.5052 -30.4817 -30.4817 -30.4815 -30.4815
   -30.4794 -30.4794 -30.4792 -30.4792 -30.4571 -30.4571 -30.4571 -30.4571
   -20.3479 -20.3479 -20.3479 -20.3479 -20.3479 -20.3479 -20.3479 -20.3479
   -20.3458 -20.3458 -20.3457 -20.3457 -20.3456 -20.3456 -20.3456 -20.3456
   -20.3368 -20.3368 -20.3368 -20.3368 -20.3359 -20.3359 -20.3359 -20.3359
   -20.3359 -20.3359 -20.3359 -20.3359 -20.3353 -20.3353 -20.3353 -20.3353
   -20.3246 -20.3246 -20.3246 -20.3246 -20.3244 -20.3244 -20.3243 -20.3243
   -20.2951 -20.2951 -20.2951 -20.2951 -20.2938 -20.2938 -20.2938 -20.2938
   -20.2931 -20.2931 -20.2931 -20.2931 -20.2922 -20.2922 -20.2922 -20.2922
    -9.2747  -9.2747  -9.2724  -9.2724  -8.8942  -8.8942  -8.8886  -8.8886
    -8.6491  -8.6491  -8.6433  -8.6433  -8.5125  -8.5124  -8.5038  -8.5038
    -8.4655  -8.4655  -8.4583  -8.4583  -8.1949  -8.1949  -8.1941  -8.1941
     2.1769   2.1769   2.1809   2.1809   2.9256   2.9256   2.9490   2.9490
     3.0250   3.0250   3.0358   3.0358   3.1670   3.1670   3.1884   3.1884
     3.2748   3.2748   3.3003   3.3003   3.5373   3.5373   3.5579   3.5579
     3.6790   3.6790   3.7239   3.7239   4.1378   4.1378   4.1502   4.1502
     4.1882   4.1882   4.2455   4.2455   4.3183   4.3183   4.4132   4.4132
     4.5382   4.5382   4.6677   4.6677   4.9624   4.9624   4.9765   4.9765
     6.9173   6.9174   6.9555   6.9555   7.0749   7.0749   7.0817   7.0817
     7.1747   7.1747   7.2122   7.2122   7.2339   7.2339   7.2988   7.2988
     7.3770   7.3770   7.4359   7.4359   7.5327   7.5327   7.5559   7.5559
    11.3519  11.3519  11.3973  11.3973  11.5980  11.5980  11.6811  11.6811
    12.0909  12.0909  12.1508  12.1508  12.1695  12.1695  12.1936  12.1936
    12.3802  12.3802  12.5045  12.5045  12.8139  12.8139  12.8983  12.8983
    16.4455  16.4455  16.4971  16.4971  16.9155  16.9155  16.9268  16.9269
    17.2793  17.2793  17.3722  17.3724  17.4295

          k =-0.5000-0.4784-0.4999 ( 62712 PWs)   bands (ev):

   -66.1952 -66.1952 -66.1952 -66.1952 -66.1952 -66.1952 -66.1952 -66.1952
   -30.5929 -30.5929 -30.5929 -30.5929 -30.5928 -30.5928 -30.5928 -30.5928
   -30.4826 -30.4826 -30.4826 -30.4826 -30.4815 -30.4815 -30.4815 -30.4815
   -30.4801 -30.4801 -30.4801 -30.4801 -30.4790 -30.4790 -30.4790 -30.4790
   -20.3479 -20.3479 -20.3479 -20.3479 -20.3479 -20.3479 -20.3479 -20.3479
   -20.3457 -20.3457 -20.3457 -20.3457 -20.3457 -20.3457 -20.3457 -20.3457
   -20.3363 -20.3363 -20.3363 -20.3363 -20.3361 -20.3361 -20.3361 -20.3361
   -20.3359 -20.3359 -20.3359 -20.3359 -20.3357 -20.3357 -20.3357 -20.3357
   -20.3245 -20.3245 -20.3245 -20.3245 -20.3245 -20.3245 -20.3245 -20.3245
   -20.2938 -20.2938 -20.2938 -20.2938 -20.2937 -20.2937 -20.2937 -20.2937
   -20.2934 -20.2934 -20.2934 -20.2934 -20.2933 -20.2933 -20.2933 -20.2933
    -9.0343  -9.0343  -9.0343  -9.0343  -9.0301  -9.0301  -9.0300  -9.0300
    -8.5169  -8.5169  -8.5169  -8.5169  -8.5088  -8.5088  -8.5088  -8.5088
    -8.4664  -8.4664  -8.4664  -8.4664  -8.4629  -8.4629  -8.4629  -8.4629
     2.9237   2.9237   2.9237   2.9237   2.9396   2.9396   2.9396   2.9396
     3.0427   3.0427   3.0427   3.0427   3.0649   3.0649   3.0649   3.0649
     3.3197   3.3197   3.3197   3.3197   3.3640   3.3640   3.3640   3.3640
     4.0505   4.0505   4.0505   4.0505   4.0587   4.0587   4.0587   4.0587
     4.2221   4.2221   4.2221   4.2221   4.2282   4.2282   4.2282   4.2283
     4.3179   4.3179   4.3179   4.3179   4.3320   4.3320   4.3320   4.3320
     7.0760   7.0760   7.0760   7.0760   7.1248   7.1248   7.1248   7.1248
     7.2303   7.2303   7.2303   7.2303   7.2345   7.2345   7.2345   7.2345
     7.4998   7.4998   7.4998   7.4998   7.5124   7.5124   7.5124   7.5124
    11.7580  11.7580  11.7580  11.7580  11.7626  11.7626  11.7626  11.7626
    12.1101  12.1101  12.1101  12.1101  12.1572  12.1572  12.1572  12.1572
    12.3579  12.3579  12.3579  12.3579  12.3797  12.3797  12.3797  12.3797
    17.0456  17.0456  17.0456  17.0456  17.0726  17.0726  17.0726  17.0726
    17.3624  17.3624  17.3625  17.3628  17.3767

     the Fermi energy is     9.7349 ev

!    total energy              =   -6260.69280502 Ry
     Harris-Foulkes estimate   =   -6260.69280502 Ry
     estimated scf accuracy    <          2.5E-09 Ry

     The total energy is the sum of the following terms:

     one-electron contribution =   -4760.30780199 Ry
     hartree contribution      =    2616.63011777 Ry
     xc contribution           =    -966.33075551 Ry
     ewald contribution        =   -3150.68434342 Ry
     smearing contrib. (-TS)   =      -0.00002187 Ry

     convergence has been achieved in  13 iterations

     Writing output data file Landau_4.save
 
     init_run     :     47.75s CPU     49.92s WALL (       1 calls)
     electrons    :   1989.43s CPU   2033.20s WALL (       1 calls)

     Called by init_run:
     wfcinit      :     44.80s CPU     46.82s WALL (       1 calls)
     potinit      :      1.14s CPU      1.18s WALL (       1 calls)

     Called by electrons:
     c_bands      :   1780.50s CPU   1821.79s WALL (      13 calls)
     sum_band     :    201.54s CPU    203.14s WALL (      13 calls)
     v_of_rho     :      1.51s CPU      1.55s WALL (      14 calls)
     mix_rho      :      2.66s CPU      3.34s WALL (      13 calls)

     Called by c_bands:
     init_us_2    :     11.51s CPU     12.18s WALL (      54 calls)
     cegterg      :   1507.69s CPU   1546.48s WALL (      26 calls)

     Called by sum_band:

     Called by *egterg:
     h_psi        :   1113.64s CPU   1122.60s WALL (     128 calls)
     g_psi        :      2.07s CPU      2.09s WALL (     100 calls)
     cdiaghg      :     21.56s CPU     21.65s WALL (     126 calls)

     Called by h_psi:
     h_psi:pot    :   1108.26s CPU   1116.85s WALL (     128 calls)
     h_psi:calbec :    173.72s CPU    178.52s WALL (     128 calls)
     vloc_psi     :    755.82s CPU    758.31s WALL (     128 calls)
     add_vuspsi   :    178.72s CPU    180.01s WALL (     128 calls)

     General routines
     calbec       :    173.72s CPU    178.52s WALL (     128 calls)
     fft          :      1.26s CPU      1.26s WALL (      56 calls)
     fftw         :    794.41s CPU    796.61s WALL (   33908 calls)
 
     Parallel routines
 
     PWSCF        : 34m 0.26s CPU    34m48.21s WALL

 
   This run was terminated on:  16:41: 7  22Mar2020            

=------------------------------------------------------------------------------=
   JOB DONE.
=------------------------------------------------------------------------------=
