
     Program PWSCF v.6.4.1 starts on 22Nov2019 at 12:22:21 

     This program is part of the open-source Quantum ESPRESSO suite
     for quantum simulation of materials; please cite
         "P. Giannozzi et al., J. Phys.:Condens. Matter 21 395502 (2009);
         "P. Giannozzi et al., J. Phys.:Condens. Matter 29 465901 (2017);
          URL http://www.quantum-espresso.org", 
     in publications or presentations arising from this work. More details at
     http://www.quantum-espresso.org/quote

     Parallel version (MPI), running on    40 processors

     MPI processes distributed on     2 nodes
     K-points division:     npool     =      40
     Reading input from scf.in

     Current dimensions of program PWSCF are:
     Max number of different atomic species (ntypx) = 10
     Max number of k-points (npk) =  40000
     Max angular momentum in pseudopotentials (lmaxx) =  3

     Subspace diagonalization in iterative solution of the eigenvalue problem:
     a serial algorithm will be used

     Message from routine setup:
     using ibrav=0 with symmetry is DISCOURAGED, use correct ibrav instead
 
     G-vector sticks info
     --------------------
     sticks:   dense  smooth     PW     G-vecs:    dense   smooth      PW
     Sum        7707    7707   2061               503737   503737   69867
 


     bravais-lattice index     =            0
     lattice parameter (alat)  =      14.0732  a.u.
     unit-cell volume          =    2837.1936 (a.u.)^3
     number of atoms/cell      =           32
     number of atomic types    =            2
     number of electrons       =       368.68
     number of Kohn-Sham states=          221
     kinetic-energy cutoff     =     120.0000  Ry
     charge density cutoff     =     480.0000  Ry
     convergence threshold     =      1.0E-08
     mixing beta               =       0.7000
     number of iterations used =            8  plain     mixing
     Exchange-correlation      = SLA PW NOGX NOGC ( 1  4  0  0 0 0)

     celldm(1)=  14.073194  celldm(2)=   0.000000  celldm(3)=   0.000000
     celldm(4)=   0.000000  celldm(5)=   0.000000  celldm(6)=   0.000000

     crystal axes: (cart. coord. in units of alat)
               a(1) = (   1.000000   0.000000   0.000000 )  
               a(2) = (   0.000000   1.019270   0.000000 )  
               a(3) = (   0.000000   0.000000   0.998669 )  

     reciprocal axes: (cart. coord. in units 2 pi/alat)
               b(1) = (  1.000000  0.000000  0.000000 )  
               b(2) = (  0.000000  0.981094  0.000000 )  
               b(3) = (  0.000000  0.000000  1.001332 )  


     PseudoPot. # 1 for W  read from file:
     /cluster/scratch/mnoe/QE/pps/W_ONCV_LDA-4.0.upf
     MD5 check sum: ba0307d5d4cd419d6f1d13dc49d7c13a
     Pseudo is Norm-conserving + core correction, Zval = 28.0
     Generated using ONCVPSP code by D. R. Hamann
     Using radial grid of 1380 points,  8 beta functions with: 
                l(1) =   0
                l(2) =   0
                l(3) =   1
                l(4) =   1
                l(5) =   2
                l(6) =   2
                l(7) =   3
                l(8) =   3

     PseudoPot. # 2 for O  read from file:
     /cluster/scratch/mnoe/QE/pps/O_ONCV_LDA-3.0.upf
     MD5 check sum: b55cdb4f45ae2203d24ad12cf8d61a31
     Pseudo is Norm-conserving + core correction, Zval =  6.0
     Generated using ONCVPSP code by D. R. Hamann
     Using radial grid of  926 points,  5 beta functions with: 
                l(1) =   0
                l(2) =   0
                l(3) =   1
                l(4) =   1
                l(5) =   2

     atomic species   valence    mass     pseudopotential
        W             28.00   183.84000     W ( 1.00)
        O              6.00    15.99940     O ( 1.00)

      8 Sym. Ops., with inversion, found ( 6 have fractional translation)



   Cartesian axes

     site n.     atom                  positions (alat units)
         1           W   tau(   1) = (   0.2379800   0.2962912   0.0113449  )
         2           W   tau(   2) = (   0.7620200   0.7229788   0.9873245  )
         3           W   tau(   3) = (   0.2620200   0.2133438   0.5106795  )
         4           W   tau(   4) = (   0.7379800   0.8059261   0.4879898  )
         5           W   tau(   5) = (   0.7620200   0.2962912   0.4879898  )
         6           W   tau(   6) = (   0.2379800   0.7229788   0.5106795  )
         7           W   tau(   7) = (   0.7379800   0.2133438   0.9873245  )
         8           W   tau(   8) = (   0.2620200   0.8059261   0.0113449  )
         9           O   tau(   9) = (   0.2278200   0.0255099   0.0035253  )
        10           O   tau(  10) = (   0.7721800   0.9937601   0.9951440  )
        11           O   tau(  11) = (   0.2721800   0.4841251   0.5028600  )
        12           O   tau(  12) = (   0.7278200   0.5351449   0.4958094  )
        13           O   tau(  13) = (   0.7721800   0.0255099   0.4958094  )
        14           O   tau(  14) = (   0.2278200   0.9937601   0.5028600  )
        15           O   tau(  15) = (   0.7278200   0.4841251   0.9951440  )
        16           O   tau(  16) = (   0.2721800   0.5351449   0.0035253  )
        17           O   tau(  17) = (   0.5032900   0.2316189   0.4945189  )
        18           O   tau(  18) = (   0.4967100   0.7876511   0.5041505  )
        19           O   tau(  19) = (   0.9967100   0.2780161   0.9938536  )
        20           O   tau(  20) = (   0.0032899   0.7412538   0.0048158  )
        21           O   tau(  21) = (   0.4967100   0.2316189   0.0048158  )
        22           O   tau(  22) = (   0.5032900   0.7876511   0.9938536  )
        23           O   tau(  23) = (   0.0032899   0.2780161   0.5041505  )
        24           O   tau(  24) = (   0.9967100   0.7412538   0.4945189  )
        25           O   tau(  25) = (   0.7451779   0.2497517   0.7440187  )
        26           O   tau(  26) = (   0.2548222   0.7695183   0.2546507  )
        27           O   tau(  27) = (   0.7548222   0.2598833   0.2446840  )
        28           O   tau(  28) = (   0.2451779   0.7593867   0.7539854  )
        29           O   tau(  29) = (   0.2548222   0.2497517   0.7539854  )
        30           O   tau(  30) = (   0.7451779   0.7695183   0.2446840  )
        31           O   tau(  31) = (   0.2451779   0.2598833   0.2546507  )
        32           O   tau(  32) = (   0.7548222   0.7593867   0.7440187  )

     number of k points=    64  gaussian smearing, width (Ry)=  0.0007
                       cart. coord. in units 2pi/alat
        k(    1) = (   0.0000000   0.0000000   0.0000000), wk =   0.0092593
        k(    2) = (   0.0000000   0.0000000   0.1668887), wk =   0.0185185
        k(    3) = (   0.0000000   0.0000000   0.3337775), wk =   0.0185185
        k(    4) = (   0.0000000   0.0000000  -0.5006662), wk =   0.0092593
        k(    5) = (   0.0000000   0.1635157   0.0000000), wk =   0.0185185
        k(    6) = (   0.0000000   0.1635157   0.1668887), wk =   0.0370370
        k(    7) = (   0.0000000   0.1635157   0.3337775), wk =   0.0370370
        k(    8) = (   0.0000000   0.1635157  -0.5006662), wk =   0.0185185
        k(    9) = (   0.0000000   0.3270314   0.0000000), wk =   0.0185185
        k(   10) = (   0.0000000   0.3270314   0.1668887), wk =   0.0370370
        k(   11) = (   0.0000000   0.3270314   0.3337775), wk =   0.0370370
        k(   12) = (   0.0000000   0.3270314  -0.5006662), wk =   0.0185185
        k(   13) = (   0.0000000  -0.4905472   0.0000000), wk =   0.0092593
        k(   14) = (   0.0000000  -0.4905472   0.1668887), wk =   0.0185185
        k(   15) = (   0.0000000  -0.4905472   0.3337775), wk =   0.0185185
        k(   16) = (   0.0000000  -0.4905472  -0.5006662), wk =   0.0092593
        k(   17) = (   0.1666667   0.0000000   0.0000000), wk =   0.0185185
        k(   18) = (   0.1666667   0.0000000   0.1668887), wk =   0.0370370
        k(   19) = (   0.1666667   0.0000000   0.3337775), wk =   0.0370370
        k(   20) = (   0.1666667   0.0000000  -0.5006662), wk =   0.0185185
        k(   21) = (   0.1666667   0.1635157   0.0000000), wk =   0.0370370
        k(   22) = (   0.1666667   0.1635157   0.1668887), wk =   0.0740741
        k(   23) = (   0.1666667   0.1635157   0.3337775), wk =   0.0740741
        k(   24) = (   0.1666667   0.1635157  -0.5006662), wk =   0.0370370
        k(   25) = (   0.1666667   0.3270314   0.0000000), wk =   0.0370370
        k(   26) = (   0.1666667   0.3270314   0.1668887), wk =   0.0740741
        k(   27) = (   0.1666667   0.3270314   0.3337775), wk =   0.0740741
        k(   28) = (   0.1666667   0.3270314  -0.5006662), wk =   0.0370370
        k(   29) = (   0.1666667  -0.4905472   0.0000000), wk =   0.0185185
        k(   30) = (   0.1666667  -0.4905472   0.1668887), wk =   0.0370370
        k(   31) = (   0.1666667  -0.4905472   0.3337775), wk =   0.0370370
        k(   32) = (   0.1666667  -0.4905472  -0.5006662), wk =   0.0185185
        k(   33) = (   0.3333333   0.0000000   0.0000000), wk =   0.0185185
        k(   34) = (   0.3333333   0.0000000   0.1668887), wk =   0.0370370
        k(   35) = (   0.3333333   0.0000000   0.3337775), wk =   0.0370370
        k(   36) = (   0.3333333   0.0000000  -0.5006662), wk =   0.0185185
        k(   37) = (   0.3333333   0.1635157   0.0000000), wk =   0.0370370
        k(   38) = (   0.3333333   0.1635157   0.1668887), wk =   0.0740741
        k(   39) = (   0.3333333   0.1635157   0.3337775), wk =   0.0740741
        k(   40) = (   0.3333333   0.1635157  -0.5006662), wk =   0.0370370
        k(   41) = (   0.3333333   0.3270314   0.0000000), wk =   0.0370370
        k(   42) = (   0.3333333   0.3270314   0.1668887), wk =   0.0740741
        k(   43) = (   0.3333333   0.3270314   0.3337775), wk =   0.0740741
        k(   44) = (   0.3333333   0.3270314  -0.5006662), wk =   0.0370370
        k(   45) = (   0.3333333  -0.4905472   0.0000000), wk =   0.0185185
        k(   46) = (   0.3333333  -0.4905472   0.1668887), wk =   0.0370370
        k(   47) = (   0.3333333  -0.4905472   0.3337775), wk =   0.0370370
        k(   48) = (   0.3333333  -0.4905472  -0.5006662), wk =   0.0185185
        k(   49) = (  -0.5000000   0.0000000   0.0000000), wk =   0.0092593
        k(   50) = (  -0.5000000   0.0000000   0.1668887), wk =   0.0185185
        k(   51) = (  -0.5000000   0.0000000   0.3337775), wk =   0.0185185
        k(   52) = (  -0.5000000   0.0000000  -0.5006662), wk =   0.0092593
        k(   53) = (  -0.5000000   0.1635157   0.0000000), wk =   0.0185185
        k(   54) = (  -0.5000000   0.1635157   0.1668887), wk =   0.0370370
        k(   55) = (  -0.5000000   0.1635157   0.3337775), wk =   0.0370370
        k(   56) = (  -0.5000000   0.1635157  -0.5006662), wk =   0.0185185
        k(   57) = (  -0.5000000   0.3270314   0.0000000), wk =   0.0185185
        k(   58) = (  -0.5000000   0.3270314   0.1668887), wk =   0.0370370
        k(   59) = (  -0.5000000   0.3270314   0.3337775), wk =   0.0370370
        k(   60) = (  -0.5000000   0.3270314  -0.5006662), wk =   0.0185185
        k(   61) = (  -0.5000000  -0.4905472   0.0000000), wk =   0.0092593
        k(   62) = (  -0.5000000  -0.4905472   0.1668887), wk =   0.0185185
        k(   63) = (  -0.5000000  -0.4905472   0.3337775), wk =   0.0185185
        k(   64) = (  -0.5000000  -0.4905472  -0.5006662), wk =   0.0092593

     Dense  grid:   503737 G-vectors     FFT dimensions: ( 100, 108, 100)

     Estimated max dynamical RAM per process >       3.16 GB

     Estimated total dynamical RAM >     126.47 GB

     Initial potential from superposition of free atoms

     starting charge  367.99656, renormalised to  368.68000
     Starting wfcs are  232 randomized atomic wfcs

     total cpu time spent up to now is       49.3 secs

     Self-consistent Calculation

     iteration #  1     ecut=   120.00 Ry     beta= 0.70
     Davidson diagonalization with overlap
     ethr =  1.00E-02,  avg # of iterations =  5.2

     total cpu time spent up to now is      183.0 secs

     total energy              =   -6253.16713730 Ry
     Harris-Foulkes estimate   =   -6264.21534003 Ry
     estimated scf accuracy    <      13.90061435 Ry

     iteration #  2     ecut=   120.00 Ry     beta= 0.70
     Davidson diagonalization with overlap
     ethr =  3.77E-03,  avg # of iterations =  3.7

     total cpu time spent up to now is      308.5 secs

     total energy              =   -6250.07258628 Ry
     Harris-Foulkes estimate   =   -6270.45440485 Ry
     estimated scf accuracy    <      54.33702210 Ry

     iteration #  3     ecut=   120.00 Ry     beta= 0.70
     Davidson diagonalization with overlap
     ethr =  3.77E-03,  avg # of iterations =  3.4

     total cpu time spent up to now is      426.8 secs

     total energy              =   -6260.55448545 Ry
     Harris-Foulkes estimate   =   -6260.81844813 Ry
     estimated scf accuracy    <       0.89850719 Ry

     iteration #  4     ecut=   120.00 Ry     beta= 0.70
     Davidson diagonalization with overlap
     ethr =  2.44E-04,  avg # of iterations =  3.3

     total cpu time spent up to now is      525.5 secs

     total energy              =   -6260.52547530 Ry
     Harris-Foulkes estimate   =   -6260.61236585 Ry
     estimated scf accuracy    <       0.22729996 Ry

     iteration #  5     ecut=   120.00 Ry     beta= 0.70
     Davidson diagonalization with overlap
     ethr =  6.17E-05,  avg # of iterations =  4.8

     total cpu time spent up to now is      635.0 secs

     total energy              =   -6260.54939343 Ry
     Harris-Foulkes estimate   =   -6260.56959462 Ry
     estimated scf accuracy    <       0.04867167 Ry

     iteration #  6     ecut=   120.00 Ry     beta= 0.70
     Davidson diagonalization with overlap
     ethr =  1.32E-05,  avg # of iterations =  5.7

     total cpu time spent up to now is      749.8 secs

     total energy              =   -6260.55817450 Ry
     Harris-Foulkes estimate   =   -6260.56156928 Ry
     estimated scf accuracy    <       0.00884579 Ry

     iteration #  7     ecut=   120.00 Ry     beta= 0.70
     Davidson diagonalization with overlap
     ethr =  2.40E-06,  avg # of iterations =  5.2

     total cpu time spent up to now is      860.9 secs

     total energy              =   -6260.55936733 Ry
     Harris-Foulkes estimate   =   -6260.55945767 Ry
     estimated scf accuracy    <       0.00014506 Ry

     iteration #  8     ecut=   120.00 Ry     beta= 0.70
     Davidson diagonalization with overlap
     ethr =  3.93E-08,  avg # of iterations =  3.3

     total cpu time spent up to now is      989.7 secs

     total energy              =   -6260.55944226 Ry
     Harris-Foulkes estimate   =   -6260.55946313 Ry
     estimated scf accuracy    <       0.00009085 Ry

     iteration #  9     ecut=   120.00 Ry     beta= 0.70
     Davidson diagonalization with overlap
     ethr =  2.46E-08,  avg # of iterations =  2.0

     total cpu time spent up to now is     1082.7 secs

     total energy              =   -6260.55944123 Ry
     Harris-Foulkes estimate   =   -6260.55944963 Ry
     estimated scf accuracy    <       0.00003843 Ry

     iteration # 10     ecut=   120.00 Ry     beta= 0.70
     Davidson diagonalization with overlap
     ethr =  1.04E-08,  avg # of iterations =  1.5

     total cpu time spent up to now is     1209.7 secs

     total energy              =   -6260.55943829 Ry
     Harris-Foulkes estimate   =   -6260.55944364 Ry
     estimated scf accuracy    <       0.00001277 Ry

     iteration # 11     ecut=   120.00 Ry     beta= 0.70
     Davidson diagonalization with overlap
     ethr =  3.47E-09,  avg # of iterations =  3.0

     total cpu time spent up to now is     1502.5 secs

     total energy              =   -6260.55944092 Ry
     Harris-Foulkes estimate   =   -6260.55944099 Ry
     estimated scf accuracy    <       0.00000013 Ry

     iteration # 12     ecut=   120.00 Ry     beta= 0.70
     Davidson diagonalization with overlap
     ethr =  3.63E-11,  avg # of iterations =  2.3

     total cpu time spent up to now is     1719.1 secs

     total energy              =   -6260.55944096 Ry
     Harris-Foulkes estimate   =   -6260.55944098 Ry
     estimated scf accuracy    <       0.00000003 Ry

     iteration # 13     ecut=   120.00 Ry     beta= 0.70
     Davidson diagonalization with overlap
     ethr =  8.48E-12,  avg # of iterations =  2.5

     total cpu time spent up to now is     1829.9 secs

     End of self-consistent calculation

          k = 0.0000 0.0000 0.0000 ( 62907 PWs)   bands (ev):

   -66.1942 -66.1936 -66.1936 -66.1935 -66.1930 -66.1930 -66.1929 -66.1923
   -30.5886 -30.5845 -30.5744 -30.5707 -30.5671 -30.5622 -30.5548 -30.5446
   -30.5446 -30.5405 -30.5333 -30.5280 -30.5080 -30.5060 -30.4908 -30.4833
   -30.4787 -30.4771 -30.4714 -30.4617 -30.4543 -30.4539 -30.4486 -30.4458
   -20.3458 -20.3457 -20.3455 -20.3454 -20.3453 -20.3452 -20.3450 -20.3449
   -20.3366 -20.3366 -20.3365 -20.3365 -20.3356 -20.3356 -20.3356 -20.3356
   -20.3286 -20.3284 -20.3281 -20.3278 -20.3264 -20.3262 -20.3262 -20.3262
   -20.3237 -20.3236 -20.3232 -20.3232 -20.3216 -20.3212 -20.3203 -20.3201
   -20.3200 -20.3198 -20.3197 -20.3194 -20.3191 -20.3188 -20.3186 -20.3180
   -20.3179 -20.3174 -20.3171 -20.3168 -20.3125 -20.3121 -20.3117 -20.3113
   -20.3066 -20.3065 -20.3060 -20.3059 -20.3056 -20.3056 -20.3050 -20.3049
   -10.0996  -9.7218  -9.7169  -9.6920  -9.3358  -9.3175  -9.2983  -9.0399
    -9.0089  -8.9447  -8.9415  -8.9398  -7.9983  -7.9163  -7.9112  -7.8769
    -7.8766  -7.8580  -7.8466  -7.8388  -7.8046  -7.7789  -7.7557  -7.7450
     1.1260   1.1278   1.1482   1.1814   1.1997   1.2241   1.2946   1.3204
     1.3376   1.3903   1.4284   1.5357   2.3374   2.3623   2.3992   2.4347
     2.4364   2.5580   3.9878   4.0581   4.1615   4.2615   4.5214   4.5472
     4.5750   4.6089   4.6153   4.7118   4.7415   4.7561   5.0741   5.4347
     5.4354   5.4580   5.4708   5.5573   5.5660   5.6386   5.7197   5.7331
     5.7978   5.7986   5.8562   5.8587   5.8859   5.9042   6.0609   6.0771
     6.0862   6.2997   6.3246   6.3511   6.3523   6.5833   6.6071   6.6502
     6.6549   6.6689   6.9943   6.9951   6.9986   7.0165   7.0250   7.0397
     7.0554   7.0583   8.0670   8.1045   8.2397   8.2477   8.2604   8.2703
     9.2382   9.2549   9.6238   9.6805   9.7587   9.8333  12.4131  12.4883
    12.5105  12.5585  12.5736  12.6024  12.6505  12.6647  12.7250  12.9073
    13.1271  13.1681  13.2698  13.4294  13.7341  13.8907  13.9770  14.0566
    14.0617  14.0948  14.3825  14.5668  14.6221  14.6357  15.3215  15.4392
    15.6566  16.3341  16.8276  16.9066  16.9068

          k = 0.0000 0.0000 0.1669 ( 62927 PWs)   bands (ev):

   -66.1941 -66.1936 -66.1935 -66.1935 -66.1930 -66.1930 -66.1929 -66.1924
   -30.5883 -30.5848 -30.5743 -30.5710 -30.5667 -30.5625 -30.5533 -30.5450
   -30.5398 -30.5356 -30.5284 -30.5235 -30.5076 -30.5064 -30.4922 -30.4826
   -30.4797 -30.4766 -30.4743 -30.4613 -30.4594 -30.4579 -30.4532 -30.4486
   -20.3458 -20.3457 -20.3455 -20.3454 -20.3453 -20.3453 -20.3450 -20.3449
   -20.3366 -20.3366 -20.3365 -20.3365 -20.3356 -20.3356 -20.3356 -20.3356
   -20.3286 -20.3284 -20.3280 -20.3278 -20.3264 -20.3263 -20.3263 -20.3262
   -20.3237 -20.3236 -20.3232 -20.3232 -20.3216 -20.3212 -20.3204 -20.3200
   -20.3198 -20.3198 -20.3196 -20.3194 -20.3192 -20.3187 -20.3186 -20.3180
   -20.3175 -20.3171 -20.3167 -20.3165 -20.3128 -20.3125 -20.3120 -20.3117
   -20.3065 -20.3065 -20.3059 -20.3058 -20.3056 -20.3056 -20.3050 -20.3050
   -10.0598  -9.7357  -9.6645  -9.6421  -9.3267  -9.3087  -9.2527  -9.0083
    -8.9742  -8.9417  -8.9303  -8.9094  -8.0367  -8.0041  -7.9692  -7.9567
    -7.9234  -7.9199  -7.8882  -7.8499  -7.8174  -7.7824  -7.7780  -7.7482
     1.1453   1.1933   1.2228   1.2379   1.2552   1.2931   1.3131   1.3857
     1.4703   1.5224   1.5917   1.6747   2.3406   2.3962   2.4476   2.5141
     2.5218   2.6390   3.9634   4.0196   4.1530   4.2145   4.2785   4.3134
     4.4320   4.4761   4.6232   4.6273   4.6287   4.7336   5.0817   5.3004
     5.3998   5.4058   5.4818   5.5217   5.5310   5.5418   5.6134   5.6243
     5.7138   5.7282   5.8169   5.8782   5.8877   5.9622   6.0748   6.0987
     6.1430   6.3178   6.4383   6.4946   6.5050   6.5465   6.6050   6.6528
     6.6974   6.7779   6.8197   6.8350   6.8587   6.8893   6.9005   6.9379
     7.0162   7.0222   8.0704   8.1000   8.1711   8.1856   8.1933   8.2118
     9.5688   9.5854   9.6942   9.8307   9.9500  10.0509  12.4274  12.4480
    12.4838  12.5574  12.5639  12.6031  12.6040  12.6065  12.7635  12.9083
    12.9104  12.9481  13.3297  13.4268  13.6984  13.7667  13.8670  13.9460
    14.2594  14.3159  14.5588  14.6202  14.6436  14.7280  15.4207  15.6236
    15.7384  16.5195  16.6196  16.9804  16.9966

          k = 0.0000 0.0000 0.3338 ( 62943 PWs)   bands (ev):

   -66.1940 -66.1937 -66.1934 -66.1934 -66.1931 -66.1931 -66.1928 -66.1925
   -30.5877 -30.5856 -30.5738 -30.5718 -30.5658 -30.5634 -30.5505 -30.5462
   -30.5269 -30.5226 -30.5152 -30.5104 -30.5077 -30.5059 -30.4976 -30.4845
   -30.4842 -30.4805 -30.4751 -30.4733 -30.4674 -30.4639 -30.4600 -30.4540
   -20.3457 -20.3456 -20.3455 -20.3454 -20.3454 -20.3452 -20.3451 -20.3450
   -20.3366 -20.3366 -20.3365 -20.3365 -20.3356 -20.3356 -20.3356 -20.3356
   -20.3286 -20.3285 -20.3280 -20.3279 -20.3264 -20.3264 -20.3263 -20.3263
   -20.3236 -20.3236 -20.3233 -20.3233 -20.3216 -20.3214 -20.3205 -20.3202
   -20.3197 -20.3196 -20.3195 -20.3192 -20.3192 -20.3187 -20.3185 -20.3181
   -20.3164 -20.3162 -20.3157 -20.3155 -20.3137 -20.3135 -20.3129 -20.3128
   -20.3063 -20.3063 -20.3058 -20.3058 -20.3057 -20.3057 -20.3052 -20.3052
    -9.9626  -9.7795  -9.5394  -9.5267  -9.3573  -9.3440  -9.0166  -8.9688
    -8.9471  -8.8492  -8.8232  -8.7940  -8.2951  -8.2745  -8.2643  -8.2405
    -7.9501  -7.9294  -7.8823  -7.8588  -7.8152  -7.7917  -7.7785  -7.7570
     1.1522   1.1785   1.2662   1.2737   1.2897   1.2971   1.3386   1.3756
     2.1240   2.1489   2.2270   2.2559   2.3479   2.4036   2.6739   2.7165
     2.7704   2.8733   3.6489   3.7277   3.8001   3.9169   3.9569   3.9769
     4.1525   4.1532   4.4963   4.6154   4.6535   4.6671   4.8617   4.9717
     5.0594   5.1045   5.2443   5.3002   5.3659   5.4928   5.6252   5.6337
     5.7075   5.7172   5.8696   5.9165   5.9303   6.0699   6.0731   6.1504
     6.1537   6.1827   6.2939   6.3435   6.3529   6.4407   6.4687   6.6184
     6.6434   6.6652   6.7625   6.7856   7.0155   7.0224   7.1065   7.1180
     7.1954   7.2311   7.9535   7.9811   7.9984   8.0247   8.0782   8.0923
     9.7277   9.7977  10.3077  10.3149  10.6896  10.7428  11.8832  11.9049
    12.3295  12.3718  12.6025  12.6040  12.7002  12.7350  12.7369  12.7730
    12.8097  12.9406  13.3749  13.3955  13.4182  13.4372  13.5219  13.5767
    14.5534  14.6136  14.8474  14.9478  14.9831  15.2623  15.3572  15.5115
    16.0558  16.7609  16.9407  17.1346  17.2622

          k = 0.0000 0.0000-0.5007 ( 62938 PWs)   bands (ev):

   -66.1939 -66.1939 -66.1933 -66.1933 -66.1932 -66.1932 -66.1927 -66.1927
   -30.5867 -30.5867 -30.5729 -30.5729 -30.5646 -30.5646 -30.5481 -30.5481
   -30.5123 -30.5123 -30.5086 -30.5086 -30.4990 -30.4990 -30.4978 -30.4977
   -30.4919 -30.4919 -30.4759 -30.4759 -30.4719 -30.4719 -30.4578 -30.4578
   -20.3456 -20.3456 -20.3455 -20.3455 -20.3453 -20.3453 -20.3451 -20.3451
   -20.3366 -20.3366 -20.3365 -20.3365 -20.3356 -20.3356 -20.3356 -20.3356
   -20.3285 -20.3285 -20.3279 -20.3279 -20.3264 -20.3264 -20.3264 -20.3263
   -20.3236 -20.3236 -20.3233 -20.3233 -20.3215 -20.3215 -20.3203 -20.3203
   -20.3196 -20.3196 -20.3194 -20.3194 -20.3190 -20.3189 -20.3183 -20.3183
   -20.3149 -20.3149 -20.3149 -20.3149 -20.3142 -20.3142 -20.3142 -20.3142
   -20.3061 -20.3061 -20.3061 -20.3060 -20.3055 -20.3055 -20.3054 -20.3054
    -9.8574  -9.8574  -9.4204  -9.4204  -9.4180  -9.4180  -8.9554  -8.9554
    -8.6693  -8.6693  -8.6006  -8.6006  -8.5841  -8.5841  -8.5599  -8.5598
    -7.9416  -7.9416  -7.8707  -7.8707  -7.8041  -7.8041  -7.7685  -7.7685
     1.1635   1.1635   1.2807   1.2807   1.2849   1.2849   1.3628   1.3628
     2.3557   2.3557   2.7745   2.7745   2.8330   2.8330   3.0116   3.0116
     3.0666   3.0666   3.1606   3.1606   3.4061   3.4061   3.8071   3.8071
     3.8261   3.8261   4.1466   4.1466   4.6192   4.6192   5.0169   5.0169
     5.0925   5.0925   5.2156   5.2156   5.2492   5.2493   5.6768   5.6768
     5.7751   5.7751   5.9121   5.9121   5.9879   5.9879   6.0327   6.0327
     6.1423   6.1423   6.2499   6.2499   6.2712   6.2712   6.4694   6.4694
     6.6497   6.6497   6.7221   6.7221   7.0197   7.0197   7.5858   7.5858
     7.6138   7.6138   7.6660   7.6660   7.6890   7.6890   8.0849   8.0849
     9.7667   9.7667  11.1280  11.1280  11.1452  11.1452  11.5441  11.5441
    11.5773  11.5773  12.6027  12.6027  12.8209  12.8209  13.0267  13.0267
    13.0465  13.0465  13.1118  13.1118  13.1605  13.1605  13.4021  13.4021
    14.5979  14.5979  15.2198  15.2198  15.2748  15.2748  15.4767  15.4767
    16.1760  16.1760  17.4133  17.4133  17.6108

          k = 0.0000 0.1635 0.0000 ( 63006 PWs)   bands (ev):

   -66.1941 -66.1936 -66.1935 -66.1935 -66.1930 -66.1930 -66.1929 -66.1924
   -30.5857 -30.5816 -30.5699 -30.5678 -30.5660 -30.5629 -30.5535 -30.5447
   -30.5423 -30.5404 -30.5334 -30.5270 -30.5111 -30.5096 -30.4948 -30.4877
   -30.4783 -30.4765 -30.4721 -30.4637 -30.4544 -30.4543 -30.4487 -30.4465
   -20.3458 -20.3457 -20.3455 -20.3454 -20.3453 -20.3452 -20.3450 -20.3449
   -20.3365 -20.3365 -20.3365 -20.3364 -20.3357 -20.3357 -20.3356 -20.3356
   -20.3286 -20.3283 -20.3281 -20.3278 -20.3260 -20.3259 -20.3259 -20.3258
   -20.3236 -20.3235 -20.3233 -20.3233 -20.3217 -20.3213 -20.3207 -20.3204
   -20.3202 -20.3199 -20.3197 -20.3194 -20.3193 -20.3189 -20.3186 -20.3180
   -20.3179 -20.3176 -20.3171 -20.3168 -20.3124 -20.3122 -20.3116 -20.3114
   -20.3066 -20.3065 -20.3060 -20.3059 -20.3056 -20.3056 -20.3050 -20.3049
   -10.0590  -9.7082  -9.6736  -9.6689  -9.3464  -9.3291  -9.2156  -9.0378
    -9.0110  -8.9047  -8.9029  -8.9001  -8.0483  -7.9623  -7.9359  -7.9119
    -7.9010  -7.8764  -7.8665  -7.8491  -7.8459  -7.8426  -7.8369  -7.7945
     1.1257   1.1273   1.2152   1.2245   1.2626   1.2939   1.3072   1.4274
     1.5159   1.5566   1.5898   1.6958   2.4101   2.4201   2.4663   2.4723
     2.5148   2.5536   3.8071   3.8819   3.9067   3.9955   4.5213   4.5419
     4.5561   4.5657   4.5996   4.7478   4.8080   4.8144   4.9601   5.1616
     5.2303   5.4803   5.5202   5.5320   5.5560   5.5638   5.5664   5.5827
     5.7673   5.8764   5.8870   5.9072   5.9427   5.9465   6.0668   6.0790
     6.0995   6.2597   6.2894   6.3760   6.4464   6.5728   6.6107   6.6378
     6.6943   6.7194   6.8634   6.8939   6.9777   6.9944   6.9981   7.0191
     7.0274   7.0319   8.0153   8.0486   8.1552   8.1833   8.2434   8.2591
     9.2438   9.2627   9.8411   9.9319   9.9573  10.0610  12.2591  12.3131
    12.4217  12.4266  12.5124  12.5400  12.6493  12.6521  12.7624  12.9382
    13.1497  13.1975  13.3519  13.4972  13.7797  13.8811  13.9108  13.9958
    14.1242  14.2792  14.3604  14.5751  14.6781  14.8092  15.2972  15.4090
    16.0566  16.0652  17.0275  17.1136  17.1605

          k = 0.0000 0.1635 0.1669 ( 62995 PWs)   bands (ev):

   -66.1941 -66.1936 -66.1936 -66.1935 -66.1931 -66.1930 -66.1929 -66.1924
   -30.5855 -30.5819 -30.5698 -30.5674 -30.5663 -30.5632 -30.5518 -30.5427
   -30.5400 -30.5356 -30.5285 -30.5228 -30.5106 -30.5100 -30.4960 -30.4870
   -30.4794 -30.4761 -30.4748 -30.4633 -30.4595 -30.4586 -30.4532 -30.4496
   -20.3458 -20.3456 -20.3455 -20.3453 -20.3453 -20.3452 -20.3450 -20.3449
   -20.3365 -20.3365 -20.3365 -20.3364 -20.3357 -20.3357 -20.3356 -20.3356
   -20.3286 -20.3284 -20.3281 -20.3279 -20.3261 -20.3259 -20.3259 -20.3259
   -20.3236 -20.3235 -20.3233 -20.3233 -20.3218 -20.3214 -20.3208 -20.3204
   -20.3200 -20.3198 -20.3195 -20.3194 -20.3193 -20.3188 -20.3186 -20.3181
   -20.3175 -20.3172 -20.3167 -20.3165 -20.3128 -20.3125 -20.3120 -20.3118
   -20.3065 -20.3065 -20.3059 -20.3058 -20.3056 -20.3056 -20.3050 -20.3050
   -10.0179  -9.6868  -9.6584  -9.6130  -9.3386  -9.2634  -9.2261  -9.0048
    -8.9763  -8.9055  -8.8883  -8.8762  -8.0778  -8.0020  -8.0000  -7.9618
    -7.9548  -7.9295  -7.8906  -7.8894  -7.8788  -7.8548  -7.8524  -7.8459
     1.2060   1.2219   1.2593   1.2923   1.3910   1.4052   1.4705   1.5320
     1.5830   1.5908   1.6136   1.7633   2.4148   2.4689   2.5032   2.5543
     2.5940   2.6331   3.8062   3.8688   3.9256   3.9723   4.2580   4.3086
     4.4840   4.5407   4.5469   4.6167   4.6268   4.7560   4.9749   5.1247
     5.2014   5.3078   5.3943   5.4397   5.4508   5.5151   5.5261   5.5637
     5.6674   5.8352   5.8448   5.9043   5.9173   6.0047   6.0291   6.0634
     6.1599   6.4233   6.4273   6.4391   6.4690   6.5718   6.6060   6.6967
     6.7114   6.7845   6.8170   6.8496   6.8642   6.8920   6.9016   6.9063
     6.9349   6.9798   8.0192   8.0429   8.1056   8.1314   8.1741   8.1932
     9.5727   9.5890   9.9448  10.0561  10.1192  10.2126  12.3305  12.3865
    12.3980  12.4277  12.4517  12.4675  12.5666  12.5907  12.8018  12.9386
    12.9426  12.9793  13.3974  13.4974  13.7100  13.7617  13.7744  13.8411
    14.3573  14.5321  14.5501  14.6508  14.7012  14.9092  15.3888  15.7140
    16.0317  16.2209  16.7870  17.0632  17.1596

          k = 0.0000 0.1635 0.3338 ( 62982 PWs)   bands (ev):

   -66.1940 -66.1937 -66.1935 -66.1933 -66.1932 -66.1930 -66.1928 -66.1925
   -30.5848 -30.5827 -30.5692 -30.5672 -30.5664 -30.5640 -30.5486 -30.5440
   -30.5274 -30.5233 -30.5153 -30.5112 -30.5101 -30.5084 -30.5005 -30.4847
   -30.4844 -30.4840 -30.4746 -30.4733 -30.4689 -30.4637 -30.4620 -30.4555
   -20.3457 -20.3456 -20.3454 -20.3454 -20.3453 -20.3453 -20.3451 -20.3450
   -20.3365 -20.3365 -20.3365 -20.3364 -20.3357 -20.3357 -20.3357 -20.3356
   -20.3286 -20.3284 -20.3280 -20.3279 -20.3261 -20.3260 -20.3260 -20.3259
   -20.3236 -20.3235 -20.3234 -20.3233 -20.3218 -20.3215 -20.3208 -20.3205
   -20.3197 -20.3197 -20.3195 -20.3194 -20.3192 -20.3187 -20.3186 -20.3182
   -20.3164 -20.3162 -20.3157 -20.3156 -20.3137 -20.3135 -20.3129 -20.3128
   -20.3063 -20.3063 -20.3058 -20.3058 -20.3057 -20.3057 -20.3052 -20.3052
    -9.9176  -9.7307  -9.5427  -9.4761  -9.3702  -9.2626  -9.0277  -8.9450
    -8.9116  -8.8519  -8.8046  -8.7728  -8.3103  -8.2747  -8.2714  -8.2372
    -7.9852  -7.9696  -7.8939  -7.8849  -7.8835  -7.8695  -7.8613  -7.8555
     1.2371   1.2530   1.2726   1.2888   1.4766   1.4966   1.5659   1.5792
     2.1256   2.1574   2.2264   2.2692   2.4223   2.4718   2.7294   2.7867
     2.8041   2.8667   3.6455   3.6549   3.7927   3.8450   3.9077   3.9631
     3.9969   4.0822   4.4960   4.5256   4.6604   4.6635   4.8100   4.9171
     4.9326   4.9515   5.0138   5.0535   5.3536   5.3585   5.3796   5.6055
     5.7323   5.7555   5.8730   5.8755   5.8909   5.9237   5.9577   6.0512
     6.2916   6.3148   6.3578   6.4188   6.4487   6.5464   6.5621   6.6010
     6.6325   6.6407   6.8228   6.8687   6.9001   6.9097   7.1117   7.1443
     7.1961   7.2375   7.9428   7.9592   7.9658   7.9672   8.0270   8.0498
     9.9638  10.0267  10.3086  10.3227  10.7905  10.8461  11.8860  11.9038
    12.3534  12.3990  12.4425  12.4567  12.5647  12.6103  12.7359  12.7399
    12.8506  12.9489  13.3916  13.3991  13.4413  13.4482  13.4560  13.4926
    14.5919  14.6479  14.9353  15.1232  15.1805  15.3269  15.3708  15.9148
    16.2060  16.7142  16.7291  17.0421  17.3176

          k = 0.0000 0.1635-0.5007 ( 62950 PWs)   bands (ev):

   -66.1938 -66.1938 -66.1933 -66.1933 -66.1932 -66.1932 -66.1927 -66.1927
   -30.5838 -30.5838 -30.5682 -30.5682 -30.5652 -30.5652 -30.5459 -30.5459
   -30.5148 -30.5148 -30.5105 -30.5105 -30.4992 -30.4992 -30.4979 -30.4979
   -30.4918 -30.4918 -30.4790 -30.4790 -30.4714 -30.4714 -30.4596 -30.4596
   -20.3456 -20.3456 -20.3454 -20.3454 -20.3453 -20.3453 -20.3451 -20.3451
   -20.3365 -20.3365 -20.3365 -20.3365 -20.3357 -20.3357 -20.3357 -20.3357
   -20.3285 -20.3285 -20.3280 -20.3280 -20.3261 -20.3261 -20.3260 -20.3260
   -20.3235 -20.3235 -20.3234 -20.3234 -20.3217 -20.3217 -20.3207 -20.3207
   -20.3196 -20.3196 -20.3196 -20.3196 -20.3189 -20.3189 -20.3184 -20.3184
   -20.3149 -20.3149 -20.3149 -20.3149 -20.3142 -20.3142 -20.3142 -20.3142
   -20.3061 -20.3061 -20.3061 -20.3061 -20.3055 -20.3055 -20.3054 -20.3054
    -9.8097  -9.8097  -9.4349  -9.4349  -9.3421  -9.3421  -8.9220  -8.9220
    -8.6816  -8.6815  -8.6055  -8.6055  -8.5776  -8.5776  -8.5514  -8.5514
    -7.9813  -7.9813  -7.8863  -7.8863  -7.8733  -7.8733  -7.8667  -7.8667
     1.2460   1.2460   1.2839   1.2839   1.4924   1.4924   1.5740   1.5740
     2.4280   2.4280   2.8044   2.8044   2.8682   2.8683   3.0006   3.0006
     3.0582   3.0583   3.1776   3.1776   3.3916   3.3916   3.8371   3.8371
     3.8760   3.8760   3.9563   3.9563   4.5192   4.5192   4.8509   4.8509
     4.8979   4.8979   5.1600   5.1600   5.1679   5.1679   5.4808   5.4808
     5.7039   5.7039   5.8502   5.8502   5.9241   5.9241   6.0053   6.0053
     6.1984   6.1984   6.3798   6.3798   6.4635   6.4635   6.5636   6.5637
     6.5928   6.5928   6.8060   6.8061   6.8995   6.8995   7.5996   7.5996
     7.6073   7.6073   7.6420   7.6420   7.6592   7.6592   8.0346   8.0346
    10.0005  10.0005  11.1285  11.1285  11.1459  11.1459  11.6054  11.6054
    11.6395  11.6395  12.4353  12.4353  12.8419  12.8419  12.9459  12.9459
    13.0098  13.0098  13.0274  13.0274  13.0969  13.0969  13.4739  13.4739
    14.6339  14.6339  15.1950  15.1950  15.6163  15.6164  15.6691  15.6691
    16.2818  16.2818  17.1955  17.1955  17.6320

          k = 0.0000 0.3270 0.0000 ( 63016 PWs)   bands (ev):

   -66.1940 -66.1937 -66.1934 -66.1934 -66.1931 -66.1931 -66.1928 -66.1925
   -30.5793 -30.5750 -30.5697 -30.5650 -30.5581 -30.5534 -30.5500 -30.5452
   -30.5408 -30.5347 -30.5332 -30.5229 -30.5203 -30.5202 -30.5062 -30.4994
   -30.4774 -30.4749 -30.4739 -30.4680 -30.4550 -30.4548 -30.4488 -30.4478
   -20.3457 -20.3456 -20.3456 -20.3454 -20.3452 -20.3451 -20.3450 -20.3449
   -20.3363 -20.3363 -20.3363 -20.3362 -20.3358 -20.3358 -20.3358 -20.3358
   -20.3285 -20.3283 -20.3282 -20.3280 -20.3251 -20.3250 -20.3248 -20.3248
   -20.3235 -20.3235 -20.3233 -20.3233 -20.3224 -20.3221 -20.3216 -20.3214
   -20.3203 -20.3200 -20.3196 -20.3195 -20.3195 -20.3191 -20.3185 -20.3182
   -20.3179 -20.3178 -20.3171 -20.3169 -20.3124 -20.3122 -20.3116 -20.3114
   -20.3066 -20.3066 -20.3060 -20.3059 -20.3056 -20.3056 -20.3050 -20.3049
    -9.9583  -9.7586  -9.5605  -9.5543  -9.3815  -9.3669  -9.0325  -9.0167
    -8.9807  -8.7776  -8.7743  -8.7577  -8.2884  -8.2165  -8.2068  -8.1726
    -7.9221  -7.9152  -7.8743  -7.8696  -7.8608  -7.8558  -7.8316  -7.8141
     1.1254   1.1264   1.2252   1.2254   1.2842   1.2922   1.4017   1.4243
     2.1168   2.2233   2.2707   2.3656   2.4633   2.5078   2.6548   2.6824
     2.7126   2.7620   3.4021   3.4236   3.4927   3.5166   4.0049   4.3174
     4.3635   4.5274   4.5516   4.5709   4.5984   4.6375   4.9820   4.9941
     4.9983   5.0194   5.3600   5.3836   5.5315   5.5325   5.5773   5.6011
     5.8223   5.8377   5.8766   5.8925   5.9238   5.9439   5.9853   6.0111
     6.1260   6.1912   6.2215   6.4296   6.5015   6.5285   6.6900   6.7737
     6.7762   6.8678   6.9698   6.9738   6.9964   7.0157   7.0249   7.0265
     7.0331   7.0615   7.8200   7.8436   7.8910   7.9225   8.2464   8.2555
     9.2546   9.2678  10.4062  10.4904  10.5389  10.6231  11.7886  11.8391
    11.9482  11.9636  12.5169  12.5293  12.6484  12.6520  12.8767  13.0512
    13.1979  13.3039  13.3400  13.4521  13.6947  13.7582  13.8546  13.8888
    14.3354  14.3376  14.5517  14.7019  14.8974  15.2114  15.3151  15.5022
    15.5153  16.9260  17.0680  17.2118  17.6477

          k = 0.0000 0.3270 0.1669 ( 63022 PWs)   bands (ev):

   -66.1940 -66.1937 -66.1935 -66.1934 -66.1932 -66.1931 -66.1928 -66.1925
   -30.5790 -30.5753 -30.5694 -30.5653 -30.5578 -30.5537 -30.5474 -30.5407
   -30.5365 -30.5351 -30.5285 -30.5207 -30.5196 -30.5191 -30.5070 -30.4983
   -30.4786 -30.4760 -30.4745 -30.4676 -30.4598 -30.4596 -30.4532 -30.4514
   -20.3457 -20.3456 -20.3455 -20.3454 -20.3452 -20.3452 -20.3451 -20.3450
   -20.3363 -20.3363 -20.3363 -20.3362 -20.3358 -20.3358 -20.3358 -20.3358
   -20.3285 -20.3283 -20.3282 -20.3280 -20.3252 -20.3250 -20.3249 -20.3249
   -20.3235 -20.3235 -20.3233 -20.3233 -20.3224 -20.3221 -20.3217 -20.3214
   -20.3201 -20.3199 -20.3196 -20.3195 -20.3194 -20.3190 -20.3185 -20.3182
   -20.3175 -20.3174 -20.3167 -20.3166 -20.3127 -20.3126 -20.3119 -20.3118
   -20.3065 -20.3065 -20.3059 -20.3059 -20.3056 -20.3056 -20.3050 -20.3050
    -9.9139  -9.7094  -9.5701  -9.4907  -9.3777  -9.2992  -8.9989  -8.9910
    -8.9820  -8.7802  -8.7578  -8.7505  -8.3005  -8.2275  -8.2061  -8.1767
    -7.9959  -7.9689  -7.9494  -7.9273  -7.9094  -7.8971  -7.8724  -7.8591
     1.2149   1.2198   1.2822   1.2904   1.4636   1.4707   1.5587   1.5881
     2.1228   2.2173   2.2674   2.3628   2.5421   2.5752   2.6629   2.6864
     2.7996   2.8425   3.4263   3.4710   3.4880   3.5128   3.9936   4.2597
     4.2765   4.3370   4.3672   4.5641   4.6065   4.6618   4.7179   4.7384
     4.9883   5.0445   5.2087   5.3183   5.3275   5.3462   5.5405   5.5429
     5.5853   5.6915   5.7568   5.8262   5.8680   5.8945   5.9664   6.0397
     6.2592   6.3779   6.4490   6.4583   6.5719   6.6937   6.7353   6.7748
     6.8093   6.8239   6.8400   6.8815   6.9090   6.9285   6.9793   7.0212
     7.0697   7.0895   7.8247   7.8368   7.8638   7.8890   8.1793   8.1902
     9.5810   9.5914  10.5470  10.5946  10.6184  10.6707  11.8763  11.9272
    11.9492  11.9642  12.4457  12.4500  12.5710  12.5818  12.9184  13.0458
    13.0495  13.0907  13.3463  13.4507  13.5336  13.5856  13.7392  13.7628
    14.5392  14.5763  14.6607  14.8523  15.0851  15.2893  15.5968  15.6276
    15.6750  17.0206  17.0276  17.1940  17.2731

          k = 0.0000 0.3270 0.3338 ( 63004 PWs)   bands (ev):

   -66.1939 -66.1936 -66.1936 -66.1933 -66.1932 -66.1930 -66.1929 -66.1926
   -30.5783 -30.5761 -30.5685 -30.5661 -30.5570 -30.5546 -30.5426 -30.5365
   -30.5302 -30.5270 -30.5217 -30.5156 -30.5136 -30.5098 -30.5087 -30.4945
   -30.4843 -30.4842 -30.4735 -30.4730 -30.4716 -30.4662 -30.4630 -30.4587
   -20.3456 -20.3455 -20.3454 -20.3453 -20.3453 -20.3452 -20.3452 -20.3451
   -20.3363 -20.3363 -20.3363 -20.3363 -20.3358 -20.3358 -20.3358 -20.3358
   -20.3285 -20.3283 -20.3282 -20.3280 -20.3252 -20.3252 -20.3250 -20.3249
   -20.3236 -20.3236 -20.3233 -20.3233 -20.3224 -20.3223 -20.3217 -20.3215
   -20.3199 -20.3198 -20.3197 -20.3196 -20.3191 -20.3187 -20.3187 -20.3183
   -20.3164 -20.3163 -20.3157 -20.3156 -20.3137 -20.3136 -20.3129 -20.3128
   -20.3063 -20.3063 -20.3058 -20.3058 -20.3057 -20.3057 -20.3052 -20.3052
    -9.8062  -9.6130  -9.5933  -9.4121  -9.3178  -9.0673  -9.0331  -8.9000
    -8.8598  -8.7905  -8.7125  -8.6907  -8.4118  -8.3364  -8.2618  -8.2267
    -8.2076  -8.1873  -8.1425  -8.1099  -7.9065  -7.8920  -7.8818  -7.8681
     1.2608   1.2699   1.2776   1.2866   2.0086   2.0737   2.1241   2.1435
     2.2205   2.2613   2.3024   2.4390   2.6316   2.6742   2.7758   2.8547
     3.0075   3.0241   3.4249   3.4623   3.5109   3.5248   3.7556   3.7687
     3.9800   4.1798   4.2439   4.2694   4.3206   4.4872   4.5478   4.7010
     4.7831   4.8085   4.9175   4.9350   5.0126   5.0774   5.2240   5.2612
     5.2750   5.4349   5.6348   5.7871   5.9104   5.9326   6.0273   6.0677
     6.3756   6.3989   6.4112   6.4876   6.5086   6.6082   6.6611   6.6908
     6.7891   6.9439   6.9533   7.0044   7.0246   7.0851   7.1136   7.1852
     7.2320   7.2428   7.7629   7.7759   7.8109   7.8349   7.9721   7.9966
    10.2903  10.3090  10.5740  10.6095  11.1051  11.1639  11.8674  11.8975
    11.9564  11.9931  12.1589  12.1957  12.5251  12.5538  12.7383  12.7399
    12.9612  13.0437  13.1096  13.1703  13.3510  13.4251  13.4394  13.4771
    14.7010  14.8396  14.8960  15.2326  15.3686  15.8520  15.9512  16.1822
    16.5841  16.6171  16.8981  17.3408  17.3712

          k = 0.0000 0.3270-0.5007 ( 62992 PWs)   bands (ev):

   -66.1937 -66.1937 -66.1934 -66.1934 -66.1931 -66.1931 -66.1928 -66.1928
   -30.5772 -30.5772 -30.5673 -30.5673 -30.5557 -30.5557 -30.5389 -30.5389
   -30.5241 -30.5241 -30.5165 -30.5165 -30.4992 -30.4992 -30.4983 -30.4983
   -30.4915 -30.4915 -30.4855 -30.4855 -30.4700 -30.4700 -30.4636 -30.4636
   -20.3455 -20.3455 -20.3454 -20.3454 -20.3453 -20.3453 -20.3452 -20.3452
   -20.3363 -20.3363 -20.3363 -20.3363 -20.3359 -20.3358 -20.3358 -20.3358
   -20.3284 -20.3284 -20.3281 -20.3281 -20.3252 -20.3252 -20.3250 -20.3250
   -20.3236 -20.3236 -20.3233 -20.3233 -20.3224 -20.3224 -20.3216 -20.3216
   -20.3198 -20.3198 -20.3197 -20.3197 -20.3189 -20.3189 -20.3185 -20.3185
   -20.3150 -20.3150 -20.3150 -20.3150 -20.3143 -20.3143 -20.3143 -20.3142
   -20.3061 -20.3061 -20.3061 -20.3061 -20.3055 -20.3055 -20.3054 -20.3054
    -9.6928  -9.6928  -9.4816  -9.4816  -9.1356  -9.1356  -8.8171  -8.8171
    -8.7326  -8.7326  -8.6237  -8.6237  -8.5508  -8.5508  -8.5180  -8.5180
    -8.2046  -8.2046  -8.1599  -8.1599  -7.8943  -7.8943  -7.8803  -7.8803
     1.2718   1.2718   1.2814   1.2814   2.1250   2.1250   2.2522   2.2522
     2.6287   2.6287   2.8902   2.8902   2.9585   2.9585   2.9646   2.9647
     3.0344   3.0344   3.2252   3.2252   3.3432   3.3432   3.5282   3.5282
     3.9918   3.9918   4.0005   4.0005   4.0425   4.0426   4.2519   4.2519
     4.8278   4.8278   4.9443   4.9444   5.0032   5.0032   5.0970   5.0970
     5.2267   5.2267   5.7093   5.7093   5.9768   5.9768   6.0082   6.0082
     6.3426   6.3426   6.4107   6.4107   6.4580   6.4580   6.6768   6.6768
     6.9149   6.9149   7.0005   7.0005   7.0782   7.0782   7.5475   7.5475
     7.5572   7.5572   7.5746   7.5746   7.6260   7.6260   7.8556   7.8556
    10.5724  10.5724  11.1272  11.1272  11.1513  11.1513  11.7949  11.7949
    11.8336  11.8336  12.0009  12.0009  12.5853  12.5853  12.6342  12.6342
    12.9596  12.9596  13.0263  13.0263  13.1173  13.1173  13.4368  13.4368
    14.7886  14.7886  15.1163  15.1163  16.0056  16.0057  16.5441  16.5441
    16.6997  16.6997  16.7861  16.7861  17.6910

          k = 0.0000-0.4905 0.0000 ( 63074 PWs)   bands (ev):

   -66.1939 -66.1939 -66.1933 -66.1933 -66.1933 -66.1932 -66.1926 -66.1926
   -30.5734 -30.5734 -30.5689 -30.5689 -30.5468 -30.5468 -30.5452 -30.5452
   -30.5363 -30.5363 -30.5304 -30.5304 -30.5213 -30.5213 -30.5132 -30.5132
   -30.4759 -30.4759 -30.4721 -30.4721 -30.4551 -30.4551 -30.4486 -30.4486
   -20.3456 -20.3456 -20.3455 -20.3455 -20.3451 -20.3451 -20.3450 -20.3450
   -20.3361 -20.3361 -20.3361 -20.3361 -20.3360 -20.3360 -20.3360 -20.3360
   -20.3284 -20.3284 -20.3281 -20.3281 -20.3241 -20.3241 -20.3240 -20.3240
   -20.3235 -20.3235 -20.3234 -20.3234 -20.3227 -20.3227 -20.3226 -20.3226
   -20.3202 -20.3202 -20.3196 -20.3196 -20.3193 -20.3193 -20.3183 -20.3183
   -20.3179 -20.3179 -20.3170 -20.3170 -20.3123 -20.3123 -20.3115 -20.3115
   -20.3066 -20.3066 -20.3060 -20.3059 -20.3056 -20.3056 -20.3049 -20.3049
    -9.8455  -9.8455  -9.4511  -9.4511  -9.4406  -9.4406  -9.0245  -9.0245
    -8.6414  -8.6413  -8.5349  -8.5349  -8.5287  -8.5287  -8.5065  -8.5065
    -7.9206  -7.9206  -7.8690  -7.8690  -7.8642  -7.8642  -7.8239  -7.8239
     1.1256   1.1256   1.2261   1.2261   1.2895   1.2895   1.4183   1.4183
     2.4835   2.4836   2.8546   2.8546   2.9286   2.9286   2.9511   2.9511
     3.0084   3.0084   3.1640   3.1640   3.3753   3.3753   3.3832   3.3833
     3.5408   3.5408   4.5439   4.5439   4.5700   4.5700   5.1724   5.1724
     5.2302   5.2302   5.2618   5.2618   5.2847   5.2847   5.6556   5.6556
     5.7086   5.7087   5.8716   5.8716   5.9208   5.9208   5.9855   5.9855
     6.2045   6.2045   6.2462   6.2462   6.5313   6.5313   6.6219   6.6219
     6.8487   6.8487   6.9881   6.9881   7.0222   7.0222   7.4619   7.4620
     7.4642   7.4643   7.4840   7.4840   7.5110   7.5110   8.2508   8.2508
     9.2640   9.2640  11.1155  11.1155  11.1558  11.1558  11.2726  11.2726
    11.3398  11.3398  12.5228  12.5228  12.6503  12.6504  13.0588  13.0588
    13.2454  13.2454  13.4619  13.4619  13.5007  13.5007  13.8795  13.8795
    14.3458  14.3458  14.9577  14.9578  15.0278  15.0278  15.1465  15.1465
    16.3240  16.3241  17.5471  17.5471  17.8105

          k = 0.0000-0.4905 0.1669 ( 62990 PWs)   bands (ev):

   -66.1938 -66.1938 -66.1933 -66.1933 -66.1932 -66.1932 -66.1927 -66.1927
   -30.5731 -30.5731 -30.5692 -30.5692 -30.5444 -30.5444 -30.5422 -30.5422
   -30.5366 -30.5366 -30.5270 -30.5270 -30.5218 -30.5218 -30.5113 -30.5113
   -30.4774 -30.4774 -30.4716 -30.4716 -30.4600 -30.4600 -30.4527 -30.4527
   -20.3456 -20.3456 -20.3455 -20.3455 -20.3452 -20.3451 -20.3451 -20.3450
   -20.3361 -20.3361 -20.3361 -20.3361 -20.3360 -20.3360 -20.3360 -20.3360
   -20.3284 -20.3283 -20.3281 -20.3281 -20.3241 -20.3241 -20.3240 -20.3240
   -20.3236 -20.3236 -20.3235 -20.3235 -20.3227 -20.3227 -20.3226 -20.3226
   -20.3201 -20.3201 -20.3196 -20.3196 -20.3192 -20.3192 -20.3184 -20.3184
   -20.3175 -20.3175 -20.3167 -20.3167 -20.3127 -20.3127 -20.3119 -20.3119
   -20.3065 -20.3065 -20.3059 -20.3059 -20.3056 -20.3056 -20.3050 -20.3050
    -9.7979  -9.7979  -9.4536  -9.4536  -9.3723  -9.3723  -8.9898  -8.9898
    -8.6526  -8.6526  -8.5407  -8.5407  -8.5221  -8.5221  -8.5043  -8.5043
    -7.9862  -7.9862  -7.9411  -7.9411  -7.9049  -7.9049  -7.8675  -7.8675
     1.2175   1.2175   1.2876   1.2876   1.4697   1.4697   1.5814   1.5814
     2.5646   2.5646   2.8639   2.8639   2.9201   2.9201   2.9625   2.9625
     3.0667   3.0667   3.1518   3.1518   3.3734   3.3734   3.4220   3.4220
     3.5623   3.5623   4.2795   4.2795   4.5933   4.5933   4.9722   4.9722
     5.0349   5.0349   5.1869   5.1869   5.2999   5.2999   5.4331   5.4331
     5.5934   5.5934   5.6361   5.6361   5.8936   5.8936   6.0172   6.0172
     6.3570   6.3570   6.4404   6.4404   6.5383   6.5384   6.7961   6.7962
     6.8290   6.8290   6.8508   6.8508   6.9616   6.9616   7.4500   7.4500
     7.4753   7.4753   7.4807   7.4807   7.5029   7.5030   8.1851   8.1851
     9.5882   9.5882  11.2157  11.2157  11.2519  11.2519  11.2896  11.2896
    11.3724  11.3724  12.4480  12.4480  12.5764  12.5764  13.0929  13.0929
    13.2412  13.2412  13.2783  13.2783  13.3200  13.3200  13.7548  13.7548
    14.5436  14.5436  15.1107  15.1107  15.1233  15.1233  15.4381  15.4381
    16.4223  16.4223  17.5071  17.5072  17.5852

          k = 0.0000-0.4905 0.3338 ( 62998 PWs)   bands (ev):

   -66.1937 -66.1937 -66.1934 -66.1934 -66.1931 -66.1931 -66.1928 -66.1928
   -30.5723 -30.5723 -30.5701 -30.5701 -30.5413 -30.5413 -30.5379 -30.5379
   -30.5339 -30.5339 -30.5238 -30.5238 -30.5155 -30.5155 -30.5041 -30.5041
   -30.4842 -30.4842 -30.4731 -30.4731 -30.4702 -30.4702 -30.4614 -30.4614
   -20.3455 -20.3455 -20.3454 -20.3454 -20.3453 -20.3452 -20.3452 -20.3451
   -20.3361 -20.3361 -20.3361 -20.3361 -20.3360 -20.3360 -20.3360 -20.3360
   -20.3283 -20.3283 -20.3282 -20.3282 -20.3242 -20.3242 -20.3241 -20.3241
   -20.3236 -20.3236 -20.3236 -20.3236 -20.3227 -20.3227 -20.3227 -20.3226
   -20.3199 -20.3199 -20.3197 -20.3197 -20.3189 -20.3189 -20.3185 -20.3185
   -20.3164 -20.3164 -20.3157 -20.3157 -20.3136 -20.3136 -20.3129 -20.3129
   -20.3063 -20.3063 -20.3058 -20.3058 -20.3057 -20.3057 -20.3052 -20.3052
    -9.6839  -9.6839  -9.4927  -9.4927  -9.1583  -9.1583  -8.8738  -8.8738
    -8.7070  -8.7070  -8.5667  -8.5667  -8.4975  -8.4974  -8.4924  -8.4923
    -8.2396  -8.2396  -8.2021  -8.2021  -7.9009  -7.9009  -7.8767  -7.8767
     1.2665   1.2665   1.2835   1.2835   2.1122   2.1123   2.2014   2.2014
     2.7814   2.7815   2.8706   2.8706   2.9392   2.9392   2.9900   2.9900
     3.1310   3.1310   3.1729   3.1729   3.3479   3.3480   3.5089   3.5089
     3.6041   3.6041   3.7628   3.7628   4.4456   4.4456   4.5526   4.5526
     4.7296   4.7296   4.8410   4.8410   4.9448   4.9448   5.1573   5.1573
     5.3369   5.3369   5.5438   5.5438   5.9311   5.9311   6.0652   6.0652
     6.4193   6.4193   6.4622   6.4622   6.5399   6.5399   6.5926   6.5926
     7.0236   7.0236   7.1277   7.1277   7.1796   7.1796   7.4239   7.4239
     7.4456   7.4456   7.4726   7.4726   7.5093   7.5093   7.9830   7.9830
    10.3059  10.3059  11.2753  11.2753  11.2905  11.2905  11.6126  11.6126
    11.6691  11.6691  11.9127  11.9127  12.7398  12.7398  12.7778  12.7778
    12.8080  12.8080  13.1790  13.1791  13.2357  13.2357  13.4431  13.4431
    14.8202  14.8202  15.0676  15.0676  15.7079  15.7079  16.3673  16.3673
    16.7611  16.7612  16.9936  16.9937  17.6548

          k = 0.0000-0.4905-0.5007 ( 62968 PWs)   bands (ev):

   -66.1936 -66.1936 -66.1936 -66.1936 -66.1929 -66.1929 -66.1929 -66.1929
   -30.5712 -30.5712 -30.5712 -30.5712 -30.5393 -30.5393 -30.5392 -30.5392
   -30.5274 -30.5274 -30.5274 -30.5274 -30.4989 -30.4989 -30.4989 -30.4988
   -30.4899 -30.4899 -30.4899 -30.4899 -30.4674 -30.4674 -30.4674 -30.4674
   -20.3454 -20.3454 -20.3454 -20.3454 -20.3453 -20.3453 -20.3453 -20.3453
   -20.3361 -20.3361 -20.3361 -20.3361 -20.3360 -20.3360 -20.3360 -20.3360
   -20.3283 -20.3283 -20.3282 -20.3282 -20.3242 -20.3242 -20.3242 -20.3242
   -20.3236 -20.3236 -20.3236 -20.3236 -20.3227 -20.3227 -20.3227 -20.3227
   -20.3198 -20.3198 -20.3198 -20.3198 -20.3187 -20.3187 -20.3187 -20.3187
   -20.3150 -20.3150 -20.3150 -20.3150 -20.3143 -20.3143 -20.3143 -20.3143
   -20.3061 -20.3061 -20.3061 -20.3061 -20.3054 -20.3054 -20.3054 -20.3054
    -9.5687  -9.5687  -9.5687  -9.5687  -8.8836  -8.8836  -8.8836  -8.8836
    -8.6815  -8.6815  -8.6814  -8.6814  -8.4463  -8.4463  -8.4463  -8.4463
    -8.4150  -8.4150  -8.4150  -8.4150  -7.8890  -7.8890  -7.8890  -7.8890
     1.2779   1.2779   1.2779   1.2779   2.7584   2.7584   2.7584   2.7584
     2.8677   2.8677   2.8677   2.8677   3.0679   3.0679   3.0679   3.0680
     3.1461   3.1461   3.1461   3.1461   3.3314   3.3314   3.3314   3.3314
     3.4623   3.4623   3.4623   3.4624   4.3081   4.3082   4.3082   4.3082
     4.3703   4.3703   4.3703   4.3703   5.0606   5.0606   5.0606   5.0606
     5.4109   5.4109   5.4109   5.4109   6.0072   6.0072   6.0072   6.0072
     6.3986   6.3986   6.3986   6.3986   6.5198   6.5198   6.5198   6.5198
     7.3299   7.3299   7.3299   7.3299   7.3537   7.3537   7.3537   7.3537
     7.3888   7.3888   7.3888   7.3888   7.6732   7.6732   7.6732   7.6732
    11.1002  11.1002  11.1002  11.1002  11.3257  11.3257  11.3257  11.3257
    12.1602  12.1602  12.1602  12.1602  12.2172  12.2172  12.2172  12.2172
    13.0139  13.0139  13.0139  13.0139  13.2503  13.2503  13.2503  13.2503
    14.9766  14.9766  14.9766  14.9766  16.3845  16.3845  16.3845  16.3845
    17.3835  17.3836  17.3837  17.3837  17.4581

          k = 0.1667 0.0000 0.0000 ( 62929 PWs)   bands (ev):

   -66.1941 -66.1936 -66.1935 -66.1935 -66.1930 -66.1930 -66.1929 -66.1924
   -30.5866 -30.5827 -30.5749 -30.5712 -30.5625 -30.5580 -30.5520 -30.5443
   -30.5409 -30.5408 -30.5338 -30.5265 -30.5107 -30.5083 -30.4902 -30.4833
   -30.4826 -30.4817 -30.4739 -30.4645 -30.4540 -30.4535 -30.4492 -30.4468
   -20.3458 -20.3457 -20.3455 -20.3454 -20.3453 -20.3452 -20.3450 -20.3449
   -20.3366 -20.3366 -20.3366 -20.3365 -20.3357 -20.3356 -20.3356 -20.3356
   -20.3283 -20.3280 -20.3277 -20.3274 -20.3263 -20.3263 -20.3262 -20.3262
   -20.3240 -20.3239 -20.3234 -20.3234 -20.3215 -20.3211 -20.3204 -20.3201
   -20.3201 -20.3198 -20.3198 -20.3193 -20.3191 -20.3189 -20.3186 -20.3181
   -20.3179 -20.3174 -20.3171 -20.3168 -20.3124 -20.3121 -20.3117 -20.3114
   -20.3065 -20.3065 -20.3060 -20.3059 -20.3055 -20.3055 -20.3050 -20.3050
   -10.0603  -9.7315  -9.6715  -9.6445  -9.3451  -9.3096  -9.2369  -9.0116
    -8.9740  -8.9438  -8.9281  -8.9079  -8.0744  -8.0135  -8.0103  -7.9774
    -7.8882  -7.8847  -7.8617  -7.8423  -7.8035  -7.7878  -7.7594  -7.7488
     1.1447   1.1768   1.1839   1.2226   1.2239   1.2518   1.3139   1.3333
     1.5315   1.5704   1.6310   1.6974   2.3674   2.4237   2.4314   2.4758
     2.5189   2.6396   3.9754   3.9999   4.1660   4.1988   4.2469   4.2870
     4.3848   4.3984   4.6247   4.6617   4.7669   4.7742   5.0260   5.2670
     5.4031   5.4294   5.4653   5.5145   5.5205   5.5877   5.6079   5.6744
     5.6912   5.8065   5.8468   5.8873   5.8980   5.9687   6.0508   6.1401
     6.2043   6.3322   6.3848   6.4069   6.4867   6.5095   6.5367   6.5836
     6.6055   6.7244   6.8694   6.8825   6.8929   6.8979   6.9457   6.9761
     7.0551   7.0728   8.0250   8.0563   8.1693   8.1912   8.2465   8.2669
     9.5254   9.5554   9.6334   9.7739   9.9979  10.1057  12.3015  12.3123
    12.4618  12.4870  12.6359  12.6381  12.6566  12.7056  12.7146  12.7621
    13.1413  13.1668  13.4254  13.5231  13.6824  13.7825  14.0092  14.0275
    14.0577  14.0933  14.4605  14.6576  14.6844  14.7173  15.3009  15.6233
    15.7921  16.5065  16.5488  16.9955  17.0564

          k = 0.1667 0.0000 0.1669 ( 62969 PWs)   bands (ev):

   -66.1941 -66.1936 -66.1935 -66.1935 -66.1930 -66.1930 -66.1930 -66.1924
   -30.5865 -30.5830 -30.5748 -30.5715 -30.5621 -30.5582 -30.5502 -30.5414
   -30.5395 -30.5359 -30.5290 -30.5224 -30.5103 -30.5086 -30.4917 -30.4842
   -30.4820 -30.4812 -30.4765 -30.4640 -30.4591 -30.4575 -30.4539 -30.4499
   -20.3458 -20.3457 -20.3455 -20.3454 -20.3453 -20.3453 -20.3450 -20.3449
   -20.3366 -20.3366 -20.3366 -20.3365 -20.3357 -20.3357 -20.3356 -20.3356
   -20.3282 -20.3280 -20.3276 -20.3274 -20.3264 -20.3263 -20.3263 -20.3262
   -20.3240 -20.3239 -20.3235 -20.3234 -20.3216 -20.3212 -20.3206 -20.3201
   -20.3198 -20.3197 -20.3196 -20.3193 -20.3191 -20.3188 -20.3187 -20.3181
   -20.3175 -20.3171 -20.3168 -20.3165 -20.3127 -20.3124 -20.3120 -20.3118
   -20.3065 -20.3064 -20.3059 -20.3059 -20.3056 -20.3056 -20.3051 -20.3050
   -10.0189  -9.6850  -9.6793  -9.5906  -9.3205  -9.2619  -9.2461  -8.9743
    -8.9442  -8.9211  -8.9114  -8.9093  -8.0880  -8.0274  -8.0142  -7.9982
    -7.9862  -7.9782  -7.9485  -7.9314  -7.8213  -7.7911  -7.7817  -7.7521
     1.1796   1.2352   1.2426   1.3062   1.3694   1.3716   1.4702   1.5175
     1.5364   1.5715   1.6964   1.7709   2.4263   2.4478   2.4810   2.5114
     2.6018   2.7216   3.9503   3.9639   4.1302   4.1485   4.3228   4.3250
     4.3691   4.3798   4.3889   4.4401   4.4749   4.5415   5.0258   5.2330
     5.2660   5.3460   5.4051   5.4195   5.5310   5.5670   5.6155   5.6287
     5.6306   5.6919   5.7122   5.8004   5.8697   6.0457   6.0912   6.1377
     6.2236   6.4461   6.4636   6.4835   6.4917   6.5308   6.5605   6.5722
     6.6413   6.6479   6.6980   6.8113   6.8376   6.9275   6.9436   6.9691
     7.0056   7.0088   8.0282   8.0511   8.1117   8.1312   8.1882   8.2104
     9.8013   9.8128   9.9356   9.9901  10.0913  10.1019  12.3625  12.3660
    12.4814  12.4943  12.5162  12.5560  12.6629  12.6679  12.6705  12.7742
    12.9302  12.9519  13.4640  13.5132  13.5878  13.6572  13.8865  13.9444
    14.2431  14.3111  14.5934  14.7443  14.7864  14.8431  15.5873  15.7220
    15.7745  16.6496  16.6708  16.7465  17.2325

          k = 0.1667 0.0000 0.3338 ( 62991 PWs)   bands (ev):

   -66.1940 -66.1937 -66.1934 -66.1934 -66.1931 -66.1931 -66.1928 -66.1925
   -30.5858 -30.5838 -30.5743 -30.5723 -30.5612 -30.5590 -30.5471 -30.5426
   -30.5267 -30.5229 -30.5158 -30.5100 -30.5096 -30.5087 -30.4972 -30.4880
   -30.4859 -30.4799 -30.4795 -30.4730 -30.4670 -30.4656 -30.4627 -30.4559
   -20.3457 -20.3456 -20.3455 -20.3454 -20.3454 -20.3453 -20.3451 -20.3450
   -20.3367 -20.3366 -20.3366 -20.3365 -20.3357 -20.3357 -20.3356 -20.3356
   -20.3282 -20.3281 -20.3276 -20.3275 -20.3264 -20.3264 -20.3263 -20.3263
   -20.3239 -20.3239 -20.3235 -20.3235 -20.3216 -20.3213 -20.3206 -20.3203
   -20.3196 -20.3196 -20.3194 -20.3193 -20.3192 -20.3188 -20.3186 -20.3182
   -20.3163 -20.3161 -20.3157 -20.3156 -20.3136 -20.3135 -20.3130 -20.3128
   -20.3063 -20.3063 -20.3058 -20.3058 -20.3058 -20.3057 -20.3053 -20.3052
    -9.9180  -9.7293  -9.5543  -9.4629  -9.3566  -9.2777  -9.0264  -8.9326
    -8.9158  -8.8302  -8.8199  -8.7962  -8.3062  -8.2725  -8.2654  -8.2468
    -8.0381  -8.0192  -7.9941  -7.9712  -7.8220  -7.8002  -7.7825  -7.7609
     1.1920   1.2244   1.2585   1.2899   1.5132   1.5240   1.5388   1.5670
     2.1293   2.1499   2.2296   2.2605   2.4319   2.4786   2.6796   2.7139
     2.8545   2.9591   3.6649   3.7227   3.8692   3.9109   3.9703   4.0188
     4.0849   4.1230   4.3776   4.3944   4.4716   4.6081   4.6578   4.7348
     5.0005   5.0758   5.1275   5.2020   5.2934   5.3347   5.5629   5.6420
     5.6745   5.7266   5.7748   5.7857   5.8411   5.8844   5.9261   6.0557
     6.2375   6.3331   6.3434   6.3831   6.3919   6.5072   6.5262   6.5347
     6.6399   6.8173   6.8493   6.8584   6.9104   6.9353   7.1273   7.1643
     7.1942   7.2625   7.9209   7.9384   7.9992   8.0105   8.0366   8.0648
    10.0132  10.0767  10.4486  10.4547  10.6954  10.7480  11.9470  11.9615
    12.3425  12.3684  12.5405  12.5607  12.6393  12.6664  12.6748  12.7001
    12.7703  12.8476  13.2587  13.2802  13.5046  13.5215  13.5515  13.5763
    14.5294  14.6230  14.8391  15.0885  15.2312  15.3905  15.4830  15.7196
    16.1603  16.7405  17.0173  17.0550  17.1581

          k = 0.1667 0.0000-0.5007 ( 62920 PWs)   bands (ev):

   -66.1938 -66.1938 -66.1933 -66.1933 -66.1932 -66.1932 -66.1927 -66.1927
   -30.5849 -30.5849 -30.5734 -30.5734 -30.5600 -30.5600 -30.5445 -30.5445
   -30.5131 -30.5131 -30.5088 -30.5088 -30.5010 -30.5010 -30.4991 -30.4991
   -30.4917 -30.4917 -30.4757 -30.4756 -30.4752 -30.4752 -30.4602 -30.4602
   -20.3456 -20.3456 -20.3455 -20.3455 -20.3452 -20.3452 -20.3451 -20.3451
   -20.3367 -20.3366 -20.3366 -20.3366 -20.3357 -20.3357 -20.3356 -20.3356
   -20.3282 -20.3281 -20.3276 -20.3276 -20.3264 -20.3264 -20.3264 -20.3263
   -20.3239 -20.3239 -20.3235 -20.3235 -20.3215 -20.3215 -20.3205 -20.3205
   -20.3195 -20.3195 -20.3193 -20.3193 -20.3190 -20.3190 -20.3184 -20.3184
   -20.3149 -20.3149 -20.3149 -20.3149 -20.3143 -20.3143 -20.3143 -20.3143
   -20.3060 -20.3060 -20.3060 -20.3060 -20.3055 -20.3055 -20.3055 -20.3054
    -9.8091  -9.8091  -9.4319  -9.4319  -9.3450  -9.3450  -8.9228  -8.9228
    -8.6800  -8.6800  -8.5938  -8.5938  -8.5808  -8.5808  -8.5631  -8.5631
    -8.0308  -8.0308  -7.9845  -7.9845  -7.8120  -7.8120  -7.7725  -7.7725
     1.2061   1.2061   1.2731   1.2731   1.5283   1.5283   1.5603   1.5603
     2.4362   2.4362   2.7741   2.7741   2.8230   2.8230   3.0122   3.0123
     3.0509   3.0509   3.2676   3.2676   3.4805   3.4805   3.8161   3.8161
     3.8192   3.8193   4.1022   4.1022   4.3788   4.3788   4.8672   4.8672
     4.9583   4.9583   5.0134   5.0134   5.1799   5.1799   5.6067   5.6067
     5.7175   5.7175   5.7449   5.7449   5.8493   5.8493   5.9754   5.9754
     6.1812   6.1812   6.2731   6.2731   6.4550   6.4550   6.5207   6.5207
     6.7278   6.7278   6.8577   6.8577   6.9018   6.9018   7.5904   7.5904
     7.5975   7.5975   7.6714   7.6714   7.6894   7.6894   8.0442   8.0442
    10.0489  10.0489  11.2128  11.2128  11.2323  11.2323  11.5504  11.5505
    11.5804  11.5804  12.6565  12.6565  12.6874  12.6875  12.8556  12.8556
    12.9122  12.9122  13.1092  13.1092  13.1473  13.1473  13.5277  13.5277
    14.6015  14.6015  15.2559  15.2559  15.5445  15.5445  15.5840  15.5840
    16.3092  16.3092  17.3502  17.3504  17.5789

          k = 0.1667 0.1635 0.0000 ( 62998 PWs)   bands (ev):

   -66.1941 -66.1936 -66.1935 -66.1935 -66.1930 -66.1930 -66.1929 -66.1924
   -30.5835 -30.5796 -30.5704 -30.5666 -30.5632 -30.5586 -30.5512 -30.5444
   -30.5407 -30.5389 -30.5339 -30.5255 -30.5135 -30.5116 -30.4942 -30.4870
   -30.4829 -30.4811 -30.4749 -30.4667 -30.4541 -30.4540 -30.4493 -30.4475
   -20.3458 -20.3457 -20.3455 -20.3454 -20.3453 -20.3452 -20.3450 -20.3449
   -20.3366 -20.3365 -20.3365 -20.3365 -20.3357 -20.3357 -20.3357 -20.3357
   -20.3282 -20.3280 -20.3277 -20.3275 -20.3260 -20.3259 -20.3259 -20.3258
   -20.3239 -20.3238 -20.3235 -20.3235 -20.3217 -20.3213 -20.3208 -20.3204
   -20.3202 -20.3198 -20.3198 -20.3193 -20.3193 -20.3190 -20.3187 -20.3182
   -20.3179 -20.3175 -20.3171 -20.3169 -20.3124 -20.3121 -20.3117 -20.3114
   -20.3065 -20.3065 -20.3060 -20.3060 -20.3055 -20.3055 -20.3050 -20.3050
   -10.0185  -9.6842  -9.6616  -9.6176  -9.3558  -9.2491  -9.2265  -9.0072
    -8.9760  -8.9067  -8.8870  -8.8755  -8.0962  -8.0279  -8.0159  -7.9964
    -7.9351  -7.9314  -7.8881  -7.8824  -7.8646  -7.8404  -7.8396  -7.7975
     1.1805   1.1837   1.2146   1.2244   1.3944   1.4290   1.5139   1.5485
     1.5587   1.6290   1.6533   1.7733   2.4453   2.4940   2.5122   2.5183
     2.5608   2.6366   3.8029   3.8324   3.9347   4.0112   4.2149   4.2790
     4.4025   4.4373   4.6135   4.6608   4.8175   4.8337   4.8362   5.1508
     5.1809   5.2964   5.3019   5.4364   5.4758   5.5003   5.5328   5.6448
     5.6927   5.8337   5.9007   5.9173   5.9587   5.9915   6.0655   6.1304
     6.1697   6.3152   6.3246   6.3585   6.4829   6.5673   6.6078   6.6351
     6.6417   6.7784   6.8254   6.8678   6.8865   6.8872   6.9462   6.9606
     6.9928   7.0342   7.9793   8.0073   8.1579   8.1698   8.1707   8.1994
     9.5536   9.5561   9.8508   9.9552  10.1955  10.2937  12.2286  12.2964
    12.3294  12.3709  12.4877  12.4878  12.6812  12.6974  12.7001  12.7928
    13.1698  13.1977  13.4680  13.5254  13.7017  13.7810  13.9258  13.9948
    14.1234  14.2826  14.4690  14.6852  14.7924  14.8958  15.2787  15.7591
    16.0291  16.2103  16.7305  17.2136  17.2525

          k = 0.1667 0.1635 0.1669 ( 62974 PWs)   bands (ev):

   -66.1941 -66.1935 -66.1935 -66.1935 -66.1930 -66.1930 -66.1930 -66.1925
   -30.5833 -30.5799 -30.5703 -30.5669 -30.5628 -30.5589 -30.5492 -30.5397
   -30.5394 -30.5359 -30.5291 -30.5217 -30.5130 -30.5119 -30.4954 -30.4863
   -30.4839 -30.4807 -30.4773 -30.4662 -30.4592 -30.4582 -30.4540 -30.4509
   -20.3457 -20.3456 -20.3455 -20.3454 -20.3453 -20.3452 -20.3450 -20.3449
   -20.3366 -20.3365 -20.3365 -20.3365 -20.3357 -20.3357 -20.3357 -20.3357
   -20.3282 -20.3280 -20.3277 -20.3275 -20.3260 -20.3259 -20.3259 -20.3259
   -20.3239 -20.3238 -20.3235 -20.3235 -20.3217 -20.3214 -20.3208 -20.3205
   -20.3200 -20.3198 -20.3196 -20.3194 -20.3193 -20.3189 -20.3187 -20.3182
   -20.3175 -20.3171 -20.3168 -20.3165 -20.3127 -20.3125 -20.3120 -20.3118
   -20.3065 -20.3064 -20.3059 -20.3059 -20.3056 -20.3056 -20.3051 -20.3050
    -9.9756  -9.6333  -9.6272  -9.6064  -9.2733  -9.2585  -9.2372  -8.9722
    -8.9458  -8.8800  -8.8788  -8.8762  -8.1154  -8.0320  -8.0289  -8.0105
    -7.9985  -7.9841  -7.9476  -7.9418  -7.9048  -7.8848  -7.8773  -7.8555
     1.3630   1.3665   1.3906   1.4116   1.4294   1.4717   1.5153   1.5551
     1.6067   1.6477   1.6973   1.8304   2.5010   2.5273   2.5500   2.5889
     2.6166   2.7166   3.8003   3.8227   3.9434   3.9728   4.2992   4.3200
     4.3487   4.3580   4.4198   4.4449   4.5258   4.5915   4.8389   5.1171
     5.1518   5.2537   5.2634   5.2789   5.3806   5.4733   5.4819   5.5009
     5.5444   5.6563   5.8772   5.9066   5.9648   6.0093   6.0682   6.0845
     6.2728   6.3532   6.3613   6.4412   6.4834   6.5786   6.6190   6.6363
     6.6923   6.7168   6.7484   6.8322   6.8738   6.8869   6.9391   6.9533
     6.9983   7.0383   7.9827   8.0014   8.1081   8.1123   8.1161   8.1449
     9.8107   9.8154  10.1148  10.1691  10.2555  10.2896  12.3000  12.3563
    12.3940  12.4182  12.4623  12.4818  12.5107  12.5267  12.7104  12.7974
    12.9616  12.9829  13.4928  13.5204  13.5940  13.6559  13.7877  13.8404
    14.3725  14.5534  14.6812  14.7929  14.8319  14.9907  15.6910  15.7434
    15.9981  16.3421  16.8289  16.8806  17.1425

          k = 0.1667 0.1635 0.3338 ( 62997 PWs)   bands (ev):

   -66.1939 -66.1936 -66.1934 -66.1934 -66.1931 -66.1931 -66.1929 -66.1926
   -30.5827 -30.5806 -30.5698 -30.5677 -30.5619 -30.5596 -30.5455 -30.5406
   -30.5272 -30.5235 -30.5160 -30.5130 -30.5109 -30.5096 -30.5000 -30.4878
   -30.4861 -30.4838 -30.4789 -30.4731 -30.4685 -30.4655 -30.4648 -30.4575
   -20.3457 -20.3456 -20.3454 -20.3454 -20.3453 -20.3453 -20.3451 -20.3450
   -20.3366 -20.3366 -20.3365 -20.3365 -20.3357 -20.3357 -20.3357 -20.3357
   -20.3282 -20.3281 -20.3277 -20.3275 -20.3261 -20.3260 -20.3260 -20.3259
   -20.3239 -20.3238 -20.3236 -20.3235 -20.3217 -20.3215 -20.3209 -20.3206
   -20.3197 -20.3197 -20.3194 -20.3194 -20.3193 -20.3188 -20.3187 -20.3183
   -20.3163 -20.3162 -20.3157 -20.3156 -20.3136 -20.3135 -20.3130 -20.3128
   -20.3063 -20.3063 -20.3058 -20.3058 -20.3058 -20.3057 -20.3053 -20.3052
    -9.8708  -9.6770  -9.4916  -9.4787  -9.2913  -9.2748  -9.0379  -8.9099
    -8.8840  -8.8324  -8.8023  -8.7750  -8.3237  -8.2747  -8.2694  -8.2435
    -8.0439  -8.0309  -8.0006  -7.9808  -7.9134  -7.8955  -7.8901  -7.8712
     1.3980   1.4149   1.4829   1.4992   1.5257   1.5441   1.5972   1.6390
     2.1297   2.1583   2.2283   2.2729   2.5070   2.5504   2.7511   2.7862
     2.8686   2.9529   3.6416   3.6529   3.8608   3.8754   3.9203   3.9781
     4.0076   4.0696   4.3744   4.4337   4.4497   4.5911   4.6530   4.7103
     4.8075   4.8749   4.9935   5.0149   5.1292   5.1880   5.3376   5.5060
     5.5225   5.6814   5.7120   5.8103   5.8377   5.8768   5.9120   5.9353
     6.2084   6.3875   6.4178   6.4584   6.5112   6.5902   6.5953   6.6346
     6.6816   6.8277   6.8696   6.8738   6.8863   6.9810   7.1220   7.1733
     7.1945   7.2619   7.9231   7.9264   7.9436   7.9526   7.9918   8.0222
    10.1991  10.2628  10.4496  10.4653  10.7975  10.8499  11.9487  11.9604
    12.3721  12.4030  12.4877  12.5011  12.5376  12.5457  12.5936  12.6205
    12.7448  12.8164  13.2568  13.2825  13.4125  13.4542  13.5241  13.5572
    14.6552  14.7406  15.1653  15.2233  15.2379  15.4491  15.6923  15.8860
    16.2923  16.7089  16.7650  17.1125  17.1665

          k = 0.1667 0.1635-0.5007 ( 62938 PWs)   bands (ev):

   -66.1938 -66.1938 -66.1933 -66.1933 -66.1932 -66.1932 -66.1927 -66.1927
   -30.5817 -30.5817 -30.5688 -30.5688 -30.5607 -30.5607 -30.5426 -30.5426
   -30.5158 -30.5158 -30.5104 -30.5104 -30.5010 -30.5010 -30.4992 -30.4992
   -30.4916 -30.4916 -30.4785 -30.4785 -30.4750 -30.4750 -30.4622 -30.4622
   -20.3456 -20.3455 -20.3455 -20.3455 -20.3453 -20.3453 -20.3452 -20.3452
   -20.3366 -20.3366 -20.3365 -20.3365 -20.3357 -20.3357 -20.3357 -20.3357
   -20.3281 -20.3281 -20.3276 -20.3276 -20.3261 -20.3261 -20.3260 -20.3260
   -20.3239 -20.3239 -20.3236 -20.3236 -20.3217 -20.3217 -20.3208 -20.3208
   -20.3196 -20.3196 -20.3195 -20.3195 -20.3190 -20.3190 -20.3185 -20.3185
   -20.3149 -20.3149 -20.3149 -20.3149 -20.3143 -20.3143 -20.3143 -20.3143
   -20.3060 -20.3060 -20.3060 -20.3060 -20.3055 -20.3055 -20.3055 -20.3055
    -9.7584  -9.7584  -9.3615  -9.3615  -9.3547  -9.3547  -8.8923  -8.8923
    -8.6929  -8.6929  -8.5982  -8.5982  -8.5744  -8.5744  -8.5546  -8.5546
    -8.0403  -8.0403  -7.9935  -7.9935  -7.9054  -7.9054  -7.8823  -7.8823
     1.4060   1.4060   1.4945   1.4945   1.5393   1.5393   1.6298   1.6298
     2.5085   2.5085   2.8043   2.8043   2.8579   2.8579   3.0018   3.0018
     3.0447   3.0448   3.2813   3.2813   3.4678   3.4678   3.8477   3.8477
     3.8665   3.8665   3.9485   3.9485   4.3862   4.3862   4.7319   4.7319
     4.8108   4.8108   4.9179   4.9180   4.9737   4.9737   5.4601   5.4601
     5.5806   5.5806   5.6281   5.6281   5.7459   5.7459   5.9210   5.9210
     6.3451   6.3451   6.4374   6.4374   6.5567   6.5567   6.5782   6.5782
     6.7191   6.7191   6.8702   6.8702   6.9214   6.9214   7.5893   7.5893
     7.5969   7.5969   7.6435   7.6435   7.6616   7.6616   7.9994   7.9994
    10.2383  10.2383  11.2140  11.2140  11.2314  11.2314  11.6110  11.6110
    11.6433  11.6433  12.4949  12.4949  12.7130  12.7130  12.8483  12.8484
    12.9113  12.9113  12.9793  12.9793  13.0177  13.0177  13.5428  13.5428
    14.7220  14.7220  15.5231  15.5231  15.6331  15.6331  15.7261  15.7261
    16.3911  16.3911  17.2078  17.2078  17.5271

          k = 0.1667 0.3270 0.0000 ( 63015 PWs)   bands (ev):

   -66.1940 -66.1937 -66.1934 -66.1934 -66.1931 -66.1931 -66.1928 -66.1925
   -30.5763 -30.5722 -30.5653 -30.5608 -30.5586 -30.5540 -30.5488 -30.5449
   -30.5411 -30.5340 -30.5321 -30.5220 -30.5217 -30.5214 -30.5053 -30.4984
   -30.4818 -30.4795 -30.4773 -30.4716 -30.4546 -30.4545 -30.4494 -30.4487
   -20.3457 -20.3456 -20.3456 -20.3454 -20.3452 -20.3451 -20.3450 -20.3449
   -20.3364 -20.3364 -20.3363 -20.3363 -20.3359 -20.3359 -20.3358 -20.3358
   -20.3281 -20.3279 -20.3278 -20.3276 -20.3251 -20.3250 -20.3249 -20.3248
   -20.3237 -20.3237 -20.3236 -20.3235 -20.3223 -20.3221 -20.3217 -20.3215
   -20.3202 -20.3200 -20.3196 -20.3195 -20.3194 -20.3192 -20.3186 -20.3183
   -20.3179 -20.3177 -20.3171 -20.3170 -20.3123 -20.3122 -20.3116 -20.3115
   -20.3065 -20.3065 -20.3060 -20.3060 -20.3055 -20.3055 -20.3050 -20.3050
    -9.9150  -9.7119  -9.5720  -9.4911  -9.3916  -9.2876  -9.0021  -8.9898
    -8.9820  -8.7787  -8.7598  -8.7504  -8.2999  -8.2197  -8.2156  -8.1808
    -8.0212  -8.0092  -7.9750  -7.9584  -7.8769  -7.8587  -7.8351  -7.8174
     1.1833   1.1836   1.2248   1.2252   1.5120   1.5248   1.5890   1.6218
     2.1237   2.2165   2.2602   2.3531   2.5375   2.5868   2.7151   2.7446
     2.7665   2.7715   3.4002   3.4044   3.5394   3.5585   3.9923   4.2308
     4.2337   4.3246   4.3772   4.5797   4.6384   4.6642   4.7331   4.7603
     4.9770   5.0242   5.1751   5.3018   5.3086   5.3668   5.5236   5.5610
     5.6027   5.6432   5.6851   5.9061   5.9190   6.0003   6.0465   6.0950
     6.1938   6.3090   6.3240   6.4563   6.6027   6.6479   6.7431   6.7890
     6.8191   6.8501   6.8701   6.8795   6.8889   6.9273   6.9928   7.0348
     7.0726   7.1196   7.7994   7.8197   7.8969   7.9156   8.1756   8.1880
     9.5631   9.5695  10.4124  10.4828  10.7125  10.7826  11.7867  11.8353
    12.0258  12.0384  12.3233  12.3383  12.6957  12.6990  12.8111  12.9111
    13.2465  13.3028  13.3365  13.3862  13.7076  13.7203  13.7732  13.7811
    14.3782  14.4689  14.7074  14.7354  15.1279  15.1978  15.5824  15.6546
    15.6691  17.0104  17.0235  17.1762  17.6966

          k = 0.1667 0.3270 0.1669 ( 62996 PWs)   bands (ev):

   -66.1939 -66.1937 -66.1934 -66.1934 -66.1931 -66.1931 -66.1929 -66.1926
   -30.5760 -30.5725 -30.5649 -30.5611 -30.5584 -30.5543 -30.5459 -30.5405
   -30.5368 -30.5326 -30.5292 -30.5220 -30.5209 -30.5184 -30.5061 -30.4974
   -30.4829 -30.4796 -30.4786 -30.4711 -30.4595 -30.4593 -30.4540 -30.4526
   -20.3457 -20.3456 -20.3455 -20.3454 -20.3452 -20.3452 -20.3451 -20.3450
   -20.3364 -20.3364 -20.3363 -20.3363 -20.3359 -20.3359 -20.3358 -20.3358
   -20.3281 -20.3279 -20.3278 -20.3276 -20.3252 -20.3251 -20.3249 -20.3249
   -20.3238 -20.3238 -20.3236 -20.3235 -20.3224 -20.3221 -20.3217 -20.3215
   -20.3201 -20.3199 -20.3196 -20.3195 -20.3195 -20.3190 -20.3187 -20.3183
   -20.3175 -20.3173 -20.3168 -20.3166 -20.3127 -20.3125 -20.3120 -20.3119
   -20.3065 -20.3065 -20.3059 -20.3059 -20.3056 -20.3056 -20.3051 -20.3050
    -9.8681  -9.6586  -9.5078  -9.5021  -9.3103  -9.2978  -9.0045  -8.9661
    -8.9512  -8.7638  -8.7602  -8.7440  -8.3144  -8.2268  -8.2180  -8.1840
    -8.0201  -8.0190  -7.9839  -7.9799  -7.9667  -7.9566  -7.9397  -7.9206
     1.3662   1.3683   1.4621   1.4687   1.5146   1.5277   1.6467   1.6891
     2.1291   2.2149   2.2527   2.3468   2.6197   2.6587   2.7573   2.7735
     2.8024   2.8413   3.4222   3.4398   3.5454   3.5530   3.9822   4.2602
     4.2982   4.3188   4.3396   4.3621   4.3994   4.6400   4.6655   4.7396
     4.7751   4.7863   5.1366   5.1835   5.2723   5.3079   5.3370   5.3602
     5.5334   5.5532   5.6239   5.6692   5.7163   5.7609   6.0870   6.1045
     6.3730   6.4336   6.4845   6.5892   6.6064   6.6361   6.6855   6.7496
     6.8020   6.8265   6.9113   6.9238   6.9303   6.9857   7.0023   7.0328
     7.0975   7.1336   7.8025   7.8127   7.8674   7.8848   8.1170   8.1302
     9.8164   9.8237  10.5947  10.6506  10.7375  10.7786  11.8733  11.9205
    12.0309  12.0389  12.3756  12.3909  12.4989  12.5017  12.8395  12.9137
    13.0673  13.0933  13.3423  13.3866  13.5397  13.5682  13.6354  13.6439
    14.7006  14.7246  14.7983  15.0354  15.1424  15.5963  15.6396  15.6707
    15.7979  16.9890  17.0921  17.2175  17.2429

          k = 0.1667 0.3270 0.3338 ( 62973 PWs)   bands (ev):

   -66.1938 -66.1935 -66.1935 -66.1933 -66.1932 -66.1930 -66.1930 -66.1927
   -30.5753 -30.5733 -30.5641 -30.5619 -30.5575 -30.5552 -30.5406 -30.5341
   -30.5303 -30.5272 -30.5230 -30.5163 -30.5151 -30.5091 -30.5081 -30.4937
   -30.4874 -30.4864 -30.4773 -30.4732 -30.4713 -30.4696 -30.4649 -30.4608
   -20.3456 -20.3455 -20.3454 -20.3453 -20.3453 -20.3453 -20.3452 -20.3451
   -20.3364 -20.3364 -20.3363 -20.3363 -20.3359 -20.3359 -20.3358 -20.3358
   -20.3281 -20.3280 -20.3278 -20.3277 -20.3252 -20.3252 -20.3250 -20.3249
   -20.3238 -20.3238 -20.3235 -20.3235 -20.3224 -20.3222 -20.3218 -20.3216
   -20.3199 -20.3198 -20.3196 -20.3195 -20.3192 -20.3188 -20.3188 -20.3184
   -20.3164 -20.3163 -20.3157 -20.3157 -20.3136 -20.3135 -20.3130 -20.3129
   -20.3063 -20.3063 -20.3058 -20.3058 -20.3057 -20.3057 -20.3052 -20.3052
    -9.7538  -9.5500  -9.5309  -9.3346  -9.3324  -9.0790  -9.0465  -8.8716
    -8.8402  -8.7719  -8.7094  -8.6931  -8.4296  -8.3335  -8.2596  -8.2326
    -8.2139  -8.1914  -8.1435  -8.1149  -8.0082  -7.9912  -7.9819  -7.9678
     1.4937   1.5031   1.5133   1.5249   2.0123   2.0673   2.1262   2.1469
     2.2209   2.2447   2.3000   2.4242   2.7214   2.7637   2.8575   2.9418
     3.0078   3.0248   3.4219   3.4461   3.5347   3.5684   3.8355   3.8488
     3.9737   4.1782   4.2330   4.2495   4.3123   4.4433   4.4597   4.6266
     4.6732   4.7107   4.7472   4.7956   4.8546   4.9007   5.0653   5.1477
     5.2170   5.3006   5.3779   5.5628   5.5844   5.6989   5.8380   5.8456
     6.4577   6.5389   6.5822   6.6259   6.7123   6.7412   6.7625   6.8208
     6.8493   6.9528   6.9726   7.0244   7.0404   7.1024   7.1478   7.1846
     7.2442   7.2578   7.7605   7.7665   7.7941   7.8161   7.9324   7.9587
    10.4286  10.4487  10.7354  10.7666  11.1137  11.1655  11.9271  11.9525
    12.0247  12.0676  12.1632  12.1977  12.5204  12.5401  12.5567  12.5921
    12.8718  12.9116  13.1117  13.1534  13.2560  13.2845  13.3876  13.4287
    14.9257  15.0701  15.1976  15.4462  15.5947  15.8450  15.9816  16.2495
    16.5934  16.6540  16.8685  17.3364  17.3851

          k = 0.1667 0.3270-0.5007 ( 62976 PWs)   bands (ev):

   -66.1937 -66.1937 -66.1934 -66.1934 -66.1931 -66.1931 -66.1928 -66.1928
   -30.5743 -30.5743 -30.5630 -30.5630 -30.5563 -30.5563 -30.5366 -30.5366
   -30.5251 -30.5251 -30.5160 -30.5160 -30.5007 -30.5007 -30.4996 -30.4996
   -30.4912 -30.4912 -30.4849 -30.4849 -30.4736 -30.4736 -30.4667 -30.4667
   -20.3455 -20.3455 -20.3454 -20.3454 -20.3453 -20.3453 -20.3452 -20.3452
   -20.3364 -20.3364 -20.3363 -20.3363 -20.3359 -20.3359 -20.3358 -20.3358
   -20.3280 -20.3280 -20.3277 -20.3277 -20.3252 -20.3252 -20.3250 -20.3250
   -20.3238 -20.3238 -20.3235 -20.3235 -20.3224 -20.3224 -20.3217 -20.3217
   -20.3198 -20.3198 -20.3196 -20.3196 -20.3190 -20.3190 -20.3186 -20.3186
   -20.3149 -20.3149 -20.3149 -20.3149 -20.3143 -20.3143 -20.3143 -20.3143
   -20.3060 -20.3060 -20.3060 -20.3060 -20.3055 -20.3055 -20.3055 -20.3055
    -9.6334  -9.6334  -9.4084  -9.4083  -9.1509  -9.1509  -8.7951  -8.7951
    -8.7460  -8.7460  -8.6150  -8.6149  -8.5480  -8.5480  -8.5208  -8.5208
    -8.2061  -8.2061  -8.1680  -8.1680  -7.9968  -7.9968  -7.9791  -7.9791
     1.5073   1.5073   1.5218   1.5218   2.1301   2.1301   2.2323   2.2323
     2.7065   2.7065   2.8910   2.8910   2.9480   2.9480   2.9692   2.9692
     3.0312   3.0312   3.3129   3.3129   3.4236   3.4236   3.5670   3.5670
     3.9810   3.9810   4.0089   4.0089   4.0344   4.0344   4.2578   4.2578
     4.6828   4.6828   4.8307   4.8307   4.8667   4.8667   4.9249   4.9249
     5.0164   5.0164   5.4528   5.4528   5.6396   5.6397   5.7183   5.7183
     6.5656   6.5656   6.6079   6.6079   6.6939   6.6939   6.7716   6.7716
     6.9357   6.9357   7.0061   7.0061   7.1169   7.1169   7.5392   7.5392
     7.5481   7.5481   7.5770   7.5770   7.6154   7.6154   7.8352   7.8352
    10.7297  10.7297  11.2132  11.2133  11.2365  11.2365  11.8061  11.8061
    11.8402  11.8402  12.0642  12.0642  12.5792  12.5792  12.6331  12.6331
    12.8141  12.8141  12.8770  12.8770  12.9815  12.9815  13.4027  13.4027
    15.0258  15.0258  15.4431  15.4431  16.0979  16.0979  16.5293  16.5293
    16.7396  16.7396  16.8415  16.8415  17.5676

          k = 0.1667-0.4905 0.0000 ( 63022 PWs)   bands (ev):

   -66.1938 -66.1938 -66.1933 -66.1933 -66.1932 -66.1932 -66.1927 -66.1927
   -30.5695 -30.5695 -30.5652 -30.5652 -30.5463 -30.5463 -30.5456 -30.5456
   -30.5373 -30.5372 -30.5315 -30.5315 -30.5198 -30.5198 -30.5119 -30.5118
   -30.4800 -30.4800 -30.4762 -30.4762 -30.4547 -30.4547 -30.4494 -30.4494
   -20.3456 -20.3456 -20.3455 -20.3455 -20.3451 -20.3451 -20.3450 -20.3450
   -20.3361 -20.3361 -20.3361 -20.3361 -20.3361 -20.3360 -20.3360 -20.3360
   -20.3280 -20.3280 -20.3277 -20.3277 -20.3242 -20.3242 -20.3241 -20.3241
   -20.3236 -20.3236 -20.3234 -20.3234 -20.3229 -20.3229 -20.3227 -20.3227
   -20.3201 -20.3201 -20.3196 -20.3196 -20.3194 -20.3194 -20.3185 -20.3185
   -20.3178 -20.3178 -20.3171 -20.3171 -20.3123 -20.3122 -20.3116 -20.3116
   -20.3065 -20.3065 -20.3060 -20.3060 -20.3055 -20.3055 -20.3050 -20.3050
    -9.7997  -9.7997  -9.4622  -9.4622  -9.3661  -9.3661  -8.9904  -8.9904
    -8.6533  -8.6532  -8.5371  -8.5370  -8.5274  -8.5274  -8.5033  -8.5033
    -8.0197  -8.0197  -7.9721  -7.9721  -7.8687  -7.8687  -7.8273  -7.8273
     1.1835   1.1835   1.2259   1.2259   1.5215   1.5215   1.6141   1.6141
     2.5627   2.5628   2.8553   2.8553   2.9330   2.9330   2.9455   2.9455
     3.0689   3.0689   3.1679   3.1679   3.3729   3.3729   3.4232   3.4232
     3.5582   3.5582   4.2490   4.2490   4.6202   4.6202   4.9479   4.9479
     5.0245   5.0245   5.2016   5.2016   5.3124   5.3124   5.3900   5.3900
     5.5560   5.5560   5.6813   5.6813   5.9382   5.9382   6.0913   6.0913
     6.3279   6.3279   6.3653   6.3653   6.5955   6.5955   6.7475   6.7475
     6.8494   6.8494   6.8799   6.8799   6.9463   6.9464   7.4540   7.4540
     7.4676   7.4676   7.4957   7.4957   7.5115   7.5115   8.1818   8.1818
     9.5694   9.5694  11.1195  11.1195  11.1580  11.1580  11.3760  11.3760
    11.4427  11.4427  12.3299  12.3299  12.6972  12.6972  13.0221  13.0221
    13.1444  13.1444  13.4626  13.4626  13.4964  13.4964  13.7648  13.7648
    14.4603  14.4603  15.0241  15.0241  15.1176  15.1176  15.4555  15.4555
    16.4095  16.4095  17.4929  17.4930  17.6160

          k = 0.1667-0.4905 0.1669 ( 63072 PWs)   bands (ev):

   -66.1938 -66.1938 -66.1933 -66.1933 -66.1933 -66.1932 -66.1927 -66.1927
   -30.5692 -30.5692 -30.5655 -30.5655 -30.5446 -30.5446 -30.5420 -30.5419
   -30.5375 -30.5375 -30.5280 -30.5280 -30.5204 -30.5204 -30.5101 -30.5100
   -30.4813 -30.4813 -30.4757 -30.4757 -30.4597 -30.4597 -30.4537 -30.4537
   -20.3456 -20.3456 -20.3455 -20.3455 -20.3452 -20.3451 -20.3451 -20.3451
   -20.3361 -20.3361 -20.3361 -20.3361 -20.3361 -20.3360 -20.3360 -20.3360
   -20.3280 -20.3280 -20.3278 -20.3278 -20.3242 -20.3242 -20.3242 -20.3242
   -20.3236 -20.3236 -20.3235 -20.3235 -20.3229 -20.3229 -20.3228 -20.3227
   -20.3200 -20.3200 -20.3196 -20.3196 -20.3193 -20.3193 -20.3185 -20.3185
   -20.3174 -20.3174 -20.3167 -20.3167 -20.3126 -20.3126 -20.3119 -20.3119
   -20.3065 -20.3065 -20.3059 -20.3059 -20.3056 -20.3056 -20.3051 -20.3051
    -9.7487  -9.7487  -9.3865  -9.3856  -9.3776  -9.3767  -8.9589  -8.9589
    -8.6656  -8.6654  -8.5340  -8.5337  -8.5294  -8.5291  -8.5008  -8.5005
    -8.0227  -8.0222  -7.9864  -7.9807  -7.9744  -7.9667  -7.9337  -7.9312
     1.3667   1.3675   1.4674   1.4688   1.5241   1.5242   1.6800   1.6802
     2.6412   2.6460   2.8614   2.8730   2.9289   2.9338   2.9598   2.9614
     3.1081   3.1159   3.1568   3.1651   3.4011   3.4139   3.4199   3.4307
     3.5749   3.5756   4.3081   4.3086   4.3447   4.3525   4.8894   4.9439
     4.9559   4.9887   5.0261   5.0544   5.0759   5.0783   5.3537   5.3668
[...]
    11.9202  11.9202  11.9202  11.9202  12.0035  12.0035  12.0035  12.0035
    12.9491  12.9491  12.9491  12.9491  13.0797  13.0797  13.0797  13.0797
    15.4162  15.4162  15.4162  15.4163  16.4270  16.4270  16.4270  16.4270
    17.3529  17.3529  17.3529  17.3530  17.4459

          k =-0.5000 0.3270 0.0000 ( 62996 PWs)   bands (ev):

   -66.1937 -66.1937 -66.1934 -66.1934 -66.1931 -66.1931 -66.1928 -66.1928
   -30.5639 -30.5639 -30.5600 -30.5600 -30.5431 -30.5431 -30.5401 -30.5401
   -30.5393 -30.5393 -30.5363 -30.5363 -30.5101 -30.5101 -30.5051 -30.5051
   -30.4960 -30.4960 -30.4892 -30.4892 -30.4524 -30.4524 -30.4523 -30.4522
   -20.3457 -20.3457 -20.3455 -20.3455 -20.3452 -20.3452 -20.3450 -20.3450
   -20.3365 -20.3365 -20.3364 -20.3364 -20.3360 -20.3360 -20.3360 -20.3360
   -20.3260 -20.3260 -20.3259 -20.3259 -20.3256 -20.3256 -20.3255 -20.3255
   -20.3247 -20.3247 -20.3245 -20.3245 -20.3221 -20.3221 -20.3218 -20.3218
   -20.3200 -20.3200 -20.3196 -20.3196 -20.3192 -20.3192 -20.3190 -20.3190
   -20.3175 -20.3175 -20.3173 -20.3173 -20.3120 -20.3120 -20.3118 -20.3118
   -20.3063 -20.3063 -20.3063 -20.3062 -20.3053 -20.3053 -20.3053 -20.3053
    -9.6967  -9.6967  -9.4941  -9.4941  -9.1431  -9.1431  -8.8241  -8.8241
    -8.7314  -8.7314  -8.6308  -8.6308  -8.5609  -8.5609  -8.5292  -8.5292
    -8.2023  -8.2023  -8.1617  -8.1617  -7.8570  -7.8570  -7.8385  -7.8385
     1.2197   1.2197   1.2247   1.2247   2.1253   2.1253   2.2443   2.2443
     2.7164   2.7164   2.8445   2.8446   2.9394   2.9394   3.0006   3.0006
     3.0512   3.0512   3.2654   3.2654   3.2951   3.2951   3.4578   3.4578
     3.9421   3.9421   3.9607   3.9607   4.1146   4.1146   4.3118   4.3118
     4.8011   4.8011   4.9033   4.9033   4.9728   4.9728   5.1242   5.1242
     5.2439   5.2440   5.7500   5.7500   6.0314   6.0314   6.0635   6.0635
     6.3544   6.3544   6.4163   6.4163   6.4829   6.4829   6.7250   6.7250
     6.8936   6.8936   6.9685   6.9685   7.0541   7.0541   7.5252   7.5252
     7.5424   7.5424   7.5838   7.5838   7.6108   7.6108   7.9238   7.9238
    10.4264  10.4265  11.0544  11.0544  11.0759  11.0759  11.7317  11.7317
    11.8153  11.8153  11.9292  11.9292  12.6447  12.6447  12.6983  12.6983
    13.0927  13.0927  13.1244  13.1244  13.3109  13.3109  13.7497  13.7497
    14.6021  14.6021  15.0101  15.0101  16.0141  16.0141  16.4617  16.4618
    16.5806  16.5806  16.8067  16.8067  17.6387

          k =-0.5000 0.3270 0.1669 ( 62986 PWs)   bands (ev):

   -66.1937 -66.1937 -66.1934 -66.1934 -66.1931 -66.1931 -66.1928 -66.1928
   -30.5637 -30.5637 -30.5603 -30.5603 -30.5407 -30.5407 -30.5373 -30.5373
   -30.5366 -30.5366 -30.5351 -30.5351 -30.5106 -30.5106 -30.5040 -30.5039
   -30.4971 -30.4971 -30.4884 -30.4884 -30.4574 -30.4574 -30.4568 -30.4568
   -20.3456 -20.3456 -20.3455 -20.3455 -20.3452 -20.3452 -20.3450 -20.3450
   -20.3365 -20.3365 -20.3364 -20.3364 -20.3360 -20.3360 -20.3360 -20.3360
   -20.3260 -20.3260 -20.3259 -20.3259 -20.3256 -20.3256 -20.3255 -20.3255
   -20.3247 -20.3247 -20.3246 -20.3245 -20.3222 -20.3221 -20.3219 -20.3219
   -20.3199 -20.3199 -20.3195 -20.3195 -20.3192 -20.3192 -20.3190 -20.3190
   -20.3171 -20.3171 -20.3170 -20.3169 -20.3123 -20.3123 -20.3122 -20.3122
   -20.3062 -20.3062 -20.3062 -20.3062 -20.3054 -20.3054 -20.3053 -20.3053
    -9.6358  -9.6358  -9.4187  -9.4187  -9.1575  -9.1575  -8.8027  -8.8027
    -8.7431  -8.7431  -8.6218  -8.6218  -8.5584  -8.5584  -8.5317  -8.5317
    -8.2059  -8.2059  -8.1655  -8.1655  -7.9672  -7.9672  -7.9433  -7.9433
     1.4619   1.4619   1.4720   1.4721   2.1309   2.1309   2.2315   2.2315
     2.7864   2.7865   2.8538   2.8538   2.9234   2.9234   3.0031   3.0032
     3.0503   3.0504   3.3427   3.3427   3.3793   3.3793   3.5011   3.5011
     3.9363   3.9363   3.9672   3.9672   4.1068   4.1068   4.3155   4.3155
     4.6894   4.6894   4.7754   4.7754   4.8842   4.8842   4.9337   4.9337
     4.9953   4.9953   5.4771   5.4771   5.6554   5.6554   5.7734   5.7734
     6.5843   6.5843   6.6678   6.6678   6.7289   6.7289   6.7898   6.7898
     6.8974   6.8974   6.9711   6.9711   7.0954   7.0954   7.5179   7.5179
     7.5394   7.5394   7.5801   7.5801   7.6005   7.6005   7.8937   7.8937
    10.6084  10.6084  11.1470  11.1470  11.1704  11.1704  11.7609  11.7609
    11.8320  11.8320  11.9781  11.9781  12.6423  12.6423  12.6968  12.6968
    12.9250  12.9250  12.9584  12.9584  13.1131  13.1131  13.5808  13.5808
    14.9511  14.9511  15.4044  15.4044  16.1103  16.1103  16.4642  16.4642
    16.6179  16.6179  16.8587  16.8587  17.5101

          k =-0.5000 0.3270 0.3338 ( 62964 PWs)   bands (ev):

   -66.1936 -66.1936 -66.1933 -66.1933 -66.1933 -66.1932 -66.1930 -66.1930
   -30.5631 -30.5631 -30.5611 -30.5611 -30.5394 -30.5394 -30.5375 -30.5375
   -30.5254 -30.5254 -30.5248 -30.5248 -30.5124 -30.5124 -30.5011 -30.5011
   -30.4991 -30.4991 -30.4858 -30.4858 -30.4707 -30.4707 -30.4682 -30.4681
   -20.3456 -20.3455 -20.3454 -20.3454 -20.3453 -20.3453 -20.3451 -20.3451
   -20.3365 -20.3365 -20.3364 -20.3364 -20.3360 -20.3360 -20.3360 -20.3360
   -20.3260 -20.3260 -20.3260 -20.3259 -20.3256 -20.3256 -20.3255 -20.3255
   -20.3247 -20.3247 -20.3246 -20.3246 -20.3222 -20.3222 -20.3220 -20.3220
   -20.3196 -20.3196 -20.3194 -20.3194 -20.3193 -20.3193 -20.3190 -20.3190
   -20.3160 -20.3160 -20.3160 -20.3160 -20.3133 -20.3133 -20.3132 -20.3132
   -20.3060 -20.3060 -20.3060 -20.3060 -20.3055 -20.3055 -20.3055 -20.3055
    -9.4817  -9.4817  -9.2184  -9.2184  -9.2030  -9.2030  -8.8054  -8.8054
    -8.7120  -8.7120  -8.5888  -8.5888  -8.5506  -8.5506  -8.5377  -8.5377
    -8.2845  -8.2844  -8.2337  -8.2337  -8.1707  -8.1707  -8.1235  -8.1235
     2.0182   2.0182   2.1224   2.1224   2.1531   2.1531   2.2823   2.2823
     2.8386   2.8386   2.8822   2.8823   2.9926   2.9926   3.0058   3.0058
     3.0611   3.0611   3.4409   3.4410   3.6045   3.6045   3.6534   3.6534
     3.9097   3.9098   3.9925   3.9925   4.0768   4.0768   4.2212   4.2212
     4.2603   4.2603   4.4517   4.4517   4.5493   4.5494   4.7806   4.7806
     4.8239   4.8239   4.8717   4.8717   4.9953   4.9953   5.2865   5.2865
     6.8027   6.8027   6.8644   6.8644   6.8900   6.8900   6.9682   6.9682
     7.0853   7.0853   7.1302   7.1302   7.2466   7.2466   7.4780   7.4780
     7.5197   7.5197   7.5636   7.5636   7.5916   7.5916   7.7982   7.7982
    11.1013  11.1014  11.4278  11.4278  11.4623  11.4623  11.7881  11.7881
    11.8638  11.8638  12.1943  12.1943  12.4596  12.4596  12.4718  12.4718
    12.5865  12.5865  12.7090  12.7090  12.7196  12.7196  13.1574  13.1574
    15.7228  15.7228  16.3028  16.3028  16.3591  16.3591  16.4953  16.4953
    16.8046  16.8046  16.9922  16.9922  17.1214

          k =-0.5000 0.3270-0.5007 ( 62944 PWs)   bands (ev):

   -66.1934 -66.1934 -66.1934 -66.1934 -66.1931 -66.1931 -66.1931 -66.1931
   -30.5621 -30.5621 -30.5621 -30.5621 -30.5384 -30.5384 -30.5384 -30.5384
   -30.5167 -30.5167 -30.5167 -30.5167 -30.5104 -30.5104 -30.5104 -30.5104
   -30.4872 -30.4872 -30.4872 -30.4872 -30.4795 -30.4795 -30.4795 -30.4795
   -20.3454 -20.3454 -20.3454 -20.3454 -20.3453 -20.3453 -20.3453 -20.3452
   -20.3365 -20.3365 -20.3365 -20.3364 -20.3360 -20.3360 -20.3360 -20.3360
   -20.3260 -20.3260 -20.3260 -20.3260 -20.3256 -20.3256 -20.3256 -20.3256
   -20.3247 -20.3247 -20.3247 -20.3247 -20.3221 -20.3221 -20.3221 -20.3221
   -20.3194 -20.3194 -20.3194 -20.3194 -20.3192 -20.3192 -20.3192 -20.3191
   -20.3147 -20.3147 -20.3146 -20.3146 -20.3146 -20.3146 -20.3146 -20.3146
   -20.3058 -20.3058 -20.3058 -20.3058 -20.3058 -20.3058 -20.3058 -20.3057
    -9.3156  -9.3156  -9.3156  -9.3156  -8.9604  -8.9604  -8.9604  -8.9604
    -8.5690  -8.5690  -8.5690  -8.5690  -8.5035  -8.5035  -8.5035  -8.5035
    -8.4828  -8.4827  -8.4827  -8.4827  -8.1620  -8.1620  -8.1620  -8.1620
     2.1393   2.1393   2.1393   2.1393   2.7613   2.7613   2.7613   2.7613
     2.8909   2.8909   2.8909   2.8909   2.9610   2.9610   2.9610   2.9610
     3.1392   3.1392   3.1392   3.1392   3.8386   3.8386   3.8386   3.8386
     3.9218   3.9218   3.9218   3.9218   4.0531   4.0531   4.0531   4.0531
     4.1430   4.1430   4.1430   4.1430   4.3102   4.3102   4.3102   4.3102
     4.6677   4.6677   4.6677   4.6677   5.0297   5.0297   5.0297   5.0297
     6.8728   6.8728   6.8728   6.8728   6.9381   6.9382   6.9382   6.9382
     7.3139   7.3139   7.3139   7.3139   7.4214   7.4215   7.4215   7.4215
     7.4831   7.4831   7.4831   7.4831   7.6556   7.6557   7.6557   7.6557
    11.6592  11.6592  11.6592  11.6592  11.8560  11.8560  11.8560  11.8560
    11.9504  11.9504  11.9504  11.9504  12.0462  12.0462  12.0462  12.0462
    12.6034  12.6034  12.6034  12.6034  12.7408  12.7408  12.7408  12.7408
    16.2652  16.2652  16.2652  16.2653  16.6695  16.6695  16.6695  16.6695
    17.1362  17.1362  17.1362  17.1363  17.4517

          k =-0.5000-0.4905 0.0000 ( 62976 PWs)   bands (ev):

   -66.1936 -66.1936 -66.1936 -66.1936 -66.1930 -66.1929 -66.1929 -66.1929
   -30.5518 -30.5518 -30.5503 -30.5503 -30.5476 -30.5476 -30.5456 -30.5456
   -30.5406 -30.5406 -30.5405 -30.5405 -30.5055 -30.5055 -30.5036 -30.5036
   -30.4997 -30.4997 -30.4977 -30.4977 -30.4526 -30.4526 -30.4525 -30.4525
   -20.3456 -20.3456 -20.3456 -20.3456 -20.3451 -20.3451 -20.3451 -20.3451
   -20.3363 -20.3363 -20.3362 -20.3362 -20.3362 -20.3362 -20.3361 -20.3361
   -20.3258 -20.3258 -20.3257 -20.3257 -20.3257 -20.3257 -20.3256 -20.3255
   -20.3235 -20.3235 -20.3233 -20.3233 -20.3233 -20.3233 -20.3231 -20.3231
   -20.3198 -20.3198 -20.3198 -20.3198 -20.3191 -20.3191 -20.3191 -20.3191
   -20.3174 -20.3174 -20.3174 -20.3174 -20.3119 -20.3119 -20.3119 -20.3119
   -20.3063 -20.3063 -20.3063 -20.3063 -20.3053 -20.3053 -20.3053 -20.3053
    -9.5822  -9.5822  -9.5718  -9.5718  -8.9122  -8.9122  -8.8658  -8.8658
    -8.7046  -8.7046  -8.6684  -8.6684  -8.4797  -8.4797  -8.4501  -8.4501
    -8.4197  -8.4197  -8.3945  -8.3945  -7.8491  -7.8491  -7.8486  -7.8486
     1.2207   1.2207   1.2254   1.2254   2.7765   2.7765   2.8296   2.8296
     2.8447   2.8447   2.8693   2.8694   3.0221   3.0221   3.0958   3.0959
     3.1117   3.1117   3.2440   3.2440   3.2769   3.2769   3.3172   3.3172
     3.3462   3.3462   3.6021   3.6021   4.2235   4.2235   4.2973   4.2973
     4.3203   4.3203   4.3833   4.3833   5.0515   5.0515   5.1029   5.1030
     5.3657   5.3658   5.5032   5.5032   6.0382   6.0382   6.0478   6.0478
     6.4272   6.4272   6.4511   6.4511   6.5351   6.5351   6.5773   6.5773
     7.1482   7.1482   7.1992   7.1992   7.3773   7.3773   7.3918   7.3918
     7.4617   7.4618   7.5058   7.5058   7.6488   7.6488   7.6777   7.6777
    10.9486  10.9486  11.0505  11.0505  11.1467  11.1467  11.2659  11.2659
    12.0441  12.0441  12.1778  12.1778  12.3034  12.3034  12.3515  12.3515
    13.0895  13.0895  13.1262  13.1262  13.4979  13.4979  13.4992  13.4992
    14.8555  14.8555  14.8808  14.8808  16.2963  16.2963  16.4590  16.4590
    17.2369  17.2369  17.2927  17.2928  17.3646

          k =-0.5000-0.4905 0.1669 ( 62980 PWs)   bands (ev):

   -66.1935 -66.1935 -66.1935 -66.1935 -66.1930 -66.1930 -66.1930 -66.1930
   -30.5514 -30.5514 -30.5499 -30.5499 -30.5478 -30.5478 -30.5459 -30.5459
   -30.5363 -30.5363 -30.5361 -30.5361 -30.5062 -30.5062 -30.5043 -30.5043
   -30.4987 -30.4987 -30.4968 -30.4968 -30.4575 -30.4575 -30.4573 -30.4573
   -20.3456 -20.3455 -20.3455 -20.3455 -20.3451 -20.3451 -20.3451 -20.3451
   -20.3363 -20.3363 -20.3362 -20.3362 -20.3362 -20.3362 -20.3361 -20.3361
   -20.3258 -20.3258 -20.3257 -20.3257 -20.3257 -20.3257 -20.3256 -20.3256
   -20.3236 -20.3236 -20.3234 -20.3234 -20.3233 -20.3233 -20.3231 -20.3231
   -20.3197 -20.3197 -20.3197 -20.3197 -20.3192 -20.3191 -20.3191 -20.3191
   -20.3171 -20.3171 -20.3170 -20.3170 -20.3123 -20.3123 -20.3123 -20.3123
   -20.3062 -20.3062 -20.3062 -20.3062 -20.3054 -20.3054 -20.3053 -20.3053
    -9.5127  -9.5127  -9.5010  -9.5010  -8.9272  -8.9272  -8.8819  -8.8819
    -8.6901  -8.6900  -8.6548  -8.6548  -8.4778  -8.4778  -8.4523  -8.4523
    -8.4174  -8.4174  -8.3973  -8.3973  -7.9584  -7.9584  -7.9577  -7.9577
     1.4666   1.4666   1.4722   1.4722   2.7858   2.7858   2.8320   2.8320
     2.8468   2.8468   2.8609   2.8609   3.0233   3.0233   3.0799   3.0799
     3.1784   3.1784   3.2692   3.2692   3.3194   3.3195   3.3647   3.3647
     3.4134   3.4134   3.6370   3.6370   4.2271   4.2271   4.2901   4.2901
     4.3236   4.3236   4.3731   4.3731   4.8196   4.8196   4.8632   4.8632
     5.0983   5.0983   5.2147   5.2147   5.6752   5.6752   5.6783   5.6783
     6.6705   6.6705   6.6956   6.6956   6.7356   6.7356   6.7820   6.7820
     7.1455   7.1455   7.2092   7.2092   7.3724   7.3724   7.3917   7.3917
     7.4548   7.4548   7.5084   7.5085   7.6290   7.6290   7.6688   7.6688
    11.0546  11.0546  11.1473  11.1473  11.2606  11.2606  11.3737  11.3737
    12.0550  12.0550  12.1779  12.1779  12.3087  12.3087  12.3464  12.3464
    12.9225  12.9225  12.9569  12.9569  13.3077  13.3077  13.3161  13.3161
    15.2456  15.2456  15.2582  15.2582  16.3853  16.3853  16.5389  16.5389
    17.2187  17.2187  17.2762  17.2762  17.3545

          k =-0.5000-0.4905 0.3338 ( 62956 PWs)   bands (ev):

   -66.1934 -66.1934 -66.1934 -66.1934 -66.1931 -66.1931 -66.1931 -66.1931
   -30.5506 -30.5506 -30.5489 -30.5489 -30.5485 -30.5485 -30.5466 -30.5466
   -30.5254 -30.5254 -30.5249 -30.5249 -30.5086 -30.5086 -30.5069 -30.5069
   -30.4948 -30.4948 -30.4932 -30.4932 -30.4702 -30.4702 -30.4699 -30.4699
   -20.3455 -20.3455 -20.3455 -20.3455 -20.3452 -20.3452 -20.3452 -20.3452
   -20.3363 -20.3363 -20.3363 -20.3362 -20.3362 -20.3362 -20.3362 -20.3361
   -20.3259 -20.3259 -20.3258 -20.3258 -20.3257 -20.3257 -20.3256 -20.3256
   -20.3236 -20.3236 -20.3235 -20.3235 -20.3233 -20.3233 -20.3232 -20.3232
   -20.3195 -20.3195 -20.3195 -20.3195 -20.3192 -20.3192 -20.3192 -20.3192
   -20.3160 -20.3160 -20.3160 -20.3160 -20.3133 -20.3133 -20.3132 -20.3132
   -20.3060 -20.3060 -20.3060 -20.3060 -20.3055 -20.3055 -20.3055 -20.3055
    -9.3293  -9.3293  -9.3121  -9.3121  -8.9837  -8.9837  -8.9429  -8.9429
    -8.6349  -8.6349  -8.6043  -8.6043  -8.4731  -8.4731  -8.4581  -8.4581
    -8.4117  -8.4117  -8.4064  -8.4064  -8.2163  -8.2163  -8.2138  -8.2138
     2.1061   2.1061   2.1187   2.1187   2.8010   2.8011   2.8257   2.8257
     2.8494   2.8494   2.8573   2.8573   3.0504   3.0504   3.0805   3.0805
     3.2178   3.2178   3.3019   3.3019   3.4210   3.4210   3.4387   3.4387
     3.6622   3.6622   3.7823   3.7823   4.2247   4.2247   4.2623   4.2623
     4.2969   4.2969   4.3249   4.3249   4.4220   4.4220   4.4596   4.4596
     4.6185   4.6185   4.7416   4.7416   4.9153   4.9153   4.9248   4.9248
     6.9559   6.9559   7.0206   7.0206   7.0407   7.0407   7.0821   7.0821
     7.1586   7.1586   7.2474   7.2474   7.3381   7.3381   7.4255   7.4255
     7.4286   7.4286   7.5156   7.5157   7.5853   7.5853   7.6321   7.6322
    11.3727  11.3727  11.4309  11.4309  11.6049  11.6049  11.6962  11.6962
    12.0586  12.0586  12.1824  12.1824  12.2920  12.2920  12.3326  12.3326
    12.4945  12.4945  12.5608  12.5608  12.8291  12.8291  12.8421  12.8421
    16.1168  16.1168  16.1824  16.1824  16.6643  16.6643  16.7787  16.7787
    17.1117  17.1117  17.1270  17.1270  17.3843

          k =-0.5000-0.4905-0.5007 ( 62904 PWs)   bands (ev):

   -66.1933 -66.1933 -66.1933 -66.1933 -66.1933 -66.1933 -66.1932 -66.1932
   -30.5496 -30.5496 -30.5496 -30.5496 -30.5477 -30.5477 -30.5477 -30.5477
   -30.5147 -30.5147 -30.5147 -30.5147 -30.5130 -30.5130 -30.5130 -30.5130
   -30.4854 -30.4854 -30.4854 -30.4853 -30.4840 -30.4840 -30.4840 -30.4840
   -20.3454 -20.3454 -20.3454 -20.3453 -20.3453 -20.3453 -20.3453 -20.3453
   -20.3363 -20.3363 -20.3363 -20.3363 -20.3362 -20.3362 -20.3362 -20.3362
   -20.3258 -20.3258 -20.3258 -20.3258 -20.3257 -20.3257 -20.3256 -20.3256
   -20.3236 -20.3236 -20.3236 -20.3236 -20.3233 -20.3233 -20.3233 -20.3233
   -20.3194 -20.3194 -20.3194 -20.3193 -20.3193 -20.3193 -20.3193 -20.3193
   -20.3147 -20.3147 -20.3147 -20.3146 -20.3146 -20.3146 -20.3146 -20.3146
   -20.3058 -20.3058 -20.3058 -20.3058 -20.3058 -20.3058 -20.3058 -20.3057
    -9.1184  -9.1184  -9.1184  -9.1184  -9.0884  -9.0884  -9.0884  -9.0884
    -8.5094  -8.5093  -8.5093  -8.5093  -8.4897  -8.4897  -8.4897  -8.4897
    -8.4348  -8.4348  -8.4348  -8.4348  -8.3911  -8.3911  -8.3911  -8.3911
     2.6793   2.6793   2.6793   2.6793   2.7992   2.7992   2.7992   2.7992
     2.9018   2.9018   2.9018   2.9018   3.0767   3.0767   3.0767   3.0767
     3.1966   3.1966   3.1966   3.1966   3.3433   3.3433   3.3433   3.3433
     4.0553   4.0553   4.0553   4.0553   4.1202   4.1202   4.1202   4.1202
     4.2245   4.2245   4.2245   4.2245   4.2810   4.2810   4.2810   4.2810
     4.4022   4.4022   4.4022   4.4022   4.4853   4.4853   4.4853   4.4853
     7.0692   7.0692   7.0693   7.0693   7.2057   7.2057   7.2057   7.2057
     7.2622   7.2622   7.2622   7.2622   7.3433   7.3433   7.3433   7.3433
     7.4964   7.4964   7.4964   7.4965   7.5716   7.5716   7.5716   7.5716
    11.7891  11.7891  11.7891  11.7891  11.9004  11.9004  11.9004  11.9004
    12.1045  12.1045  12.1045  12.1045  12.2221  12.2221  12.2221  12.2221
    12.2986  12.2986  12.2986  12.2986  12.4060  12.4060  12.4060  12.4060
    16.7174  16.7175  16.7175  16.7175  16.8721  16.8721  16.8721  16.8721
    17.3775  17.3775  17.3775  17.3776  17.4599

     the Fermi energy is     9.7318 ev

!    total energy              =   -6260.55944096 Ry
     Harris-Foulkes estimate   =   -6260.55944097 Ry
     estimated scf accuracy    <          1.6E-09 Ry

     The total energy is the sum of the following terms:

     one-electron contribution =   -4769.66312884 Ry
     hartree contribution      =    2621.41220318 Ry
     xc contribution           =    -966.45584163 Ry
     ewald contribution        =   -3145.85267044 Ry
     smearing contrib. (-TS)   =      -0.00000324 Ry

     convergence has been achieved in  13 iterations

     Writing output data file Landau_26.save/
 
     init_run     :     37.35s CPU     48.91s WALL (       1 calls)
     electrons    :   1401.64s CPU   1780.84s WALL (       1 calls)

     Called by init_run:
     wfcinit      :     34.50s CPU     45.74s WALL (       1 calls)
     potinit      :      1.05s CPU      1.15s WALL (       1 calls)
     hinit0       :      1.54s CPU      1.64s WALL (       1 calls)

     Called by electrons:
     c_bands      :   1227.18s CPU   1525.07s WALL (      13 calls)
     sum_band     :    168.32s CPU    196.46s WALL (      13 calls)
     v_of_rho     :      1.40s CPU      2.00s WALL (      14 calls)
     mix_rho      :      2.44s CPU     45.97s WALL (      13 calls)

     Called by c_bands:
     init_us_2    :      7.82s CPU     95.92s WALL (      54 calls)
     cegterg      :    959.67s CPU   1097.72s WALL (      26 calls)

     Called by sum_band:

     Called by *egterg:
     h_psi        :    755.09s CPU    844.02s WALL (     122 calls)
     g_psi        :      1.74s CPU      4.96s WALL (      94 calls)
     cdiaghg      :     14.64s CPU     17.00s WALL (     120 calls)

     Called by h_psi:
     h_psi:pot    :    752.09s CPU    830.24s WALL (     122 calls)
     h_psi:calbec :     78.28s CPU    136.11s WALL (     122 calls)
     vloc_psi     :    589.09s CPU    598.64s WALL (     122 calls)
     add_vuspsi   :     84.71s CPU     95.48s WALL (     122 calls)

     General routines
     calbec       :     78.28s CPU    136.04s WALL (     122 calls)
     fft          :      0.76s CPU      0.76s WALL (      42 calls)
     ffts         :      0.24s CPU      0.24s WALL (      13 calls)
     fftw         :    611.48s CPU    613.98s WALL (   34120 calls)
 
     Parallel routines
 
     PWSCF        :  24m 1.58s CPU  30m34.20s WALL

 
   This run was terminated on:  12:52:55  22Nov2019            

=------------------------------------------------------------------------------=
   JOB DONE.
=------------------------------------------------------------------------------=
