
     Program PWSCF v.6.2 (svn rev. 14038) starts on 28Aug2019 at 13: 3:34 

     This program is part of the open-source Quantum ESPRESSO suite
     for quantum simulation of materials; please cite
         "P. Giannozzi et al., J. Phys.:Condens. Matter 21 395502 (2009);
         "P. Giannozzi et al., J. Phys.:Condens. Matter 29 465901 (2017);
          URL http://www.quantum-espresso.org", 
     in publications or presentations arising from this work. More details at
     http://www.quantum-espresso.org/quote

     Parallel version (MPI), running on    40 processors

     MPI processes distributed on    10 nodes
     K-points division:     npool     =      40
     Reading input from scf.in

     Current dimensions of program PWSCF are:
     Max number of different atomic species (ntypx) = 10
     Max number of k-points (npk) =  40000
     Max angular momentum in pseudopotentials (lmaxx) =  3

     Subspace diagonalization in iterative solution of the eigenvalue problem:
     a serial algorithm will be used

 
     G-vector sticks info
     --------------------
     sticks:   dense  smooth     PW     G-vecs:    dense   smooth      PW
     Sum        7709    7709   2069               496621   496621   68841
 


     bravais-lattice index     =            0
     lattice parameter (alat)  =      13.8467  a.u.
     unit-cell volume          =    2796.3335 (a.u.)^3
     number of atoms/cell      =           32
     number of atomic types    =            2
     number of electrons       =       368.15
     number of Kohn-Sham states=          221
     kinetic-energy cutoff     =     120.0000  Ry
     charge density cutoff     =     480.0000  Ry
     convergence threshold     =      1.0E-08
     mixing beta               =       0.7000
     number of iterations used =            8  plain     mixing
     Exchange-correlation      = SLA PW NOGX NOGC ( 1  4  0  0 0 0)

     celldm(1)=  13.846710  celldm(2)=   0.000000  celldm(3)=   0.000000
     celldm(4)=   0.000000  celldm(5)=   0.000000  celldm(6)=   0.000000

     crystal axes: (cart. coord. in units of alat)
               a(1) = (   1.000000   0.000000   0.000000 )  
               a(2) = (   0.000000   1.053293   0.000000 )  
               a(3) = (   0.000000   0.000000   1.000000 )  

     reciprocal axes: (cart. coord. in units 2 pi/alat)
               b(1) = (  1.000000  0.000000  0.000000 )  
               b(2) = (  0.000000  0.949404  0.000000 )  
               b(3) = (  0.000000  0.000000  1.000000 )  


     PseudoPot. # 1 for W  read from file:
     /cluster/scratch/mnoe/QE/pps/W_ONCV_LDA-4.0.upf
     MD5 check sum: ba0307d5d4cd419d6f1d13dc49d7c13a
     Pseudo is Norm-conserving + core correction, Zval = 28.0
     Generated using ONCVPSP code by D. R. Hamann
     Using radial grid of 1380 points,  8 beta functions with: 
                l(1) =   0
                l(2) =   0
                l(3) =   1
                l(4) =   1
                l(5) =   2
                l(6) =   2
                l(7) =   3
                l(8) =   3

     PseudoPot. # 2 for O  read from file:
     /cluster/scratch/mnoe/QE/pps/O_ONCV_LDA-3.0.upf
     MD5 check sum: b55cdb4f45ae2203d24ad12cf8d61a31
     Pseudo is Norm-conserving + core correction, Zval =  6.0
     Generated using ONCVPSP code by D. R. Hamann
     Using radial grid of  926 points,  5 beta functions with: 
                l(1) =   0
                l(2) =   0
                l(3) =   1
                l(4) =   1
                l(5) =   2

     atomic species   valence    mass     pseudopotential
        W             28.00   183.84000     W ( 1.00)
        O              6.00    15.99940     O ( 1.00)

      8 Sym. Ops. (no inversion) found ( 4 have fractional translation)



   Cartesian axes

     site n.     atom                  positions (alat units)
         1           W   tau(   1) = (   0.2616900   0.2968811   0.2503300  )
         2           W   tau(   2) = (  -0.2503300   0.7564118  -0.7383099  )
         3           W   tau(   3) = (   0.2383100   0.2297653   0.7503300  )
         4           W   tau(   4) = (   0.7503300   0.8235276   0.7616900  )
         5           W   tau(   5) = (   0.7383100   0.2968811   0.7496700  )
         6           W   tau(   6) = (   0.2503300   0.7564118   0.7383100  )
         7           W   tau(   7) = (  -0.2383099   0.2297653  -0.7503300  )
         8           W   tau(   8) = (   0.2496700   0.8235276   0.2383100  )
         9           O   tau(   9) = (   0.2628600   0.0087634   0.2593200  )
        10           O   tau(  10) = (  -0.2593200   1.0445296  -0.7371400  )
        11           O   tau(  11) = (   0.2371400   0.5178831   0.7593199  )
        12           O   tau(  12) = (   0.7593200   0.5354098   0.7628600  )
        13           O   tau(  13) = (   0.7371400   0.0087634   0.7406800  )
        14           O   tau(  14) = (   0.2593200   1.0445296   0.7371400  )
        15           O   tau(  15) = (  -0.2371400   0.5178831  -0.7593200  )
        16           O   tau(  16) = (   0.2406800   0.5354098   0.2371400  )
        17           O   tau(  17) = (   0.4958700   0.2779219   0.6995400  )
        18           O   tau(  18) = (   0.4991500   0.7805953   0.8004600  )
        19           O   tau(  19) = (  -0.9958699   0.2487246   1.1995400  )
        20           O   tau(  20) = (   0.0008500   0.7993439   0.3004600  )
        21           O   tau(  21) = (   0.5041300   0.2779219   0.3004600  )
        22           O   tau(  22) = (   0.5008500   0.7805953   1.1995400  )
        23           O   tau(  23) = (  -0.0041301   0.2487246   0.8004600  )
        24           O   tau(  24) = (  -1.0008499   0.7993439   0.6995400  )
        25           O   tau(  25) = (   0.6995400   0.2539489   2.0008500  )
        26           O   tau(  26) = (   0.3004600   0.7753709   0.4958700  )
        27           O   tau(  27) = (   0.8004600   0.2726975   0.5008500  )
        28           O   tau(  28) = (   0.1995400   0.8045683   1.9958700  )
        29           O   tau(  29) = (   0.3004600   0.2539489   0.9991501  )
        30           O   tau(  30) = (   0.6995400   0.7753709   0.5041300  )
        31           O   tau(  31) = (   0.1995400   0.2726975   0.4991500  )
        32           O   tau(  32) = (   0.8004600   0.8045683   1.0041301  )

     number of k points=    40  gaussian smearing, width (Ry)=  0.0007
                       cart. coord. in units 2pi/alat
        k(    1) = (   0.0000000   0.0000000   0.0000000), wk =   0.0092593
        k(    2) = (   0.0000000   0.0000000   0.1666667), wk =   0.0370370
        k(    3) = (   0.0000000   0.0000000   0.3333333), wk =   0.0370370
        k(    4) = (   0.0000000   0.0000000  -0.5000000), wk =   0.0185185
        k(    5) = (   0.0000000   0.1582339   0.0000000), wk =   0.0185185
        k(    6) = (   0.0000000   0.1582339   0.1666667), wk =   0.0740741
        k(    7) = (   0.0000000   0.1582339   0.3333333), wk =   0.0740741
        k(    8) = (   0.0000000   0.1582339  -0.5000000), wk =   0.0370370
        k(    9) = (   0.0000000   0.3164678   0.0000000), wk =   0.0185185
        k(   10) = (   0.0000000   0.3164678   0.1666667), wk =   0.0740741
        k(   11) = (   0.0000000   0.3164678   0.3333333), wk =   0.0740741
        k(   12) = (   0.0000000   0.3164678  -0.5000000), wk =   0.0370370
        k(   13) = (   0.0000000  -0.4747018   0.0000000), wk =   0.0092593
        k(   14) = (   0.0000000  -0.4747018   0.1666667), wk =   0.0370370
        k(   15) = (   0.0000000  -0.4747018   0.3333333), wk =   0.0370370
        k(   16) = (   0.0000000  -0.4747018  -0.5000000), wk =   0.0185185
        k(   17) = (   0.1666667   0.0000000   0.1666667), wk =   0.0370370
        k(   18) = (   0.1666667   0.0000000   0.3333333), wk =   0.0740741
        k(   19) = (   0.1666667   0.0000000  -0.5000000), wk =   0.0370370
        k(   20) = (   0.1666667   0.1582339   0.1666667), wk =   0.0740741
        k(   21) = (   0.1666667   0.1582339   0.3333333), wk =   0.1481481
        k(   22) = (   0.1666667   0.1582339  -0.5000000), wk =   0.0740741
        k(   23) = (   0.1666667   0.3164678   0.1666667), wk =   0.0740741
        k(   24) = (   0.1666667   0.3164678   0.3333333), wk =   0.1481481
        k(   25) = (   0.1666667   0.3164678  -0.5000000), wk =   0.0740741
        k(   26) = (   0.1666667  -0.4747018   0.1666667), wk =   0.0370370
        k(   27) = (   0.1666667  -0.4747018   0.3333333), wk =   0.0740741
        k(   28) = (   0.1666667  -0.4747018  -0.5000000), wk =   0.0370370
        k(   29) = (   0.3333333   0.0000000   0.3333333), wk =   0.0370370
        k(   30) = (   0.3333333   0.0000000  -0.5000000), wk =   0.0370370
        k(   31) = (   0.3333333   0.1582339   0.3333333), wk =   0.0740741
        k(   32) = (   0.3333333   0.1582339  -0.5000000), wk =   0.0740741
        k(   33) = (   0.3333333   0.3164678   0.3333333), wk =   0.0740741
        k(   34) = (   0.3333333   0.3164678  -0.5000000), wk =   0.0740741
        k(   35) = (   0.3333333  -0.4747018   0.3333333), wk =   0.0370370
        k(   36) = (   0.3333333  -0.4747018  -0.5000000), wk =   0.0370370
        k(   37) = (  -0.5000000   0.0000000  -0.5000000), wk =   0.0092593
        k(   38) = (  -0.5000000   0.1582339  -0.5000000), wk =   0.0185185
        k(   39) = (  -0.5000000   0.3164678  -0.5000000), wk =   0.0185185
        k(   40) = (  -0.5000000  -0.4747018  -0.5000000), wk =   0.0092593

     Dense  grid:   496621 G-vectors     FFT dimensions: ( 100, 108, 100)

     Estimated max dynamical RAM per process >       2.71 GB

     Estimated total dynamical RAM >     108.36 GB

     Initial potential from superposition of free atoms

     starting charge  367.99656, renormalised to  368.15000
     Starting wfc are  232 randomized atomic wfcs

     total cpu time spent up to now is       24.5 secs

     Self-consistent Calculation

     iteration #  1     ecut=   120.00 Ry     beta= 0.70
     Davidson diagonalization with overlap
     ethr =  1.00E-02,  avg # of iterations =  5.0

     total cpu time spent up to now is      103.6 secs

     total energy              =   -6253.86519662 Ry
     Harris-Foulkes estimate   =   -6264.49421290 Ry
     estimated scf accuracy    <      13.44262454 Ry

     iteration #  2     ecut=   120.00 Ry     beta= 0.70
     Davidson diagonalization with overlap
     ethr =  3.65E-03,  avg # of iterations =  3.5

     total cpu time spent up to now is      180.5 secs

     total energy              =   -6250.73132605 Ry
     Harris-Foulkes estimate   =   -6270.66349856 Ry
     estimated scf accuracy    <      53.46737603 Ry

     iteration #  3     ecut=   120.00 Ry     beta= 0.70
     Davidson diagonalization with overlap
     ethr =  3.65E-03,  avg # of iterations =  3.4

     total cpu time spent up to now is      252.6 secs

     total energy              =   -6260.98432394 Ry
     Harris-Foulkes estimate   =   -6261.27305502 Ry
     estimated scf accuracy    <       0.94341633 Ry

     iteration #  4     ecut=   120.00 Ry     beta= 0.70
     Davidson diagonalization with overlap
     ethr =  2.56E-04,  avg # of iterations =  2.7

     total cpu time spent up to now is      311.4 secs

     total energy              =   -6260.99190040 Ry
     Harris-Foulkes estimate   =   -6261.06218819 Ry
     estimated scf accuracy    <       0.23427368 Ry

     iteration #  5     ecut=   120.00 Ry     beta= 0.70
     Davidson diagonalization with overlap
     ethr =  6.36E-05,  avg # of iterations =  5.4

     total cpu time spent up to now is      372.9 secs

     total energy              =   -6260.98862162 Ry
     Harris-Foulkes estimate   =   -6261.02214898 Ry
     estimated scf accuracy    <       0.07342554 Ry

     iteration #  6     ecut=   120.00 Ry     beta= 0.70
     Davidson diagonalization with overlap
     ethr =  1.99E-05,  avg # of iterations =  5.2

     total cpu time spent up to now is      440.2 secs

     total energy              =   -6261.00489756 Ry
     Harris-Foulkes estimate   =   -6261.00703502 Ry
     estimated scf accuracy    <       0.00574463 Ry

     iteration #  7     ecut=   120.00 Ry     beta= 0.70
     Davidson diagonalization with overlap
     ethr =  1.56E-06,  avg # of iterations =  5.4

     total cpu time spent up to now is      503.3 secs

     total energy              =   -6261.00561672 Ry
     Harris-Foulkes estimate   =   -6261.00570217 Ry
     estimated scf accuracy    <       0.00017051 Ry

     iteration #  8     ecut=   120.00 Ry     beta= 0.70
     Davidson diagonalization with overlap
     ethr =  4.63E-08,  avg # of iterations =  3.1

     total cpu time spent up to now is      579.2 secs

     total energy              =   -6261.00567866 Ry
     Harris-Foulkes estimate   =   -6261.00568349 Ry
     estimated scf accuracy    <       0.00002113 Ry

     iteration #  9     ecut=   120.00 Ry     beta= 0.70
     Davidson diagonalization with overlap
     ethr =  5.74E-09,  avg # of iterations =  2.0

     total cpu time spent up to now is      639.8 secs

     total energy              =   -6261.00567610 Ry
     Harris-Foulkes estimate   =   -6261.00568035 Ry
     estimated scf accuracy    <       0.00001066 Ry

     iteration # 10     ecut=   120.00 Ry     beta= 0.70
     Davidson diagonalization with overlap
     ethr =  2.90E-09,  avg # of iterations =  2.0

     total cpu time spent up to now is      697.9 secs

     total energy              =   -6261.00567787 Ry
     Harris-Foulkes estimate   =   -6261.00567796 Ry
     estimated scf accuracy    <       0.00000021 Ry

     iteration # 11     ecut=   120.00 Ry     beta= 0.70
     Davidson diagonalization with overlap
     ethr =  5.60E-11,  avg # of iterations =  3.0

     total cpu time spent up to now is      772.4 secs

     total energy              =   -6261.00567793 Ry
     Harris-Foulkes estimate   =   -6261.00567797 Ry
     estimated scf accuracy    <       0.00000010 Ry

     iteration # 12     ecut=   120.00 Ry     beta= 0.70
     Davidson diagonalization with overlap
     ethr =  2.77E-11,  avg # of iterations =  1.9

     total cpu time spent up to now is      829.8 secs

     total energy              =   -6261.00567792 Ry
     Harris-Foulkes estimate   =   -6261.00567794 Ry
     estimated scf accuracy    <       0.00000002 Ry

     iteration # 13     ecut=   120.00 Ry     beta= 0.70
     Davidson diagonalization with overlap
     ethr =  6.69E-12,  avg # of iterations =  2.5

     total cpu time spent up to now is      900.2 secs

     End of self-consistent calculation

          k = 0.0000 0.0000 0.0000 ( 62079 PWs)   bands (ev):

   -66.0771 -66.0767 -66.0761 -66.0761 -66.0757 -66.0757 -66.0751 -66.0747
   -30.4880 -30.4819 -30.4819 -30.4760 -30.4534 -30.4414 -30.4413 -30.4361
   -30.4175 -30.4122 -30.4122 -30.4104 -30.4085 -30.4072 -30.4036 -30.4036
   -30.3388 -30.3388 -30.3377 -30.3346 -30.3114 -30.3113 -30.3071 -30.3058
   -20.2334 -20.2333 -20.2332 -20.2332 -20.2330 -20.2330 -20.2330 -20.2329
   -20.2193 -20.2190 -20.2190 -20.2186 -20.2152 -20.2147 -20.2147 -20.2142
   -20.2138 -20.2135 -20.2135 -20.2131 -20.2131 -20.2127 -20.2126 -20.2124
   -20.2104 -20.2097 -20.2097 -20.2093 -20.2085 -20.2083 -20.2083 -20.2078
   -20.2027 -20.2021 -20.2013 -20.2013 -20.1999 -20.1999 -20.1982 -20.1978
   -20.1973 -20.1972 -20.1945 -20.1945 -20.1938 -20.1936 -20.1935 -20.1935
   -20.1911 -20.1911 -20.1900 -20.1899 -20.1883 -20.1883 -20.1875 -20.1873
    -9.8939  -9.6068  -9.4512  -9.4512  -9.1661  -9.1661  -9.0183  -8.9722
    -8.9612  -8.8164  -8.7852  -8.7852  -7.8257  -7.7532  -7.7387  -7.7387
    -7.7361  -7.6957  -7.6833  -7.6785  -7.6003  -7.6003  -7.5388  -7.5388
     1.2840   1.2876   1.3508   1.3508   1.4000   1.4000   1.4453   1.6891
     1.6959   1.6959   1.7215   1.9353   2.4440   2.5246   2.6111   2.6460
     2.7795   2.7795   4.1951   4.1951   4.4348   4.4377   4.8112   4.8750
     4.8750   4.8905   4.9063   4.9063   5.1090   5.1090   5.1889   5.4919
     5.4929   5.5590   5.5590   5.6062   5.6062   5.6951   5.6951   5.8777
     5.8777   5.9159   5.9234   5.9443   6.0183   6.0324   6.0505   6.1621
     6.1679   6.3065   6.3184   6.6032   6.6032   6.8660   6.8719   6.8719
     6.8990   6.9038   7.0299   7.0680   7.1133   7.1133   7.3666   7.3666
     7.4813   7.4813   7.8133   7.8290   8.1078   8.1078   8.1473   8.1987
     9.4413   9.4463  10.0942  10.1053  10.1317  10.1317  12.3043  12.3043
    12.3468  12.3468  12.4689  12.4689  12.5838  12.6498  12.7687  12.8763
    13.2526  13.3671  13.4287  13.4287  13.7830  14.0791  14.0791  14.1830
    14.3383  14.5587  14.5587  14.9627  15.4858  15.4955  15.5608  16.0904
    16.0904  16.8425  17.0817  17.0817  17.5529

          k = 0.0000 0.0000 0.1667 ( 62064 PWs)   bands (ev):

   -66.0771 -66.0766 -66.0762 -66.0761 -66.0758 -66.0756 -66.0752 -66.0748
   -30.4875 -30.4823 -30.4814 -30.4764 -30.4511 -30.4418 -30.4375 -30.4327
   -30.4180 -30.4127 -30.4101 -30.4087 -30.4068 -30.4039 -30.4022 -30.3970
   -30.3452 -30.3428 -30.3385 -30.3364 -30.3178 -30.3128 -30.3110 -30.3068
   -20.2334 -20.2333 -20.2332 -20.2332 -20.2331 -20.2330 -20.2330 -20.2329
   -20.2193 -20.2190 -20.2189 -20.2187 -20.2151 -20.2147 -20.2147 -20.2143
   -20.2138 -20.2135 -20.2135 -20.2132 -20.2131 -20.2127 -20.2126 -20.2124
   -20.2103 -20.2097 -20.2096 -20.2093 -20.2085 -20.2084 -20.2083 -20.2078
   -20.2025 -20.2019 -20.2013 -20.2010 -20.2000 -20.1997 -20.1983 -20.1979
   -20.1970 -20.1970 -20.1946 -20.1943 -20.1936 -20.1936 -20.1934 -20.1932
   -20.1915 -20.1911 -20.1903 -20.1900 -20.1887 -20.1882 -20.1879 -20.1874
    -9.8474  -9.5534  -9.4685  -9.3906  -9.1811  -9.0790  -9.0273  -8.9343
    -8.9209  -8.8036  -8.7900  -8.7542  -7.8912  -7.8146  -7.8012  -7.7586
    -7.7428  -7.7320  -7.7033  -7.6820  -7.6790  -7.6654  -7.6098  -7.5485
     1.3479   1.3532   1.3873   1.4050   1.5093   1.5389   1.6396   1.6817
     1.6898   1.7753   1.8908   2.0556   2.5305   2.6155   2.6341   2.7206
     2.7707   2.8686   4.1275   4.1909   4.4152   4.4267   4.4576   4.5186
     4.6871   4.8513   4.8566   4.9273   4.9388   5.0968   5.1680   5.3481
     5.4458   5.4796   5.5481   5.5805   5.6315   5.6736   5.6958   5.7101
     5.7724   5.8204   5.8655   5.9628   6.0458   6.0958   6.1350   6.1632
     6.3415   6.3821   6.5380   6.5868   6.7426   6.7669   6.8248   6.8319
     6.8927   6.9189   6.9839   7.0238   7.0914   7.1109   7.1962   7.2041
     7.2485   7.3255   7.8330   7.8384   8.0682   8.1208   8.1232   8.1869
     9.7609   9.7871  10.1066  10.1290  10.3484  10.4086  12.2344  12.2878
    12.3540  12.3960  12.3998  12.5079  12.6096  12.7182  12.8134  12.9037
    13.1263  13.2942  13.3552  13.4306  13.8506  14.0067  14.0775  14.1016
    14.3291  14.5532  14.6270  15.0723  15.5161  15.5258  15.5381  16.0616
    16.3878  16.8321  17.0076  17.2653  17.6166

          k = 0.0000 0.0000 0.3333 ( 62066 PWs)   bands (ev):

   -66.0769 -66.0765 -66.0764 -66.0760 -66.0759 -66.0755 -66.0754 -66.0750
   -30.4862 -30.4833 -30.4802 -30.4774 -30.4475 -30.4429 -30.4291 -30.4239
   -30.4197 -30.4142 -30.4076 -30.4049 -30.4011 -30.3998 -30.3848 -30.3796
   -30.3621 -30.3593 -30.3407 -30.3375 -30.3344 -30.3283 -30.3102 -30.3078
   -20.2333 -20.2332 -20.2332 -20.2332 -20.2331 -20.2330 -20.2330 -20.2329
   -20.2192 -20.2191 -20.2189 -20.2187 -20.2151 -20.2148 -20.2146 -20.2144
   -20.2137 -20.2136 -20.2135 -20.2133 -20.2131 -20.2128 -20.2126 -20.2125
   -20.2101 -20.2098 -20.2093 -20.2090 -20.2087 -20.2085 -20.2082 -20.2079
   -20.2021 -20.2015 -20.2015 -20.2004 -20.2003 -20.1992 -20.1987 -20.1982
   -20.1963 -20.1962 -20.1950 -20.1941 -20.1938 -20.1932 -20.1927 -20.1924
   -20.1922 -20.1912 -20.1908 -20.1903 -20.1899 -20.1891 -20.1880 -20.1876
    -9.7343  -9.5215  -9.4284  -9.2492  -9.2267  -9.0578  -8.8593  -8.8305
    -8.8032  -8.7823  -8.7147  -8.6341  -8.1810  -8.1151  -8.0670  -8.0029
    -7.7821  -7.7539  -7.7163  -7.7070  -7.6916  -7.6501  -7.6359  -7.5751
     1.3598   1.3714   1.4185   1.4395   1.6297   1.6344   1.6661   1.6781
     2.3083   2.3615   2.5199   2.6062   2.6610   2.7593   2.7810   2.8800
     2.9590   3.1052   3.7982   3.8883   3.9092   3.9991   4.2192   4.3350
     4.3873   4.5717   4.5862   4.8081   4.8083   4.8702   5.0119   5.1018
     5.2010   5.2507   5.3290   5.4018   5.5181   5.5375   5.6894   5.7410
     5.7749   5.8190   5.8512   6.0193   6.0702   6.1981   6.2165   6.3096
     6.4156   6.4397   6.5292   6.5688   6.6008   6.6277   6.6858   6.8151
     6.8589   6.8901   6.8967   7.0460   7.0638   7.1052   7.1186   7.1873
     7.3672   7.4040   7.7814   7.7991   7.9442   7.9983   8.1580   8.1804
    10.0865  10.1202  10.4456  10.5449  10.9376  11.0641  11.8748  11.9589
    12.1373  12.4896  12.5221  12.5634  12.6325  12.6809  12.7729  12.9078
    12.9617  13.1385  13.2269  13.4450  13.7140  13.7522  14.0570  14.0738
    14.4086  14.5351  14.8946  15.3473  15.4131  15.6569  15.9093  15.9720
    16.3160  17.2085  17.4097  17.5362  17.8209

          k = 0.0000 0.0000-0.5000 ( 62032 PWs)   bands (ev):

   -66.0766 -66.0766 -66.0762 -66.0762 -66.0756 -66.0756 -66.0752 -66.0752
   -30.4847 -30.4847 -30.4788 -30.4788 -30.4448 -30.4448 -30.4228 -30.4228
   -30.4173 -30.4173 -30.4062 -30.4062 -30.3838 -30.3838 -30.3813 -30.3813
   -30.3610 -30.3610 -30.3561 -30.3561 -30.3357 -30.3357 -30.3091 -30.3091
   -20.2333 -20.2333 -20.2332 -20.2332 -20.2331 -20.2331 -20.2330 -20.2330
   -20.2192 -20.2192 -20.2188 -20.2188 -20.2150 -20.2150 -20.2145 -20.2145
   -20.2137 -20.2137 -20.2134 -20.2134 -20.2130 -20.2130 -20.2126 -20.2126
   -20.2099 -20.2099 -20.2090 -20.2089 -20.2088 -20.2088 -20.2080 -20.2080
   -20.2018 -20.2018 -20.2009 -20.2009 -20.1995 -20.1995 -20.1987 -20.1987
   -20.1956 -20.1956 -20.1951 -20.1950 -20.1932 -20.1932 -20.1924 -20.1923
   -20.1914 -20.1914 -20.1908 -20.1908 -20.1904 -20.1904 -20.1878 -20.1878
    -9.6125  -9.6125  -9.3076  -9.3075  -9.1247  -9.1247  -8.8230  -8.8230
    -8.5231  -8.5230  -8.4669  -8.4668  -8.4575  -8.4574  -8.3699  -8.3699
    -7.7691  -7.7691  -7.7044  -7.7044  -7.6716  -7.6716  -7.6122  -7.6121
     1.3678   1.3678   1.4348   1.4349   1.6507   1.6507   1.6654   1.6654
     2.6940   2.6940   3.0193   3.0194   3.1537   3.1537   3.1954   3.1954
     3.3220   3.3220   3.3830   3.3830   3.5515   3.5515   3.8373   3.8373
     3.9292   3.9293   4.5121   4.5121   4.7589   4.7589   4.9940   4.9941
     5.2911   5.2911   5.3870   5.3870   5.4252   5.4252   5.7321   5.7321
     5.8156   5.8156   6.0057   6.0057   6.1758   6.1759   6.3066   6.3066
     6.3302   6.3302   6.4809   6.4810   6.5338   6.5338   6.6068   6.6068
     6.8344   6.8344   6.8844   6.8844   7.0932   7.0932   7.5277   7.5277
     7.5819   7.5820   7.7222   7.7222   7.7579   7.7580   8.1752   8.1752
    10.1059  10.1059  11.2150  11.2151  11.3178  11.3178  11.6087  11.6087
    11.8382  11.8382  12.6422  12.6422  12.7169  12.7169  12.8577  12.8577
    12.9714  12.9714  13.3345  13.3345  13.5155  13.5155  14.0696  14.0696
    14.4955  14.4955  15.2026  15.2026  15.7449  15.7449  15.8654  15.8655
    16.6638  16.6638  17.9058  17.9058  18.1927

          k = 0.0000 0.1582 0.0000 ( 62059 PWs)   bands (ev):

   -66.0771 -66.0767 -66.0761 -66.0761 -66.0757 -66.0757 -66.0751 -66.0747
   -30.4846 -30.4783 -30.4783 -30.4721 -30.4545 -30.4421 -30.4421 -30.4353
   -30.4214 -30.4145 -30.4145 -30.4113 -30.4093 -30.4086 -30.4041 -30.4041
   -30.3389 -30.3389 -30.3376 -30.3349 -30.3114 -30.3114 -30.3070 -30.3059
   -20.2334 -20.2333 -20.2332 -20.2332 -20.2330 -20.2330 -20.2330 -20.2329
   -20.2190 -20.2186 -20.2186 -20.2183 -20.2153 -20.2149 -20.2148 -20.2144
   -20.2138 -20.2135 -20.2135 -20.2133 -20.2131 -20.2128 -20.2128 -20.2126
   -20.2104 -20.2097 -20.2097 -20.2094 -20.2085 -20.2084 -20.2084 -20.2079
   -20.2026 -20.2021 -20.2013 -20.2013 -20.1999 -20.1999 -20.1981 -20.1978
   -20.1973 -20.1972 -20.1945 -20.1945 -20.1938 -20.1936 -20.1935 -20.1935
   -20.1911 -20.1911 -20.1900 -20.1899 -20.1883 -20.1883 -20.1875 -20.1873
    -9.8648  -9.6185  -9.4153  -9.4153  -9.1726  -9.1726  -8.9713  -8.9614
    -8.9442  -8.7704  -8.7468  -8.7468  -7.9027  -7.8361  -7.8361  -7.7858
    -7.7535  -7.7534  -7.6956  -7.6847  -7.6027  -7.6027  -7.5394  -7.5394
     1.2845   1.2872   1.3566   1.3566   1.4043   1.4043   1.5727   1.7208
     1.8697   1.9248   1.9248   2.1030   2.4494   2.5190   2.6829   2.7206
     2.8490   2.8490   4.0648   4.0648   4.1654   4.1660   4.7562   4.8701
     4.8701   4.9000   4.9000   4.9533   5.0530   5.0530   5.0716   5.3604
     5.3604   5.5367   5.5367   5.6342   5.6821   5.6977   5.6977   5.7307
     5.8512   5.8524   5.9426   5.9426   5.9785   6.0514   6.0695   6.1550
     6.1650   6.3064   6.3068   6.6287   6.6287   6.8085   6.8989   6.8989
     6.9280   6.9324   6.9638   7.0297   7.0465   7.0465   7.3714   7.3714
     7.4845   7.4845   7.8171   7.8278   8.0719   8.0719   8.0814   8.1182
     9.4454   9.4473  10.2917  10.2953  10.2979  10.2979  12.2385  12.2385
    12.3247  12.3247  12.4284  12.4536  12.4536  12.4844  12.7813  12.8754
    13.2868  13.3913  13.4257  13.4257  13.9473  14.0405  14.0405  14.0893
    14.3946  14.7734  14.7734  15.1280  15.4853  15.4919  15.9613  16.0588
    16.0588  16.5604  17.2162  17.2162  17.5894

          k = 0.0000 0.1582 0.1667 ( 62057 PWs)   bands (ev):

   -66.0771 -66.0767 -66.0762 -66.0760 -66.0758 -66.0757 -66.0752 -66.0748
   -30.4840 -30.4787 -30.4777 -30.4724 -30.4523 -30.4425 -30.4386 -30.4321
   -30.4219 -30.4150 -30.4121 -30.4098 -30.4086 -30.4044 -30.4025 -30.3973
   -30.3452 -30.3428 -30.3385 -30.3366 -30.3178 -30.3128 -30.3111 -30.3068
   -20.2333 -20.2333 -20.2332 -20.2332 -20.2331 -20.2330 -20.2330 -20.2329
   -20.2190 -20.2187 -20.2186 -20.2183 -20.2153 -20.2149 -20.2148 -20.2144
   -20.2138 -20.2135 -20.2135 -20.2132 -20.2131 -20.2129 -20.2128 -20.2126
   -20.2103 -20.2097 -20.2096 -20.2094 -20.2085 -20.2084 -20.2083 -20.2079
   -20.2025 -20.2020 -20.2013 -20.2010 -20.2000 -20.1997 -20.1983 -20.1979
   -20.1970 -20.1970 -20.1946 -20.1943 -20.1936 -20.1936 -20.1934 -20.1932
   -20.1915 -20.1911 -20.1903 -20.1900 -20.1887 -20.1882 -20.1879 -20.1874
    -9.8172  -9.5651  -9.4327  -9.3501  -9.1879  -9.0856  -8.9532  -8.9329
    -8.9206  -8.7598  -8.7515  -8.7204  -7.9185  -7.8664  -7.8417  -7.8375
    -7.8001  -7.7945  -7.7447  -7.7238  -7.6796  -7.6635  -7.6123  -7.5490
     1.3545   1.3605   1.3902   1.4102   1.5901   1.6475   1.6681   1.8776
     1.8898   1.9213   1.9473   2.1650   2.5370   2.6096   2.7065   2.7959
     2.8409   2.9376   4.0294   4.0728   4.1605   4.2039   4.4448   4.5148
     4.6873   4.7788   4.8621   4.9161   4.9291   5.0325   5.0631   5.2965
     5.3116   5.3919   5.4226   5.5482   5.6212   5.6323   5.6825   5.7412
     5.7922   5.8200   5.8832   5.9062   5.9194   6.0992   6.1510   6.1691
     6.3052   6.3679   6.5163   6.6160   6.7577   6.8058   6.8488   6.8551
     6.8933   6.9381   6.9883   7.0087   7.0505   7.0796   7.1982   7.2077
     7.2507   7.3302   7.8339   7.8380   8.0344   8.0579   8.0741   8.1100
     9.7674   9.7939  10.2936  10.2993  10.5106  10.5470  12.2030  12.2512
    12.3131  12.3572  12.3710  12.4517  12.4678  12.5834  12.8307  12.9027
    13.1537  13.3005  13.3671  13.4254  13.9020  13.9412  14.0392  14.0460
    14.4586  14.7675  14.8919  15.2221  15.5166  15.5365  15.9227  16.0346
    16.3544  16.7161  16.9614  17.3760  17.6520

          k = 0.0000 0.1582 0.3333 ( 62118 PWs)   bands (ev):

   -66.0769 -66.0765 -66.0764 -66.0760 -66.0759 -66.0755 -66.0754 -66.0750
   -30.4827 -30.4797 -30.4764 -30.4735 -30.4485 -30.4437 -30.4314 -30.4244
   -30.4234 -30.4164 -30.4082 -30.4054 -30.4024 -30.4011 -30.3849 -30.3797
   -30.3623 -30.3594 -30.3408 -30.3376 -30.3344 -30.3283 -30.3102 -30.3079
   -20.2333 -20.2332 -20.2332 -20.2331 -20.2331 -20.2330 -20.2330 -20.2329
   -20.2189 -20.2187 -20.2186 -20.2184 -20.2152 -20.2150 -20.2148 -20.2145
   -20.2137 -20.2136 -20.2135 -20.2133 -20.2132 -20.2130 -20.2128 -20.2127
   -20.2101 -20.2098 -20.2093 -20.2091 -20.2087 -20.2086 -20.2082 -20.2080
   -20.2021 -20.2015 -20.2015 -20.2004 -20.2003 -20.1992 -20.1987 -20.1982
   -20.1963 -20.1962 -20.1950 -20.1941 -20.1938 -20.1932 -20.1927 -20.1924
   -20.1922 -20.1912 -20.1908 -20.1903 -20.1899 -20.1891 -20.1880 -20.1876
    -9.7016  -9.4860  -9.4394  -9.2344  -9.1946  -8.9844  -8.8460  -8.8310
    -8.7816  -8.7646  -8.6930  -8.6145  -8.1830  -8.1176  -8.0753  -8.0082
    -7.8663  -7.8454  -7.8150  -7.7888  -7.7134  -7.6508  -7.6389  -7.5757
     1.3716   1.3911   1.4254   1.4488   1.8086   1.8336   1.9090   1.9187
     2.3094   2.3713   2.5228   2.6226   2.7330   2.7916   2.8203   2.8794
     3.0351   3.1669   3.7986   3.8888   3.8980   3.9481   4.1806   4.2047
     4.2748   4.4227   4.5853   4.7479   4.7578   4.8609   4.8910   4.9641
     5.0982   5.2004   5.2282   5.2825   5.4455   5.4826   5.5478   5.6807
     5.7525   5.7991   5.8577   5.9006   5.9962   6.1470   6.2130   6.3002
     6.3937   6.5244   6.5691   6.6321   6.6771   6.7113   6.7570   6.8322
     6.8646   6.8986   6.9548   7.0013   7.0490   7.0749   7.1316   7.1841
     7.3656   7.4012   7.7836   7.7966   7.9163   7.9500   8.0925   8.1070
    10.2696  10.2951  10.4565  10.5530  11.0504  11.1525  11.8750  11.9587
    12.1136  12.4528  12.4977  12.5330  12.5766  12.6077  12.7125  12.8503
    12.9082  13.1301  13.2390  13.4305  13.6202  13.6715  14.0364  14.0390
    14.6267  14.7498  15.2227  15.4663  15.6573  15.8021  15.9307  15.9567
    16.4416  17.1654  17.1956  17.4666  17.8284

          k = 0.0000 0.1582-0.5000 ( 62046 PWs)   bands (ev):

   -66.0766 -66.0766 -66.0762 -66.0762 -66.0756 -66.0756 -66.0752 -66.0752
   -30.4811 -30.4811 -30.4749 -30.4749 -30.4457 -30.4457 -30.4262 -30.4262
   -30.4191 -30.4191 -30.4067 -30.4067 -30.3843 -30.3843 -30.3817 -30.3817
   -30.3611 -30.3611 -30.3561 -30.3561 -30.3357 -30.3357 -30.3091 -30.3091
   -20.2333 -20.2333 -20.2332 -20.2332 -20.2331 -20.2331 -20.2330 -20.2330
   -20.2188 -20.2188 -20.2185 -20.2185 -20.2151 -20.2151 -20.2147 -20.2147
   -20.2137 -20.2137 -20.2134 -20.2134 -20.2131 -20.2131 -20.2127 -20.2127
   -20.2099 -20.2099 -20.2090 -20.2089 -20.2089 -20.2088 -20.2081 -20.2081
   -20.2017 -20.2017 -20.2009 -20.2009 -20.1995 -20.1995 -20.1987 -20.1987
   -20.1956 -20.1956 -20.1951 -20.1950 -20.1932 -20.1932 -20.1924 -20.1923
   -20.1914 -20.1914 -20.1908 -20.1908 -20.1904 -20.1904 -20.1878 -20.1878
    -9.5778  -9.5778  -9.3168  -9.3168  -9.0559  -9.0559  -8.7871  -8.7871
    -8.5238  -8.5238  -8.4734  -8.4734  -8.4554  -8.4553  -8.3653  -8.3653
    -7.8591  -7.8590  -7.8040  -7.8040  -7.6759  -7.6759  -7.6128  -7.6128
     1.3856   1.3856   1.4434   1.4434   1.8344   1.8344   1.9205   1.9205
     2.7632   2.7632   3.0346   3.0346   3.1483   3.1483   3.2330   3.2330
     3.3299   3.3299   3.3833   3.3833   3.5443   3.5443   3.8398   3.8399
     3.9788   3.9788   4.3110   4.3110   4.6711   4.6711   4.8200   4.8200
     5.1394   5.1394   5.3588   5.3589   5.3866   5.3867   5.5634   5.5634
     5.7627   5.7627   5.8808   5.8808   6.1759   6.1759   6.3176   6.3176
     6.3924   6.3924   6.5100   6.5100   6.5862   6.5862   6.7247   6.7247
     6.8925   6.8925   6.9071   6.9071   7.0276   7.0276   7.5363   7.5363
     7.5750   7.5750   7.7045   7.7045   7.7342   7.7342   8.1041   8.1041
    10.2900  10.2900  11.2214  11.2214  11.3171  11.3171  11.6731  11.6731
    11.8967  11.8967  12.5198  12.5198  12.6937  12.6937  12.8576  12.8576
    12.9201  12.9201  13.2318  13.2318  13.4733  13.4733  14.0353  14.0353
    14.7145  14.7145  15.5556  15.5556  15.8050  15.8050  15.9366  15.9366
    16.7045  16.7045  17.7094  17.7094  18.1703

          k = 0.0000 0.3165 0.0000 ( 62027 PWs)   bands (ev):

   -66.0770 -66.0768 -66.0760 -66.0760 -66.0758 -66.0758 -66.0750 -66.0748
   -30.4758 -30.4689 -30.4689 -30.4613 -30.4582 -30.4452 -30.4452 -30.4325
   -30.4321 -30.4201 -30.4201 -30.4185 -30.4097 -30.4089 -30.4047 -30.4046
   -30.3390 -30.3390 -30.3371 -30.3356 -30.3114 -30.3114 -30.3068 -30.3062
   -20.2333 -20.2333 -20.2332 -20.2332 -20.2330 -20.2330 -20.2330 -20.2329
   -20.2181 -20.2177 -20.2177 -20.2174 -20.2159 -20.2154 -20.2154 -20.2150
   -20.2137 -20.2136 -20.2135 -20.2135 -20.2131 -20.2131 -20.2130 -20.2129
   -20.2102 -20.2097 -20.2097 -20.2097 -20.2085 -20.2085 -20.2084 -20.2080
   -20.2025 -20.2022 -20.2013 -20.2013 -20.1999 -20.1999 -20.1981 -20.1979
   -20.1972 -20.1972 -20.1945 -20.1945 -20.1938 -20.1937 -20.1935 -20.1935
   -20.1911 -20.1911 -20.1900 -20.1899 -20.1883 -20.1883 -20.1874 -20.1873
    -9.7938  -9.6545  -9.3363  -9.3363  -9.1929  -9.1929  -8.9690  -8.9630
    -8.7352  -8.6263  -8.6168  -8.6168  -8.1367  -8.0863  -8.0863  -8.0585
    -7.7586  -7.7543  -7.6947  -7.6881  -7.6035  -7.6035  -7.5405  -7.5405
     1.2849   1.2863   1.3600   1.3600   1.4078   1.4078   1.6828   1.7179
     2.4205   2.4639   2.5040   2.5685   2.5686   2.7355   2.8924   2.9503
     3.0560   3.0560   3.6870   3.7003   3.7281   3.7281   4.1944   4.5329
     4.5329   4.8042   4.8750   4.8750   4.9119   4.9119   5.1227   5.1265
     5.1265   5.1413   5.4506   5.4506   5.6380   5.6417   5.7449   5.7449
     5.9118   5.9118   5.9140   5.9185   6.0554   6.0703   6.1083   6.1611
     6.1852   6.2802   6.2818   6.5632   6.6824   6.6824   6.9142   6.9142
     6.9483   7.0138   7.1377   7.1414   7.1680   7.1680   7.3791   7.3791
     7.4912   7.4912   7.8080   7.8187   7.8792   7.8892   7.9095   7.9095
     9.4493   9.4498  10.7466  10.7466  10.7799  10.8033  11.8845  11.8845
    12.0026  12.0483  12.3368  12.3368  12.4521  12.4521  12.8100  12.8666
    13.3967  13.4732  13.4758  13.4758  13.8374  13.8527  13.8527  13.8686
    14.8744  15.2904  15.2904  15.4812  15.4838  15.7330  15.9519  15.9519
    16.0189  16.9450  17.3101  17.6781  17.6781

          k = 0.0000 0.3165 0.1667 ( 62055 PWs)   bands (ev):

   -66.0770 -66.0768 -66.0761 -66.0760 -66.0759 -66.0757 -66.0751 -66.0749
   -30.4750 -30.4693 -30.4680 -30.4617 -30.4563 -30.4457 -30.4432 -30.4325
   -30.4299 -30.4205 -30.4172 -30.4161 -30.4087 -30.4050 -30.4027 -30.3978
   -30.3454 -30.3427 -30.3387 -30.3369 -30.3178 -30.3128 -30.3111 -30.3069
   -20.2333 -20.2333 -20.2332 -20.2332 -20.2331 -20.2330 -20.2330 -20.2329
   -20.2181 -20.2177 -20.2177 -20.2174 -20.2159 -20.2155 -20.2154 -20.2150
   -20.2137 -20.2136 -20.2135 -20.2135 -20.2131 -20.2131 -20.2130 -20.2129
   -20.2101 -20.2097 -20.2096 -20.2096 -20.2086 -20.2085 -20.2084 -20.2081
   -20.2024 -20.2021 -20.2013 -20.2010 -20.2000 -20.1997 -20.1982 -20.1980
   -20.1970 -20.1970 -20.1946 -20.1943 -20.1936 -20.1936 -20.1935 -20.1932
   -20.1915 -20.1911 -20.1903 -20.1900 -20.1887 -20.1882 -20.1879 -20.1874
    -9.7437  -9.6012  -9.3534  -9.2600  -9.2090  -9.1069  -8.9303  -8.9212
    -8.7439  -8.6219  -8.6198  -8.6013  -8.1375  -8.0950  -8.0833  -8.0653
    -7.8729  -7.8090  -7.7476  -7.7295  -7.6807  -7.6647  -7.6132  -7.5502
     1.3565   1.3645   1.3912   1.4141   1.6090   1.6574   1.8354   1.8910
     2.4245   2.5447   2.5512   2.5732   2.5945   2.7254   2.9223   3.0229
     3.0539   3.1491   3.6917   3.7129   3.7380   3.7809   4.1813   4.4594
     4.4731   4.5478   4.5785   4.8010   4.8249   4.9032   4.9543   4.9656
     5.1230   5.1392   5.2456   5.3758   5.4657   5.5298   5.6455   5.6763
     5.7350   5.8080   5.8308   5.8906   6.0503   6.0922   6.1642   6.1951
     6.3099   6.3750   6.4977   6.6225   6.6765   6.8910   6.8988   6.9873
     7.0024   7.0228   7.1047   7.1281   7.1433   7.1520   7.2146   7.2374
     7.2773   7.3496   7.8122   7.8255   7.8696   7.8838   7.8905   7.9011
     9.7771   9.7993  10.7501  10.7875  10.9247  10.9585  11.8798  11.9734
    12.0246  12.1040  12.2541  12.3576  12.3937  12.5032  12.8667  12.9013
    13.2543  13.3434  13.4376  13.4724  13.7044  13.7425  13.8496  13.8583
    15.0010  15.2809  15.4512  15.5353  15.5425  15.7982  15.9254  16.1793
    16.2417  16.9081  17.3502  17.4039  17.7832

          k = 0.0000 0.3165 0.3333 ( 62076 PWs)   bands (ev):

   -66.0768 -66.0766 -66.0763 -66.0761 -66.0758 -66.0756 -66.0753 -66.0751
   -30.4734 -30.4703 -30.4662 -30.4628 -30.4525 -30.4471 -30.4393 -30.4338
   -30.4257 -30.4216 -30.4102 -30.4060 -30.4043 -30.4033 -30.3850 -30.3800
   -30.3626 -30.3596 -30.3409 -30.3377 -30.3345 -30.3283 -30.3103 -30.3079
   -20.2333 -20.2333 -20.2332 -20.2331 -20.2331 -20.2330 -20.2330 -20.2330
   -20.2180 -20.2178 -20.2177 -20.2175 -20.2158 -20.2156 -20.2154 -20.2151
   -20.2137 -20.2136 -20.2135 -20.2135 -20.2133 -20.2132 -20.2130 -20.2130
   -20.2100 -20.2098 -20.2094 -20.2092 -20.2087 -20.2086 -20.2084 -20.2081
   -20.2020 -20.2016 -20.2015 -20.2004 -20.2003 -20.1992 -20.1987 -20.1983
   -20.1963 -20.1962 -20.1950 -20.1941 -20.1938 -20.1932 -20.1927 -20.1924
   -20.1922 -20.1912 -20.1908 -20.1903 -20.1899 -20.1891 -20.1881 -20.1876
    -9.6231  -9.4739  -9.4059  -9.2583  -9.0634  -8.8646  -8.8097  -8.7797
    -8.7764  -8.6376  -8.5898  -8.5362  -8.2137  -8.1815  -8.1311  -8.0901
    -8.0758  -8.0421  -8.0155  -7.9497  -7.7151  -7.6521  -7.6400  -7.5768
     1.3774   1.3987   1.4306   1.4548   2.2304   2.3090   2.3431   2.4535
     2.5130   2.5685   2.5818   2.7852   2.8285   2.8530   2.9521   3.0324
     3.2633   3.3533   3.6700   3.6872   3.7720   3.8374   3.8914   3.9117
     4.1522   4.3402   4.4537   4.4946   4.5170   4.6235   4.6421   4.8152
     4.8849   4.9034   5.0568   5.1306   5.2234   5.2628   5.2958   5.4249
     5.4407   5.6365   5.7018   5.8503   6.1530   6.1833   6.2159   6.3374
     6.4691   6.5462   6.6305   6.7155   6.7591   6.8206   6.8568   6.9010
     6.9755   7.0187   7.0891   7.0971   7.1280   7.1749   7.2035   7.2538
     7.3574   7.3989   7.7515   7.7911   7.7935   7.8148   7.8841   7.8975
    10.4708  10.5110  10.7615  10.8011  11.3582  11.4238  11.8289  11.9108
    11.9776  12.0544  12.2629  12.3021  12.5736  12.6464  12.6931  12.7173
    12.8991  13.1127  13.2341  13.3934  13.4685  13.5416  13.8418  13.8493
    15.1483  15.2530  15.5782  15.8424  16.0034  16.0125  16.0217  16.6879
    16.7787  16.8704  17.0290  17.5776  17.6463

          k = 0.0000 0.3165-0.5000 ( 62114 PWs)   bands (ev):

   -66.0765 -66.0765 -66.0763 -66.0763 -66.0755 -66.0755 -66.0753 -66.0753
   -30.4718 -30.4718 -30.4644 -30.4644 -30.4493 -30.4493 -30.4360 -30.4360
   -30.4233 -30.4232 -30.4075 -30.4075 -30.3851 -30.3851 -30.3823 -30.3823
   -30.3611 -30.3611 -30.3563 -30.3563 -30.3358 -30.3358 -30.3091 -30.3091
   -20.2333 -20.2333 -20.2332 -20.2332 -20.2331 -20.2331 -20.2330 -20.2330
   -20.2179 -20.2179 -20.2176 -20.2176 -20.2157 -20.2157 -20.2153 -20.2153
   -20.2137 -20.2136 -20.2134 -20.2134 -20.2134 -20.2134 -20.2130 -20.2130
   -20.2099 -20.2099 -20.2090 -20.2090 -20.2089 -20.2089 -20.2083 -20.2082
   -20.2017 -20.2017 -20.2009 -20.2009 -20.1995 -20.1995 -20.1987 -20.1987
   -20.1956 -20.1956 -20.1951 -20.1950 -20.1932 -20.1932 -20.1924 -20.1923
   -20.1914 -20.1914 -20.1908 -20.1908 -20.1904 -20.1904 -20.1878 -20.1878
    -9.4971  -9.4971  -9.3459  -9.3459  -8.8686  -8.8685  -8.6791  -8.6791
    -8.5301  -8.5301  -8.5059  -8.5058  -8.4381  -8.4381  -8.3445  -8.3444
    -8.0881  -8.0881  -8.0449  -8.0449  -7.6773  -7.6773  -7.6140  -7.6140
     1.3933   1.3933   1.4497   1.4497   2.4224   2.4224   2.5626   2.5627
     2.9632   2.9632   3.0772   3.0772   3.1291   3.1291   3.2963   3.2963
     3.3510   3.3510   3.4040   3.4041   3.5196   3.5196   3.7057   3.7057
     4.0939   4.0939   4.1312   4.1312   4.2283   4.2283   4.4193   4.4193
     4.8783   4.8784   4.9862   4.9862   5.1904   5.1905   5.3433   5.3433
     5.4845   5.4846   5.7771   5.7771   6.2760   6.2760   6.3287   6.3287
     6.5098   6.5098   6.5852   6.5852   6.6020   6.6020   6.8105   6.8105
     7.0955   7.0955   7.1109   7.1109   7.1412   7.1412   7.5418   7.5419
     7.5575   7.5575   7.6293   7.6293   7.6577   7.6578   7.8907   7.8907
    10.7632  10.7632  11.2353  11.2353  11.3161  11.3161  11.7679  11.7679
    12.0776  12.0776  12.2258  12.2258  12.5972  12.5972  12.7074  12.7074
    12.8689  12.8689  13.0239  13.0239  13.4742  13.4742  13.8417  13.8417
    15.2084  15.2084  15.7199  15.7199  16.3611  16.3611  16.5111  16.5111
    16.8590  16.8590  17.3365  17.3365  17.9642

          k = 0.0000-0.4747 0.0000 ( 61994 PWs)   bands (ev):

   -66.0769 -66.0769 -66.0759 -66.0759 -66.0759 -66.0759 -66.0749 -66.0749
   -30.4657 -30.4656 -30.4610 -30.4609 -30.4500 -30.4500 -30.4467 -30.4467
   -30.4269 -30.4269 -30.4232 -30.4232 -30.4093 -30.4093 -30.4048 -30.4048
   -30.3390 -30.3390 -30.3364 -30.3364 -30.3114 -30.3114 -30.3065 -30.3065
   -20.2333 -20.2333 -20.2332 -20.2332 -20.2330 -20.2330 -20.2329 -20.2329
   -20.2169 -20.2169 -20.2167 -20.2167 -20.2164 -20.2163 -20.2161 -20.2161
   -20.2137 -20.2137 -20.2136 -20.2136 -20.2131 -20.2131 -20.2130 -20.2130
   -20.2100 -20.2100 -20.2097 -20.2097 -20.2086 -20.2086 -20.2082 -20.2082
   -20.2024 -20.2024 -20.2013 -20.2013 -20.1999 -20.1999 -20.1980 -20.1980
   -20.1972 -20.1972 -20.1945 -20.1945 -20.1937 -20.1937 -20.1935 -20.1935
   -20.1911 -20.1911 -20.1900 -20.1899 -20.1883 -20.1883 -20.1874 -20.1874
    -9.7153  -9.7153  -9.2852  -9.2852  -9.2152  -9.2152  -8.9659  -8.9659
    -8.4381  -8.4381  -8.3840  -8.3840  -8.3792  -8.3792  -8.3783  -8.3783
    -7.7565  -7.7565  -7.6920  -7.6920  -7.6034  -7.6034  -7.5411  -7.5411
     1.2855   1.2855   1.3607   1.3607   1.4087   1.4087   1.7097   1.7097
     2.4837   2.4837   3.1229   3.1229   3.2247   3.2247   3.2774   3.2774
     3.3782   3.3782   3.3818   3.3818   3.5147   3.5147   3.6411   3.6411
     3.7519   3.7519   4.8816   4.8816   4.8946   4.8946   5.2789   5.2789
     5.3054   5.3054   5.3674   5.3674   5.3790   5.3791   5.7985   5.7985
     5.8166   5.8166   5.9727   5.9727   6.0869   6.0869   6.1631   6.1631
     6.2300   6.2300   6.3413   6.3413   6.7346   6.7346   6.8357   6.8357
     6.9827   6.9827   7.3701   7.3701   7.4519   7.4519   7.4893   7.4893
     7.5416   7.5416   7.5936   7.5936   7.6130   7.6130   7.8296   7.8296
     9.4506   9.4506  11.2986  11.2986  11.3702  11.3702  11.3831  11.3831
    11.4651  11.4651  12.3413  12.3414  12.4542  12.4542  12.8433  12.8434
    13.5788  13.5788  13.6254  13.6254  13.6325  13.6325  13.6502  13.6502
    15.4122  15.4122  15.5071  15.5071  15.6730  15.6730  15.7629  15.7629
    16.6078  16.6078  18.0810  18.0811  18.1254

          k = 0.0000-0.4747 0.1667 ( 62048 PWs)   bands (ev):

   -66.0769 -66.0769 -66.0760 -66.0760 -66.0759 -66.0759 -66.0750 -66.0750
   -30.4654 -30.4633 -30.4613 -30.4589 -30.4505 -30.4500 -30.4472 -30.4470
   -30.4270 -30.4236 -30.4225 -30.4186 -30.4087 -30.4052 -30.4028 -30.3980
   -30.3454 -30.3426 -30.3387 -30.3370 -30.3178 -30.3128 -30.3111 -30.3069
   -20.2333 -20.2333 -20.2332 -20.2332 -20.2331 -20.2330 -20.2330 -20.2329
   -20.2169 -20.2169 -20.2167 -20.2166 -20.2164 -20.2164 -20.2162 -20.2161
   -20.2137 -20.2137 -20.2136 -20.2136 -20.2132 -20.2131 -20.2131 -20.2130
   -20.2100 -20.2098 -20.2097 -20.2096 -20.2086 -20.2085 -20.2083 -20.2082
   -20.2023 -20.2022 -20.2013 -20.2010 -20.2000 -20.1997 -20.1981 -20.1981
   -20.1970 -20.1970 -20.1946 -20.1943 -20.1936 -20.1936 -20.1935 -20.1932
   -20.1915 -20.1911 -20.1903 -20.1900 -20.1887 -20.1882 -20.1879 -20.1874
    -9.6670  -9.6591  -9.3014  -9.2325  -9.2005  -9.1319  -8.9288  -8.9221
    -8.4441  -8.4440  -8.3916  -8.3861  -8.3797  -8.3779  -8.3751  -8.3710
    -7.8740  -7.8100  -7.7476  -7.7300  -7.6813  -7.6653  -7.6131  -7.5507
     1.3568   1.3653   1.3913   1.4150   1.6113   1.6594   1.8614   1.8916
     2.5727   2.5737   3.1223   3.1351   3.2309   3.2604   3.2833   3.2871
     3.3561   3.3813   3.3886   3.4383   3.5102   3.5781   3.6347   3.6785
     3.7780   3.7828   4.4936   4.5007   4.8777   4.9078   5.0493   5.0920
     5.1879   5.1919   5.2570   5.2745   5.3770   5.3955   5.5340   5.5711
     5.7688   5.7802   5.8083   5.8251   6.0656   6.1534   6.1553   6.2074
     6.3664   6.4252   6.4560   6.5124   6.7224   6.8234   6.9106   7.0046
     7.0362   7.0553   7.1811   7.1853   7.2366   7.2886   7.4793   7.4987
     7.5363   7.5473   7.5518   7.5725   7.5917   7.6052   7.8432   7.8453
     9.7809   9.8006  11.3027  11.3692  11.3790  11.4071  11.4757  11.4940
    11.5040  11.5822  12.2560  12.3571  12.3946  12.5014  12.8933  12.8971
    13.4141  13.4354  13.4774  13.5149  13.6180  13.6227  13.6270  13.6687
    15.4088  15.4882  15.6167  15.6543  15.6851  15.7514  15.9433  16.0184
    16.6662  16.6696  17.9311  17.9656  18.1042

          k = 0.0000-0.4747 0.3333 ( 62112 PWs)   bands (ev):

   -66.0767 -66.0767 -66.0762 -66.0762 -66.0757 -66.0757 -66.0752 -66.0752
   -30.4645 -30.4622 -30.4587 -30.4548 -30.4521 -30.4496 -30.4487 -30.4477
   -30.4266 -30.4245 -30.4115 -30.4062 -30.4049 -30.4042 -30.3851 -30.3801
   -30.3627 -30.3597 -30.3410 -30.3377 -30.3346 -30.3283 -30.3103 -30.3079
   -20.2333 -20.2333 -20.2332 -20.2331 -20.2331 -20.2330 -20.2330 -20.2330
   -20.2169 -20.2168 -20.2167 -20.2166 -20.2165 -20.2163 -20.2163 -20.2162
   -20.2137 -20.2136 -20.2136 -20.2135 -20.2134 -20.2132 -20.2131 -20.2131
   -20.2099 -20.2098 -20.2095 -20.2092 -20.2088 -20.2085 -20.2084 -20.2083
   -20.2020 -20.2016 -20.2015 -20.2004 -20.2003 -20.1993 -20.1987 -20.1983
   -20.1963 -20.1962 -20.1950 -20.1941 -20.1938 -20.1932 -20.1927 -20.1924
   -20.1922 -20.1912 -20.1908 -20.1903 -20.1899 -20.1891 -20.1881 -20.1876
    -9.5521  -9.5226  -9.3503  -9.2860  -8.9652  -8.9027  -8.8020  -8.7787
    -8.4827  -8.4769  -8.4176  -8.4140  -8.3714  -8.3711  -8.3538  -8.3441
    -8.1509  -8.0931  -8.0312  -7.9737  -7.7150  -7.6528  -7.6399  -7.5774
     1.3784   1.3998   1.4318   1.4559   2.2777   2.3207   2.4793   2.5211
     2.8307   2.8321   3.1212   3.1540   3.2449   3.2881   3.2908   3.3120
     3.3534   3.3696   3.4336   3.4835   3.5238   3.6116   3.7538   3.7846
     3.8369   3.8512   3.8782   3.9019   4.5117   4.5177   4.6864   4.7112
     4.7938   4.8339   4.9189   4.9471   5.2493   5.2985   5.3115   5.3179
     5.4216   5.4584   5.6981   5.7056   6.1988   6.2045   6.2143   6.3603
     6.5411   6.5500   6.6183   6.7116   6.7798   6.7902   6.8306   6.9418
     7.0505   7.0990   7.1944   7.2106   7.2487   7.2641   7.4551   7.5089
     7.5128   7.5304   7.5582   7.5597   7.5712   7.5897   7.8011   7.8028
    10.4798  10.5209  11.3135  11.3562  11.3877  11.4318  11.8006  11.8403
    11.8486  11.9027  11.9069  11.9778  12.5686  12.6552  12.7549  12.7704
    12.9560  12.9838  13.2071  13.2569  13.6117  13.6136  13.6179  13.6462
    15.4200  15.5115  15.5927  15.6846  16.2272  16.2949  16.6573  16.7077
    16.8594  16.8762  17.4535  17.4600  17.9239

          k = 0.0000-0.4747-0.5000 ( 62120 PWs)   bands (ev):

   -66.0764 -66.0764 -66.0764 -66.0764 -66.0754 -66.0754 -66.0754 -66.0754
   -30.4634 -30.4633 -30.4548 -30.4548 -30.4513 -30.4513 -30.4487 -30.4487
   -30.4256 -30.4256 -30.4078 -30.4078 -30.3855 -30.3855 -30.3826 -30.3826
   -30.3612 -30.3612 -30.3564 -30.3563 -30.3359 -30.3359 -30.3091 -30.3091
   -20.2333 -20.2333 -20.2332 -20.2332 -20.2331 -20.2331 -20.2330 -20.2330
   -20.2168 -20.2168 -20.2167 -20.2167 -20.2165 -20.2165 -20.2163 -20.2163
   -20.2136 -20.2136 -20.2135 -20.2135 -20.2134 -20.2134 -20.2131 -20.2131
   -20.2098 -20.2098 -20.2091 -20.2091 -20.2088 -20.2088 -20.2083 -20.2083
   -20.2017 -20.2017 -20.2010 -20.2010 -20.1995 -20.1994 -20.1987 -20.1987
   -20.1956 -20.1956 -20.1951 -20.1950 -20.1932 -20.1932 -20.1924 -20.1923
   -20.1914 -20.1914 -20.1908 -20.1908 -20.1904 -20.1904 -20.1878 -20.1878
    -9.4347  -9.4347  -9.3823  -9.3823  -8.6609  -8.6609  -8.6179  -8.6178
    -8.5730  -8.5730  -8.5435  -8.5434  -8.3471  -8.3471  -8.3167  -8.3166
    -8.2828  -8.2827  -8.2443  -8.2443  -7.6772  -7.6772  -7.6146  -7.6146
     1.3945   1.3945   1.4511   1.4511   2.9872   2.9872   3.0666   3.0666
     3.1735   3.1735   3.2006   3.2006   3.2301   3.2301   3.2601   3.2601
     3.3751   3.3751   3.3993   3.3994   3.4858   3.4858   3.5489   3.5489
     3.6195   3.6195   3.7920   3.7920   4.3420   4.3420   4.3881   4.3882
     4.4408   4.4409   4.5117   4.5117   5.2706   5.2707   5.2977   5.2977
     5.5413   5.5413   5.5886   5.5887   6.3162   6.3162   6.3253   6.3253
     6.5445   6.5445   6.6102   6.6102   6.6537   6.6537   6.7328   6.7328
     7.3085   7.3086   7.3509   7.3509   7.3539   7.3539   7.4853   7.4853
     7.5046   7.5046   7.5678   7.5679   7.6147   7.6147   7.6435   7.6435
    11.2041  11.2041  11.2608  11.2608  11.3899  11.3899  11.4425  11.4425
    12.2854  12.2854  12.3334  12.3334  12.3833  12.3834  12.4281  12.4281
    12.8735  12.8735  12.9381  12.9381  13.6067  13.6067  13.6247  13.6247
    15.5013  15.5014  15.5970  15.5970  16.8985  16.8986  16.9735  16.9735
    17.3226  17.3227  17.3837  17.3838  17.4796

          k = 0.1667 0.0000 0.1667 ( 62068 PWs)   bands (ev):

   -66.0770 -66.0766 -66.0761 -66.0761 -66.0757 -66.0757 -66.0753 -66.0748
   -30.4869 -30.4818 -30.4818 -30.4767 -30.4484 -30.4380 -30.4376 -30.4297
   -30.4185 -30.4107 -30.4100 -30.4066 -30.4023 -30.4016 -30.3977 -30.3967
   -30.3451 -30.3448 -30.3443 -30.3412 -30.3175 -30.3174 -30.3138 -30.3126
   -20.2333 -20.2333 -20.2332 -20.2332 -20.2331 -20.2330 -20.2330 -20.2329
   -20.2193 -20.2190 -20.2190 -20.2187 -20.2151 -20.2147 -20.2147 -20.2143
   -20.2138 -20.2135 -20.2135 -20.2132 -20.2131 -20.2127 -20.2127 -20.2125
   -20.2102 -20.2096 -20.2096 -20.2092 -20.2086 -20.2083 -20.2083 -20.2079
   -20.2023 -20.2017 -20.2011 -20.2011 -20.1998 -20.1998 -20.1984 -20.1980
   -20.1967 -20.1967 -20.1944 -20.1944 -20.1935 -20.1933 -20.1933 -20.1933
   -20.1914 -20.1914 -20.1904 -20.1904 -20.1887 -20.1887 -20.1880 -20.1878
    -9.7988  -9.4954  -9.4082  -9.4073  -9.0950  -9.0933  -9.0367  -8.8953
    -8.8857  -8.7935  -8.7598  -8.7588  -7.8957  -7.8641  -7.8103  -7.7990
    -7.7879  -7.7702  -7.7533  -7.7134  -7.7116  -7.6858  -7.6739  -7.6622
     1.4982   1.5276   1.5341   1.5430   1.5520   1.6442   1.6465   1.6744
     1.7764   1.7767   1.9767   2.1322   2.6193   2.7072   2.7107   2.7435
     2.8452   2.8785   4.1238   4.1285   4.3858   4.3868   4.5224   4.5282
     4.5675   4.5880   4.6839   4.7481   4.8155   4.8887   5.1469   5.3001
     5.3194   5.3804   5.4197   5.5545   5.5772   5.6616   5.6754   5.7485
     5.7575   5.7840   5.7985   5.8013   5.8567   6.0721   6.3396   6.3640
     6.4108   6.5457   6.5972   6.7046   6.7252   6.7409   6.7457   6.7772
     6.7991   6.9002   6.9165   6.9182   6.9630   7.0265   7.0468   7.1555
     7.3305   7.3895   7.8366   7.8371   8.0668   8.1093   8.1126   8.1602
     9.9758  10.0377  10.3386  10.3477  10.3828  10.4683  12.2857  12.2858
    12.3299  12.3431  12.4316  12.4616  12.6695  12.7334  12.8404  12.9315
    13.0743  13.2123  13.2614  13.3926  13.8816  13.9663  14.0392  14.0399
    14.3148  14.6190  14.6193  15.1924  15.4925  15.5921  15.5948  16.3484
    16.3590  16.9878  17.0036  17.1551  17.6675

          k = 0.1667 0.0000 0.3333 ( 62071 PWs)   bands (ev):

   -66.0768 -66.0764 -66.0763 -66.0760 -66.0759 -66.0755 -66.0755 -66.0750
   -30.4857 -30.4828 -30.4806 -30.4777 -30.4438 -30.4389 -30.4293 -30.4212
   -30.4201 -30.4117 -30.4030 -30.4014 -30.3997 -30.3967 -30.3845 -30.3799
   -30.3617 -30.3598 -30.3452 -30.3437 -30.3346 -30.3299 -30.3167 -30.3143
   -20.2333 -20.2332 -20.2332 -20.2332 -20.2331 -20.2330 -20.2330 -20.2330
   -20.2192 -20.2191 -20.2189 -20.2188 -20.2151 -20.2148 -20.2147 -20.2144
   -20.2137 -20.2136 -20.2135 -20.2133 -20.2131 -20.2128 -20.2127 -20.2125
   -20.2100 -20.2097 -20.2093 -20.2090 -20.2087 -20.2085 -20.2082 -20.2080
   -20.2019 -20.2013 -20.2012 -20.2004 -20.2001 -20.1993 -20.1988 -20.1984
   -20.1961 -20.1959 -20.1948 -20.1939 -20.1938 -20.1931 -20.1926 -20.1924
   -20.1923 -20.1913 -20.1912 -20.1906 -20.1898 -20.1891 -20.1885 -20.1880
    -9.6804  -9.4609  -9.3576  -9.2652  -9.1407  -9.0685  -8.8492  -8.8194
    -8.7732  -8.7609  -8.7072  -8.6416  -8.1707  -8.1043  -8.0804  -8.0197
    -7.8451  -7.7879  -7.7701  -7.7605  -7.7220  -7.7197  -7.6971  -7.6936
     1.5088   1.5239   1.6230   1.6563   1.6607   1.6751   1.7504   1.7824
     2.3146   2.3692   2.5017   2.5927   2.7460   2.8346   2.8920   2.9638
     2.9971   3.1118   3.8353   3.9111   3.9686   3.9771   4.2086   4.3542
     4.3681   4.5260   4.5620   4.5937   4.6693   4.7866   4.8316   4.9554
     5.0873   5.1112   5.1737   5.2530   5.3293   5.4597   5.6179   5.6982
     5.7478   5.7924   5.8261   5.8720   5.9027   6.0661   6.1630   6.1978
     6.4464   6.5161   6.5506   6.6002   6.6343   6.7204   6.7225   6.7533
     6.8176   6.9149   6.9243   6.9486   7.1478   7.1864   7.1927   7.2892
     7.3823   7.4242   7.7891   7.8016   7.9626   8.0003   8.1263   8.1418
    10.3346  10.3422  10.6028  10.6803  10.9482  11.0859  11.9325  12.0078
    12.1791  12.4355  12.4939  12.5339  12.6132  12.7007  12.8247  12.8888
    12.9466  13.0783  13.1440  13.3371  13.7008  13.7179  13.9803  14.0072
    14.4259  14.5935  14.8824  15.3849  15.4923  15.8340  15.9854  16.2495
    16.4649  17.1723  17.4627  17.5091  17.6092

          k = 0.1667 0.0000-0.5000 ( 62102 PWs)   bands (ev):

   -66.0766 -66.0766 -66.0762 -66.0761 -66.0757 -66.0757 -66.0753 -66.0753
   -30.4842 -30.4842 -30.4791 -30.4791 -30.4408 -30.4408 -30.4232 -30.4232
   -30.4146 -30.4146 -30.4006 -30.4006 -30.3831 -30.3831 -30.3817 -30.3816
   -30.3611 -30.3611 -30.3565 -30.3565 -30.3414 -30.3414 -30.3155 -30.3155
   -20.2333 -20.2333 -20.2332 -20.2332 -20.2331 -20.2331 -20.2330 -20.2330
   -20.2192 -20.2191 -20.2189 -20.2189 -20.2150 -20.2150 -20.2146 -20.2146
   -20.2137 -20.2137 -20.2134 -20.2134 -20.2130 -20.2130 -20.2126 -20.2126
   -20.2098 -20.2098 -20.2090 -20.2090 -20.2087 -20.2087 -20.2081 -20.2081
   -20.2015 -20.2015 -20.2007 -20.2007 -20.1996 -20.1996 -20.1988 -20.1988
   -20.1954 -20.1954 -20.1948 -20.1948 -20.1932 -20.1931 -20.1924 -20.1923
   -20.1914 -20.1914 -20.1912 -20.1912 -20.1905 -20.1905 -20.1883 -20.1883
    -9.5539  -9.5538  -9.2256  -9.2256  -9.1378  -9.1378  -8.7927  -8.7927
    -8.5258  -8.5257  -8.4784  -8.4783  -8.4438  -8.4437  -8.3719  -8.3719
    -7.8145  -7.8145  -7.7525  -7.7525  -7.7261  -7.7261  -7.7076  -7.7076
     1.5147   1.5147   1.6416   1.6416   1.6772   1.6772   1.7862   1.7862
     2.7724   2.7725   3.0357   3.0357   3.1237   3.1238   3.2421   3.2422
     3.3403   3.3403   3.4540   3.4541   3.6006   3.6006   3.8568   3.8568
     3.9215   3.9215   4.4736   4.4736   4.5812   4.5812   4.9461   4.9462
     5.0744   5.0744   5.1162   5.1162   5.3259   5.3259   5.6844   5.6844
     5.8165   5.8165   5.8529   5.8529   5.9230   5.9230   6.0476   6.0476
     6.3990   6.3990   6.5008   6.5008   6.7150   6.7150   6.7495   6.7495
     6.8728   6.8728   7.0053   7.0053   7.0615   7.0616   7.5646   7.5646
     7.6042   7.6042   7.7369   7.7369   7.7648   7.7648   8.1377   8.1377
    10.3545  10.3545  11.2937  11.2937  11.3926  11.3927  11.6292  11.6292
    11.8529  11.8530  12.6485  12.6485  12.7136  12.7137  12.7711  12.7711
    12.9595  12.9595  13.3163  13.3163  13.4196  13.4196  13.9904  13.9905
    14.5386  14.5386  15.1825  15.1825  15.9083  15.9083  16.0996  16.0997
    16.7532  16.7532  17.8927  17.8937  17.9768

          k = 0.1667 0.1582 0.1667 ( 62063 PWs)   bands (ev):

   -66.0770 -66.0766 -66.0761 -66.0761 -66.0757 -66.0757 -66.0752 -66.0749
   -30.4834 -30.4781 -30.4781 -30.4728 -30.4497 -30.4392 -30.4388 -30.4291
   -30.4224 -30.4127 -30.4122 -30.4090 -30.4026 -30.4018 -30.3979 -30.3972
   -30.3450 -30.3449 -30.3442 -30.3415 -30.3175 -30.3175 -30.3138 -30.3127
   -20.2333 -20.2333 -20.2332 -20.2332 -20.2331 -20.2330 -20.2330 -20.2329
   -20.2189 -20.2186 -20.2186 -20.2183 -20.2153 -20.2149 -20.2149 -20.2145
   -20.2138 -20.2136 -20.2135 -20.2132 -20.2132 -20.2129 -20.2128 -20.2126
   -20.2102 -20.2096 -20.2096 -20.2093 -20.2086 -20.2084 -20.2084 -20.2079
   -20.2023 -20.2018 -20.2011 -20.2011 -20.1998 -20.1998 -20.1984 -20.1980
   -20.1967 -20.1967 -20.1944 -20.1944 -20.1934 -20.1933 -20.1933 -20.1933
   -20.1914 -20.1914 -20.1904 -20.1904 -20.1887 -20.1887 -20.1880 -20.1878
    -9.7672  -9.5071  -9.3681  -9.3670  -9.1019  -9.1002  -8.9627  -8.8945
    -8.8850  -8.7509  -8.7257  -8.7248  -7.9261  -7.8710  -7.8588  -7.8449
    -7.8300  -7.8062  -7.7958  -7.7881  -7.7448  -7.7281  -7.6728  -7.6635
     1.5374   1.5418   1.5930   1.5941   1.6537   1.6539   1.6912   1.8785
     1.9419   1.9447   1.9774   2.2160   2.6275   2.7053   2.7805   2.8191
     2.9184   2.9436   4.0338   4.0434   4.1834   4.1947   4.4947   4.4998
     4.5676   4.5873   4.6682   4.7552   4.7906   4.8311   4.9724   5.2340
     5.2565   5.3277   5.3484   5.4274   5.4313   5.6099   5.6119   5.6762
     5.7807   5.7955   5.8208   5.8480   5.8620   5.9182   6.3209   6.3474
     6.4223   6.4663   6.5834   6.6919   6.7424   6.7594   6.8191   6.8250
     6.8549   6.8815   6.9380   6.9494   7.0017   7.0193   7.0554   7.1613
     7.3353   7.3876   7.8363   7.8372   8.0209   8.0494   8.0645   8.0860
     9.9959  10.0427  10.4902  10.5016  10.5354  10.6015  12.2591  12.2749
    12.2920  12.3083  12.3942  12.4081  12.5312  12.5837  12.8614  12.9302
    13.0968  13.2173  13.2603  13.3905  13.8884  13.8893  13.9463  13.9832
    14.5321  14.8829  14.8877  15.3266  15.5922  15.5949  15.8931  16.3200
    16.3257  16.8419  17.1065  17.1095  17.7039

          k = 0.1667 0.1582 0.3333 ( 62091 PWs)   bands (ev):

   -66.0768 -66.0764 -66.0763 -66.0759 -66.0759 -66.0756 -66.0754 -66.0751
   -30.4821 -30.4791 -30.4768 -30.4738 -30.4453 -30.4402 -30.4318 -30.4239
   -30.4214 -30.4137 -30.4045 -30.4020 -30.4005 -30.3973 -30.3846 -30.3800
   -30.3619 -30.3599 -30.3453 -30.3438 -30.3347 -30.3299 -30.3167 -30.3143
   -20.2333 -20.2332 -20.2332 -20.2332 -20.2331 -20.2330 -20.2330 -20.2330
   -20.2189 -20.2187 -20.2186 -20.2184 -20.2152 -20.2150 -20.2148 -20.2146
   -20.2137 -20.2136 -20.2135 -20.2133 -20.2132 -20.2130 -20.2128 -20.2127
   -20.2100 -20.2097 -20.2093 -20.2091 -20.2087 -20.2086 -20.2083 -20.2080
   -20.2019 -20.2013 -20.2012 -20.2004 -20.2002 -20.1993 -20.1988 -20.1984
   -20.1961 -20.1959 -20.1948 -20.1939 -20.1938 -20.1931 -20.1926 -20.1924
   -20.1923 -20.1913 -20.1912 -20.1906 -20.1898 -20.1891 -20.1885 -20.1880
    -9.6454  -9.4214  -9.3690  -9.2112  -9.1485  -8.9953  -8.8558  -8.8012
    -8.7595  -8.7387  -8.6874  -8.6215  -8.1729  -8.1073  -8.0894  -8.0242
    -7.8739  -7.8522  -7.8283  -7.8133  -7.7956  -7.7666  -7.7516  -7.6953
     1.6006   1.6169   1.6680   1.6870   1.8255   1.8353   1.9093   1.9422
     2.3159   2.3788   2.5041   2.6072   2.8194   2.8850   2.9229   2.9900
     3.0435   3.1694   3.8337   3.9101   3.9303   3.9655   4.1822   4.2264
     4.2911   4.4314   4.5229   4.6130   4.6730   4.7275   4.8093   4.8543
     4.9624   4.9853   5.0396   5.1882   5.2718   5.3040   5.3968   5.6483
     5.6758   5.7051   5.8061   5.8325   5.8776   5.9007   6.1460   6.1949
     6.4287   6.5557   6.5864   6.6755   6.7243   6.7543   6.7692   6.8376
     6.8898   6.9128   6.9636   6.9987   7.1429   7.1837   7.1927   7.2921
     7.3784   7.4220   7.7905   7.7982   7.9232   7.9521   8.0654   8.0735
    10.4597  10.4922  10.6354  10.6969  11.0600  11.1710  11.9325  12.0070
    12.1636  12.4250  12.4781  12.5392  12.5638  12.5854  12.7507  12.8258
    12.8970  13.0736  13.1331  13.3273  13.6020  13.6257  13.9171  13.9405
    14.7122  14.8640  15.2161  15.5879  15.7904  15.8366  15.9982  16.2290
    16.5675  17.1381  17.2559  17.5216  17.5664

          k = 0.1667 0.1582-0.5000 ( 62074 PWs)   bands (ev):

   -66.0766 -66.0765 -66.0762 -66.0762 -66.0757 -66.0757 -66.0753 -66.0753
   -30.4805 -30.4805 -30.4753 -30.4753 -30.4422 -30.4422 -30.4267 -30.4267
   -30.4161 -30.4161 -30.4010 -30.4009 -30.3835 -30.3835 -30.3820 -30.3820
   -30.3612 -30.3611 -30.3566 -30.3566 -30.3415 -30.3415 -30.3156 -30.3155
   -20.2333 -20.2333 -20.2332 -20.2332 -20.2331 -20.2331 -20.2330 -20.2330
   -20.2188 -20.2188 -20.2185 -20.2185 -20.2151 -20.2151 -20.2147 -20.2147
   -20.2137 -20.2137 -20.2134 -20.2134 -20.2131 -20.2131 -20.2128 -20.2128
   -20.2098 -20.2098 -20.2090 -20.2089 -20.2088 -20.2088 -20.2082 -20.2082
   -20.2015 -20.2015 -20.2007 -20.2007 -20.1996 -20.1995 -20.1988 -20.1988
   -20.1954 -20.1954 -20.1948 -20.1948 -20.1932 -20.1931 -20.1924 -20.1923
   -20.1914 -20.1914 -20.1912 -20.1912 -20.1905 -20.1905 -20.1883 -20.1883
    -9.5158  -9.5158  -9.2352  -9.2352  -9.0694  -9.0694  -8.7597  -8.7597
    -8.5269  -8.5268  -8.4845  -8.4844  -8.4414  -8.4413  -8.3678  -8.3678
    -7.8643  -7.8643  -7.8143  -7.8143  -7.7856  -7.7856  -7.7304  -7.7304
     1.6116   1.6116   1.6871   1.6871   1.8433   1.8433   1.9405   1.9405
     2.8407   2.8407   3.0528   3.0528   3.1346   3.1346   3.2609   3.2609
     3.3436   3.3437   3.4620   3.4620   3.5945   3.5945   3.8611   3.8611
     3.9708   3.9708   4.3183   4.3184   4.5725   4.5725   4.7489   4.7490
     4.9769   4.9769   5.0784   5.0784   5.1727   5.1727   5.5061   5.5061
     5.7425   5.7425   5.7919   5.7919   5.9091   5.9091   5.9219   5.9219
     6.5194   6.5194   6.6537   6.6537   6.7010   6.7010   6.8152   6.8152
     6.9445   6.9445   6.9774   6.9775   7.0891   7.0892   7.5658   7.5658
     7.5977   7.5977   7.7146   7.7146   7.7399   7.7400   8.0716   8.0716
    10.5089  10.5089  11.3014  11.3014  11.3928  11.3928  11.6952  11.6952
    11.9107  11.9107  12.5785  12.5785  12.6543  12.6544  12.7467  12.7467
    12.9420  12.9420  13.2089  13.2089  13.3528  13.3528  13.9225  13.9225
    14.8182  14.8182  15.5485  15.5485  16.0033  16.0034  16.1072  16.1072
    16.7857  16.7857  17.7217  17.7218  17.9826

          k = 0.1667 0.3165 0.1667 ( 62053 PWs)   bands (ev):

   -66.0769 -66.0767 -66.0760 -66.0760 -66.0758 -66.0758 -66.0752 -66.0750
   -30.4742 -30.4684 -30.4684 -30.4621 -30.4543 -30.4438 -30.4436 -30.4330
   -30.4269 -30.4173 -30.4167 -30.4153 -30.4026 -30.4020 -30.3982 -30.3980
   -30.3451 -30.3450 -30.3439 -30.3423 -30.3176 -30.3175 -30.3136 -30.3129
   -20.2333 -20.2333 -20.2332 -20.2332 -20.2331 -20.2330 -20.2330 -20.2329
   -20.2180 -20.2177 -20.2177 -20.2174 -20.2158 -20.2155 -20.2155 -20.2151
   -20.2137 -20.2136 -20.2136 -20.2135 -20.2132 -20.2131 -20.2131 -20.2129
   -20.2100 -20.2096 -20.2096 -20.2095 -20.2085 -20.2085 -20.2084 -20.2081
   -20.2022 -20.2019 -20.2011 -20.2011 -20.1998 -20.1998 -20.1983 -20.1981
   -20.1967 -20.1967 -20.1944 -20.1944 -20.1934 -20.1933 -20.1933 -20.1933
   -20.1914 -20.1914 -20.1904 -20.1904 -20.1887 -20.1887 -20.1879 -20.1879
    -9.6904  -9.5437  -9.2780  -9.2768  -9.1240  -9.1224  -8.8921  -8.8863
    -8.7530  -8.6140  -8.6065  -8.6058  -8.1399  -8.0918  -8.0917  -8.0717
    -7.8640  -7.8624  -7.8013  -7.7958  -7.7481  -7.7399  -7.6720  -7.6663
     1.5392   1.5408   1.6139   1.6145   1.6643   1.6647   1.9122   1.9718
     2.4276   2.5462   2.5506   2.6466   2.6702   2.7326   3.0008   3.0539
     3.1398   3.1468   3.7227   3.7227   3.7494   3.8046   4.1700   4.4845
     4.4879   4.5206   4.5311   4.6190   4.6277   4.7988   4.8211   4.8982
     4.9483   4.9692   5.1845   5.1977   5.4233   5.4456   5.4593   5.4858
     5.6841   5.7029   5.7865   5.7914   5.8495   5.8629   6.3364   6.3667
     6.4704   6.4972   6.5647   6.6792   6.8091   6.8237   6.8826   6.8978
     6.9879   6.9937   7.0487   7.0654   7.1449   7.1451   7.1750   7.2048
     7.3641   7.3913   7.8103   7.8251   7.8560   7.8707   7.8771   7.8983
    10.0232  10.0442  10.8934  10.9267  10.9519  10.9990  11.9499  11.9900
    12.0760  12.1188  12.3104  12.3163  12.4118  12.4131  12.9054  12.9274
    13.2087  13.2645  13.3109  13.4230  13.6704  13.6848  13.7260  13.7935
    15.1472  15.4551  15.4784  15.5871  15.6087  15.8640  16.2105  16.2114
    16.3082  16.8736  17.4006  17.4701  17.4975

          k = 0.1667 0.3165 0.3333 ( 62073 PWs)   bands (ev):

   -66.0767 -66.0765 -66.0762 -66.0760 -66.0758 -66.0756 -66.0753 -66.0751
   -30.4725 -30.4694 -30.4666 -30.4632 -30.4504 -30.4450 -30.4397 -30.4343
   -30.4218 -30.4179 -30.4080 -30.4038 -30.4010 -30.3981 -30.3848 -30.3803
   -30.3621 -30.3600 -30.3455 -30.3439 -30.3348 -30.3299 -30.3167 -30.3143
   -20.2333 -20.2332 -20.2332 -20.2332 -20.2331 -20.2330 -20.2330 -20.2330
   -20.2180 -20.2178 -20.2177 -20.2175 -20.2158 -20.2156 -20.2154 -20.2152
   -20.2137 -20.2136 -20.2135 -20.2135 -20.2133 -20.2132 -20.2131 -20.2130
   -20.2099 -20.2096 -20.2093 -20.2092 -20.2087 -20.2086 -20.2084 -20.2082
   -20.2018 -20.2014 -20.2012 -20.2004 -20.2002 -20.1994 -20.1988 -20.1984
   -20.1961 -20.1959 -20.1948 -20.1939 -20.1938 -20.1930 -20.1926 -20.1924
   -20.1923 -20.1913 -20.1912 -20.1906 -20.1898 -20.1891 -20.1885 -20.1880
    -9.5613  -9.4050  -9.3312  -9.1738  -9.0812  -8.8814  -8.7914  -8.7775
    -8.7542  -8.6212  -8.5850  -8.5418  -8.2125  -8.1864  -8.1243  -8.0902
    -8.0807  -8.0405  -8.0233  -7.9575  -7.8318  -7.7704  -7.7585  -7.6971
     1.6278   1.6465   1.6790   1.6996   2.2356   2.3153   2.3350   2.4503
     2.4974   2.5597   2.5727   2.7622   2.9190   2.9839   3.0452   3.1281
     3.2683   3.3515   3.6953   3.7168   3.7754   3.8434   3.9365   4.0145
     4.1447   4.3460   4.4505   4.4797   4.4969   4.5905   4.6088   4.7186
     4.8058   4.8553   4.8879   4.9309   4.9918   5.0523   5.1955   5.2107
     5.3785   5.3961   5.5024   5.6605   5.8125   5.8632   6.1748   6.1960
     6.5870   6.6562   6.6769   6.7772   6.8489   6.8955   6.9662   7.0193
     7.0500   7.0692   7.0908   7.1261   7.1837   7.2115   7.2461   7.3106
     7.3712   7.4210   7.7554   7.7794   7.7982   7.8164   7.8643   7.8865
    10.5971  10.6422  10.9397  10.9642  11.3707  11.4385  11.9042  11.9601
    12.0198  12.1534  12.2625  12.2949  12.4939  12.6036  12.6884  12.7252
    12.8975  13.0653  13.1620  13.3523  13.3714  13.4275  13.6993  13.7365
    15.3378  15.4522  15.7667  16.0078  16.0325  16.0859  16.1469  16.7412
    16.7574  16.9083  17.0446  17.6035  17.7027

          k = 0.1667 0.3165-0.5000 ( 62100 PWs)   bands (ev):

   -66.0765 -66.0765 -66.0763 -66.0762 -66.0756 -66.0756 -66.0754 -66.0754
   -30.4709 -30.4709 -30.4647 -30.4647 -30.4472 -30.4472 -30.4364 -30.4364
   -30.4194 -30.4194 -30.4016 -30.4016 -30.3843 -30.3843 -30.3827 -30.3827
   -30.3612 -30.3612 -30.3567 -30.3567 -30.3416 -30.3416 -30.3156 -30.3156
   -20.2332 -20.2332 -20.2332 -20.2332 -20.2331 -20.2331 -20.2330 -20.2330
   -20.2179 -20.2179 -20.2176 -20.2176 -20.2157 -20.2157 -20.2153 -20.2153
   -20.2137 -20.2136 -20.2134 -20.2134 -20.2134 -20.2134 -20.2131 -20.2131
   -20.2097 -20.2097 -20.2090 -20.2090 -20.2089 -20.2089 -20.2083 -20.2083
   -20.2015 -20.2015 -20.2008 -20.2008 -20.1995 -20.1995 -20.1989 -20.1989
   -20.1954 -20.1954 -20.1948 -20.1948 -20.1932 -20.1931 -20.1924 -20.1923
   -20.1914 -20.1914 -20.1912 -20.1912 -20.1905 -20.1905 -20.1883 -20.1883
    -9.4267  -9.4267  -9.2659  -9.2659  -8.8840  -8.8840  -8.6593  -8.6593
    -8.5387  -8.5387  -8.5067  -8.5067  -8.4268  -8.4267  -8.3484  -8.3483
    -8.0854  -8.0854  -8.0505  -8.0505  -7.7958  -7.7958  -7.7333  -7.7333
     1.6451   1.6451   1.7002   1.7003   2.4260   2.4260   2.5442   2.5442
     3.0232   3.0232   3.1077   3.1077   3.1419   3.1420   3.3103   3.3103
     3.3543   3.3543   3.4882   3.4882   3.5704   3.5704   3.7519   3.7519
     4.0873   4.0873   4.1371   4.1371   4.2226   4.2226   4.4258   4.4259
     4.7937   4.7937   4.8738   4.8738   5.0513   5.0513   5.0977   5.0977
     5.1978   5.1978   5.5727   5.5728   5.9112   5.9112   5.9328   5.9328
     6.6979   6.6980   6.8249   6.8249   6.8727   6.8727   6.9190   6.9190
     7.0708   7.0708   7.1251   7.1251   7.2169   7.2169   7.5557   7.5557
     7.5768   7.5768   7.6359   7.6359   7.6671   7.6672   7.8726   7.8726
    10.9186  10.9186  11.3178  11.3178  11.3958  11.3958  11.8226  11.8227
    12.0901  12.0901  12.2649  12.2649  12.5816  12.5816  12.6680  12.6680
    12.8427  12.8427  12.9831  12.9831  13.3220  13.3220  13.7081  13.7081
    15.4099  15.4099  15.9721  15.9721  16.4208  16.4208  16.5117  16.5118
    16.9127  16.9128  17.3726  17.3726  17.9071

          k = 0.1667-0.4747 0.1667 ( 62052 PWs)   bands (ev):

   -66.0768 -66.0768 -66.0759 -66.0759 -66.0759 -66.0759 -66.0751 -66.0751
   -30.4631 -30.4631 -30.4592 -30.4592 -30.4505 -30.4505 -30.4475 -30.4475
   -30.4226 -30.4226 -30.4189 -30.4189 -30.4024 -30.4024 -30.3983 -30.3983
   -30.3451 -30.3451 -30.3432 -30.3432 -30.3176 -30.3176 -30.3133 -30.3133
   -20.2333 -20.2333 -20.2332 -20.2332 -20.2331 -20.2330 -20.2330 -20.2330
   -20.2169 -20.2169 -20.2167 -20.2167 -20.2164 -20.2164 -20.2162 -20.2162
   -20.2137 -20.2137 -20.2136 -20.2136 -20.2132 -20.2132 -20.2131 -20.2131
   -20.2098 -20.2098 -20.2096 -20.2096 -20.2086 -20.2086 -20.2083 -20.2083
   -20.2020 -20.2020 -20.2011 -20.2011 -20.1998 -20.1998 -20.1982 -20.1982
   -20.1967 -20.1967 -20.1944 -20.1944 -20.1934 -20.1934 -20.1933 -20.1933
   -20.1914 -20.1914 -20.1904 -20.1904 -20.1887 -20.1887 -20.1879 -20.1879
    -9.6069  -9.6069  -9.2170  -9.2170  -9.1496  -9.1496  -8.8889  -8.8889
    -8.4516  -8.4515  -8.3865  -8.3865  -8.3790  -8.3790  -8.3729  -8.3729
    -7.8643  -7.8643  -7.7995  -7.7995  -7.7447  -7.7447  -7.6696  -7.6696
     1.5399   1.5399   1.6166   1.6166   1.6667   1.6667   1.9597   1.9597
     2.6660   2.6660   3.1379   3.1379   3.2570   3.2570   3.2908   3.2908
     3.3614   3.3614   3.4545   3.4545   3.5752   3.5752   3.6740   3.6740
     3.8010   3.8010   4.5266   4.5266   4.5798   4.5799   4.9939   4.9939
     5.0629   5.0629   5.1685   5.1686   5.2209   5.2210   5.4902   5.4902
     5.5313   5.5313   5.7924   5.7924   5.8291   5.8291   6.3687   6.3687
     6.5402   6.5402   6.5865   6.5865   6.8246   6.8246   6.9127   6.9127
     6.9999   6.9999   7.1211   7.1211   7.3128   7.3128   7.4844   7.4845
     7.5363   7.5363   7.5518   7.5518   7.6063   7.6063   7.8449   7.8449
    10.0382  10.0382  11.4162  11.4162  11.4808  11.4808  11.5173  11.5173
    11.5833  11.5834  12.3102  12.3102  12.4070  12.4070  12.9310  12.9310
    13.4011  13.4011  13.4245  13.4245  13.4560  13.4560  13.6067  13.6067
    15.5677  15.5677  15.7364  15.7364  15.9271  15.9271  16.0026  16.0026
    16.7230  16.7231  17.9381  17.9384  17.9849

          k = 0.1667-0.4747 0.3333 ( 62078 PWs)   bands (ev):

   -66.0766 -66.0766 -66.0761 -66.0761 -66.0757 -66.0757 -66.0752 -66.0752
   -30.4623 -30.4601 -30.4585 -30.4551 -30.4520 -30.4501 -30.4490 -30.4483
   -30.4221 -30.4199 -30.4098 -30.4047 -30.4011 -30.3984 -30.3848 -30.3804
   -30.3623 -30.3601 -30.3456 -30.3440 -30.3348 -30.3299 -30.3168 -30.3144
   -20.2333 -20.2333 -20.2332 -20.2331 -20.2331 -20.2330 -20.2330 -20.2330
   -20.2169 -20.2168 -20.2167 -20.2166 -20.2165 -20.2164 -20.2163 -20.2162
   -20.2137 -20.2136 -20.2136 -20.2135 -20.2133 -20.2133 -20.2132 -20.2131
   -20.2098 -20.2096 -20.2095 -20.2092 -20.2088 -20.2085 -20.2085 -20.2083
   -20.2017 -20.2015 -20.2012 -20.2004 -20.2002 -20.1994 -20.1987 -20.1985
   -20.1961 -20.1959 -20.1948 -20.1939 -20.1938 -20.1930 -20.1926 -20.1924
   -20.1923 -20.1913 -20.1912 -20.1906 -20.1898 -20.1891 -20.1885 -20.1880
    -9.4823  -9.4594  -9.2672  -9.2049  -8.9827  -8.9217  -8.7737  -8.7557
    -8.4942  -8.4885  -8.4101  -8.4043  -8.3709  -8.3680  -8.3571  -8.3492
    -8.1413  -8.0830  -8.0406  -7.9860  -7.8323  -7.7713  -7.7588  -7.6978
     1.6308   1.6488   1.6814   1.7015   2.2841   2.3285   2.4648   2.5049
     2.9322   2.9357   3.1391   3.1650   3.2573   3.2868   3.2961   3.3056
     3.3557   3.3702   3.4910   3.5412   3.5738   3.6534   3.7425   3.7754
     3.8395   3.8491   3.9474   4.0137   4.4717   4.5144   4.6624   4.6764
     4.7239   4.7648   4.8452   4.8850   5.0179   5.0565   5.0811   5.1330
     5.2042   5.2688   5.3917   5.4726   5.8150   5.8399   6.1826   6.1972
     6.6579   6.6848   6.7138   6.7695   6.8733   6.9421   7.0499   7.1097
     7.1203   7.1833   7.1962   7.2426   7.2662   7.2701   7.4570   7.5034
     7.5092   7.5218   7.5418   7.5613   7.5850   7.6022   7.8042   7.8073
    10.6192  10.6472  11.4330  11.4706  11.5048  11.5439  11.8028  11.8425
    11.8631  11.8946  11.9686  12.0454  12.4845  12.5754  12.7616  12.7875
    12.9617  12.9970  13.1404  13.2144  13.4307  13.4575  13.4972  13.5501
    15.6460  15.7275  15.8562  15.9363  16.2722  16.3418  16.6382  16.6963
    16.9003  16.9124  17.4794  17.5218  17.8557

          k = 0.1667-0.4747-0.5000 ( 62012 PWs)   bands (ev):

   -66.0764 -66.0764 -66.0764 -66.0763 -66.0755 -66.0755 -66.0755 -66.0755
   -30.4612 -30.4612 -30.4547 -30.4546 -30.4516 -30.4515 -30.4492 -30.4492
   -30.4210 -30.4210 -30.4018 -30.4018 -30.3846 -30.3846 -30.3830 -30.3829
   -30.3613 -30.3613 -30.3568 -30.3568 -30.3417 -30.3417 -30.3156 -30.3156
   -20.2332 -20.2332 -20.2332 -20.2332 -20.2331 -20.2331 -20.2330 -20.2330
   -20.2168 -20.2168 -20.2167 -20.2167 -20.2165 -20.2165 -20.2163 -20.2163
   -20.2136 -20.2136 -20.2135 -20.2135 -20.2134 -20.2134 -20.2132 -20.2132
   -20.2097 -20.2097 -20.2091 -20.2091 -20.2088 -20.2088 -20.2084 -20.2084
   -20.2014 -20.2014 -20.2008 -20.2008 -20.1995 -20.1995 -20.1989 -20.1989
   -20.1954 -20.1954 -20.1948 -20.1948 -20.1932 -20.1931 -20.1924 -20.1923
   -20.1914 -20.1914 -20.1912 -20.1912 -20.1905 -20.1905 -20.1883 -20.1883
    -9.3558  -9.3558  -9.3070  -9.3070  -8.6814  -8.6813  -8.6396  -8.6396
    -8.5531  -8.5530  -8.5253  -8.5253  -8.3442  -8.3441  -8.3142  -8.3142
    -8.2852  -8.2852  -8.2469  -8.2468  -7.7962  -7.7962  -7.7341  -7.7341
     1.6483   1.6483   1.7029   1.7029   2.9955   2.9955   3.0706   3.0706
     3.1675   3.1675   3.1889   3.1889   3.2501   3.2501   3.3102   3.3102
     3.3753   3.3753   3.4751   3.4751   3.5252   3.5252   3.6094   3.6094
     3.6545   3.6545   3.8187   3.8187   4.3450   4.3450   4.3831   4.3831
     4.4357   4.4357   4.5033   4.5034   4.9337   4.9338   5.1132   5.1132
     5.1975   5.1975   5.3635   5.3635   5.9107   5.9107   5.9311   5.9311
     6.7605   6.7605   6.8437   6.8437   6.9038   6.9038   6.9567   6.9567
     7.3079   7.3080   7.3349   7.3349   7.3976   7.3976   7.4773   7.4773
     7.5054   7.5054   7.5699   7.5699   7.6284   7.6284   7.6622   7.6622
    11.2768  11.2768  11.3338  11.3338  11.5005  11.5005  11.5761  11.5761
    12.2866  12.2866  12.3391  12.3391  12.3835  12.3835  12.4348  12.4349
    12.8049  12.8049  12.8874  12.8874  13.4446  13.4446  13.4921  13.4921
    15.7587  15.7587  15.8441  15.8441  16.9519  16.9519  17.0216  17.0216
    17.3348  17.3349  17.3937  17.3937  17.4763

          k = 0.3333 0.0000 0.3333 ( 62124 PWs)   bands (ev):

   -66.0766 -66.0762 -66.0761 -66.0761 -66.0757 -66.0757 -66.0756 -66.0752
   -30.4845 -30.4817 -30.4815 -30.4787 -30.4371 -30.4308 -30.4302 -30.4217
   -30.4125 -30.4028 -30.4019 -30.3980 -30.3845 -30.3840 -30.3806 -30.3800
   -30.3632 -30.3603 -30.3601 -30.3586 -30.3344 -30.3340 -30.3323 -30.3310
   -20.2333 -20.2332 -20.2332 -20.2332 -20.2331 -20.2331 -20.2331 -20.2330
   -20.2192 -20.2190 -20.2190 -20.2189 -20.2150 -20.2148 -20.2148 -20.2145
   -20.2137 -20.2136 -20.2136 -20.2134 -20.2130 -20.2128 -20.2128 -20.2126
   -20.2098 -20.2094 -20.2094 -20.2089 -20.2088 -20.2084 -20.2084 -20.2081
   -20.2014 -20.2008 -20.2006 -20.2006 -20.1997 -20.1997 -20.1992 -20.1987
   -20.1953 -20.1953 -20.1941 -20.1941 -20.1930 -20.1930 -20.1925 -20.1923
   -20.1921 -20.1921 -20.1914 -20.1914 -20.1897 -20.1897 -20.1893 -20.1891
    -9.5490  -9.3180  -9.3151  -9.1785  -9.1046  -8.9017  -8.8937  -8.7246
    -8.6811  -8.6624  -8.6620  -8.6518  -8.1893  -8.1422  -8.1346  -8.1139
    -8.0806  -8.0684  -7.9840  -7.9615  -7.7549  -7.7296  -7.7296  -7.7048
     1.5645   1.6023   1.6036   1.6404   2.2295   2.2345   2.3255   2.3386
     2.3855   2.3919   2.5773   2.6820   2.9554   2.9944   3.0282   3.0681
     3.2725   3.3011   3.8080   3.8451   3.9657   3.9800   4.1386   4.1750
     4.1811   4.2011   4.3071   4.3947   4.4612   4.4938   4.5923   4.5939
     4.8442   4.9281   5.0105   5.0542   5.0847   5.1192   5.2344   5.4775
     5.4924   5.5513   5.5564   5.6899   5.9367   5.9501   5.9502   6.1117
     6.5086   6.5096   6.5370   6.5417   6.5657   6.5907   6.6147   6.6584
     7.0366   7.1977   7.2217   7.2441   7.2772   7.3425   7.4052   7.4121
     7.4516   7.5333   7.7535   7.7615   7.9366   7.9853   8.0350   8.0534
    10.7951  10.9072  10.9620  10.9832  11.0942  11.2998  12.1027  12.1122
    12.1614  12.1715  12.2308  12.3351  12.5582  12.5756  12.8143  12.8862
    12.8949  12.9498  13.0670  13.1209  13.6111  13.6861  13.6920  13.7894
    14.5834  14.8356  14.8426  15.2908  15.8803  16.3203  16.3472  16.7463
    16.8315  17.1378  17.2214  17.7628  17.7832

          k = 0.3333 0.0000-0.5000 ( 62108 PWs)   bands (ev):

   -66.0764 -66.0764 -66.0760 -66.0760 -66.0759 -66.0759 -66.0755 -66.0755
   -30.4830 -30.4830 -30.4801 -30.4801 -30.4328 -30.4328 -30.4247 -30.4246
   -30.4048 -30.4048 -30.3880 -30.3880 -30.3829 -30.3829 -30.3774 -30.3774
   -30.3653 -30.3653 -30.3574 -30.3574 -30.3530 -30.3530 -30.3331 -30.3331
   -20.2332 -20.2332 -20.2332 -20.2331 -20.2331 -20.2331 -20.2330 -20.2330
   -20.2191 -20.2191 -20.2189 -20.2189 -20.2149 -20.2149 -20.2147 -20.2147
   -20.2136 -20.2136 -20.2135 -20.2135 -20.2129 -20.2129 -20.2127 -20.2127
   -20.2095 -20.2095 -20.2091 -20.2091 -20.2086 -20.2086 -20.2082 -20.2082
   -20.2009 -20.2009 -20.2003 -20.2003 -20.1998 -20.1998 -20.1992 -20.1992
   -20.1947 -20.1947 -20.1942 -20.1942 -20.1932 -20.1931 -20.1923 -20.1923
   -20.1920 -20.1920 -20.1912 -20.1911 -20.1907 -20.1907 -20.1894 -20.1894
    -9.4116  -9.4116  -9.1816  -9.1815  -8.9993  -8.9993  -8.6875  -8.6874
    -8.5617  -8.5616  -8.4761  -8.4760  -8.4251  -8.4251  -8.3716  -8.3715
    -8.0911  -8.0911  -8.0341  -8.0341  -7.7430  -7.7430  -7.7177  -7.7177
     1.5831   1.5831   1.6226   1.6226   2.3443   2.3444   2.3964   2.3964
     2.9603   2.9603   3.0737   3.0738   3.1116   3.1116   3.2712   3.2713
     3.3762   3.3762   3.6297   3.6297   3.7874   3.7874   3.9059   3.9059
     3.9335   3.9336   4.1025   4.1025   4.2625   4.2625   4.4358   4.4358
     4.7572   4.7572   4.9781   4.9781   5.0991   5.0991   5.1832   5.1832
     5.3293   5.3293   5.5774   5.5775   5.9712   5.9712   6.0710   6.0710
     6.4498   6.4498   6.4744   6.4744   6.5304   6.5304   6.6180   6.6180
     7.2051   7.2051   7.3429   7.3429   7.4253   7.4253   7.5896   7.5896
     7.6182   7.6182   7.7442   7.7442   7.7827   7.7828   8.0233   8.0233
    10.9444  10.9445  11.5095  11.5095  11.6169  11.6170  11.6807  11.6807
    11.9349  11.9349  12.2912  12.2912  12.4722  12.4722  12.7142  12.7142
    12.9337  12.9337  13.2728  13.2728  13.3144  13.3144  13.7025  13.7025
    14.7464  14.7464  15.1114  15.1114  16.3322  16.3323  16.7417  16.7417
    17.0795  17.0795  17.5339  17.5340  17.9871

          k = 0.3333 0.1582 0.3333 ( 62068 PWs)   bands (ev):

   -66.0766 -66.0762 -66.0761 -66.0761 -66.0757 -66.0757 -66.0756 -66.0752
   -30.4807 -30.4779 -30.4777 -30.4748 -30.4393 -30.4333 -30.4328 -30.4253
   -30.4120 -30.4038 -30.4030 -30.3998 -30.3846 -30.3840 -30.3807 -30.3803
   -30.3630 -30.3605 -30.3603 -30.3590 -30.3344 -30.3341 -30.3323 -30.3311
   -20.2333 -20.2332 -20.2332 -20.2332 -20.2331 -20.2331 -20.2331 -20.2330
   -20.2189 -20.2187 -20.2187 -20.2185 -20.2152 -20.2149 -20.2149 -20.2147
   -20.2137 -20.2136 -20.2136 -20.2134 -20.2132 -20.2130 -20.2130 -20.2128
   -20.2097 -20.2094 -20.2094 -20.2089 -20.2088 -20.2085 -20.2085 -20.2082
   -20.2014 -20.2009 -20.2006 -20.2006 -20.1997 -20.1997 -20.1991 -20.1988
   -20.1953 -20.1953 -20.1941 -20.1941 -20.1930 -20.1930 -20.1925 -20.1923
   -20.1921 -20.1921 -20.1914 -20.1914 -20.1897 -20.1897 -20.1893 -20.1892
    -9.5078  -9.2661  -9.2626  -9.1905  -9.0327  -8.9101  -8.9022  -8.6962
    -8.6791  -8.6524  -8.6413  -8.6348  -8.2039  -8.1417  -8.1383  -8.1136
    -8.0824  -8.0711  -7.9844  -7.9628  -7.8477  -7.8232  -7.8231  -7.7976
     1.7871   1.8224   1.8235   1.8659   2.2304   2.2347   2.3261   2.3407
     2.3951   2.4001   2.5795   2.6917   3.0268   3.0689   3.1034   3.1124
[...]
    11.0457  11.0457  11.5308  11.5308  11.6330  11.6330  11.7354  11.7354
    11.9809  11.9809  12.3156  12.3156  12.4662  12.4662  12.7188  12.7188
    12.8116  12.8117  13.1541  13.1541  13.1968  13.1968  13.6021  13.6021
    15.1001  15.1002  15.4875  15.4875  16.4151  16.4151  16.7421  16.7421
    17.0850  17.0850  17.5455  17.5455  17.8520

          k = 0.3333 0.3165 0.3333 ( 62049 PWs)   bands (ev):

   -66.0765 -66.0763 -66.0760 -66.0760 -66.0758 -66.0758 -66.0755 -66.0753
   -30.4708 -30.4677 -30.4675 -30.4642 -30.4464 -30.4411 -30.4408 -30.4355
   -30.4107 -30.4058 -30.4049 -30.4036 -30.3845 -30.3842 -30.3809 -30.3807
   -30.3624 -30.3608 -30.3606 -30.3601 -30.3344 -30.3342 -30.3321 -30.3314
   -20.2332 -20.2332 -20.2332 -20.2332 -20.2331 -20.2331 -20.2330 -20.2330
   -20.2180 -20.2178 -20.2178 -20.2176 -20.2157 -20.2155 -20.2155 -20.2153
   -20.2137 -20.2136 -20.2135 -20.2134 -20.2133 -20.2132 -20.2132 -20.2131
   -20.2096 -20.2093 -20.2093 -20.2092 -20.2087 -20.2086 -20.2086 -20.2083
   -20.2013 -20.2010 -20.2006 -20.2005 -20.1998 -20.1997 -20.1991 -20.1988
   -20.1953 -20.1953 -20.1941 -20.1941 -20.1930 -20.1930 -20.1924 -20.1924
   -20.1921 -20.1921 -20.1914 -20.1914 -20.1897 -20.1897 -20.1893 -20.1892
    -9.4077  -9.2299  -9.1403  -9.1358  -8.9402  -8.9321  -8.8312  -8.6764
    -8.6686  -8.5657  -8.5588  -8.5535  -8.2921  -8.1723  -8.1665  -8.1197
    -8.1026  -8.0909  -8.0700  -8.0243  -8.0153  -7.9972  -7.9652  -7.9615
     2.2151   2.2180   2.2522   2.2680   2.3277   2.3367   2.3517   2.4571
     2.5649   2.5841   2.5900   2.7962   3.1876   3.2374   3.2651   3.3143
     3.3390   3.3813   3.7070   3.7074   3.7862   3.8708   4.0640   4.0996
     4.1368   4.2058   4.2115   4.3263   4.3738   4.4318   4.4459   4.5324
     4.5591   4.6175   4.6415   4.7096   4.7903   4.8769   4.9094   4.9500
     4.9751   5.0074   5.1957   5.3057   5.3592   5.3864   5.5695   5.5740
     6.8290   6.8545   6.8806   6.9321   6.9940   7.0383   7.0689   7.0858
     7.1409   7.1979   7.2378   7.2660   7.2903   7.3258   7.3944   7.3945
     7.4628   7.5035   7.7231   7.7312   7.7749   7.7989   7.8064   7.8605
    10.9610  11.0333  11.3286  11.3764  11.4054  11.5659  12.0766  12.1007
    12.1275  12.1711  12.1762  12.2914  12.4282  12.4675  12.6346  12.6835
    12.7755  12.7836  12.8459  13.1151  13.2484  13.3206  13.3282  13.4770
    15.7574  15.9506  15.9662  16.2760  16.3337  16.3688  16.6385  16.8553
    16.8818  16.9918  17.2272  17.2737  17.7297

          k = 0.3333 0.3165-0.5000 ( 62072 PWs)   bands (ev):

   -66.0763 -66.0763 -66.0761 -66.0761 -66.0758 -66.0758 -66.0756 -66.0756
   -30.4691 -30.4691 -30.4658 -30.4658 -30.4431 -30.4431 -30.4377 -30.4377
   -30.4064 -30.4064 -30.3894 -30.3894 -30.3838 -30.3838 -30.3780 -30.3780
   -30.3658 -30.3658 -30.3577 -30.3576 -30.3532 -30.3532 -30.3332 -30.3332
   -20.2332 -20.2332 -20.2332 -20.2332 -20.2331 -20.2331 -20.2330 -20.2330
   -20.2179 -20.2179 -20.2177 -20.2177 -20.2156 -20.2156 -20.2154 -20.2154
   -20.2136 -20.2136 -20.2135 -20.2135 -20.2134 -20.2134 -20.2132 -20.2132
   -20.2094 -20.2094 -20.2090 -20.2090 -20.2089 -20.2089 -20.2085 -20.2085
   -20.2008 -20.2008 -20.2004 -20.2004 -20.1997 -20.1997 -20.1993 -20.1993
   -20.1947 -20.1947 -20.1942 -20.1942 -20.1932 -20.1931 -20.1923 -20.1923
   -20.1920 -20.1920 -20.1912 -20.1912 -20.1907 -20.1907 -20.1895 -20.1894
    -9.2464  -9.2464  -9.0472  -9.0472  -8.9369  -8.9369  -8.6164  -8.6164
    -8.5684  -8.5684  -8.4741  -8.4741  -8.4055  -8.4054  -8.3565  -8.3565
    -8.1169  -8.1168  -8.0792  -8.0792  -8.0491  -8.0491  -7.9945  -7.9944
     2.2671   2.2671   2.3501   2.3502   2.4444   2.4444   2.5627   2.5627
     3.0814   3.0814   3.1398   3.1398   3.2373   3.2373   3.3207   3.3207
     3.4131   3.4131   3.6609   3.6609   3.7668   3.7668   3.8640   3.8640
     4.0546   4.0546   4.1530   4.1530   4.2010   4.2010   4.3114   4.3114
     4.3950   4.3950   4.5377   4.5377   4.6829   4.6829   4.9098   4.9098
     5.0086   5.0086   5.0800   5.0800   5.1301   5.1302   5.3597   5.3597
     6.8848   6.8848   6.9545   6.9545   7.0182   7.0182   7.0837   7.0837
     7.2355   7.2355   7.3268   7.3268   7.4258   7.4258   7.5557   7.5557
     7.5892   7.5892   7.6538   7.6538   7.6865   7.6866   7.8213   7.8213
    11.3170  11.3170  11.5671  11.5671  11.6661  11.6661  11.9085  11.9085
    12.1372  12.1372  12.3612  12.3613  12.4198  12.4199  12.4674  12.4674
    12.7669  12.7670  12.8772  12.8772  12.9557  12.9557  13.3502  13.3502
    15.9143  15.9143  16.3988  16.3988  16.6559  16.6559  16.7465  16.7466
    17.1181  17.1181  17.4330  17.4330  17.7163

          k = 0.3333-0.4747 0.3333 ( 62052 PWs)   bands (ev):

   -66.0764 -66.0764 -66.0759 -66.0759 -66.0759 -66.0759 -66.0754 -66.0754
   -30.4580 -30.4579 -30.4559 -30.4559 -30.4516 -30.4516 -30.4498 -30.4497
   -30.4083 -30.4083 -30.4056 -30.4056 -30.3844 -30.3844 -30.3810 -30.3810
   -30.3615 -30.3614 -30.3607 -30.3607 -30.3343 -30.3343 -30.3318 -30.3318
   -20.2332 -20.2332 -20.2332 -20.2332 -20.2331 -20.2331 -20.2330 -20.2330
   -20.2168 -20.2168 -20.2167 -20.2167 -20.2165 -20.2165 -20.2164 -20.2164
   -20.2136 -20.2136 -20.2136 -20.2135 -20.2133 -20.2133 -20.2133 -20.2133
   -20.2094 -20.2094 -20.2093 -20.2093 -20.2087 -20.2087 -20.2085 -20.2085
   -20.2011 -20.2011 -20.2005 -20.2005 -20.1998 -20.1998 -20.1990 -20.1990
   -20.1953 -20.1953 -20.1941 -20.1941 -20.1930 -20.1930 -20.1924 -20.1924
   -20.1921 -20.1921 -20.1914 -20.1914 -20.1897 -20.1897 -20.1892 -20.1892
    -9.3029  -9.3029  -9.0378  -9.0378  -8.9832  -8.9832  -8.6759  -8.6759
    -8.5403  -8.5402  -8.3835  -8.3835  -8.3710  -8.3710  -8.3544  -8.3544
    -8.1184  -8.1184  -8.0779  -8.0779  -8.0558  -8.0558  -7.9692  -7.9692
     2.2268   2.2268   2.3024   2.3024   2.3501   2.3501   2.5554   2.5554
     3.1574   3.1574   3.1853   3.1853   3.2872   3.2872   3.3214   3.3214
     3.3836   3.3837   3.6153   3.6153   3.7193   3.7193   3.7546   3.7546
     3.8555   3.8555   4.1239   4.1240   4.2455   4.2455   4.4663   4.4663
     4.5869   4.5870   4.6898   4.6898   4.7699   4.7699   4.8285   4.8285
     4.9375   4.9375   5.0302   5.0302   5.0549   5.0549   5.5630   5.5630
     6.9467   6.9467   7.0709   7.0709   7.1230   7.1230   7.1867   7.1867
     7.2626   7.2626   7.2991   7.2991   7.3400   7.3400   7.4752   7.4752
     7.5023   7.5024   7.5683   7.5684   7.6174   7.6174   7.7753   7.7753
    11.0176  11.0177  11.7330  11.7330  11.7823  11.7823  11.8673  11.8673
    11.9554  11.9554  12.1560  12.1560  12.2743  12.2743  12.6568  12.6569
    12.9262  12.9262  13.0005  13.0005  13.0453  13.0453  13.2660  13.2660
    16.3018  16.3018  16.4539  16.4539  16.5934  16.5934  16.6662  16.6662
    17.0346  17.0347  17.5582  17.5583  17.6365

          k = 0.3333-0.4747-0.5000 ( 61996 PWs)   bands (ev):

   -66.0762 -66.0762 -66.0762 -66.0762 -66.0757 -66.0757 -66.0757 -66.0757
   -30.4570 -30.4570 -30.4542 -30.4542 -30.4523 -30.4523 -30.4507 -30.4507
   -30.4069 -30.4069 -30.3898 -30.3898 -30.3840 -30.3840 -30.3781 -30.3781
   -30.3660 -30.3660 -30.3577 -30.3577 -30.3532 -30.3532 -30.3332 -30.3332
   -20.2332 -20.2332 -20.2332 -20.2332 -20.2331 -20.2331 -20.2331 -20.2330
   -20.2167 -20.2167 -20.2167 -20.2166 -20.2165 -20.2165 -20.2164 -20.2164
   -20.2136 -20.2136 -20.2135 -20.2135 -20.2134 -20.2134 -20.2133 -20.2133
   -20.2093 -20.2093 -20.2090 -20.2090 -20.2089 -20.2089 -20.2086 -20.2086
   -20.2008 -20.2008 -20.2004 -20.2004 -20.1997 -20.1997 -20.1993 -20.1993
   -20.1947 -20.1947 -20.1942 -20.1942 -20.1932 -20.1931 -20.1923 -20.1923
   -20.1920 -20.1920 -20.1912 -20.1912 -20.1907 -20.1907 -20.1895 -20.1894
    -9.1423  -9.1423  -9.1077  -9.1077  -8.7440  -8.7440  -8.7102  -8.7102
    -8.4906  -8.4906  -8.4708  -8.4707  -8.3369  -8.3369  -8.3115  -8.3115
    -8.2891  -8.2891  -8.2529  -8.2529  -8.0762  -8.0762  -8.0202  -8.0201
     2.3179   2.3179   2.3654   2.3654   3.0122   3.0123   3.0639   3.0639
     3.1610   3.1610   3.1928   3.1928   3.2972   3.2972   3.3300   3.3300
     3.4494   3.4494   3.4966   3.4966   3.6686   3.6686   3.7453   3.7453
     3.8434   3.8434   3.9382   3.9382   4.2854   4.2855   4.3348   4.3348
     4.4079   4.4079   4.4591   4.4591   4.5383   4.5383   4.6373   4.6373
     4.7234   4.7234   4.8835   4.8835   5.1228   5.1228   5.1484   5.1484
     7.0263   7.0263   7.1204   7.1204   7.2167   7.2167   7.2357   7.2357
     7.3249   7.3249   7.3580   7.3580   7.4279   7.4279   7.4621   7.4622
     7.5288   7.5288   7.6006   7.6007   7.6490   7.6490   7.6870   7.6870
    11.5163  11.5164  11.5605  11.5605  11.8338  11.8338  11.9175  11.9175
    12.2456  12.2456  12.2982  12.2982  12.3839  12.3839  12.4302  12.4302
    12.5790  12.5790  12.6826  12.6826  13.0363  13.0363  13.1130  13.1130
    16.4836  16.4836  16.5531  16.5531  17.0984  17.0985  17.1537  17.1537
    17.3424  17.3425  17.4056  17.4059  17.4733

          k =-0.5000 0.0000-0.5000 ( 62180 PWs)   bands (ev):

   -66.0762 -66.0761 -66.0761 -66.0761 -66.0757 -66.0757 -66.0757 -66.0757
   -30.4816 -30.4816 -30.4815 -30.4815 -30.4277 -30.4277 -30.4272 -30.4272
   -30.3884 -30.3884 -30.3883 -30.3883 -30.3813 -30.3812 -30.3803 -30.3803
   -30.3578 -30.3578 -30.3568 -30.3568 -30.3563 -30.3563 -30.3558 -30.3558
   -20.2332 -20.2332 -20.2332 -20.2332 -20.2331 -20.2331 -20.2331 -20.2331
   -20.2191 -20.2190 -20.2190 -20.2190 -20.2148 -20.2148 -20.2148 -20.2148
   -20.2136 -20.2136 -20.2136 -20.2136 -20.2129 -20.2129 -20.2129 -20.2128
   -20.2093 -20.2093 -20.2093 -20.2092 -20.2084 -20.2084 -20.2084 -20.2084
   -20.2002 -20.2002 -20.2002 -20.2002 -20.1998 -20.1998 -20.1997 -20.1997
   -20.1936 -20.1936 -20.1936 -20.1936 -20.1935 -20.1935 -20.1935 -20.1935
   -20.1911 -20.1911 -20.1910 -20.1910 -20.1909 -20.1908 -20.1908 -20.1908
    -9.2718  -9.2718  -9.2681  -9.2681  -8.7268  -8.7268  -8.7036  -8.7036
    -8.5377  -8.5377  -8.5063  -8.5062  -8.3517  -8.3517  -8.3313  -8.3312
    -8.3261  -8.3261  -8.2970  -8.2970  -7.7310  -7.7310  -7.7308  -7.7308
     1.6023   1.6023   1.6043   1.6044   2.9696   2.9697   2.9817   2.9818
     3.1297   3.1297   3.1395   3.1395   3.1882   3.1882   3.2248   3.2248
     3.4101   3.4101   3.4154   3.4154   3.7767   3.7767   3.8451   3.8451
     3.8734   3.8734   3.9629   3.9629   4.2622   4.2622   4.2796   4.2796
     4.3578   4.3578   4.3931   4.3931   4.9775   4.9776   4.9927   4.9927
     5.4203   5.4203   5.4375   5.4376   6.0580   6.0580   6.0586   6.0586
     6.4464   6.4464   6.4512   6.4512   6.4784   6.4784   6.4961   6.4961
     7.5003   7.5003   7.5093   7.5093   7.5350   7.5351   7.5734   7.5734
     7.6636   7.6636   7.6807   7.6807   7.8384   7.8384   7.8865   7.8865
    11.5600  11.5600  11.6027  11.6028  11.6964  11.6964  11.7269  11.7269
    12.0455  12.0455  12.0654  12.0654  12.2555  12.2555  12.2664  12.2664
    13.1741  13.1741  13.2115  13.2115  13.3466  13.3466  13.3809  13.3809
    14.9684  14.9684  14.9720  14.9720  16.7694  16.7695  16.8236  16.8236
    17.6930  17.6930  17.7034  17.7034  17.8514

          k =-0.5000 0.1582-0.5000 ( 62096 PWs)   bands (ev):

   -66.0761 -66.0761 -66.0761 -66.0761 -66.0758 -66.0757 -66.0757 -66.0757
   -30.4778 -30.4778 -30.4776 -30.4776 -30.4309 -30.4308 -30.4304 -30.4304
   -30.3881 -30.3881 -30.3880 -30.3880 -30.3821 -30.3821 -30.3812 -30.3812
   -30.3577 -30.3577 -30.3568 -30.3568 -30.3564 -30.3564 -30.3560 -30.3560
   -20.2332 -20.2332 -20.2332 -20.2332 -20.2331 -20.2331 -20.2331 -20.2331
   -20.2187 -20.2187 -20.2187 -20.2187 -20.2150 -20.2150 -20.2149 -20.2149
   -20.2136 -20.2136 -20.2136 -20.2135 -20.2130 -20.2130 -20.2130 -20.2130
   -20.2092 -20.2092 -20.2092 -20.2092 -20.2085 -20.2085 -20.2085 -20.2085
   -20.2002 -20.2002 -20.2002 -20.2002 -20.1998 -20.1998 -20.1998 -20.1997
   -20.1936 -20.1936 -20.1936 -20.1936 -20.1935 -20.1935 -20.1935 -20.1935
   -20.1910 -20.1910 -20.1910 -20.1909 -20.1909 -20.1909 -20.1908 -20.1908
    -9.2120  -9.2120  -9.2076  -9.2076  -8.7390  -8.7390  -8.7168  -8.7167
    -8.5229  -8.5229  -8.4911  -8.4911  -8.3506  -8.3506  -8.3323  -8.3322
    -8.3260  -8.3260  -8.2971  -8.2971  -7.8260  -7.8260  -7.8255  -7.8255
     1.8306   1.8306   1.8328   1.8328   2.9859   2.9859   3.0008   3.0008
     3.1345   3.1345   3.1398   3.1398   3.2142   3.2143   3.2511   3.2511
     3.4023   3.4024   3.4083   3.4083   3.8205   3.8205   3.8853   3.8853
     3.9200   3.9201   4.0067   4.0067   4.2466   4.2466   4.2629   4.2629
     4.3588   4.3588   4.3940   4.3940   4.7617   4.7617   4.7751   4.7752
     5.1855   5.1856   5.1974   5.1974   5.7920   5.7920   5.7929   5.7929
     6.6155   6.6155   6.6388   6.6389   6.6735   6.6735   6.6880   6.6880
     7.4941   7.4941   7.5037   7.5037   7.5274   7.5274   7.5685   7.5685
     7.6516   7.6516   7.6620   7.6620   7.8139   7.8139   7.8508   7.8508
    11.6173  11.6173  11.6578  11.6578  11.7526  11.7526  11.7840  11.7840
    12.0489  12.0489  12.0677  12.0677  12.2781  12.2781  12.2872  12.2872
    13.0476  13.0476  13.0817  13.0817  13.2314  13.2314  13.2616  13.2616
    15.3455  15.3455  15.3493  15.3493  16.8336  16.8336  16.8840  16.8840
    17.6410  17.6410  17.6681  17.6681  17.8558

          k =-0.5000 0.3165-0.5000 ( 62020 PWs)   bands (ev):

   -66.0760 -66.0760 -66.0760 -66.0760 -66.0758 -66.0758 -66.0758 -66.0758
   -30.4674 -30.4674 -30.4672 -30.4672 -30.4400 -30.4400 -30.4397 -30.4397
   -30.3873 -30.3873 -30.3871 -30.3871 -30.3840 -30.3840 -30.3834 -30.3833
   -30.3574 -30.3574 -30.3569 -30.3569 -30.3566 -30.3566 -30.3564 -30.3564
   -20.2332 -20.2332 -20.2332 -20.2331 -20.2331 -20.2331 -20.2331 -20.2331
   -20.2178 -20.2178 -20.2178 -20.2178 -20.2156 -20.2155 -20.2155 -20.2155
   -20.2135 -20.2135 -20.2135 -20.2135 -20.2133 -20.2133 -20.2133 -20.2133
   -20.2091 -20.2091 -20.2091 -20.2091 -20.2087 -20.2087 -20.2087 -20.2087
   -20.2001 -20.2001 -20.2001 -20.2001 -20.1999 -20.1999 -20.1998 -20.1998
   -20.1936 -20.1936 -20.1936 -20.1936 -20.1935 -20.1935 -20.1935 -20.1935
   -20.1910 -20.1910 -20.1909 -20.1909 -20.1909 -20.1909 -20.1908 -20.1908
    -9.0576  -9.0576  -9.0503  -9.0503  -8.7834  -8.7834  -8.7646  -8.7645
    -8.4690  -8.4690  -8.4348  -8.4347  -8.3478  -8.3477  -8.3344  -8.3343
    -8.3278  -8.3278  -8.2950  -8.2950  -8.0556  -8.0556  -8.0530  -8.0530
     2.4364   2.4364   2.4382   2.4382   3.0212   3.0212   3.0425   3.0425
     3.1324   3.1324   3.1345   3.1345   3.2843   3.2843   3.3300   3.3301
     3.3716   3.3716   3.3840   3.3841   3.9475   3.9475   4.0074   4.0074
     4.0257   4.0257   4.0516   4.0517   4.1320   4.1320   4.1843   4.1843
     4.3590   4.3591   4.4039   4.4039   4.4348   4.4348   4.4431   4.4431
     4.7817   4.7818   4.7828   4.7828   5.1075   5.1075   5.1129   5.1129
     6.9379   6.9379   6.9717   6.9718   7.0472   7.0472   7.0765   7.0765
     7.4514   7.4514   7.4610   7.4610   7.4964   7.4965   7.5401   7.5401
     7.6244   7.6245   7.6266   7.6266   7.7325   7.7325   7.7535   7.7535
    11.7697  11.7697  11.7905  11.7906  11.8853  11.8853  11.9044  11.9044
    12.0924  12.0924  12.1059  12.1059  12.3682  12.3682  12.3741  12.3741
    12.7326  12.7326  12.7604  12.7604  12.9402  12.9402  12.9603  12.9603
    16.2697  16.2697  16.2734  16.2734  17.0131  17.0132  17.0488  17.0488
    17.4722  17.4723  17.5378  17.5378  17.8681

          k =-0.5000-0.4747-0.5000 ( 62064 PWs)   bands (ev):

   -66.0760 -66.0759 -66.0759 -66.0759 -66.0759 -66.0759 -66.0759 -66.0759
   -30.4539 -30.4539 -30.4532 -30.4532 -30.4532 -30.4532 -30.4530 -30.4529
   -30.3859 -30.3859 -30.3859 -30.3859 -30.3859 -30.3858 -30.3851 -30.3851
   -30.3570 -30.3570 -30.3569 -30.3568 -30.3568 -30.3568 -30.3568 -30.3568
   -20.2332 -20.2332 -20.2331 -20.2331 -20.2331 -20.2331 -20.2331 -20.2331
   -20.2167 -20.2166 -20.2166 -20.2166 -20.2166 -20.2166 -20.2166 -20.2165
   -20.2135 -20.2135 -20.2135 -20.2135 -20.2135 -20.2135 -20.2134 -20.2134
   -20.2090 -20.2090 -20.2090 -20.2090 -20.2089 -20.2089 -20.2089 -20.2089
   -20.2000 -20.2000 -20.2000 -20.2000 -20.2000 -20.2000 -20.2000 -20.1999
   -20.1936 -20.1936 -20.1936 -20.1936 -20.1935 -20.1935 -20.1935 -20.1935
   -20.1910 -20.1910 -20.1909 -20.1909 -20.1909 -20.1909 -20.1909 -20.1908
    -8.8991  -8.8991  -8.8759  -8.8759  -8.8746  -8.8746  -8.8746  -8.8746
    -8.3821  -8.3820  -8.3479  -8.3479  -8.3478  -8.3478  -8.3449  -8.3448
    -8.2865  -8.2865  -8.2865  -8.2865  -8.2667  -8.2667  -8.2478  -8.2477
     3.0079   3.0079   3.0108   3.0108   3.0108   3.0108   3.0287   3.0287
     3.2352   3.2352   3.2387   3.2387   3.2387   3.2387   3.2636   3.2636
     3.3922   3.3922   3.5159   3.5159   3.5160   3.5160   3.5762   3.5762
     4.1874   4.1874   4.2086   4.2086   4.2160   4.2160   4.2160   4.2160
     4.4218   4.4218   4.4218   4.4218   4.4412   4.4412   4.4627   4.4627
     4.5349   4.5349   4.5528   4.5529   4.5645   4.5645   4.5645   4.5645
     7.1364   7.1364   7.2319   7.2319   7.2319   7.2320   7.3515   7.3515
     7.4020   7.4020   7.4020   7.4020   7.4048   7.4048   7.4050   7.4050
     7.6189   7.6189   7.6420   7.6420   7.6420   7.6420   7.6827   7.6827
    11.9001  11.9001  11.9001  11.9001  11.9001  11.9002  11.9104  11.9104
    12.2604  12.2604  12.3331  12.3331  12.3331  12.3332  12.4574  12.4574
    12.5663  12.5664  12.6274  12.6274  12.6274  12.6274  12.6531  12.6531
    17.1570  17.1570  17.1893  17.1894  17.1894  17.1894  17.2198  17.2198
    17.4062  17.4062  17.4062  17.4062  17.4646

     the Fermi energy is     9.7621 ev

!    total energy              =   -6261.00567793 Ry
     Harris-Foulkes estimate   =   -6261.00567793 Ry
     estimated scf accuracy    <          1.0E-09 Ry

     The total energy is the sum of the following terms:

     one-electron contribution =   -4705.87824609 Ry
     hartree contribution      =    2590.84604800 Ry
     xc contribution           =    -965.83135064 Ry
     ewald contribution        =   -3180.14210824 Ry
     smearing contrib. (-TS)   =      -0.00002096 Ry

     convergence has been achieved in  13 iterations

     Writing output data file chempot_3.save
 
     init_run     :     19.92s CPU     20.91s WALL (       1 calls)
     electrons    :    861.54s CPU    875.86s WALL (       1 calls)

     Called by init_run:
     wfcinit      :     18.04s CPU     18.91s WALL (       1 calls)
     potinit      :      0.71s CPU      0.74s WALL (       1 calls)

     Called by electrons:
     c_bands      :    749.66s CPU    763.00s WALL (      13 calls)
     sum_band     :    104.19s CPU    104.58s WALL (      13 calls)
     v_of_rho     :      1.79s CPU      1.81s WALL (      14 calls)
     mix_rho      :      2.83s CPU      3.22s WALL (      13 calls)

     Called by c_bands:
     init_us_2    :      5.90s CPU      6.41s WALL (      27 calls)
     cegterg      :    578.61s CPU    591.74s WALL (      13 calls)

     Called by sum_band:

     Called by *egterg:
     h_psi        :    448.99s CPU    450.83s WALL (      65 calls)
     g_psi        :      1.91s CPU      1.91s WALL (      51 calls)
     cdiaghg      :      7.90s CPU      7.93s WALL (      64 calls)

     Called by h_psi:
     h_psi:pot    :    445.78s CPU    447.46s WALL (      65 calls)
     h_psi:calbec :     55.45s CPU     56.64s WALL (      65 calls)
     vloc_psi     :    332.00s CPU    332.38s WALL (      65 calls)
     add_vuspsi   :     58.33s CPU     58.44s WALL (      65 calls)

     General routines
     calbec       :     55.45s CPU     56.64s WALL (      65 calls)
     fft          :      1.12s CPU      1.13s WALL (      56 calls)
     fftw         :    340.07s CPU    340.24s WALL (   16977 calls)
 
     Parallel routines
 
     PWSCF        : 14m45.26s CPU    15m 2.48s WALL

 
   This run was terminated on:  13:18:36  28Aug2019            

=------------------------------------------------------------------------------=
   JOB DONE.
=------------------------------------------------------------------------------=
