
     Program PWSCF v.6.2 (svn rev. 14038) starts on 17Sep2019 at 11:58:38 

     This program is part of the open-source Quantum ESPRESSO suite
     for quantum simulation of materials; please cite
         "P. Giannozzi et al., J. Phys.:Condens. Matter 21 395502 (2009);
         "P. Giannozzi et al., J. Phys.:Condens. Matter 29 465901 (2017);
          URL http://www.quantum-espresso.org", 
     in publications or presentations arising from this work. More details at
     http://www.quantum-espresso.org/quote

     Parallel version (MPI), running on    40 processors

     MPI processes distributed on     3 nodes
     K-points division:     npool     =      40
     Reading input from scf.in

     Current dimensions of program PWSCF are:
     Max number of different atomic species (ntypx) = 10
     Max number of k-points (npk) =  40000
     Max angular momentum in pseudopotentials (lmaxx) =  3

     Subspace diagonalization in iterative solution of the eigenvalue problem:
     a serial algorithm will be used

 
     G-vector sticks info
     --------------------
     sticks:   dense  smooth     PW     G-vecs:    dense   smooth      PW
     Sum        7515    7515   2013               485827   485827   67483
 


     bravais-lattice index     =            0
     lattice parameter (alat)  =      13.9065  a.u.
     unit-cell volume          =    2735.6412 (a.u.)^3
     number of atoms/cell      =           32
     number of atomic types    =            2
     number of electrons       =       368.36
     number of Kohn-Sham states=          221
     kinetic-energy cutoff     =     120.0000  Ry
     charge density cutoff     =     480.0000  Ry
     convergence threshold     =      1.0E-08
     mixing beta               =       0.7000
     number of iterations used =            8  plain     mixing
     Exchange-correlation      = SLA PW NOGX NOGC ( 1  4  0  0 0 0)

     celldm(1)=  13.906459  celldm(2)=   0.000000  celldm(3)=   0.000000
     celldm(4)=   0.000000  celldm(5)=   0.000000  celldm(6)=   0.000000

     crystal axes: (cart. coord. in units of alat)
               a(1) = (   1.000000   0.000000   0.000000 )  
               a(2) = (   0.000000   1.017207   0.000000 )  
               a(3) = (   0.000000   0.000000   1.000000 )  

     reciprocal axes: (cart. coord. in units 2 pi/alat)
               b(1) = (  1.000000  0.000000  0.000000 )  
               b(2) = (  0.000000  0.983084  0.000000 )  
               b(3) = (  0.000000  0.000000  1.000000 )  


     PseudoPot. # 1 for W  read from file:
     /cluster/scratch/mnoe/QE/pps/W_ONCV_LDA-4.0.upf
     MD5 check sum: ba0307d5d4cd419d6f1d13dc49d7c13a
     Pseudo is Norm-conserving + core correction, Zval = 28.0
     Generated using ONCVPSP code by D. R. Hamann
     Using radial grid of 1380 points,  8 beta functions with: 
                l(1) =   0
                l(2) =   0
                l(3) =   1
                l(4) =   1
                l(5) =   2
                l(6) =   2
                l(7) =   3
                l(8) =   3

     PseudoPot. # 2 for O  read from file:
     /cluster/scratch/mnoe/QE/pps/O_ONCV_LDA-3.0.upf
     MD5 check sum: ca1549d10c4e927e51167f6fca52ae32
     Pseudo is Norm-conserving + core correction, Zval =  6.0
     Generated using ONCVPSP code by D. R. Hamann
     Using radial grid of  926 points,  5 beta functions with: 
                l(1) =   0
                l(2) =   0
                l(3) =   1
                l(4) =   1
                l(5) =   2

     atomic species   valence    mass     pseudopotential
        W             28.00   183.84000     W ( 1.00)
        O              6.00    15.99940     O ( 1.00)

      8 Sym. Ops. (no inversion) found ( 4 have fractional translation)



   Cartesian axes

     site n.     atom                  positions (alat units)
         1           W   tau(   1) = (   0.2841700   0.2867100   0.2509700  )
         2           W   tau(   2) = (  -0.2509700   0.7304972  -0.7158300  )
         3           W   tau(   3) = (   0.2158300   0.2218936   0.7509700  )
         4           W   tau(   4) = (   0.7509700   0.7953136   0.7841700  )
         5           W   tau(   5) = (   0.7158300   0.2867100   0.7490300  )
         6           W   tau(   6) = (   0.2509700   0.7304972   0.7158300  )
         7           W   tau(   7) = (  -0.2158300   0.2218936  -0.7509700  )
         8           W   tau(   8) = (   0.2490300   0.7953136   0.2158300  )
         9           O   tau(   9) = (   0.2875800   0.0084632   0.2772600  )
        10           O   tau(  10) = (  -0.2772600   1.0087441  -0.7124200  )
        11           O   tau(  11) = (   0.2124200   0.5001404   0.7772600  )
        12           O   tau(  12) = (   0.7772600   0.5170667   0.7875800  )
        13           O   tau(  13) = (   0.7124200   0.0084632   0.7227400  )
        14           O   tau(  14) = (   0.2772600   1.0087441   0.7124200  )
        15           O   tau(  15) = (  -0.2124200   0.5001404  -0.7772600  )
        16           O   tau(  16) = (   0.2227400   0.5170667   0.2124200  )
        17           O   tau(  17) = (   0.4879100   0.2955190   0.6995400  )
        18           O   tau(  18) = (   0.4975100   0.7364579   0.8004600  )
        19           O   tau(  19) = (  -0.9879099   0.2130846   1.1995400  )
        20           O   tau(  20) = (   0.0024899   0.7893528   0.3004600  )
        21           O   tau(  21) = (   0.5120900   0.2955190   0.3004600  )
        22           O   tau(  22) = (   0.5024900   0.7364579   1.1995400  )
        23           O   tau(  23) = (  -0.0120901   0.2130846   0.8004600  )
        24           O   tau(  24) = (  -1.0024900   0.7893528   0.6995400  )
        25           O   tau(  25) = (   0.6995400   0.2278544   2.0024899  )
        26           O   tau(  26) = (   0.3004600   0.7216882   0.4879100  )
        27           O   tau(  27) = (   0.8004600   0.2807492   0.5024900  )
        28           O   tau(  28) = (   0.1995400   0.8041226   1.9879100  )
        29           O   tau(  29) = (   0.3004600   0.2278544   0.9975101  )
        30           O   tau(  30) = (   0.6995400   0.7216882   0.5120900  )
        31           O   tau(  31) = (   0.1995400   0.2807492   0.4975100  )
        32           O   tau(  32) = (   0.8004600   0.8041226   1.0120901  )

     number of k points=    40  gaussian smearing, width (Ry)=  0.0007
                       cart. coord. in units 2pi/alat
        k(    1) = (   0.0000000   0.0000000   0.0000000), wk =   0.0092593
        k(    2) = (   0.0000000   0.0000000   0.1666667), wk =   0.0370370
        k(    3) = (   0.0000000   0.0000000   0.3333333), wk =   0.0370370
        k(    4) = (   0.0000000   0.0000000  -0.5000000), wk =   0.0185185
        k(    5) = (   0.0000000   0.1638473   0.0000000), wk =   0.0185185
        k(    6) = (   0.0000000   0.1638473   0.1666667), wk =   0.0740741
        k(    7) = (   0.0000000   0.1638473   0.3333333), wk =   0.0740741
        k(    8) = (   0.0000000   0.1638473  -0.5000000), wk =   0.0370370
        k(    9) = (   0.0000000   0.3276946   0.0000000), wk =   0.0185185
        k(   10) = (   0.0000000   0.3276946   0.1666667), wk =   0.0740741
        k(   11) = (   0.0000000   0.3276946   0.3333333), wk =   0.0740741
        k(   12) = (   0.0000000   0.3276946  -0.5000000), wk =   0.0370370
        k(   13) = (   0.0000000  -0.4915419   0.0000000), wk =   0.0092593
        k(   14) = (   0.0000000  -0.4915419   0.1666667), wk =   0.0370370
        k(   15) = (   0.0000000  -0.4915419   0.3333333), wk =   0.0370370
        k(   16) = (   0.0000000  -0.4915419  -0.5000000), wk =   0.0185185
        k(   17) = (   0.1666667   0.0000000   0.1666667), wk =   0.0370370
        k(   18) = (   0.1666667   0.0000000   0.3333333), wk =   0.0740741
        k(   19) = (   0.1666667   0.0000000  -0.5000000), wk =   0.0370370
        k(   20) = (   0.1666667   0.1638473   0.1666667), wk =   0.0740741
        k(   21) = (   0.1666667   0.1638473   0.3333333), wk =   0.1481481
        k(   22) = (   0.1666667   0.1638473  -0.5000000), wk =   0.0740741
        k(   23) = (   0.1666667   0.3276946   0.1666667), wk =   0.0740741
        k(   24) = (   0.1666667   0.3276946   0.3333333), wk =   0.1481481
        k(   25) = (   0.1666667   0.3276946  -0.5000000), wk =   0.0740741
        k(   26) = (   0.1666667  -0.4915419   0.1666667), wk =   0.0370370
        k(   27) = (   0.1666667  -0.4915419   0.3333333), wk =   0.0740741
        k(   28) = (   0.1666667  -0.4915419  -0.5000000), wk =   0.0370370
        k(   29) = (   0.3333333   0.0000000   0.3333333), wk =   0.0370370
        k(   30) = (   0.3333333   0.0000000  -0.5000000), wk =   0.0370370
        k(   31) = (   0.3333333   0.1638473   0.3333333), wk =   0.0740741
        k(   32) = (   0.3333333   0.1638473  -0.5000000), wk =   0.0740741
        k(   33) = (   0.3333333   0.3276946   0.3333333), wk =   0.0740741
        k(   34) = (   0.3333333   0.3276946  -0.5000000), wk =   0.0740741
        k(   35) = (   0.3333333  -0.4915419   0.3333333), wk =   0.0370370
        k(   36) = (   0.3333333  -0.4915419  -0.5000000), wk =   0.0370370
        k(   37) = (  -0.5000000   0.0000000  -0.5000000), wk =   0.0092593
        k(   38) = (  -0.5000000   0.1638473  -0.5000000), wk =   0.0185185
        k(   39) = (  -0.5000000   0.3276946  -0.5000000), wk =   0.0185185
        k(   40) = (  -0.5000000  -0.4915419  -0.5000000), wk =   0.0092593

     Dense  grid:   485827 G-vectors     FFT dimensions: ( 100, 100, 100)

     Estimated max dynamical RAM per process >       2.65 GB

     Estimated total dynamical RAM >     105.91 GB

     Initial potential from superposition of free atoms

     starting charge  367.99656, renormalised to  368.36000
     Starting wfc are  232 randomized atomic wfcs

     total cpu time spent up to now is       24.1 secs

     Self-consistent Calculation

     iteration #  1     ecut=   120.00 Ry     beta= 0.70
     Davidson diagonalization with overlap
     ethr =  1.00E-02,  avg # of iterations =  4.5

     total cpu time spent up to now is      105.7 secs

     total energy              =   -6253.62403184 Ry
     Harris-Foulkes estimate   =   -6264.24529179 Ry
     estimated scf accuracy    <      13.41322723 Ry

     iteration #  2     ecut=   120.00 Ry     beta= 0.70
     Davidson diagonalization with overlap
     ethr =  3.64E-03,  avg # of iterations =  3.5

     total cpu time spent up to now is      185.3 secs

     total energy              =   -6250.34278368 Ry
     Harris-Foulkes estimate   =   -6270.35588349 Ry
     estimated scf accuracy    <      53.75340844 Ry

     iteration #  3     ecut=   120.00 Ry     beta= 0.70
     Davidson diagonalization with overlap
     ethr =  3.64E-03,  avg # of iterations =  3.2

     total cpu time spent up to now is      261.4 secs

     total energy              =   -6260.74424763 Ry
     Harris-Foulkes estimate   =   -6261.02004547 Ry
     estimated scf accuracy    <       0.90202545 Ry

     iteration #  4     ecut=   120.00 Ry     beta= 0.70
     Davidson diagonalization with overlap
     ethr =  2.45E-04,  avg # of iterations =  2.2

     total cpu time spent up to now is      322.2 secs

     total energy              =   -6260.74191736 Ry
     Harris-Foulkes estimate   =   -6260.81298967 Ry
     estimated scf accuracy    <       0.22188054 Ry

     iteration #  5     ecut=   120.00 Ry     beta= 0.70
     Davidson diagonalization with overlap
     ethr =  6.02E-05,  avg # of iterations =  5.5

     total cpu time spent up to now is      390.5 secs

     total energy              =   -6260.74404044 Ry
     Harris-Foulkes estimate   =   -6260.77505636 Ry
     estimated scf accuracy    <       0.06764692 Ry

     iteration #  6     ecut=   120.00 Ry     beta= 0.70
     Davidson diagonalization with overlap
     ethr =  1.84E-05,  avg # of iterations =  4.6

     total cpu time spent up to now is      462.2 secs

     total energy              =   -6260.75927205 Ry
     Harris-Foulkes estimate   =   -6260.76174780 Ry
     estimated scf accuracy    <       0.00671884 Ry

     iteration #  7     ecut=   120.00 Ry     beta= 0.70
     Davidson diagonalization with overlap
     ethr =  1.82E-06,  avg # of iterations =  3.8

     total cpu time spent up to now is      526.1 secs

     total energy              =   -6260.76006424 Ry
     Harris-Foulkes estimate   =   -6260.76018270 Ry
     estimated scf accuracy    <       0.00022945 Ry

     iteration #  8     ecut=   120.00 Ry     beta= 0.70
     Davidson diagonalization with overlap
     ethr =  6.23E-08,  avg # of iterations =  3.0

     total cpu time spent up to now is      605.4 secs

     total energy              =   -6260.76014354 Ry
     Harris-Foulkes estimate   =   -6260.76015339 Ry
     estimated scf accuracy    <       0.00003406 Ry

     iteration #  9     ecut=   120.00 Ry     beta= 0.70
     Davidson diagonalization with overlap
     ethr =  9.25E-09,  avg # of iterations =  2.0

     total cpu time spent up to now is      668.9 secs

     total energy              =   -6260.76014446 Ry
     Harris-Foulkes estimate   =   -6260.76014909 Ry
     estimated scf accuracy    <       0.00001770 Ry

     iteration # 10     ecut=   120.00 Ry     beta= 0.70
     Davidson diagonalization with overlap
     ethr =  4.81E-09,  avg # of iterations =  2.0

     total cpu time spent up to now is      729.5 secs

     total energy              =   -6260.76014429 Ry
     Harris-Foulkes estimate   =   -6260.76014605 Ry
     estimated scf accuracy    <       0.00000414 Ry

     iteration # 11     ecut=   120.00 Ry     beta= 0.70
     Davidson diagonalization with overlap
     ethr =  1.12E-09,  avg # of iterations =  3.0

     total cpu time spent up to now is      793.5 secs

     total energy              =   -6260.76014515 Ry
     Harris-Foulkes estimate   =   -6260.76014518 Ry
     estimated scf accuracy    <       0.00000006 Ry

     iteration # 12     ecut=   120.00 Ry     beta= 0.70
     Davidson diagonalization with overlap
     ethr =  1.71E-11,  avg # of iterations =  2.0

     total cpu time spent up to now is      870.9 secs

     End of self-consistent calculation

          k = 0.0000 0.0000 0.0000 ( 60773 PWs)   bands (ev):

   -65.6348 -65.6340 -65.6339 -65.6338 -65.6331 -65.6331 -65.6329 -65.6322
   -30.1810 -30.1777 -30.1749 -30.1749 -30.0963 -30.0963 -30.0954 -30.0880
   -29.9962 -29.9893 -29.9893 -29.9823 -29.9173 -29.9138 -29.9138 -29.9093
   -29.9030 -29.9013 -29.8931 -29.8931 -29.8215 -29.8215 -29.8168 -29.8150
   -19.7809 -19.7807 -19.7806 -19.7806 -19.7794 -19.7794 -19.7793 -19.7791
   -19.7703 -19.7703 -19.7703 -19.7702 -19.7687 -19.7685 -19.7684 -19.7684
   -19.7648 -19.7647 -19.7645 -19.7645 -19.7614 -19.7614 -19.7612 -19.7610
   -19.7483 -19.7479 -19.7479 -19.7475 -19.7457 -19.7453 -19.7453 -19.7452
   -19.7432 -19.7431 -19.7431 -19.7427 -19.7419 -19.7412 -19.7412 -19.7408
   -19.7388 -19.7385 -19.7385 -19.7384 -19.7351 -19.7350 -19.7349 -19.7344
   -19.7313 -19.7309 -19.7306 -19.7306 -19.7286 -19.7286 -19.7283 -19.7279
    -9.5602  -9.2130  -9.1409  -9.1409  -8.6645  -8.6645  -8.6425  -8.5235
    -8.3635  -8.2695  -8.2695  -8.2686  -7.7213  -7.6506  -7.5351  -7.5351
    -7.3640  -7.2919  -7.2919  -7.2375  -7.2272  -7.2087  -7.0825  -7.0825
     1.7712   1.8278   1.8444   1.8444   2.0224   2.0501   2.0654   2.0654
     2.2459   2.2459   2.3584   2.5257   2.7527   2.8351   2.9246   3.0795
     3.0967   3.0967   4.6012   4.6012   4.8284   4.9959   4.9982   5.0184
     5.0185   5.1489   5.1695   5.1695   5.5552   5.5700   5.5700   5.7352
     5.7514   5.8171   5.8399   5.8400   6.0966   6.0966   6.1261   6.1451
     6.1684   6.1684   6.1897   6.3067   6.3123   6.3123   6.4486   6.4766
     6.6284   6.7352   6.8011   6.8011   6.9649   7.0365   7.2244   7.2244
     7.2429   7.3820   7.4005   7.4023   7.4023   7.5517   7.5517   7.6076
     7.9010   7.9010   8.0374   8.1012   8.2325   8.3597   8.3597   8.5408
    10.4168  10.5878  10.7225  10.7225  10.7625  10.8329  12.5192  12.5628
    12.5628  12.7580  12.7580  12.8627  13.0838  13.3063  13.3063  13.4438
    13.5125  13.6488  13.6581  13.6581  14.1027  14.1027  14.1090  14.3947
    15.1428  15.3108  15.3108  15.3308  15.6978  16.0936  16.2562  16.2892
    16.2892  17.0398  17.2972  17.2972  18.1000

          k = 0.0000 0.0000 0.1667 ( 60761 PWs)   bands (ev):

   -65.6347 -65.6339 -65.6339 -65.6338 -65.6331 -65.6330 -65.6330 -65.6322
   -30.1796 -30.1752 -30.1732 -30.1693 -30.1017 -30.0989 -30.0960 -30.0902
   -29.9959 -29.9899 -29.9890 -29.9829 -29.9172 -29.9140 -29.9136 -29.9096
   -29.9018 -29.8964 -29.8938 -29.8880 -29.8269 -29.8213 -29.8211 -29.8161
   -19.7808 -19.7807 -19.7806 -19.7805 -19.7794 -19.7794 -19.7793 -19.7791
   -19.7703 -19.7702 -19.7701 -19.7701 -19.7687 -19.7686 -19.7685 -19.7684
   -19.7647 -19.7645 -19.7645 -19.7643 -19.7617 -19.7614 -19.7614 -19.7611
   -19.7483 -19.7479 -19.7479 -19.7475 -19.7457 -19.7453 -19.7452 -19.7451
   -19.7433 -19.7433 -19.7431 -19.7428 -19.7418 -19.7412 -19.7412 -19.7408
   -19.7387 -19.7385 -19.7382 -19.7382 -19.7352 -19.7351 -19.7349 -19.7345
   -19.7313 -19.7308 -19.7306 -19.7305 -19.7289 -19.7286 -19.7285 -19.7280
    -9.5173  -9.1634  -9.1589  -9.0799  -8.6827  -8.6549  -8.6153  -8.5074
    -8.3333  -8.2807  -8.2368  -8.2212  -7.7855  -7.6692  -7.6342  -7.5430
    -7.3641  -7.3235  -7.2975  -7.2874  -7.2422  -7.2074  -7.1840  -7.0909
     1.8004   1.8366   1.9722   2.0050   2.0481   2.0620   2.0634   2.1500
     2.2498   2.4335   2.4745   2.6593   2.8167   2.8950   3.0117   3.0868
     3.1309   3.1886   4.4708   4.5907   4.6337   4.7451   4.7891   4.9644
     5.0166   5.0861   5.1299   5.1712   5.3111   5.5292   5.6330   5.6650
     5.7252   5.8098   5.8559   5.8889   5.9998   6.0087   6.0599   6.0912
     6.1552   6.1616   6.2042   6.2296   6.2878   6.2944   6.3981   6.5353
     6.6230   6.7686   6.7764   6.8915   7.0268   7.1077   7.1510   7.2141
     7.2358   7.2994   7.3166   7.3905   7.4490   7.5406   7.5484   7.6241
     7.7667   7.8022   8.0654   8.1198   8.2282   8.3361   8.3745   8.5348
    10.5414  10.7185  10.7266  10.8464  10.9794  11.0779  12.5320  12.5497
    12.5935  12.6958  12.8132  12.9137  13.1128  13.2135  13.3265  13.4521
    13.5422  13.6015  13.6706  13.6750  14.0169  14.1076  14.1764  14.3297
    15.1465  15.3004  15.3660  15.4034  15.7154  16.1448  16.1859  16.2761
    16.4760  17.1248  17.1822  17.4462  18.1533

          k = 0.0000 0.0000 0.3333 ( 60754 PWs)   bands (ev):

   -65.6345 -65.6341 -65.6338 -65.6336 -65.6333 -65.6332 -65.6329 -65.6324
   -30.1784 -30.1761 -30.1582 -30.1539 -30.1166 -30.1127 -30.0950 -30.0923
   -29.9949 -29.9914 -29.9879 -29.9845 -29.9166 -29.9148 -29.9129 -29.9106
   -29.9002 -29.8957 -29.8816 -29.8740 -29.8415 -29.8354 -29.8202 -29.8173
   -19.7808 -19.7807 -19.7804 -19.7802 -19.7797 -19.7795 -19.7793 -19.7792
   -19.7703 -19.7703 -19.7698 -19.7697 -19.7690 -19.7688 -19.7686 -19.7685
   -19.7647 -19.7645 -19.7640 -19.7638 -19.7624 -19.7621 -19.7613 -19.7612
   -19.7482 -19.7480 -19.7478 -19.7476 -19.7455 -19.7454 -19.7448 -19.7448
   -19.7437 -19.7437 -19.7431 -19.7429 -19.7417 -19.7414 -19.7411 -19.7409
   -19.7386 -19.7385 -19.7374 -19.7374 -19.7357 -19.7356 -19.7349 -19.7347
   -19.7311 -19.7307 -19.7305 -19.7302 -19.7294 -19.7290 -19.7285 -19.7281
    -9.4136  -9.2126  -9.0284  -8.9300  -8.7434  -8.6962  -8.4776  -8.4565
    -8.3147  -8.2711  -8.1019  -8.0652  -8.0008  -7.8912  -7.6668  -7.5643
    -7.5635  -7.4390  -7.3490  -7.3124  -7.2862  -7.2548  -7.1817  -7.1144
     1.8088   1.8224   2.0441   2.0457   2.0536   2.0573   2.2443   2.2610
     2.6931   2.8993   2.9137   2.9976   3.0809   3.1031   3.1943   3.2567
     3.3239   3.4308   4.0603   4.1730   4.3211   4.3742   4.3751   4.7324
     4.8510   4.8843   5.0482   5.0594   5.1385   5.1705   5.4101   5.4574
     5.6743   5.6809   5.6876   5.8243   5.8835   5.8940   5.9982   6.1037
     6.1092   6.2192   6.2485   6.2785   6.2851   6.3653   6.3992   6.6081
     6.6212   6.6674   6.7788   6.8967   6.9456   7.0013   7.1279   7.1355
     7.2172   7.3563   7.3817   7.4527   7.5075   7.5532   7.5834   7.6499
     7.7541   7.8284   8.0323   8.1098   8.1825   8.2476   8.4130   8.5024
    10.6318  10.7024  11.1587  11.3391  11.4263  11.6918  12.2712  12.3472
    12.5558  12.6740  12.7852  12.9644  12.9861  13.1966  13.3593  13.3824
    13.5267  13.5880  13.6428  13.7434  13.9600  14.0971  14.1260  14.2392
    15.1886  15.2710  15.5073  15.6316  16.0138  16.0184  16.1723  16.3579
    16.7674  17.0759  17.6390  17.6713  17.9104

          k = 0.0000 0.0000-0.5000 ( 60712 PWs)   bands (ev):

   -65.6343 -65.6343 -65.6335 -65.6335 -65.6334 -65.6334 -65.6326 -65.6326
   -30.1772 -30.1772 -30.1373 -30.1373 -30.1331 -30.1331 -30.0937 -30.0937
   -29.9933 -29.9933 -29.9864 -29.9864 -29.9157 -29.9157 -29.9118 -29.9118
   -29.8980 -29.8980 -29.8616 -29.8615 -29.8547 -29.8547 -29.8188 -29.8188
   -19.7807 -19.7807 -19.7800 -19.7800 -19.7798 -19.7798 -19.7793 -19.7793
   -19.7703 -19.7703 -19.7694 -19.7694 -19.7692 -19.7692 -19.7685 -19.7685
   -19.7646 -19.7646 -19.7632 -19.7632 -19.7629 -19.7629 -19.7612 -19.7612
   -19.7481 -19.7481 -19.7477 -19.7477 -19.7454 -19.7454 -19.7443 -19.7443
   -19.7443 -19.7443 -19.7430 -19.7430 -19.7415 -19.7415 -19.7410 -19.7410
   -19.7386 -19.7385 -19.7365 -19.7365 -19.7365 -19.7364 -19.7348 -19.7348
   -19.7309 -19.7309 -19.7300 -19.7300 -19.7296 -19.7296 -19.7283 -19.7283
    -9.3006  -9.3006  -8.8633  -8.8633  -8.7828  -8.7828  -8.3775  -8.3775
    -8.2552  -8.2552  -8.1506  -8.1506  -7.8585  -7.8585  -7.8091  -7.8091
    -7.5809  -7.5809  -7.3323  -7.3323  -7.2716  -7.2716  -7.1474  -7.1474
     1.8132   1.8132   2.0463   2.0463   2.0564   2.0564   2.2708   2.2708
     2.9769   2.9769   3.3581   3.3581   3.4887   3.4887   3.5879   3.5880
     3.6498   3.6498   3.7714   3.7714   3.9784   3.9785   4.1309   4.1309
     4.3516   4.3516   4.9797   4.9797   5.0717   5.0717   5.5134   5.5135
     5.5898   5.5898   5.7147   5.7147   5.8449   5.8449   6.0659   6.0659
     6.1624   6.1624   6.2843   6.2843   6.3209   6.3209   6.5212   6.5212
     6.6829   6.6829   6.7712   6.7713   6.9348   6.9348   7.0708   7.0708
     7.3091   7.3091   7.3841   7.3842   7.4700   7.4700   7.8616   7.8616
     7.9338   7.9338   8.0217   8.0217   8.0807   8.0807   8.4544   8.4544
    10.6727  10.6727  11.7402  11.7402  11.9213  11.9213  12.0106  12.0106
    12.3703  12.3703  12.7696  12.7696  13.2156  13.2156  13.3513  13.3513
    13.4650  13.4650  13.8000  13.8000  13.9080  13.9080  14.1677  14.1677
    15.2299  15.2299  15.7524  15.7524  15.9397  15.9397  16.4367  16.4367
    16.9269  16.9269  17.9374  17.9374  18.3496

          k = 0.0000 0.1638 0.0000 ( 60765 PWs)   bands (ev):

   -65.6347 -65.6340 -65.6338 -65.6338 -65.6331 -65.6331 -65.6329 -65.6322
   -30.1808 -30.1779 -30.1749 -30.1749 -30.0961 -30.0961 -30.0947 -30.0884
   -29.9910 -29.9845 -29.9844 -29.9777 -29.9226 -29.9189 -29.9189 -29.9145
   -29.9030 -29.9014 -29.8933 -29.8933 -29.8215 -29.8215 -29.8166 -29.8151
   -19.7809 -19.7807 -19.7806 -19.7806 -19.7794 -19.7794 -19.7793 -19.7791
   -19.7703 -19.7703 -19.7703 -19.7702 -19.7687 -19.7685 -19.7684 -19.7684
   -19.7648 -19.7647 -19.7645 -19.7645 -19.7614 -19.7614 -19.7612 -19.7610
   -19.7479 -19.7475 -19.7475 -19.7471 -19.7457 -19.7453 -19.7453 -19.7452
   -19.7432 -19.7432 -19.7431 -19.7427 -19.7422 -19.7416 -19.7416 -19.7412
   -19.7388 -19.7385 -19.7385 -19.7384 -19.7351 -19.7350 -19.7350 -19.7345
   -19.7313 -19.7309 -19.7306 -19.7306 -19.7286 -19.7286 -19.7283 -19.7279
    -9.5260  -9.2277  -9.1103  -9.1103  -8.6448  -8.6448  -8.5649  -8.4905
    -8.3637  -8.2563  -8.2506  -8.2506  -7.7279  -7.6517  -7.5456  -7.5456
    -7.4523  -7.3837  -7.3837  -7.3494  -7.2265  -7.2105  -7.0829  -7.0829
     1.7852   1.8227   1.8511   1.8511   2.1516   2.1547   2.1547   2.2528
     2.3587   2.3649   2.3649   2.6109   2.7797   2.8949   2.9144   3.1817
     3.1821   3.1821   4.4836   4.4836   4.6165   4.6713   4.8495   4.9954
     4.9954   5.1767   5.1767   5.2403   5.4483   5.4483   5.5449   5.7509
     5.7618   5.7833   5.7833   5.8493   5.9701   5.9701   6.0111   6.0986
     6.1799   6.1799   6.1960   6.2721   6.2721   6.3226   6.4724   6.5002
     6.6055   6.7295   6.9184   6.9184   6.9606   6.9785   7.2141   7.2141
     7.2542   7.3904   7.3904   7.3980   7.4331   7.5209   7.5407   7.5407
     7.8987   7.8987   8.0362   8.0947   8.2397   8.3565   8.3565   8.4785
    10.4849  10.5978  10.8730  10.8730  10.9130  10.9630  12.5288  12.5639
    12.5639  12.7509  12.7509  12.8562  12.9562  13.2780  13.2781  13.3721
    13.4414  13.6044  13.6044  13.6802  14.0815  14.0816  14.1578  14.3238
    15.1772  15.3869  15.3869  15.5254  15.6772  16.0585  16.3013  16.3013
    16.6155  16.8700  17.4340  17.4340  18.0902

          k = 0.0000 0.1638 0.1667 ( 60733 PWs)   bands (ev):

   -65.6346 -65.6340 -65.6339 -65.6337 -65.6332 -65.6331 -65.6329 -65.6323
   -30.1794 -30.1752 -30.1733 -30.1692 -30.1015 -30.0984 -30.0958 -30.0904
   -29.9907 -29.9850 -29.9841 -29.9783 -29.9224 -29.9191 -29.9187 -29.9148
   -29.9018 -29.8965 -29.8940 -29.8881 -29.8269 -29.8212 -29.8211 -29.8161
   -19.7808 -19.7807 -19.7806 -19.7805 -19.7794 -19.7794 -19.7793 -19.7792
   -19.7703 -19.7702 -19.7701 -19.7701 -19.7687 -19.7686 -19.7685 -19.7684
   -19.7647 -19.7645 -19.7645 -19.7643 -19.7617 -19.7614 -19.7614 -19.7611
   -19.7479 -19.7475 -19.7475 -19.7471 -19.7457 -19.7453 -19.7452 -19.7451
   -19.7434 -19.7433 -19.7432 -19.7428 -19.7422 -19.7416 -19.7416 -19.7412
   -19.7387 -19.7385 -19.7382 -19.7382 -19.7352 -19.7351 -19.7349 -19.7346
   -19.7312 -19.7309 -19.7306 -19.7305 -19.7289 -19.7286 -19.7284 -19.7280
    -9.4823  -9.1778  -9.1278  -9.0452  -8.6648  -8.5958  -8.5768  -8.4734
    -8.3331  -8.2605  -8.2272  -8.2074  -7.7883  -7.6726  -7.6383  -7.5530
    -7.4536  -7.3983  -7.3907  -7.3541  -7.3109  -7.2081  -7.1826  -7.0914
     1.8114   1.8439   2.0061   2.0464   2.1586   2.1785   2.2618   2.2701
     2.3689   2.4619   2.4942   2.7035   2.8586   2.9443   3.0012   3.1705
     3.2341   3.2712   4.4081   4.4820   4.5955   4.6086   4.7470   4.7772
     4.8504   5.0255   5.1245   5.1549   5.2485   5.4475   5.5823   5.5950
     5.6796   5.7541   5.8209   5.9110   5.9193   5.9579   5.9923   6.0297
     6.0782   6.1283   6.1649   6.1818   6.2706   6.2850   6.4078   6.4944
     6.6750   6.7633   6.8959   6.9481   7.0270   7.0937   7.1494   7.2277
     7.2409   7.3018   7.3521   7.4147   7.4499   7.5115   7.5489   7.6091
     7.7519   7.8117   8.0612   8.1148   8.2403   8.3326   8.3628   8.4762
    10.6428  10.7641  10.8721  10.9933  11.0558  11.1794  12.5369  12.5493
    12.6072  12.7059  12.8045  12.9138  12.9898  13.2023  13.2892  13.3886
    13.4236  13.5533  13.6163  13.6842  14.0009  14.0854  14.1800  14.2764
    15.2055  15.3765  15.4796  15.5748  15.7010  16.1191  16.2572  16.4832
    16.5914  17.0102  17.2549  17.5538  18.1426

          k = 0.0000 0.1638 0.3333 ( 60754 PWs)   bands (ev):

   -65.6345 -65.6340 -65.6338 -65.6336 -65.6334 -65.6331 -65.6329 -65.6325
   -30.1783 -30.1760 -30.1582 -30.1539 -30.1165 -30.1124 -30.0948 -30.0922
   -29.9897 -29.9864 -29.9831 -29.9798 -29.9219 -29.9199 -29.9180 -29.9157
   -29.9002 -29.8958 -29.8817 -29.8740 -29.8415 -29.8354 -29.8202 -29.8173
   -19.7808 -19.7807 -19.7804 -19.7802 -19.7797 -19.7795 -19.7793 -19.7792
   -19.7703 -19.7703 -19.7698 -19.7697 -19.7690 -19.7688 -19.7686 -19.7685
   -19.7647 -19.7645 -19.7640 -19.7638 -19.7624 -19.7621 -19.7613 -19.7612
   -19.7478 -19.7476 -19.7474 -19.7472 -19.7456 -19.7454 -19.7448 -19.7448
   -19.7438 -19.7437 -19.7431 -19.7430 -19.7420 -19.7417 -19.7415 -19.7413
   -19.7386 -19.7385 -19.7375 -19.7374 -19.7357 -19.7356 -19.7349 -19.7347
   -19.7311 -19.7307 -19.7306 -19.7302 -19.7294 -19.7289 -19.7285 -19.7282
    -9.3779  -9.1805  -9.0391  -8.8807  -8.7322  -8.6207  -8.4617  -8.4213
    -8.2920  -8.2679  -8.1000  -8.0622  -8.0003  -7.8919  -7.6736  -7.5823
    -7.5582  -7.4575  -7.4334  -7.4021  -7.3852  -7.3505  -7.1823  -7.1149
     1.8204   1.8314   2.1642   2.1815   2.2227   2.2432   2.3360   2.3663
     2.6947   2.9127   2.9939   3.0013   3.1142   3.1399   3.2114   3.2498
     3.4232   3.5028   4.0647   4.1913   4.3036   4.3449   4.3863   4.7067
     4.7393   4.7956   4.8555   4.9123   5.0900   5.1012   5.3039   5.4010
     5.4859   5.5625   5.6431   5.7698   5.8495   5.8879   5.9316   6.0317
     6.0437   6.0692   6.1762   6.2042   6.2717   6.2965   6.4099   6.4651
     6.7230   6.7921   6.7996   6.9501   7.0273   7.1018   7.1689   7.2023
     7.2565   7.3035   7.3813   7.4471   7.5049   7.5641   7.5839   7.6653
     7.7593   7.8491   8.0288   8.1085   8.2038   8.2470   8.3850   8.4514
    10.7904  10.8573  11.2027  11.4194  11.4772  11.7376  12.2871  12.3784
    12.5819  12.6910  12.7988  12.9713  12.9760  13.0707  13.2555  13.3324
    13.4790  13.5299  13.5724  13.6837  13.8914  14.0400  14.1038  14.2230
    15.2567  15.3429  15.6507  15.8164  16.0023  16.1560  16.3675  16.4918
    16.8441  17.0832  17.4482  17.7641  17.9435

          k = 0.0000 0.1638-0.5000 ( 60716 PWs)   bands (ev):

   -65.6343 -65.6343 -65.6336 -65.6336 -65.6333 -65.6333 -65.6327 -65.6327
   -30.1772 -30.1772 -30.1373 -30.1372 -30.1330 -30.1330 -30.0936 -30.0936
   -29.9882 -29.9882 -29.9816 -29.9816 -29.9209 -29.9209 -29.9169 -29.9169
   -29.8981 -29.8981 -29.8616 -29.8616 -29.8548 -29.8547 -29.8188 -29.8188
   -19.7807 -19.7807 -19.7800 -19.7800 -19.7798 -19.7798 -19.7793 -19.7793
   -19.7703 -19.7703 -19.7694 -19.7694 -19.7692 -19.7692 -19.7685 -19.7685
   -19.7646 -19.7646 -19.7632 -19.7632 -19.7629 -19.7629 -19.7613 -19.7613
   -19.7477 -19.7477 -19.7473 -19.7473 -19.7455 -19.7454 -19.7443 -19.7443
   -19.7443 -19.7443 -19.7431 -19.7431 -19.7419 -19.7419 -19.7414 -19.7414
   -19.7386 -19.7385 -19.7365 -19.7365 -19.7364 -19.7364 -19.7348 -19.7348
   -19.7309 -19.7309 -19.7301 -19.7301 -19.7296 -19.7296 -19.7283 -19.7283
    -9.2665  -9.2665  -8.8640  -8.8640  -8.7148  -8.7148  -8.3459  -8.3459
    -8.2519  -8.2519  -8.1499  -8.1499  -7.8603  -7.8603  -7.8132  -7.8131
    -7.5859  -7.5859  -7.4227  -7.4227  -7.3734  -7.3734  -7.1479  -7.1479
     1.8239   1.8239   2.1765   2.1765   2.2396   2.2396   2.3706   2.3706
     3.0546   3.0546   3.3675   3.3675   3.4832   3.4832   3.6306   3.6307
     3.6606   3.6607   3.7760   3.7760   4.0028   4.0028   4.1660   4.1660
     4.3553   4.3553   4.7726   4.7726   4.9772   4.9772   5.2689   5.2689
     5.5293   5.5294   5.6731   5.6731   5.7751   5.7751   6.0145   6.0145
     6.0556   6.0556   6.1626   6.1626   6.3137   6.3137   6.4194   6.4194
     6.7347   6.7347   6.9227   6.9228   7.0231   7.0231   7.1582   7.1582
     7.3074   7.3074   7.3316   7.3316   7.5097   7.5097   7.8595   7.8596
     7.9292   7.9292   8.0441   8.0442   8.0938   8.0938   8.4140   8.4140
    10.8351  10.8351  11.7690  11.7690  11.9760  11.9760  12.0447  12.0447
    12.3932  12.3932  12.7902  12.7903  13.1234  13.1234  13.3094  13.3094
    13.4150  13.4150  13.6881  13.6881  13.8516  13.8516  14.1452  14.1452
    15.2945  15.2945  15.8529  15.8529  16.2257  16.2257  16.5078  16.5079
    16.9532  16.9532  17.9051  17.9051  18.2382

          k = 0.0000 0.3277 0.0000 ( 60741 PWs)   bands (ev):

   -65.6346 -65.6342 -65.6337 -65.6337 -65.6333 -65.6333 -65.6327 -65.6324
   -30.1801 -30.1784 -30.1748 -30.1748 -30.0957 -30.0957 -30.0929 -30.0894
   -29.9767 -29.9710 -29.9710 -29.9649 -29.9371 -29.9328 -29.9328 -29.9283
   -29.9027 -29.9018 -29.8935 -29.8935 -29.8215 -29.8215 -29.8163 -29.8154
   -19.7808 -19.7807 -19.7806 -19.7806 -19.7794 -19.7794 -19.7792 -19.7791
   -19.7703 -19.7703 -19.7702 -19.7702 -19.7686 -19.7686 -19.7684 -19.7684
   -19.7647 -19.7647 -19.7645 -19.7645 -19.7614 -19.7614 -19.7612 -19.7611
   -19.7470 -19.7465 -19.7465 -19.7459 -19.7458 -19.7453 -19.7453 -19.7450
   -19.7435 -19.7434 -19.7434 -19.7432 -19.7427 -19.7424 -19.7424 -19.7422
   -19.7387 -19.7385 -19.7385 -19.7385 -19.7350 -19.7350 -19.7350 -19.7346
   -19.7313 -19.7310 -19.7306 -19.7306 -19.7287 -19.7287 -19.7282 -19.7280
    -9.4416  -9.2724  -9.0522  -9.0522  -8.5942  -8.5942  -8.4177  -8.3658
    -8.3474  -8.1865  -8.1690  -8.1690  -7.8036  -7.6894  -7.6894  -7.6541
    -7.6349  -7.6142  -7.4945  -7.4945  -7.2241  -7.2148  -7.0838  -7.0838
     1.7958   1.8121   1.8535   1.8535   2.1843   2.1843   2.3150   2.3583
     2.7298   2.8138   2.8728   2.8728   2.8878   3.0660   3.0909   3.4528
     3.4528   3.5245   4.1118   4.1550   4.1550   4.1868   4.4819   4.9286
     4.9286   5.0249   5.0250   5.2085   5.2085   5.2270   5.3872   5.5444
     5.5798   5.5798   5.6636   5.7867   5.8676   5.8676   5.8952   6.0982
     6.1322   6.1900   6.1900   6.2561   6.2561   6.3385   6.4443   6.4638
     6.7427   6.7802   6.8801   6.9227   6.9227   7.0188   7.3148   7.3148
     7.3722   7.3866   7.4332   7.4332   7.5047   7.5260   7.5753   7.5753
     7.9067   7.9067   8.0222   8.0797   8.2004   8.2843   8.2843   8.3031
    10.5721  10.6035  11.2495  11.2850  11.2850  11.4596  12.4790  12.4790
    12.5246  12.5477  12.6749  12.6749  12.9049  13.0185  13.2264  13.2264
    13.4713  13.5776  13.5776  13.6814  13.9268  13.9268  14.1307  14.1757
    15.3108  15.5663  15.5663  15.6200  15.9739  16.2589  16.3241  16.3241
    16.5013  17.4555  17.7554  17.8975  17.8976

          k = 0.0000 0.3277 0.1667 ( 60702 PWs)   bands (ev):

   -65.6345 -65.6341 -65.6337 -65.6336 -65.6333 -65.6332 -65.6328 -65.6324
   -30.1791 -30.1751 -30.1735 -30.1691 -30.1012 -30.0972 -30.0954 -30.0909
   -29.9764 -29.9715 -29.9707 -29.9654 -29.9369 -29.9331 -29.9326 -29.9287
   -29.9018 -29.8967 -29.8941 -29.8883 -29.8269 -29.8212 -29.8211 -29.8162
   -19.7808 -19.7807 -19.7806 -19.7805 -19.7794 -19.7794 -19.7793 -19.7792
   -19.7703 -19.7702 -19.7701 -19.7701 -19.7687 -19.7686 -19.7685 -19.7684
   -19.7647 -19.7645 -19.7645 -19.7643 -19.7617 -19.7614 -19.7614 -19.7611
   -19.7470 -19.7465 -19.7465 -19.7460 -19.7458 -19.7453 -19.7452 -19.7449
   -19.7436 -19.7435 -19.7434 -19.7431 -19.7428 -19.7424 -19.7424 -19.7422
   -19.7386 -19.7385 -19.7383 -19.7382 -19.7352 -19.7351 -19.7350 -19.7347
   -19.7312 -19.7310 -19.7306 -19.7305 -19.7289 -19.7286 -19.7284 -19.7281
    -9.3966  -9.2214  -9.0684  -8.9785  -8.6195  -8.5385  -8.3949  -8.3598
    -8.3324  -8.1760  -8.1695  -8.1427  -7.8283  -7.7189  -7.7051  -7.6843
    -7.6481  -7.6183  -7.5713  -7.5028  -7.3138  -7.2094  -7.1829  -7.0923
     1.8150   1.8465   2.0100   2.0598   2.1897   2.3697   2.3895   2.5381
     2.7450   2.8572   2.8718   2.9139   2.9743   3.0611   3.1488   3.4334
     3.5235   3.5750   4.1279   4.1374   4.1673   4.2503   4.4460   4.7174
     4.7640   4.9131   4.9858   4.9960   5.1541   5.2464   5.3111   5.3569
     5.5146   5.5501   5.6021   5.6907   5.7874   5.8258   5.9791   5.9964
     6.0920   6.0962   6.1152   6.1447   6.1743   6.2641   6.3577   6.4466
     6.7881   6.8370   6.8932   6.9641   7.0579   7.1241   7.1554   7.3344
     7.3969   7.4287   7.4391   7.4748   7.5249   7.5482   7.5831   7.6236
     7.7662   7.8271   8.0418   8.1012   8.2054   8.2689   8.2811   8.3085
    10.7667  10.8234  11.2816  11.3173  11.4114  11.5698  12.4574  12.5172
    12.5582  12.5909  12.6825  12.7389  12.9757  13.0415  13.1573  13.2423
    13.3524  13.5194  13.5874  13.6649  13.8312  13.9302  14.0805  14.1743
    15.3508  15.5443  15.6473  15.7432  16.0383  16.2947  16.3152  16.5141
    16.6455  17.4225  17.6712  17.8095  17.9746

          k = 0.0000 0.3277 0.3333 ( 60719 PWs)   bands (ev):

   -65.6343 -65.6340 -65.6339 -65.6335 -65.6334 -65.6330 -65.6330 -65.6326
   -30.1782 -30.1759 -30.1581 -30.1537 -30.1163 -30.1120 -30.0945 -30.0921
   -29.9755 -29.9727 -29.9698 -29.9667 -29.9363 -29.9341 -29.9320 -29.9297
   -29.9003 -29.8959 -29.8818 -29.8741 -29.8416 -29.8354 -29.8202 -29.8174
   -19.7808 -19.7807 -19.7804 -19.7802 -19.7797 -19.7795 -19.7793 -19.7793
   -19.7703 -19.7703 -19.7698 -19.7697 -19.7690 -19.7688 -19.7686 -19.7685
   -19.7647 -19.7645 -19.7640 -19.7638 -19.7624 -19.7621 -19.7613 -19.7612
   -19.7469 -19.7466 -19.7464 -19.7461 -19.7456 -19.7454 -19.7448 -19.7447
   -19.7439 -19.7438 -19.7433 -19.7430 -19.7430 -19.7426 -19.7424 -19.7423
   -19.7386 -19.7385 -19.7375 -19.7374 -19.7357 -19.7356 -19.7349 -19.7348
   -19.7310 -19.7307 -19.7306 -19.7302 -19.7294 -19.7289 -19.7285 -19.7282
    -9.2961  -9.1184  -9.0691  -8.7790  -8.7045  -8.4201  -8.3900  -8.3304
    -8.2577  -8.1945  -8.0832  -8.0434  -8.0027  -7.9023  -7.7537  -7.7114
    -7.6554  -7.6333  -7.5985  -7.5480  -7.5178  -7.4195  -7.1833  -7.1158
     1.8248   1.8349   2.2029   2.2127   2.5962   2.6834   2.7553   2.8503
     2.9223   2.9809   3.0318   3.1415   3.1695   3.2187   3.2926   3.4115
     3.6928   3.7209   4.0396   4.1129   4.1311   4.2166   4.2855   4.4298
     4.4524   4.6011   4.6572   4.8448   4.9089   5.0155   5.0704   5.0896
     5.2966   5.3947   5.4218   5.5231   5.5810   5.6979   5.7260   5.7734
     5.8946   5.9409   5.9918   6.0897   6.2671   6.2924   6.3017   6.4391
     6.8532   6.8976   6.9260   6.9536   7.1029   7.2528   7.2964   7.3269
     7.3968   7.4274   7.4842   7.5113   7.5246   7.5846   7.6040   7.6834
     7.8322   7.8996   8.0137   8.1039   8.1891   8.2116   8.2764   8.2999
    11.1415  11.2443  11.3331  11.5239  11.7596  11.9481  12.3094  12.4258
    12.5837  12.6528  12.7136  12.8509  12.9029  12.9383  13.1189  13.1432
    13.3055  13.3416  13.5286  13.6334  13.6644  13.9437  13.9503  14.1080
    15.3562  15.4816  15.8872  16.1473  16.2692  16.4323  16.5349  17.0288
    17.0737  17.2774  17.3361  17.9061  17.9466

          k = 0.0000 0.3277-0.5000 ( 60696 PWs)   bands (ev):

   -65.6341 -65.6341 -65.6337 -65.6337 -65.6332 -65.6332 -65.6328 -65.6328
   -30.1771 -30.1771 -30.1371 -30.1371 -30.1328 -30.1327 -30.0933 -30.0933
   -29.9742 -29.9742 -29.9684 -29.9683 -29.9352 -29.9352 -29.9309 -29.9309
   -29.8982 -29.8982 -29.8616 -29.8616 -29.8548 -29.8548 -29.8188 -29.8188
   -19.7807 -19.7807 -19.7800 -19.7800 -19.7798 -19.7798 -19.7793 -19.7793
   -19.7703 -19.7703 -19.7694 -19.7694 -19.7692 -19.7692 -19.7685 -19.7685
   -19.7646 -19.7646 -19.7632 -19.7632 -19.7629 -19.7629 -19.7613 -19.7613
   -19.7468 -19.7467 -19.7462 -19.7462 -19.7455 -19.7455 -19.7444 -19.7444
   -19.7443 -19.7443 -19.7432 -19.7432 -19.7428 -19.7428 -19.7423 -19.7423
   -19.7386 -19.7385 -19.7366 -19.7365 -19.7364 -19.7364 -19.7348 -19.7348
   -19.7309 -19.7309 -19.7301 -19.7301 -19.7296 -19.7296 -19.7284 -19.7283
    -9.1952  -9.1952  -8.8666  -8.8666  -8.5429  -8.5429  -8.2433  -8.2433
    -8.2327  -8.2327  -8.1442  -8.1442  -7.8747  -7.8747  -7.8408  -7.8408
    -7.6782  -7.6782  -7.6104  -7.6104  -7.5482  -7.5482  -7.1489  -7.1489
     1.8282   1.8282   2.2183   2.2183   2.7385   2.7385   2.9072   2.9072
     3.2683   3.2683   3.3960   3.3960   3.4739   3.4739   3.6455   3.6455
     3.7532   3.7532   3.7837   3.7837   4.0533   4.0533   4.1599   4.1599
     4.3349   4.3349   4.4707   4.4707   4.7376   4.7376   4.8327   4.8327
     5.3428   5.3428   5.4252   5.4252   5.5836   5.5836   5.6678   5.6678
     5.8115   5.8115   6.0659   6.0659   6.2884   6.2884   6.3727   6.3727
     6.8723   6.8723   7.0027   7.0027   7.1452   7.1452   7.2552   7.2552
     7.4567   7.4567   7.4965   7.4965   7.5396   7.5396   7.8467   7.8467
     7.9275   7.9275   8.0749   8.0749   8.1061   8.1061   8.2808   8.2808
    11.2558  11.2558  11.8370  11.8370  12.0441  12.0441  12.2307  12.2307
    12.4906  12.4906  12.6795  12.6795  12.9583  12.9583  13.1222  13.1222
    13.3283  13.3283  13.4182  13.4182  13.7871  13.7871  13.9983  13.9983
    15.3975  15.3975  16.0684  16.0684  16.7919  16.7919  16.9673  16.9673
    17.0694  17.0694  17.7688  17.7689  18.0579

          k = 0.0000-0.4915 0.0000 ( 60690 PWs)   bands (ev):

   -65.6344 -65.6344 -65.6336 -65.6335 -65.6334 -65.6334 -65.6326 -65.6326
   -30.1792 -30.1792 -30.1747 -30.1747 -30.0955 -30.0955 -30.0910 -30.0910
   -29.9569 -29.9569 -29.9546 -29.9545 -29.9495 -29.9495 -29.9469 -29.9469
   -29.9023 -29.9023 -29.8935 -29.8935 -29.8215 -29.8215 -29.8159 -29.8159
   -19.7808 -19.7808 -19.7806 -19.7806 -19.7794 -19.7794 -19.7792 -19.7792
   -19.7703 -19.7703 -19.7702 -19.7702 -19.7686 -19.7686 -19.7684 -19.7684
   -19.7647 -19.7647 -19.7645 -19.7645 -19.7614 -19.7614 -19.7611 -19.7611
   -19.7462 -19.7461 -19.7457 -19.7457 -19.7452 -19.7452 -19.7446 -19.7445
   -19.7443 -19.7443 -19.7440 -19.7440 -19.7427 -19.7427 -19.7427 -19.7427
   -19.7386 -19.7386 -19.7385 -19.7385 -19.7350 -19.7350 -19.7348 -19.7348
   -19.7312 -19.7312 -19.7306 -19.7306 -19.7287 -19.7287 -19.7281 -19.7281
    -9.3469  -9.3469  -9.0256  -9.0256  -8.5640  -8.5640  -8.3764  -8.3764
    -8.0533  -8.0533  -7.9974  -7.9974  -7.9704  -7.9704  -7.9390  -7.9390
    -7.6533  -7.6533  -7.5045  -7.5045  -7.2199  -7.2199  -7.0842  -7.0842
     1.8028   1.8028   1.8534   1.8534   2.1878   2.1878   2.3512   2.3512
     2.8495   2.8495   3.1912   3.1912   3.2590   3.2590   3.7304   3.7304
     3.7857   3.7857   3.8469   3.8469   4.0113   4.0113   4.3083   4.3083
     4.3154   4.3154   4.9950   4.9950   5.1592   5.1592   5.5466   5.5466
     5.6726   5.6726   5.7035   5.7035   5.7556   5.7556   5.9521   5.9522
     6.1960   6.1960   6.2348   6.2348   6.2577   6.2577   6.4437   6.4437
     6.7491   6.7491   6.8712   6.8712   6.9422   6.9423   7.3356   7.3356
     7.3758   7.3758   7.4039   7.4039   7.7069   7.7069   7.7663   7.7663
     7.9433   7.9433   8.0097   8.0097   8.1514   8.1514   8.1604   8.1605
    10.5999  10.5999  11.6479  11.6479  11.7134  11.7134  12.2185  12.2185
    12.3256  12.3256  12.6664  12.6664  12.8494  12.8494  13.2265  13.2265
    13.5892  13.5892  13.6660  13.6660  13.7322  13.7322  14.0851  14.0851
    15.5026  15.5027  15.6540  15.6540  16.1622  16.1622  16.3343  16.3343
    17.0531  17.0531  18.3745  18.3745  18.5062

          k = 0.0000-0.4915 0.1667 ( 60700 PWs)   bands (ev):

   -65.6343 -65.6343 -65.6336 -65.6335 -65.6334 -65.6333 -65.6326 -65.6326
   -30.1789 -30.1750 -30.1736 -30.1691 -30.1010 -30.0965 -30.0952 -30.0913
   -29.9569 -29.9565 -29.9548 -29.9541 -29.9501 -29.9495 -29.9475 -29.9471
   -29.9017 -29.8967 -29.8942 -29.8883 -29.8269 -29.8211 -29.8211 -29.8163
   -19.7808 -19.7807 -19.7806 -19.7805 -19.7794 -19.7794 -19.7793 -19.7792
   -19.7703 -19.7702 -19.7701 -19.7701 -19.7687 -19.7686 -19.7685 -19.7684
   -19.7647 -19.7645 -19.7645 -19.7643 -19.7617 -19.7614 -19.7614 -19.7612
   -19.7461 -19.7461 -19.7457 -19.7456 -19.7453 -19.7452 -19.7446 -19.7446
   -19.7443 -19.7442 -19.7440 -19.7439 -19.7428 -19.7428 -19.7427 -19.7427
   -19.7386 -19.7385 -19.7383 -19.7382 -19.7352 -19.7350 -19.7350 -19.7348
   -19.7311 -19.7310 -19.7306 -19.7305 -19.7289 -19.7286 -19.7283 -19.7281
    -9.3169  -9.2797  -9.0411  -8.9480  -8.5924  -8.5009  -8.3581  -8.3320
    -8.0625  -8.0618  -8.0075  -7.9902  -7.9769  -7.9647  -7.9425  -7.9258
    -7.7390  -7.6445  -7.6026  -7.5129  -7.3143  -7.2101  -7.1832  -7.0927
     1.8146   1.8464   2.0088   2.0609   2.1931   2.3959   2.3978   2.5560
     2.9295   2.9388   3.1889   3.1911   3.2948   3.3185   3.6906   3.7225
     3.7336   3.7807   3.8557   3.9409   4.0312   4.0920   4.2833   4.3323
     4.3331   4.3512   4.7461   4.7547   4.9931   5.0821   5.4377   5.4412
     5.5105   5.5269   5.6090   5.6667   5.6808   5.8082   5.8814   5.9558
     6.0456   6.0960   6.1037   6.1236   6.1718   6.2421   6.3300   6.4433
     6.7955   6.8263   6.8496   6.9675   7.0510   7.0995   7.1635   7.3770
     7.3811   7.4281   7.4812   7.5694   7.6502   7.7152   7.7160   7.7329
     7.8585   7.8915   8.0204   8.0460   8.1418   8.1505   8.1717   8.1797
    10.7879  10.8463  11.6488  11.7169  11.7402  11.8383  12.2156  12.2958
    12.3282  12.4106  12.6292  12.7242  12.9202  12.9428  13.1144  13.2438
    13.4474  13.5778  13.5790  13.6313  13.6762  13.7374  14.0176  14.1060
    15.4605  15.6048  15.6338  15.8626  16.2260  16.2716  16.3683  16.5155
    17.0977  17.1113  18.1772  18.3418  18.4265

          k = 0.0000-0.4915 0.3333 ( 60674 PWs)   bands (ev):

   -65.6342 -65.6341 -65.6338 -65.6336 -65.6333 -65.6332 -65.6328 -65.6328
   -30.1781 -30.1759 -30.1581 -30.1537 -30.1162 -30.1117 -30.0943 -30.0920
   -29.9567 -29.9555 -29.9551 -29.9529 -29.9516 -29.9493 -29.9489 -29.9477
   -29.9003 -29.8960 -29.8818 -29.8742 -29.8416 -29.8354 -29.8202 -29.8174
   -19.7808 -19.7807 -19.7804 -19.7802 -19.7797 -19.7795 -19.7794 -19.7793
   -19.7703 -19.7703 -19.7698 -19.7697 -19.7690 -19.7688 -19.7686 -19.7685
   -19.7647 -19.7645 -19.7640 -19.7638 -19.7624 -19.7621 -19.7614 -19.7612
   -19.7460 -19.7458 -19.7458 -19.7454 -19.7453 -19.7451 -19.7447 -19.7447
   -19.7443 -19.7441 -19.7440 -19.7438 -19.7432 -19.7432 -19.7427 -19.7427
   -19.7386 -19.7385 -19.7375 -19.7374 -19.7357 -19.7355 -19.7349 -19.7348
   -19.7310 -19.7307 -19.7307 -19.7301 -19.7294 -19.7289 -19.7285 -19.7282
    -9.2429  -9.1039  -9.0808  -8.7309  -8.6877  -8.3412  -8.2979  -8.2124
    -8.1517  -8.0908  -8.0322  -7.9877  -7.9726  -7.9679  -7.9538  -7.9030
    -7.8697  -7.7948  -7.6258  -7.5480  -7.5356  -7.4233  -7.1838  -7.1162
     1.8247   1.8349   2.2071   2.2145   2.6321   2.8386   2.9195   3.1005
     3.1547   3.1756   3.2127   3.2156   3.4065   3.4647   3.5810   3.6886
     3.7277   3.7613   3.8852   3.9304   4.0835   4.2227   4.2430   4.2771
     4.3027   4.3736   4.3977   4.4244   4.6993   4.8262   4.9374   5.0698
     5.0924   5.2810   5.3497   5.3796   5.5428   5.6718   5.6819   5.6933
     5.7932   5.9292   5.9427   5.9925   6.2765   6.2805   6.3183   6.4454
     6.8712   6.8733   6.9179   6.9503   7.1198   7.2865   7.3155   7.3409
     7.4688   7.4957   7.5077   7.6225   7.6479   7.7147   7.7234   7.7395
     7.9104   7.9429   7.9970   8.0744   8.1265   8.1421   8.1675   8.1784
    11.2369  11.3845  11.6592  11.7408  12.0195  12.1591  12.1998  12.3338
    12.4246  12.5060  12.6155  12.7422  12.8913  12.9294  13.0192  13.0829
    13.2971  13.3556  13.3659  13.4865  13.7176  13.7612  13.9168  14.0226
    15.3996  15.5402  15.9143  16.2349  16.4250  16.6440  16.8397  17.0584
    17.2327  17.2922  17.8318  17.9424  18.1494

          k = 0.0000-0.4915-0.5000 ( 60748 PWs)   bands (ev):

   -65.6340 -65.6340 -65.6339 -65.6339 -65.6331 -65.6330 -65.6330 -65.6330
   -30.1770 -30.1770 -30.1371 -30.1370 -30.1326 -30.1326 -30.0931 -30.0931
   -29.9561 -29.9561 -29.9534 -29.9534 -29.9511 -29.9511 -29.9485 -29.9485
   -29.8982 -29.8982 -29.8616 -29.8616 -29.8548 -29.8548 -29.8188 -29.8188
   -19.7807 -19.7807 -19.7800 -19.7800 -19.7798 -19.7798 -19.7793 -19.7793
   -19.7703 -19.7703 -19.7694 -19.7694 -19.7692 -19.7692 -19.7685 -19.7685
   -19.7646 -19.7646 -19.7632 -19.7632 -19.7630 -19.7629 -19.7613 -19.7613
   -19.7459 -19.7459 -19.7456 -19.7456 -19.7450 -19.7450 -19.7449 -19.7449
   -19.7442 -19.7442 -19.7437 -19.7437 -19.7436 -19.7436 -19.7427 -19.7427
   -19.7386 -19.7385 -19.7366 -19.7366 -19.7364 -19.7364 -19.7349 -19.7349
   -19.7309 -19.7308 -19.7301 -19.7301 -19.7296 -19.7296 -19.7284 -19.7284
    -9.1580  -9.1580  -8.8686  -8.8686  -8.4287  -8.4287  -8.1853  -8.1852
    -8.1647  -8.1647  -8.0743  -8.0742  -7.9560  -7.9560  -7.9293  -7.9292
    -7.7982  -7.7982  -7.7171  -7.7171  -7.5598  -7.5598  -7.1494  -7.1493
     1.8282   1.8282   2.2223   2.2223   3.1062   3.1062   3.3757   3.3757
     3.4415   3.4415   3.4692   3.4692   3.5127   3.5127   3.6248   3.6248
     3.7466   3.7466   3.8167   3.8168   3.9192   3.9192   4.0062   4.0062
     4.2648   4.2648   4.3765   4.3765   4.7256   4.7256   4.7935   4.7935
     4.8806   4.8806   4.9749   4.9749   5.5849   5.5849   5.6961   5.6962
     5.7486   5.7486   5.9830   5.9830   6.3156   6.3156   6.3639   6.3639
     6.8710   6.8710   6.9974   6.9974   7.1650   7.1650   7.2794   7.2794
     7.5484   7.5484   7.6065   7.6065   7.7385   7.7385   7.8202   7.8202
     7.9281   7.9281   8.0712   8.0712   8.1030   8.1030   8.1519   8.1519
    11.5743  11.5743  11.9564  11.9564  11.9937  11.9937  12.3518  12.3518
    12.4814  12.4814  12.6412  12.6412  12.8707  12.8707  12.9968  12.9968
    13.1299  13.1299  13.3725  13.3725  13.8104  13.8104  13.8506  13.8506
    15.4387  15.4387  16.1217  16.1217  17.0969  17.0969  17.3766  17.3766
    17.4818  17.4819  17.7041  17.7041  17.8148

          k = 0.1667 0.0000 0.1667 ( 60696 PWs)   bands (ev):

   -65.6346 -65.6339 -65.6339 -65.6338 -65.6331 -65.6331 -65.6331 -65.6323
   -30.1751 -30.1717 -30.1696 -30.1695 -30.1016 -30.1013 -30.1007 -30.0940
   -29.9955 -29.9896 -29.9895 -29.9836 -29.9170 -29.9140 -29.9138 -29.9100
   -29.8969 -29.8952 -29.8888 -29.8886 -29.8265 -29.8265 -29.8224 -29.8206
   -19.7808 -19.7806 -19.7805 -19.7805 -19.7794 -19.7794 -19.7794 -19.7792
   -19.7702 -19.7701 -19.7701 -19.7700 -19.7688 -19.7686 -19.7685 -19.7685
   -19.7646 -19.7645 -19.7643 -19.7643 -19.7617 -19.7616 -19.7615 -19.7613
   -19.7483 -19.7479 -19.7479 -19.7475 -19.7456 -19.7452 -19.7452 -19.7451
   -19.7434 -19.7433 -19.7433 -19.7429 -19.7418 -19.7412 -19.7412 -19.7408
   -19.7385 -19.7382 -19.7382 -19.7380 -19.7353 -19.7351 -19.7351 -19.7346
   -19.7312 -19.7307 -19.7305 -19.7305 -19.7288 -19.7288 -19.7286 -19.7281
    -9.4721  -9.1138  -9.0998  -9.0959  -8.6683  -8.6352  -8.6285  -8.4930
    -8.2961  -8.2380  -8.2340  -8.2104  -7.7976  -7.7384  -7.6443  -7.6403
    -7.3651  -7.3253  -7.3124  -7.2891  -7.2851  -7.2469  -7.1949  -7.1867
     1.9323   1.9759   1.9803   2.0458   2.0745   2.1332   2.1485   2.1490
     2.4410   2.4487   2.5831   2.7163   2.8790   2.9677   3.1032   3.1467
     3.1904   3.1973   4.4303   4.5064   4.6069   4.6230   4.7574   4.8205
     4.8867   5.0115   5.0416   5.1215   5.2648   5.3442   5.5336   5.5586
     5.7472   5.7523   5.8306   5.8839   5.8911   5.9649   6.0152   6.0865
     6.0888   6.1295   6.1385   6.1926   6.2396   6.2950   6.3236   6.6168
     6.6213   6.7855   6.8670   6.8937   7.0707   7.0768   7.1954   7.2312
     7.2475   7.2498   7.3001   7.3592   7.4122   7.4987   7.5918   7.6129
     7.7482   7.7560   8.0778   8.1147   8.2221   8.3322   8.3766   8.5266
    10.6962  10.7491  10.9287  10.9334  11.1612  11.1967  12.5518  12.5712
    12.5877  12.6794  12.8043  12.9372  13.1425  13.2439  13.2522  13.4784
    13.5590  13.5776  13.6795  13.6856  14.0105  14.0466  14.2128  14.2516
    15.1645  15.3643  15.3672  15.4686  15.7308  16.1801  16.2158  16.4212
    16.4269  17.2277  17.2773  17.3521  18.2005

          k = 0.1667 0.0000 0.3333 ( 60756 PWs)   bands (ev):

   -65.6345 -65.6340 -65.6337 -65.6337 -65.6332 -65.6332 -65.6329 -65.6325
   -30.1728 -30.1704 -30.1578 -30.1542 -30.1163 -30.1131 -30.1004 -30.0976
   -29.9945 -29.9911 -29.9886 -29.9851 -29.9165 -29.9146 -29.9132 -29.9109
   -29.8947 -29.8904 -29.8811 -29.8746 -29.8412 -29.8359 -29.8255 -29.8226
   -19.7807 -19.7806 -19.7803 -19.7802 -19.7797 -19.7795 -19.7794 -19.7793
   -19.7702 -19.7701 -19.7698 -19.7697 -19.7690 -19.7688 -19.7687 -19.7686
   -19.7645 -19.7644 -19.7640 -19.7638 -19.7623 -19.7621 -19.7616 -19.7614
   -19.7482 -19.7480 -19.7478 -19.7476 -19.7454 -19.7453 -19.7448 -19.7448
   -19.7438 -19.7437 -19.7433 -19.7431 -19.7416 -19.7413 -19.7412 -19.7409
   -19.7383 -19.7382 -19.7374 -19.7374 -19.7357 -19.7356 -19.7350 -19.7348
   -19.7310 -19.7306 -19.7305 -19.7302 -19.7294 -19.7290 -19.7287 -19.7283
    -9.3625  -9.1530  -8.9769  -8.9477  -8.7120  -8.6885  -8.4903  -8.4452
    -8.2775  -8.2274  -8.0948  -8.0822  -7.9927  -7.8944  -7.7529  -7.6621
    -7.5542  -7.4467  -7.3497  -7.3193  -7.2914  -7.2734  -7.2595  -7.2117
     1.9569   1.9696   2.0389   2.0426   2.1482   2.1525   2.4127   2.4621
     2.6967   2.8983   2.9831   2.9995   3.1318   3.1576   3.2394   3.3449
     3.3744   3.4375   4.0800   4.1884   4.3277   4.3481   4.3866   4.6565
     4.7522   4.8500   4.8919   5.0007   5.0844   5.1481   5.2163   5.3318
     5.4600   5.5682   5.6561   5.6954   5.7328   5.8542   5.9155   6.0375
     6.0560   6.1010   6.1024   6.1427   6.2925   6.3205   6.4122   6.6153
     6.6835   6.7739   6.8428   6.9154   6.9631   7.0080   7.1594   7.1942
     7.2259   7.3048   7.3878   7.4540   7.5224   7.5878   7.6093   7.6901
     7.7684   7.8314   8.0497   8.0917   8.1769   8.2613   8.4013   8.4898
    10.8223  10.8577  11.2539  11.3586  11.5512  11.7579  12.3159  12.3712
    12.5776  12.6614  12.7435  12.9736  12.9824  13.2282  13.3114  13.4095
    13.5378  13.5878  13.6549  13.7258  13.9678  13.9892  14.1178  14.1913
    15.2447  15.3450  15.5646  15.6651  16.0304  16.0694  16.2455  16.4708
    16.9163  16.9972  17.6639  17.7187  17.8066

          k = 0.1667 0.0000-0.5000 ( 60788 PWs)   bands (ev):

   -65.6342 -65.6342 -65.6335 -65.6335 -65.6334 -65.6334 -65.6327 -65.6327
   -30.1716 -30.1716 -30.1370 -30.1370 -30.1334 -30.1334 -30.0992 -30.0991
   -29.9929 -29.9929 -29.9870 -29.9870 -29.9156 -29.9156 -29.9121 -29.9120
   -29.8926 -29.8926 -29.8611 -29.8611 -29.8553 -29.8553 -29.8241 -29.8241
   -19.7806 -19.7806 -19.7800 -19.7800 -19.7799 -19.7799 -19.7794 -19.7794
   -19.7702 -19.7702 -19.7694 -19.7694 -19.7692 -19.7692 -19.7686 -19.7686
   -19.7644 -19.7644 -19.7632 -19.7632 -19.7630 -19.7629 -19.7615 -19.7615
   -19.7481 -19.7481 -19.7477 -19.7477 -19.7453 -19.7453 -19.7443 -19.7443
   -19.7443 -19.7443 -19.7432 -19.7432 -19.7415 -19.7415 -19.7411 -19.7410
   -19.7383 -19.7382 -19.7365 -19.7365 -19.7365 -19.7364 -19.7350 -19.7350
   -19.7308 -19.7308 -19.7300 -19.7300 -19.7296 -19.7296 -19.7285 -19.7285
    -9.2440  -9.2440  -8.8112  -8.8112  -8.7967  -8.7967  -8.3595  -8.3595
    -8.2604  -8.2604  -8.1226  -8.1225  -7.8770  -7.8770  -7.8245  -7.8245
    -7.6442  -7.6442  -7.3357  -7.3357  -7.2768  -7.2768  -7.2425  -7.2425
     1.9608   1.9608   2.0421   2.0421   2.1537   2.1537   2.4671   2.4671
     3.0473   3.0473   3.3812   3.3812   3.4939   3.4940   3.6073   3.6073
     3.6838   3.6838   3.7981   3.7981   4.0119   4.0119   4.1182   4.1182
     4.3734   4.3734   4.7874   4.7874   5.0466   5.0467   5.3473   5.3473
     5.4023   5.4024   5.5884   5.5884   5.7656   5.7657   5.9282   5.9282
     6.0689   6.0689   6.1152   6.1152   6.3284   6.3284   6.5492   6.5492
     6.7200   6.7200   6.8514   6.8514   6.9173   6.9173   7.1698   7.1698
     7.3243   7.3243   7.4064   7.4064   7.5025   7.5025   7.8778   7.8778
     7.9385   7.9385   8.0254   8.0254   8.0932   8.0932   8.4389   8.4389
    10.8579  10.8579  11.7961  11.7961  11.9325  11.9325  12.0830  12.0830
    12.4193  12.4193  12.7321  12.7321  13.1961  13.1961  13.3613  13.3613
    13.4887  13.4887  13.7916  13.7916  13.8454  13.8454  14.1260  14.1260
    15.3077  15.3077  15.8293  15.8293  15.9633  15.9633  16.5543  16.5543
    16.9906  16.9906  17.8515  17.8515  18.3073

          k = 0.1667 0.1638 0.1667 ( 60730 PWs)   bands (ev):

   -65.6346 -65.6339 -65.6338 -65.6338 -65.6331 -65.6331 -65.6330 -65.6324
   -30.1749 -30.1719 -30.1695 -30.1695 -30.1013 -30.1012 -30.1001 -30.0943
   -29.9903 -29.9847 -29.9847 -29.9789 -29.9223 -29.9191 -29.9189 -29.9151
   -29.8969 -29.8953 -29.8889 -29.8887 -29.8265 -29.8265 -29.8223 -29.8207
   -19.7807 -19.7806 -19.7805 -19.7805 -19.7794 -19.7794 -19.7794 -19.7792
   -19.7702 -19.7701 -19.7701 -19.7700 -19.7688 -19.7686 -19.7685 -19.7685
   -19.7646 -19.7645 -19.7643 -19.7643 -19.7617 -19.7617 -19.7615 -19.7613
   -19.7479 -19.7475 -19.7475 -19.7471 -19.7456 -19.7452 -19.7452 -19.7450
   -19.7435 -19.7433 -19.7433 -19.7429 -19.7421 -19.7416 -19.7416 -19.7412
   -19.7385 -19.7382 -19.7382 -19.7381 -19.7353 -19.7351 -19.7351 -19.7347
   -19.7312 -19.7308 -19.7305 -19.7305 -19.7288 -19.7288 -19.7286 -19.7281
    -9.4358  -9.1280  -9.0650  -9.0608  -8.6186  -8.6102  -8.5895  -8.4584
    -8.2968  -8.2227  -8.2190  -8.2015  -7.8007  -7.7395  -7.6498  -7.6426
    -7.4573  -7.4044  -7.4042  -7.3580  -7.3079  -7.2944  -7.1921  -7.1874
     1.9954   2.0307   2.0385   2.0719   2.2261   2.2691   2.2718   2.2815
     2.4704   2.4805   2.5833   2.7538   2.9370   3.0052   3.0931   3.2377
     3.2727   3.2888   4.3848   4.4323   4.5568   4.5874   4.6917   4.8023
     4.8045   4.8741   4.8801   5.1430   5.1770   5.2200   5.4962   5.4996
     5.5764   5.7307   5.7907   5.8420   5.8557   5.9176   5.9300   5.9947
     6.0276   6.0903   6.0921   6.1608   6.1939   6.2786   6.3183   6.4762
     6.7517   6.8006   6.9274   6.9982   7.0689   7.0742   7.1985   7.2123
     7.2528   7.2713   7.3657   7.3921   7.4467   7.4820   7.6042   7.6174
     7.7467   7.7528   8.0737   8.1116   8.2375   8.3241   8.3612   8.4708
    10.7909  10.8468  11.0541  11.0713  11.1985  11.2783  12.5612  12.5625
    12.6166  12.6895  12.8093  12.9408  13.0220  13.2321  13.2355  13.4006
    13.4238  13.4888  13.6456  13.6774  14.0031  14.0050  14.1875  14.2169
    15.2571  15.4704  15.4804  15.6258  15.7174  16.1984  16.4069  16.4439
    16.5817  17.1262  17.3777  17.3806  18.1872

          k = 0.1667 0.1638 0.3333 ( 60743 PWs)   bands (ev):

   -65.6344 -65.6340 -65.6338 -65.6336 -65.6333 -65.6332 -65.6330 -65.6325
   -30.1727 -30.1704 -30.1578 -30.1542 -30.1162 -30.1128 -30.1003 -30.0976
   -29.9894 -29.9861 -29.9837 -29.9804 -29.9217 -29.9198 -29.9183 -29.9160
   -29.8947 -29.8905 -29.8812 -29.8746 -29.8412 -29.8359 -29.8255 -29.8226
   -19.7807 -19.7806 -19.7803 -19.7802 -19.7797 -19.7795 -19.7794 -19.7793
   -19.7702 -19.7701 -19.7698 -19.7697 -19.7690 -19.7688 -19.7687 -19.7686
   -19.7645 -19.7644 -19.7640 -19.7638 -19.7623 -19.7621 -19.7616 -19.7614
   -19.7478 -19.7476 -19.7474 -19.7472 -19.7454 -19.7453 -19.7448 -19.7448
   -19.7438 -19.7438 -19.7433 -19.7431 -19.7420 -19.7417 -19.7415 -19.7413
   -19.7383 -19.7382 -19.7374 -19.7374 -19.7357 -19.7356 -19.7351 -19.7349
   -19.7310 -19.7306 -19.7305 -19.7302 -19.7294 -19.7290 -19.7287 -19.7284
    -9.3244  -9.1171  -8.9884  -8.8989  -8.6793  -8.6348  -8.4758  -8.4108
    -8.2586  -8.2254  -8.0925  -8.0783  -7.9926  -7.8950  -7.7562  -7.6654
    -7.5599  -7.4710  -7.4328  -7.4086  -7.3896  -7.3566  -7.2759  -7.2113
     2.0233   2.0374   2.2283   2.2430   2.2741   2.2891   2.4259   2.4864
     2.6989   2.9084   2.9986   3.0660   3.1440   3.2043   3.2790   3.3597
     3.4490   3.5043   4.0843   4.2085   4.2982   4.3570   4.3823   4.6620
     4.7093   4.7737   4.8207   4.8957   4.9567   5.0489   5.1656   5.2420
     5.3818   5.4331   5.5123   5.5661   5.7131   5.7435   5.8245   5.9095
     6.0083   6.0421   6.0743   6.1032   6.1642   6.2376   6.3429   6.4476
     6.7882   6.8245   6.9611   7.0024   7.0429   7.1024   7.1918   7.2385
     7.2772   7.2910   7.4169   7.4781   7.5342   7.5921   7.6196   7.6917
     7.7806   7.8524   8.0479   8.0923   8.1989   8.2535   8.3748   8.4414
    10.9567  10.9892  11.3151  11.4680  11.5693  11.7943  12.3367  12.4053
    12.5998  12.6846  12.7676  12.9620  12.9960  13.1015  13.2503  13.3316
    13.4604  13.5105  13.5660  13.6847  13.8951  13.9305  14.0818  14.1674
    15.3652  15.4605  15.6963  15.8404  16.0322  16.2668  16.4448  16.5130
    16.9449  17.0445  17.5104  17.7811  17.8175

          k = 0.1667 0.1638-0.5000 ( 60730 PWs)   bands (ev):

   -65.6342 -65.6342 -65.6335 -65.6335 -65.6334 -65.6334 -65.6327 -65.6327
   -30.1715 -30.1715 -30.1369 -30.1369 -30.1333 -30.1333 -30.0990 -30.0990
   -29.9879 -29.9879 -29.9822 -29.9822 -29.9208 -29.9208 -29.9172 -29.9172
   -29.8927 -29.8927 -29.8612 -29.8612 -29.8553 -29.8553 -29.8241 -29.8241
   -19.7806 -19.7806 -19.7800 -19.7800 -19.7799 -19.7799 -19.7794 -19.7794
   -19.7702 -19.7702 -19.7694 -19.7694 -19.7692 -19.7692 -19.7686 -19.7686
   -19.7644 -19.7644 -19.7632 -19.7632 -19.7630 -19.7629 -19.7615 -19.7615
   -19.7477 -19.7477 -19.7473 -19.7473 -19.7453 -19.7453 -19.7443 -19.7443
   -19.7443 -19.7443 -19.7432 -19.7432 -19.7419 -19.7419 -19.7414 -19.7414
   -19.7383 -19.7382 -19.7365 -19.7365 -19.7365 -19.7364 -19.7350 -19.7350
   -19.7308 -19.7308 -19.7300 -19.7300 -19.7296 -19.7296 -19.7285 -19.7285
    -9.2063  -9.2063  -8.8107  -8.8107  -8.7316  -8.7316  -8.3305  -8.3305
    -8.2573  -8.2573  -8.1222  -8.1221  -7.8791  -7.8791  -7.8273  -7.8273
    -7.6458  -7.6458  -7.4290  -7.4290  -7.3789  -7.3789  -7.2429  -7.2428
     2.0285   2.0285   2.2446   2.2446   2.2812   2.2812   2.4911   2.4911
     3.1221   3.1221   3.3919   3.3920   3.4952   3.4952   3.6341   3.6341
     3.7050   3.7050   3.8075   3.8075   4.0328   4.0328   4.1533   4.1533
     4.3757   4.3757   4.7564   4.7564   4.8663   4.8663   5.2167   5.2167
     5.3250   5.3250   5.4763   5.4763   5.5867   5.5867   5.8877   5.8877
     5.9884   5.9884   6.0657   6.0657   6.1792   6.1792   6.3940   6.3940
     6.8229   6.8229   6.9819   6.9819   7.0751   7.0751   7.2051   7.2051
     7.3155   7.3155   7.4070   7.4070   7.5495   7.5495   7.8777   7.8777
     7.9358   7.9358   8.0493   8.0493   8.0992   8.0992   8.4013   8.4013
    10.9981  10.9981  11.8307  11.8307  12.0018  12.0018  12.1006  12.1006
    12.4388  12.4388  12.7641  12.7641  13.1278  13.1279  13.2845  13.2845
    13.4449  13.4449  13.6762  13.6762  13.7788  13.7788  14.0929  14.0929
    15.4230  15.4230  15.9330  15.9330  16.2384  16.2384  16.6050  16.6050
    17.0133  17.0133  17.8366  17.8366  18.2234

          k = 0.1667 0.3277 0.1667 ( 60713 PWs)   bands (ev):

   -65.6344 -65.6341 -65.6337 -65.6337 -65.6333 -65.6333 -65.6329 -65.6325
   -30.1742 -30.1725 -30.1694 -30.1694 -30.1009 -30.1008 -30.0986 -30.0953
   -29.9761 -29.9712 -29.9711 -29.9659 -29.9367 -29.9330 -29.9329 -29.9291
   -29.8966 -29.8957 -29.8890 -29.8889 -29.8265 -29.8265 -29.8220 -29.8211
   -19.7807 -19.7806 -19.7805 -19.7805 -19.7794 -19.7794 -19.7793 -19.7792
   -19.7702 -19.7701 -19.7701 -19.7701 -19.7687 -19.7687 -19.7685 -19.7685
   -19.7645 -19.7645 -19.7643 -19.7643 -19.7617 -19.7617 -19.7615 -19.7613
   -19.7469 -19.7465 -19.7465 -19.7460 -19.7457 -19.7452 -19.7452 -19.7449
   -19.7437 -19.7435 -19.7435 -19.7431 -19.7429 -19.7425 -19.7424 -19.7422
   -19.7384 -19.7382 -19.7382 -19.7382 -19.7352 -19.7351 -19.7351 -19.7348
   -19.7311 -19.7309 -19.7305 -19.7305 -19.7288 -19.7288 -19.7285 -19.7282
    -9.3467  -9.1724  -8.9965  -8.9935  -8.5665  -8.5603  -8.3764  -8.3694
    -8.3004  -8.1555  -8.1542  -8.1456  -7.8407  -7.7485  -7.7181  -7.6963
    -7.6686  -7.6482  -7.5901  -7.5683  -7.3080  -7.2997  -7.1914  -7.1890
     2.0247   2.0402   2.0621   2.0688   2.3956   2.3968   2.5012   2.5806
     2.7578   2.8551   2.8834   2.9929   3.0361   3.0902   3.2022   3.5036
     3.5075   3.6208   4.1448   4.1453   4.1830   4.2756   4.4209   4.6878
     4.7583   4.8069   4.8162   4.9431   5.0041   5.2278   5.2384   5.3334
     5.3346   5.4068   5.5106   5.5720   5.6764   5.7628   5.8954   5.9014
     6.0178   6.0397   6.0618   6.0861   6.1568   6.1604   6.2112   6.3307
     6.8397   6.9203   6.9369   7.0336   7.1219   7.1387   7.2491   7.2712
     7.4266   7.4507   7.4682   7.5048   7.5423   7.5591   7.6171   7.6363
     7.7628   7.7735   8.0545   8.1014   8.2037   8.2559   8.2813   8.3089
    10.9537  10.9692  11.3878  11.4268  11.4382  11.6381  12.4988  12.5166
    12.5869  12.6335  12.6900  12.7731  13.0259  13.0561  13.1815  13.1959
    13.3221  13.3991  13.5827  13.6467  13.8197  13.8406  14.0699  14.1228
    15.4322  15.6477  15.7145  15.7552  16.1005  16.3617  16.4729  16.5101
    16.7629  17.3917  17.7049  17.7601  17.8957

          k = 0.1667 0.3277 0.3333 ( 60720 PWs)   bands (ev):

   -65.6343 -65.6339 -65.6338 -65.6335 -65.6334 -65.6331 -65.6330 -65.6327
   -30.1726 -30.1703 -30.1578 -30.1540 -30.1160 -30.1123 -30.1000 -30.0976
   -29.9752 -29.9724 -29.9703 -29.9672 -29.9361 -29.9339 -29.9323 -29.9300
   -29.8948 -29.8906 -29.8813 -29.8747 -29.8412 -29.8358 -29.8255 -29.8226
   -19.7807 -19.7806 -19.7804 -19.7802 -19.7797 -19.7795 -19.7794 -19.7793
   -19.7702 -19.7701 -19.7698 -19.7697 -19.7690 -19.7688 -19.7687 -19.7686
   -19.7645 -19.7644 -19.7640 -19.7638 -19.7623 -19.7621 -19.7616 -19.7615
   -19.7468 -19.7466 -19.7464 -19.7461 -19.7455 -19.7453 -19.7449 -19.7447
   -19.7439 -19.7438 -19.7434 -19.7431 -19.7430 -19.7427 -19.7425 -19.7423
   -19.7383 -19.7382 -19.7375 -19.7374 -19.7357 -19.7356 -19.7351 -19.7349
   -19.7309 -19.7306 -19.7306 -19.7302 -19.7294 -19.7290 -19.7287 -19.7284
    -9.2347  -9.0481  -9.0213  -8.7966  -8.6490  -8.4377  -8.4092  -8.3151
    -8.2245  -8.1730  -8.0748  -8.0551  -7.9986  -7.9053  -7.7902  -7.7202
    -7.6732  -7.6557  -7.6383  -7.5961  -7.5273  -7.4248  -7.2778  -7.2121
     2.0451   2.0630   2.3911   2.4179   2.6013   2.6860   2.7676   2.8416
     2.9127   2.9729   3.0327   3.1677   3.2362   3.3155   3.3559   3.4866
     3.6803   3.7540   4.0501   4.1467   4.1571   4.2095   4.3376   4.4318
     4.4726   4.5884   4.6730   4.7522   4.9080   4.9728   4.9990   5.0653
     5.1655   5.2823   5.3084   5.4033   5.4286   5.4788   5.5931   5.6665
     5.7140   5.8118   5.8429   5.9989   6.0849   6.1345   6.1768   6.2315
     6.9274   6.9536   7.0612   7.0994   7.1804   7.3131   7.3298   7.3715
     7.4408   7.4651   7.5063   7.5323   7.5782   7.6076   7.6725   7.6962
     7.8368   7.8980   8.0356   8.0915   8.1822   8.2059   8.2754   8.2968
    11.2624  11.3244  11.4843  11.6430  11.7740  11.9806  12.3717  12.4652
    12.6283  12.6549  12.7441  12.8144  12.9411  12.9748  13.0925  13.1659
    13.2753  13.3124  13.4325  13.5991  13.6918  13.7884  13.9508  14.0314
    15.5119  15.6799  15.9423  16.2096  16.3452  16.4703  16.6337  16.9917
    17.1359  17.2762  17.3804  17.8861  17.9844

          k = 0.1667 0.3277-0.5000 ( 60710 PWs)   bands (ev):

   -65.6341 -65.6341 -65.6337 -65.6337 -65.6333 -65.6333 -65.6329 -65.6329
   -30.1714 -30.1714 -30.1368 -30.1368 -30.1330 -30.1330 -30.0988 -30.0988
   -29.9739 -29.9739 -29.9688 -29.9688 -29.9351 -29.9351 -29.9312 -29.9312
   -29.8928 -29.8928 -29.8612 -29.8612 -29.8553 -29.8553 -29.8241 -29.8241
   -19.7806 -19.7806 -19.7800 -19.7800 -19.7799 -19.7798 -19.7794 -19.7794
   -19.7702 -19.7701 -19.7694 -19.7694 -19.7692 -19.7692 -19.7686 -19.7686
   -19.7644 -19.7644 -19.7632 -19.7632 -19.7630 -19.7629 -19.7615 -19.7615
   -19.7467 -19.7467 -19.7463 -19.7463 -19.7454 -19.7454 -19.7444 -19.7444
   -19.7443 -19.7443 -19.7433 -19.7433 -19.7428 -19.7428 -19.7424 -19.7424
   -19.7382 -19.7382 -19.7365 -19.7365 -19.7364 -19.7364 -19.7350 -19.7350
   -19.7308 -19.7307 -19.7301 -19.7301 -19.7296 -19.7296 -19.7286 -19.7286
    -9.1261  -9.1261  -8.8168  -8.8168  -8.5607  -8.5607  -8.2462  -8.2461
    -8.2288  -8.2288  -8.1183  -8.1183  -7.8939  -7.8938  -7.8464  -7.8464
    -7.6851  -7.6851  -7.6285  -7.6285  -7.5966  -7.5966  -7.2441  -7.2440
     2.0532   2.0532   2.4247   2.4247   2.7503   2.7504   2.8959   2.8959
     3.3093   3.3094   3.4288   3.4288   3.4908   3.4909   3.6646   3.6646
     3.7783   3.7783   3.8326   3.8326   4.0713   4.0713   4.1757   4.1757
     4.3560   4.3560   4.4909   4.4909   4.7120   4.7120   4.8311   4.8311
     5.1869   5.1869   5.3090   5.3090   5.4441   5.4441   5.5193   5.5193
     5.5945   5.5945   5.8639   5.8639   6.1033   6.1033   6.1914   6.1914
     6.9529   6.9529   7.1739   7.1740   7.2454   7.2454   7.3304   7.3304
     7.4607   7.4607   7.5210   7.5210   7.6140   7.6140   7.8684   7.8684
     7.9309   7.9309   8.0739   8.0739   8.1039   8.1039   8.2776   8.2776
    11.3729  11.3729  11.9160  11.9160  12.1103  12.1103  12.2457  12.2457
    12.5235  12.5235  12.7202  12.7202  12.9403  12.9404  13.1326  13.1326
    13.2992  13.2992  13.3926  13.3927  13.7035  13.7035  13.9237  13.9237
    15.5920  15.5920  16.1920  16.1920  16.8235  16.8235  16.9886  16.9886
    17.1077  17.1077  17.7559  17.7560  18.0453

          k = 0.1667-0.4915 0.1667 ( 60708 PWs)   bands (ev):

   -65.6343 -65.6342 -65.6335 -65.6335 -65.6334 -65.6334 -65.6327 -65.6327
   -30.1733 -30.1733 -30.1694 -30.1694 -30.1007 -30.1007 -30.0968 -30.0968
   -29.9565 -29.9565 -29.9543 -29.9543 -29.9501 -29.9501 -29.9477 -29.9477
   -29.8962 -29.8962 -29.8890 -29.8890 -29.8265 -29.8265 -29.8215 -29.8215
   -19.7807 -19.7807 -19.7805 -19.7805 -19.7795 -19.7794 -19.7793 -19.7793
   -19.7702 -19.7701 -19.7701 -19.7701 -19.7687 -19.7687 -19.7685 -19.7685
   -19.7645 -19.7645 -19.7643 -19.7643 -19.7617 -19.7617 -19.7614 -19.7614
   -19.7460 -19.7460 -19.7456 -19.7456 -19.7452 -19.7452 -19.7446 -19.7446
   -19.7442 -19.7442 -19.7440 -19.7440 -19.7429 -19.7429 -19.7428 -19.7428
   -19.7383 -19.7383 -19.7382 -19.7382 -19.7352 -19.7351 -19.7350 -19.7350
   -19.7310 -19.7310 -19.7305 -19.7305 -19.7288 -19.7288 -19.7284 -19.7283
    -9.2482  -9.2482  -8.9637  -8.9637  -8.5299  -8.5299  -8.3156  -8.3156
    -8.0738  -8.0738  -8.0004  -8.0004  -7.9684  -7.9684  -7.9295  -7.9295
    -7.7303  -7.7303  -7.6104  -7.6104  -7.3045  -7.3045  -7.1906  -7.1906
     2.0334   2.0334   2.0662   2.0662   2.4045   2.4045   2.5689   2.5689
     3.0211   3.0211   3.2017   3.2017   3.3406   3.3406   3.6900   3.6900
     3.7230   3.7230   3.9693   3.9694   4.0956   4.0956   4.3093   4.3093
     4.3626   4.3626   4.7194   4.7194   4.8410   4.8410   5.3476   5.3476
     5.4181   5.4181   5.4936   5.4936   5.5984   5.5984   5.9105   5.9105
     5.9401   5.9401   6.0606   6.0606   6.0964   6.0964   6.2367   6.2367
     6.8764   6.8765   6.9992   6.9992   7.1269   7.1269   7.2858   7.2858
     7.5126   7.5126   7.5544   7.5544   7.6418   7.6418   7.7272   7.7272
     7.8659   7.8659   8.0457   8.0457   8.1413   8.1413   8.1805   8.1805
    10.9965  10.9965  11.7416  11.7416  11.8410  11.8410  12.2932  12.2933
    12.4118  12.4118  12.6921  12.6921  12.9935  12.9935  13.1462  13.1462
    13.4353  13.4353  13.5852  13.5853  13.6407  13.6407  14.0339  14.0339
    15.5799  15.5799  15.8438  15.8438  16.3690  16.3690  16.5074  16.5074
    17.1540  17.1541  18.1867  18.1867  18.3606

          k = 0.1667-0.4915 0.3333 ( 60736 PWs)   bands (ev):

   -65.6341 -65.6341 -65.6337 -65.6336 -65.6334 -65.6332 -65.6329 -65.6328
   -30.1725 -30.1702 -30.1578 -30.1540 -30.1158 -30.1120 -30.0998 -30.0976
   -29.9563 -29.9553 -29.9548 -29.9531 -29.9515 -29.9498 -29.9492 -29.9483
   -29.8948 -29.8907 -29.8813 -29.8747 -29.8412 -29.8358 -29.8255 -29.8226
   -19.7807 -19.7806 -19.7804 -19.7802 -19.7797 -19.7795 -19.7794 -19.7793
   -19.7702 -19.7701 -19.7698 -19.7697 -19.7690 -19.7688 -19.7687 -19.7686
   -19.7645 -19.7644 -19.7640 -19.7638 -19.7624 -19.7621 -19.7616 -19.7615
   -19.7459 -19.7458 -19.7457 -19.7454 -19.7453 -19.7451 -19.7448 -19.7447
   -19.7442 -19.7441 -19.7440 -19.7438 -19.7432 -19.7432 -19.7429 -19.7429
   -19.7383 -19.7382 -19.7375 -19.7374 -19.7357 -19.7355 -19.7351 -19.7350
   -19.7309 -19.7307 -19.7306 -19.7302 -19.7294 -19.7289 -19.7287 -19.7284
    -9.1708  -9.0635  -9.0077  -8.7475  -8.6290  -8.3715  -8.2633  -8.2014
    -8.1650  -8.1093  -8.0260  -7.9783  -7.9676  -7.9599  -7.9540  -7.9024
    -7.8696  -7.8010  -7.7078  -7.6320  -7.5379  -7.4286  -7.2784  -7.2126
     2.0468   2.0652   2.3947   2.4257   2.6362   2.8322   2.9313   3.0807
     3.2213   3.2330   3.2505   3.2726   3.4436   3.4783   3.5845   3.6648
     3.7050   3.7266   3.9769   4.0144   4.1346   4.2430   4.2566   4.2881
     4.3140   4.3895   4.4130   4.4560   4.6773   4.7391   4.9352   5.0021
     5.0708   5.1640   5.2836   5.3550   5.3643   5.4505   5.4815   5.5220
     5.6014   5.6697   5.7781   5.8918   6.0701   6.0958   6.1590   6.1615
     6.9404   6.9697   7.0942   7.1097   7.2117   7.3548   7.4161   7.4534
     7.5061   7.5406   7.5760   7.6264   7.6659   7.6904   7.7321   7.7729
     7.9061   7.9379   8.0232   8.0744   8.1284   8.1415   8.1626   8.1757
    11.3704  11.4757  11.7470  11.8691  12.0225  12.1538  12.2947  12.3993
    12.4894  12.5240  12.6198  12.7662  12.8724  12.9568  13.0438  13.1243
    13.2104  13.3274  13.3728  13.3848  13.6307  13.6624  13.8983  13.9337
    15.5640  15.7653  15.9657  16.3949  16.4976  16.6671  16.8731  17.0401
    17.2857  17.3278  17.8691  17.9763  18.1023

          k = 0.1667-0.4915-0.5000 ( 60736 PWs)   bands (ev):

   -65.6339 -65.6339 -65.6338 -65.6338 -65.6331 -65.6331 -65.6330 -65.6330
   -30.1713 -30.1713 -30.1368 -30.1368 -30.1329 -30.1329 -30.0987 -30.0987
   -29.9557 -29.9557 -29.9534 -29.9534 -29.9513 -29.9513 -29.9491 -29.9491
   -29.8928 -29.8928 -29.8612 -29.8612 -29.8553 -29.8553 -29.8241 -29.8241
   -19.7806 -19.7806 -19.7800 -19.7800 -19.7799 -19.7798 -19.7794 -19.7794
   -19.7702 -19.7701 -19.7694 -19.7694 -19.7692 -19.7692 -19.7686 -19.7686
   -19.7644 -19.7644 -19.7632 -19.7632 -19.7630 -19.7630 -19.7615 -19.7615
   -19.7458 -19.7458 -19.7455 -19.7455 -19.7450 -19.7450 -19.7449 -19.7449
   -19.7442 -19.7441 -19.7437 -19.7437 -19.7436 -19.7436 -19.7429 -19.7429
   -19.7382 -19.7382 -19.7366 -19.7365 -19.7364 -19.7364 -19.7351 -19.7350
   -19.7307 -19.7307 -19.7301 -19.7301 -19.7296 -19.7296 -19.7286 -19.7286
    -9.0829  -9.0829  -8.8216  -8.8216  -8.4448  -8.4448  -8.1992  -8.1992
    -8.1563  -8.1563  -8.0625  -8.0625  -7.9498  -7.9497  -7.9330  -7.9330
    -7.7982  -7.7982  -7.7332  -7.7332  -7.6284  -7.6284  -7.2446  -7.2446
     2.0554   2.0554   2.4327   2.4327   3.1324   3.1324   3.3779   3.3779
     3.4566   3.4566   3.4727   3.4727   3.5175   3.5175   3.6196   3.6196
     3.7920   3.7920   3.8453   3.8453   3.9382   3.9382   4.0970   4.0970
     4.2874   4.2874   4.3949   4.3949   4.7082   4.7083   4.7778   4.7778
     4.8847   4.8847   4.9616   4.9616   5.3076   5.3076   5.4459   5.4459
     5.5432   5.5432   5.7591   5.7592   6.1015   6.1015   6.1204   6.1204
     6.9660   6.9660   7.2024   7.2024   7.2865   7.2865   7.4031   7.4031
     7.5669   7.5670   7.6428   7.6428   7.7466   7.7466   7.8452   7.8452
     7.9189   7.9189   8.0779   8.0779   8.1057   8.1057   8.1507   8.1507
    11.6659  11.6659  12.0230  12.0230  12.0848  12.0848  12.4098  12.4098
    12.4831  12.4831  12.6772  12.6772  12.8880  12.8880  12.9912  12.9912
    13.1405  13.1405  13.2751  13.2751  13.7321  13.7321  13.7613  13.7613
    15.6486  15.6486  16.2693  16.2693  17.1371  17.1371  17.3556  17.3556
    17.5329  17.5329  17.7089  17.7089  17.8049

          k = 0.3333 0.0000 0.3333 ( 60710 PWs)   bands (ev):

   -65.6343 -65.6339 -65.6338 -65.6335 -65.6334 -65.6331 -65.6331 -65.6326
   -30.1591 -30.1556 -30.1551 -30.1547 -30.1164 -30.1153 -30.1151 -30.1104
   -29.9935 -29.9902 -29.9900 -29.9867 -29.9159 -29.9141 -29.9137 -29.9117
   -29.8808 -29.8790 -29.8763 -29.8760 -29.8402 -29.8400 -29.8379 -29.8361
   -19.7804 -19.7803 -19.7803 -19.7803 -19.7797 -19.7796 -19.7796 -19.7795
   -19.7699 -19.7698 -19.7698 -19.7697 -19.7690 -19.7689 -19.7689 -19.7688
   -19.7640 -19.7639 -19.7638 -19.7638 -19.7623 -19.7623 -19.7622 -19.7620
   -19.7481 -19.7479 -19.7479 -19.7477 -19.7452 -19.7449 -19.7449 -19.7447
   -19.7440 -19.7437 -19.7437 -19.7434 -19.7415 -19.7413 -19.7412 -19.7410
   -19.7377 -19.7375 -19.7374 -19.7372 -19.7359 -19.7356 -19.7356 -19.7352
   -19.7307 -19.7303 -19.7303 -19.7302 -19.7293 -19.7292 -19.7292 -19.7288
    -9.2375  -9.0137  -8.9967  -8.8322  -8.7588  -8.5526  -8.5225  -8.4063
    -8.1795  -8.1494  -8.1093  -8.0419  -8.0122  -7.9524  -7.8887  -7.8650
    -7.5369  -7.5183  -7.4870  -7.4445  -7.3351  -7.3046  -7.3029  -7.2722
     2.0139   2.0218   2.0373   2.0400   2.6614   2.6817   2.7065   2.7149
     2.9996   3.0147   3.1039   3.1377   3.2012   3.3514   3.3635   3.4545
     3.5884   3.6388   4.0234   4.1580   4.1968   4.2171   4.3427   4.4999
     4.5275   4.5933   4.6946   4.7175   4.8604   4.9535   5.0556   5.0648
     5.1134   5.2582   5.4507   5.5158   5.5532   5.6182   5.6506   5.7132
     5.7502   5.9174   6.0004   6.0776   6.3626   6.4230   6.4437   6.6198
     6.7579   6.8215   6.8848   6.8944   6.9296   7.0129   7.0285   7.0440
     7.4130   7.4522   7.5755   7.5757   7.6236   7.6970   7.7579   7.7592
     7.8414   7.8744   8.0440   8.0475   8.1359   8.2456   8.3683   8.4409
    11.1888  11.2251  11.4437  11.4578  11.9279  12.0331  12.3387  12.3462
    12.4732  12.5277  12.7404  12.7750  13.0797  13.0968  13.3232  13.3438
    13.4391  13.5941  13.6481  13.6888  13.8517  13.9501  14.0180  14.1225
    15.3974  15.5681  15.5877  15.9914  16.0072  16.2496  16.6475  16.7945
    16.8361  17.3236  17.4599  17.8374  17.8415

          k = 0.3333 0.0000-0.5000 ( 60716 PWs)   bands (ev):

   -65.6341 -65.6341 -65.6336 -65.6336 -65.6333 -65.6333 -65.6329 -65.6329
   -30.1563 -30.1563 -30.1361 -30.1361 -30.1343 -30.1343 -30.1140 -30.1140
   -29.9919 -29.9919 -29.9885 -29.9885 -29.9150 -29.9150 -29.9129 -29.9128
   -29.8781 -29.8781 -29.8600 -29.8600 -29.8566 -29.8566 -29.8386 -29.8385
   -19.7803 -19.7803 -19.7800 -19.7800 -19.7799 -19.7799 -19.7796 -19.7796
   -19.7698 -19.7698 -19.7694 -19.7694 -19.7693 -19.7692 -19.7689 -19.7689
   -19.7639 -19.7639 -19.7632 -19.7632 -19.7630 -19.7630 -19.7622 -19.7622
   -19.7480 -19.7480 -19.7478 -19.7478 -19.7450 -19.7450 -19.7444 -19.7444
   -19.7443 -19.7442 -19.7436 -19.7436 -19.7414 -19.7414 -19.7411 -19.7411
   -19.7375 -19.7375 -19.7365 -19.7365 -19.7364 -19.7364 -19.7355 -19.7355
   -19.7305 -19.7305 -19.7299 -19.7298 -19.7298 -19.7297 -19.7290 -19.7290
    -9.1039  -9.1039  -8.8539  -8.8538  -8.6528  -8.6528  -8.3262  -8.3262
    -8.2773  -8.2773  -8.0347  -8.0347  -8.0152  -8.0152  -7.8334  -7.8334
    -7.7209  -7.7209  -7.4937  -7.4936  -7.3211  -7.3211  -7.2892  -7.2892
     2.0183   2.0183   2.0396   2.0396   2.7088   2.7088   2.9944   2.9944
     3.2158   3.2158   3.4320   3.4320   3.5363   3.5363   3.6530   3.6531
     3.7311   3.7311   3.8940   3.8940   4.0551   4.0551   4.1331   4.1331
     4.3788   4.3788   4.4765   4.4765   4.6702   4.6702   4.8971   4.8971
     5.1281   5.1281   5.3245   5.3245   5.5596   5.5596   5.5930   5.5930
     5.7775   5.7775   6.0056   6.0056   6.4290   6.4290   6.5750   6.5750
     6.7730   6.7731   6.8625   6.8625   6.9110   6.9110   7.0132   7.0132
     7.5460   7.5460   7.6109   7.6109   7.7130   7.7130   7.8971   7.8971
     7.9498   7.9498   8.0206   8.0207   8.1027   8.1027   8.3792   8.3792
    11.3074  11.3074  11.8920  11.8920  11.9373  11.9373  12.3451  12.3451
    12.4769  12.4769  12.5867  12.5867  13.0502  13.0502  13.3111  13.3111
    13.4369  13.4369  13.7116  13.7116  13.8088  13.8088  14.0354  14.0354
    15.5179  15.5179  15.8349  15.8349  16.3651  16.3651  16.8795  16.8795
    17.2354  17.2354  17.5999  17.5999  18.1209

          k = 0.3333 0.1638 0.3333 ( 60701 PWs)   bands (ev):

   -65.6343 -65.6338 -65.6338 -65.6336 -65.6333 -65.6331 -65.6331 -65.6327
   -30.1588 -30.1557 -30.1550 -30.1548 -30.1160 -30.1152 -30.1149 -30.1107
   -29.9884 -29.9852 -29.9850 -29.9819 -29.9211 -29.9193 -29.9189 -29.9169
   -29.8807 -29.8792 -29.8763 -29.8760 -29.8402 -29.8400 -29.8378 -29.8362
   -19.7804 -19.7803 -19.7803 -19.7803 -19.7796 -19.7796 -19.7796 -19.7795
   -19.7699 -19.7698 -19.7698 -19.7697 -19.7690 -19.7689 -19.7689 -19.7688
   -19.7640 -19.7639 -19.7638 -19.7638 -19.7623 -19.7623 -19.7622 -19.7620
   -19.7477 -19.7475 -19.7475 -19.7473 -19.7452 -19.7449 -19.7449 -19.7446
   -19.7440 -19.7438 -19.7437 -19.7434 -19.7419 -19.7417 -19.7416 -19.7414
   -19.7377 -19.7375 -19.7374 -19.7372 -19.7359 -19.7356 -19.7356 -19.7352
   -19.7307 -19.7303 -19.7303 -19.7302 -19.7293 -19.7292 -19.7292 -19.7288
    -9.1934  -8.9657  -8.9470  -8.8454  -8.6857  -8.5455  -8.5135  -8.3742
    -8.1729  -8.1383  -8.1106  -8.0388  -8.0176  -7.9491  -7.8889  -7.8643
    -7.5447  -7.5270  -7.5083  -7.4456  -7.4235  -7.3970  -7.3945  -7.3620
     2.1969   2.2244   2.2373   2.2693   2.6597   2.6875   2.7098   2.7146
     3.0004   3.0182   3.1051   3.1949   3.2235   3.4104   3.4403   3.5423
     3.6088   3.6364   4.0306   4.1541   4.2305   4.2350   4.3695   4.4906
     4.5484   4.6184   4.6849   4.7102   4.8225   4.8364   4.9767   4.9957
     5.0606   5.2029   5.3249   5.4074   5.4154   5.4421   5.4503   5.6565
     5.6583   5.7565   5.7759   5.9453   6.1761   6.2950   6.3092   6.4172
     6.8593   6.8808   6.9909   7.0381   7.0678   7.1040   7.1883   7.2304
[...]
    11.4054  11.4054  11.9376  11.9376  12.0155  12.0155  12.3510  12.3510
    12.5173  12.5173  12.6085  12.6085  13.0351  13.0351  13.2678  13.2678
    13.3413  13.3413  13.5866  13.5866  13.7071  13.7071  13.9646  13.9646
    15.7571  15.7572  16.0909  16.0909  16.4472  16.4472  16.8930  16.8930
    17.2420  17.2421  17.6198  17.6198  18.1051

          k = 0.3333 0.3277 0.3333 ( 60742 PWs)   bands (ev):

   -65.6341 -65.6337 -65.6337 -65.6337 -65.6333 -65.6333 -65.6332 -65.6328
   -30.1580 -30.1562 -30.1548 -30.1548 -30.1153 -30.1151 -30.1141 -30.1115
   -29.9744 -29.9716 -29.9714 -29.9685 -29.9355 -29.9334 -29.9331 -29.9310
   -29.8805 -29.8796 -29.8763 -29.8762 -29.8401 -29.8401 -29.8375 -29.8366
   -19.7804 -19.7803 -19.7803 -19.7803 -19.7797 -19.7796 -19.7796 -19.7795
   -19.7698 -19.7698 -19.7698 -19.7697 -19.7690 -19.7689 -19.7689 -19.7688
   -19.7640 -19.7639 -19.7638 -19.7638 -19.7623 -19.7623 -19.7622 -19.7621
   -19.7467 -19.7465 -19.7465 -19.7462 -19.7453 -19.7450 -19.7449 -19.7445
   -19.7441 -19.7438 -19.7437 -19.7434 -19.7429 -19.7427 -19.7426 -19.7424
   -19.7376 -19.7374 -19.7374 -19.7373 -19.7357 -19.7356 -19.7356 -19.7354
   -19.7306 -19.7304 -19.7303 -19.7303 -19.7293 -19.7293 -19.7291 -19.7289
    -9.0861  -8.8964  -8.8526  -8.8414  -8.5282  -8.4882  -8.4726  -8.2757
    -8.1460  -8.1116  -8.0899  -8.0445  -8.0203  -7.9386  -7.8921  -7.8614
    -7.6960  -7.6733  -7.6640  -7.6349  -7.5053  -7.5038  -7.4474  -7.4418
     2.5698   2.6065   2.6118   2.6636   2.7952   2.8110   2.8317   2.8556
     3.0281   3.0662   3.1090   3.2193   3.4072   3.5139   3.5884   3.6677
     3.6881   3.8489   4.0223   4.0832   4.1865   4.2785   4.3302   4.4009
     4.4958   4.5466   4.5724   4.6328   4.6824   4.7643   4.8282   4.8858
     4.9910   4.9938   5.1212   5.1985   5.2221   5.2742   5.2946   5.3503
     5.4377   5.5217   5.5800   5.6108   5.7241   5.8335   5.8496   5.9491
     7.0815   7.1146   7.2079   7.2637   7.3552   7.3776   7.4066   7.4443
     7.4944   7.5198   7.6257   7.6379   7.6547   7.7333   7.7954   7.8055
     7.8895   7.9217   8.0351   8.0633   8.1528   8.1787   8.2629   8.2789
    11.5515  11.5613  11.7502  11.8573  11.9753  12.1603  12.4614  12.5239
    12.5929  12.6728  12.7320  12.7917  12.9048  12.9973  13.0285  13.0726
    13.1637  13.2407  13.3525  13.4479  13.5799  13.6954  13.7152  13.8838
    15.9948  16.1710  16.2148  16.3019  16.4813  16.8085  16.9095  16.9287
    17.2016  17.3533  17.5406  17.6579  17.9844

          k = 0.3333 0.3277-0.5000 ( 60752 PWs)   bands (ev):

   -65.6339 -65.6339 -65.6335 -65.6335 -65.6334 -65.6334 -65.6331 -65.6330
   -30.1560 -30.1560 -30.1360 -30.1360 -30.1338 -30.1338 -30.1139 -30.1139
   -29.9730 -29.9730 -29.9701 -29.9701 -29.9344 -29.9344 -29.9322 -29.9322
   -29.8782 -29.8782 -29.8600 -29.8600 -29.8567 -29.8567 -29.8386 -29.8386
   -19.7803 -19.7803 -19.7800 -19.7800 -19.7799 -19.7799 -19.7796 -19.7796
   -19.7698 -19.7698 -19.7694 -19.7694 -19.7692 -19.7692 -19.7689 -19.7689
   -19.7639 -19.7639 -19.7632 -19.7632 -19.7630 -19.7630 -19.7622 -19.7622
   -19.7466 -19.7466 -19.7464 -19.7463 -19.7451 -19.7451 -19.7445 -19.7445
   -19.7442 -19.7442 -19.7436 -19.7436 -19.7428 -19.7428 -19.7425 -19.7425
   -19.7375 -19.7375 -19.7365 -19.7365 -19.7365 -19.7364 -19.7356 -19.7356
   -19.7304 -19.7304 -19.7299 -19.7299 -19.7297 -19.7297 -19.7291 -19.7291
    -8.9449  -8.9449  -8.6864  -8.6863  -8.6159  -8.6159  -8.3021  -8.3021
    -8.2057  -8.2057  -8.0301  -8.0301  -7.9975  -7.9975  -7.8423  -7.8423
    -7.7488  -7.7488  -7.6492  -7.6492  -7.6216  -7.6216  -7.4735  -7.4735
     2.6107   2.6107   2.7875   2.7875   2.8342   2.8342   3.0218   3.0218
     3.3692   3.3693   3.4950   3.4950   3.5614   3.5614   3.6994   3.6994
     3.8562   3.8562   3.9645   3.9645   4.1080   4.1080   4.2155   4.2155
     4.4037   4.4038   4.5189   4.5189   4.5737   4.5737   4.7195   4.7195
     4.8571   4.8571   5.0227   5.0227   5.0921   5.0921   5.2892   5.2892
     5.3690   5.3690   5.4487   5.4487   5.6013   5.6013   5.8504   5.8504
     7.1379   7.1380   7.3228   7.3228   7.3427   7.3427   7.4639   7.4640
     7.5875   7.5875   7.6370   7.6370   7.7832   7.7832   7.9000   7.9000
     7.9462   7.9462   8.0699   8.0699   8.0926   8.0926   8.2552   8.2552
    11.6852  11.6852  12.0705  12.0705  12.2302  12.2302  12.3773  12.3773
    12.5994  12.5994  12.7245  12.7245  12.8841  12.8841  13.0461  13.0461
    13.2082  13.2082  13.3509  13.3509  13.4599  13.4599  13.7273  13.7273
    16.2012  16.2012  16.5500  16.5500  16.8833  16.8833  17.0379  17.0379
    17.2923  17.2923  17.6510  17.6510  18.0277

          k = 0.3333-0.4915 0.3333 ( 60764 PWs)   bands (ev):

   -65.6339 -65.6339 -65.6335 -65.6335 -65.6334 -65.6334 -65.6330 -65.6330
   -30.1570 -30.1570 -30.1548 -30.1547 -30.1150 -30.1150 -30.1128 -30.1128
   -29.9550 -29.9550 -29.9537 -29.9537 -29.9513 -29.9513 -29.9499 -29.9499
   -29.8801 -29.8801 -29.8763 -29.8763 -29.8401 -29.8401 -29.8370 -29.8370
   -19.7804 -19.7803 -19.7803 -19.7803 -19.7797 -19.7796 -19.7796 -19.7796
   -19.7698 -19.7698 -19.7698 -19.7698 -19.7690 -19.7690 -19.7689 -19.7688
   -19.7640 -19.7639 -19.7638 -19.7638 -19.7623 -19.7623 -19.7621 -19.7621
   -19.7457 -19.7457 -19.7454 -19.7454 -19.7452 -19.7452 -19.7449 -19.7449
   -19.7440 -19.7440 -19.7439 -19.7439 -19.7433 -19.7433 -19.7432 -19.7432
   -19.7375 -19.7375 -19.7374 -19.7374 -19.7357 -19.7357 -19.7356 -19.7356
   -19.7305 -19.7305 -19.7303 -19.7302 -19.7293 -19.7293 -19.7290 -19.7290
    -8.9728  -8.9728  -8.7946  -8.7946  -8.4819  -8.4819  -8.2232  -8.2232
    -8.1572  -8.1572  -7.9988  -7.9988  -7.9456  -7.9456  -7.9115  -7.9114
    -7.8632  -7.8632  -7.8100  -7.8100  -7.5118  -7.5118  -7.4487  -7.4487
     2.6314   2.6314   2.6609   2.6609   2.9577   2.9577   3.0749   3.0749
     3.2856   3.2856   3.4073   3.4073   3.5643   3.5643   3.6371   3.6371
     3.6999   3.6999   4.0640   4.0640   4.2760   4.2760   4.2936   4.2936
     4.3321   4.3321   4.4998   4.4998   4.5904   4.5904   4.7357   4.7357
     4.9886   4.9886   5.0298   5.0298   5.1622   5.1622   5.2972   5.2972
     5.3664   5.3664   5.4477   5.4477   5.5470   5.5470   5.7258   5.7258
     7.1585   7.1585   7.3101   7.3101   7.4509   7.4509   7.5317   7.5317
     7.6175   7.6175   7.6561   7.6561   7.7274   7.7274   7.8490   7.8490
     7.9414   7.9414   8.0406   8.0406   8.1285   8.1285   8.1639   8.1639
    11.7129  11.7129  12.0144  12.0144  12.1998  12.1998  12.4883  12.4883
    12.6187  12.6187  12.7225  12.7225  12.8528  12.8528  12.9458  12.9458
    13.1481  13.1481  13.3306  13.3306  13.4148  13.4148  13.7314  13.7314
    16.1270  16.1271  16.4549  16.4549  16.8996  16.8996  17.0451  17.0451
    17.4400  17.4400  17.9112  17.9113  18.0349

          k = 0.3333-0.4915-0.5000 ( 60732 PWs)   bands (ev):

   -65.6337 -65.6337 -65.6337 -65.6337 -65.6333 -65.6333 -65.6332 -65.6332
   -30.1559 -30.1559 -30.1360 -30.1360 -30.1337 -30.1337 -30.1139 -30.1139
   -29.9545 -29.9545 -29.9532 -29.9532 -29.9519 -29.9519 -29.9506 -29.9506
   -29.8782 -29.8782 -29.8601 -29.8601 -29.8567 -29.8567 -29.8386 -29.8386
   -19.7803 -19.7803 -19.7800 -19.7800 -19.7799 -19.7799 -19.7796 -19.7796
   -19.7698 -19.7698 -19.7694 -19.7694 -19.7692 -19.7692 -19.7689 -19.7689
   -19.7639 -19.7639 -19.7632 -19.7632 -19.7630 -19.7630 -19.7622 -19.7622
   -19.7456 -19.7456 -19.7454 -19.7454 -19.7451 -19.7451 -19.7451 -19.7450
   -19.7440 -19.7440 -19.7437 -19.7437 -19.7436 -19.7436 -19.7433 -19.7432
   -19.7374 -19.7374 -19.7365 -19.7365 -19.7364 -19.7364 -19.7356 -19.7356
   -19.7304 -19.7304 -19.7300 -19.7300 -19.7297 -19.7297 -19.7291 -19.7291
    -8.8751  -8.8751  -8.7069  -8.7069  -8.4919  -8.4919  -8.3179  -8.3179
    -8.1071  -8.1071  -8.0158  -8.0158  -7.9529  -7.9529  -7.9191  -7.9191
    -7.8413  -7.8413  -7.7859  -7.7859  -7.6883  -7.6883  -7.4789  -7.4789
     2.6571   2.6571   2.9595   2.9595   3.1967   3.1967   3.3454   3.3454
     3.4513   3.4513   3.5267   3.5267   3.5833   3.5833   3.6137   3.6137
     3.8460   3.8460   3.9114   3.9114   4.0293   4.0293   4.3028   4.3028
     4.3445   4.3445   4.4549   4.4549   4.5362   4.5362   4.7346   4.7346
     4.8635   4.8635   4.9185   4.9185   4.9786   4.9786   5.0206   5.0206
     5.1646   5.1647   5.3234   5.3234   5.4788   5.4788   5.5150   5.5150
     7.2123   7.2123   7.4382   7.4382   7.4799   7.4799   7.5494   7.5494
     7.6382   7.6382   7.6925   7.6925   7.8363   7.8363   7.8807   7.8807
     7.9481   7.9481   8.0708   8.0708   8.0977   8.0977   8.1532   8.1533
    11.9282  11.9282  12.1668  12.1668  12.3275  12.3275  12.4960  12.4960
    12.5613  12.5613  12.7794  12.7794  12.8589  12.8589  12.9176  12.9176
    13.0458  13.0458  13.0990  13.0990  13.4615  13.4616  13.5236  13.5236
    16.3180  16.3180  16.7172  16.7172  17.2470  17.2470  17.3255  17.3255
    17.6115  17.6115  17.7279  17.7280  17.7979

          k =-0.5000 0.0000-0.5000 ( 60740 PWs)   bands (ev):

   -65.6339 -65.6338 -65.6338 -65.6338 -65.6331 -65.6331 -65.6331 -65.6331
   -30.1379 -30.1379 -30.1372 -30.1371 -30.1331 -30.1331 -30.1325 -30.1324
   -29.9905 -29.9905 -29.9902 -29.9902 -29.9142 -29.9142 -29.9137 -29.9137
   -29.8594 -29.8593 -29.8592 -29.8591 -29.8576 -29.8576 -29.8572 -29.8572
   -19.7801 -19.7801 -19.7800 -19.7800 -19.7799 -19.7799 -19.7798 -19.7798
   -19.7695 -19.7695 -19.7694 -19.7694 -19.7693 -19.7693 -19.7692 -19.7692
   -19.7632 -19.7632 -19.7631 -19.7631 -19.7631 -19.7631 -19.7629 -19.7629
   -19.7479 -19.7479 -19.7479 -19.7479 -19.7446 -19.7446 -19.7446 -19.7446
   -19.7441 -19.7441 -19.7440 -19.7440 -19.7413 -19.7413 -19.7412 -19.7412
   -19.7368 -19.7368 -19.7367 -19.7367 -19.7361 -19.7361 -19.7361 -19.7361
   -19.7301 -19.7301 -19.7300 -19.7300 -19.7296 -19.7296 -19.7295 -19.7295
    -8.9677  -8.9677  -8.9430  -8.9430  -8.4676  -8.4676  -8.3853  -8.3853
    -8.2757  -8.2756  -8.1866  -8.1865  -7.8629  -7.8629  -7.8122  -7.8122
    -7.7636  -7.7636  -7.7064  -7.7064  -7.3080  -7.3080  -7.3051  -7.3051
     2.0196   2.0196   2.0405   2.0405   3.2541   3.2541   3.2840   3.2840
     3.4258   3.4258   3.4361   3.4361   3.6713   3.6713   3.7786   3.7786
     3.8169   3.8169   3.8652   3.8652   3.9282   3.9282   4.0652   4.0652
     4.0948   4.0949   4.3584   4.3584   4.6166   4.6166   4.6787   4.6787
     4.7792   4.7792   4.9232   4.9232   5.4924   5.4925   5.5526   5.5526
     5.8187   5.8187   5.8962   5.8962   6.5301   6.5301   6.5577   6.5577
     6.7720   6.7721   6.8455   6.8455   6.9048   6.9048   6.9072   6.9072
     7.7065   7.7065   7.7337   7.7337   7.7944   7.7945   7.9183   7.9183
     7.9871   7.9871   8.0076   8.0076   8.0852   8.0852   8.3198   8.3198
    11.7041  11.7041  11.8995  11.8995  11.9554  11.9554  12.1567  12.1567
    12.7052  12.7052  12.7581  12.7581  12.8724  12.8724  12.9550  12.9550
    13.5134  13.5134  13.6624  13.6624  13.8187  13.8187  13.9490  13.9490
    15.6898  15.6898  15.7418  15.7418  16.8362  16.8362  17.2763  17.2763
    17.3461  17.3461  17.4403  17.4403  17.7520

          k =-0.5000 0.1638-0.5000 ( 60728 PWs)   bands (ev):

   -65.6338 -65.6338 -65.6338 -65.6338 -65.6331 -65.6331 -65.6331 -65.6331
   -30.1375 -30.1375 -30.1367 -30.1367 -30.1333 -30.1333 -30.1327 -30.1327
   -29.9855 -29.9855 -29.9852 -29.9852 -29.9194 -29.9194 -29.9190 -29.9189
   -29.8592 -29.8592 -29.8591 -29.8591 -29.8578 -29.8578 -29.8574 -29.8574
   -19.7801 -19.7800 -19.7800 -19.7800 -19.7799 -19.7799 -19.7798 -19.7798
   -19.7695 -19.7695 -19.7694 -19.7694 -19.7693 -19.7693 -19.7692 -19.7692
   -19.7632 -19.7632 -19.7631 -19.7631 -19.7631 -19.7631 -19.7629 -19.7629
   -19.7475 -19.7475 -19.7475 -19.7475 -19.7446 -19.7446 -19.7446 -19.7446
   -19.7441 -19.7441 -19.7440 -19.7440 -19.7417 -19.7417 -19.7416 -19.7416
   -19.7368 -19.7368 -19.7367 -19.7367 -19.7362 -19.7362 -19.7362 -19.7362
   -19.7301 -19.7301 -19.7300 -19.7300 -19.7296 -19.7296 -19.7296 -19.7295
    -8.9097  -8.9097  -8.8811  -8.8811  -8.4789  -8.4789  -8.3983  -8.3982
    -8.2556  -8.2556  -8.1697  -8.1697  -7.8647  -7.8647  -7.8123  -7.8123
    -7.7683  -7.7683  -7.7067  -7.7067  -7.4051  -7.4051  -7.4001  -7.4001
     2.2297   2.2297   2.2513   2.2513   3.2667   3.2667   3.3042   3.3042
     3.4319   3.4319   3.4350   3.4351   3.6838   3.6838   3.8196   3.8196
     3.8219   3.8219   3.8690   3.8690   3.9729   3.9729   4.0935   4.0935
     4.1428   4.1428   4.4045   4.4045   4.6015   4.6015   4.6753   4.6753
     4.7607   4.7607   4.9192   4.9192   5.2512   5.2512   5.3047   5.3047
     5.5917   5.5917   5.6309   5.6309   6.2951   6.2951   6.2984   6.2984
     6.9286   6.9286   7.0193   7.0193   7.0866   7.0866   7.1336   7.1336
     7.7121   7.7121   7.7398   7.7398   7.8126   7.8126   7.9209   7.9209
     7.9926   7.9926   8.0288   8.0288   8.0821   8.0821   8.2974   8.2974
    11.7740  11.7740  11.9882  11.9882  11.9906  11.9906  12.2261  12.2261
    12.7103  12.7103  12.7455  12.7455  12.8833  12.8833  12.9599  12.9599
    13.3802  13.3802  13.5294  13.5294  13.7231  13.7231  13.8493  13.8493
    15.9810  15.9810  16.0190  16.0190  16.8945  16.8946  17.2691  17.2691
    17.3179  17.3179  17.4611  17.4611  17.7868

          k =-0.5000 0.3277-0.5000 ( 60784 PWs)   bands (ev):

   -65.6337 -65.6337 -65.6337 -65.6336 -65.6333 -65.6333 -65.6333 -65.6333
   -30.1365 -30.1365 -30.1357 -30.1357 -30.1340 -30.1340 -30.1334 -30.1334
   -29.9718 -29.9718 -29.9715 -29.9715 -29.9336 -29.9336 -29.9332 -29.9332
   -29.8589 -29.8589 -29.8589 -29.8588 -29.8581 -29.8581 -29.8578 -29.8578
   -19.7800 -19.7800 -19.7800 -19.7800 -19.7799 -19.7799 -19.7799 -19.7799
   -19.7695 -19.7695 -19.7694 -19.7694 -19.7693 -19.7693 -19.7692 -19.7692
   -19.7632 -19.7632 -19.7631 -19.7631 -19.7631 -19.7630 -19.7629 -19.7629
   -19.7465 -19.7465 -19.7465 -19.7465 -19.7448 -19.7448 -19.7447 -19.7447
   -19.7440 -19.7440 -19.7439 -19.7439 -19.7428 -19.7427 -19.7426 -19.7426
   -19.7367 -19.7367 -19.7366 -19.7366 -19.7363 -19.7363 -19.7363 -19.7363
   -19.7300 -19.7300 -19.7299 -19.7299 -19.7297 -19.7297 -19.7297 -19.7296
    -8.7665  -8.7665  -8.7223  -8.7223  -8.5166  -8.5166  -8.4447  -8.4447
    -8.1840  -8.1840  -8.1077  -8.1077  -7.8793  -7.8792  -7.8102  -7.8102
    -7.8049  -7.8049  -7.7072  -7.7072  -7.6316  -7.6316  -7.6049  -7.6049
     2.7690   2.7690   2.7901   2.7901   3.2897   3.2897   3.3371   3.3371
     3.4415   3.4415   3.4422   3.4422   3.7270   3.7270   3.8052   3.8052
     3.8576   3.8576   3.8915   3.8915   4.0787   4.0787   4.1276   4.1276
     4.3424   4.3424   4.4241   4.4241   4.6398   4.6398   4.6547   4.6547
     4.6593   4.6593   4.9012   4.9012   4.9141   4.9141   4.9763   4.9763
     5.1845   5.1845   5.2039   5.2039   5.6258   5.6258   5.6648   5.6648
     7.2142   7.2142   7.3442   7.3442   7.3537   7.3537   7.4838   7.4838
     7.7136   7.7137   7.7503   7.7504   7.8249   7.8249   7.9199   7.9199
     8.0199   8.0199   8.0491   8.0491   8.0695   8.0695   8.2242   8.2242
    11.9968  11.9969  12.1359  12.1359  12.2104  12.2104  12.4074  12.4074
    12.7033  12.7033  12.7105  12.7105  12.9097  12.9097  12.9805  12.9805
    13.0839  13.0840  13.2229  13.2229  13.4374  13.4374  13.5395  13.5395
    16.6896  16.6896  16.7046  16.7046  17.1050  17.1050  17.2303  17.2303
    17.2669  17.2669  17.5046  17.5047  17.8720

          k =-0.5000-0.4915-0.5000 ( 60704 PWs)   bands (ev):

   -65.6335 -65.6335 -65.6335 -65.6335 -65.6335 -65.6334 -65.6334 -65.6334
   -30.1357 -30.1356 -30.1347 -30.1346 -30.1345 -30.1345 -30.1345 -30.1345
   -29.9529 -29.9529 -29.9528 -29.9528 -29.9528 -29.9528 -29.9520 -29.9520
   -29.8585 -29.8585 -29.8585 -29.8585 -29.8585 -29.8585 -29.8582 -29.8582
   -19.7800 -19.7800 -19.7800 -19.7800 -19.7800 -19.7799 -19.7799 -19.7799
   -19.7695 -19.7695 -19.7694 -19.7694 -19.7693 -19.7693 -19.7692 -19.7692
   -19.7632 -19.7632 -19.7631 -19.7631 -19.7630 -19.7630 -19.7630 -19.7630
   -19.7454 -19.7453 -19.7453 -19.7453 -19.7453 -19.7453 -19.7452 -19.7452
   -19.7438 -19.7438 -19.7437 -19.7437 -19.7436 -19.7436 -19.7436 -19.7436
   -19.7365 -19.7365 -19.7365 -19.7365 -19.7365 -19.7364 -19.7364 -19.7364
   -19.7299 -19.7299 -19.7298 -19.7298 -19.7298 -19.7298 -19.7297 -19.7297
    -8.6508  -8.6508  -8.5717  -8.5717  -8.5502  -8.5502  -8.5502  -8.5502
    -8.0811  -8.0810  -7.9763  -7.9763  -7.9763  -7.9763  -7.9193  -7.9193
    -7.7872  -7.7871  -7.7871  -7.7871  -7.7066  -7.7066  -7.6861  -7.6861
     3.2458   3.2458   3.2518   3.2518   3.2518   3.2518   3.3283   3.3284
     3.4233   3.4233   3.6042   3.6042   3.6042   3.6042   3.7826   3.7826
     3.8625   3.8625   3.9171   3.9171   3.9722   3.9722   3.9722   3.9722
     4.5079   4.5079   4.5185   4.5185   4.6362   4.6362   4.6362   4.6362
     4.8044   4.8045   4.8392   4.8392   4.8392   4.8392   4.9135   4.9135
     5.0201   5.0201   5.0885   5.0885   5.0885   5.0885   5.1093   5.1094
     7.3346   7.3346   7.4762   7.4762   7.4762   7.4762   7.6486   7.6486
     7.7345   7.7345   7.7345   7.7345   7.8258   7.8258   7.9095   7.9095
     8.0543   8.0543   8.0543   8.0543   8.0821   8.0821   8.1287   8.1287
    12.2491  12.2491  12.3274  12.3274  12.3274  12.3274  12.4010  12.4010
    12.7367  12.7368  12.7368  12.7368  12.8005  12.8006  12.9495  12.9495
    13.0251  13.0251  13.1751  13.1751  13.1751  13.1751  13.2158  13.2158
    17.0726  17.0726  17.0726  17.0726  17.2255  17.2256  17.2752  17.2752
    17.6753  17.6753  17.7649  17.7649  17.7650

     the Fermi energy is    10.7068 ev

!    total energy              =   -6260.76014517 Ry
     Harris-Foulkes estimate   =   -6260.76014518 Ry
     estimated scf accuracy    <          8.1E-09 Ry

     The total energy is the sum of the following terms:

     one-electron contribution =   -4591.10457036 Ry
     hartree contribution      =    2539.21159438 Ry
     xc contribution           =    -966.00723925 Ry
     ewald contribution        =   -3242.85991868 Ry
     smearing contrib. (-TS)   =      -0.00001127 Ry

     convergence has been achieved in  12 iterations

     Writing output data file Landau_38.save
 
     init_run     :     18.67s CPU     19.62s WALL (       1 calls)
     electrons    :    833.83s CPU    846.90s WALL (       1 calls)

     Called by init_run:
     wfcinit      :     16.91s CPU     17.72s WALL (       1 calls)
     potinit      :      0.67s CPU      0.70s WALL (       1 calls)

     Called by electrons:
     c_bands      :    728.86s CPU    740.86s WALL (      12 calls)
     sum_band     :     97.99s CPU     98.50s WALL (      12 calls)
     v_of_rho     :      1.54s CPU      1.56s WALL (      13 calls)
     mix_rho      :      2.45s CPU      2.86s WALL (      12 calls)

     Called by c_bands:
     init_us_2    :      4.87s CPU      5.42s WALL (      25 calls)
     cegterg      :    506.68s CPU    518.46s WALL (      12 calls)

     Called by sum_band:

     Called by *egterg:
     h_psi        :    392.30s CPU    393.98s WALL (      49 calls)
     g_psi        :      1.73s CPU      1.73s WALL (      36 calls)
     cdiaghg      :      5.87s CPU      5.89s WALL (      48 calls)

     Called by h_psi:
     h_psi:pot    :    389.25s CPU    390.84s WALL (      49 calls)
     h_psi:calbec :     49.13s CPU     50.15s WALL (      49 calls)
     vloc_psi     :    287.81s CPU    288.15s WALL (      49 calls)
     add_vuspsi   :     52.31s CPU     52.55s WALL (      49 calls)

     General routines
     calbec       :     49.13s CPU     50.15s WALL (      49 calls)
     fft          :      0.90s CPU      0.92s WALL (      52 calls)
     fftw         :    286.43s CPU    286.56s WALL (   15766 calls)
 
     Parallel routines
 
     PWSCF        : 14m17.12s CPU    14m34.62s WALL

 
   This run was terminated on:  12:13:13  17Sep2019            

=------------------------------------------------------------------------------=
   JOB DONE.
=------------------------------------------------------------------------------=
