
     Program PWSCF v.6.2 (svn rev. 14038) starts on 28Aug2019 at 12:34:33 

     This program is part of the open-source Quantum ESPRESSO suite
     for quantum simulation of materials; please cite
         "P. Giannozzi et al., J. Phys.:Condens. Matter 21 395502 (2009);
         "P. Giannozzi et al., J. Phys.:Condens. Matter 29 465901 (2017);
          URL http://www.quantum-espresso.org", 
     in publications or presentations arising from this work. More details at
     http://www.quantum-espresso.org/quote

     Parallel version (MPI), running on    64 processors

     MPI processes distributed on     4 nodes
     K-points division:     npool     =      64
     Reading input from scf.in

     Current dimensions of program PWSCF are:
     Max number of different atomic species (ntypx) = 10
     Max number of k-points (npk) =  40000
     Max angular momentum in pseudopotentials (lmaxx) =  3

     Subspace diagonalization in iterative solution of the eigenvalue problem:
     a serial algorithm will be used

 
     G-vector sticks info
     --------------------
     sticks:   dense  smooth     PW     G-vecs:    dense   smooth      PW
     Sum        7609    7609   2033               492213   492213   68191
 


     bravais-lattice index     =            0
     lattice parameter (alat)  =      13.8182  a.u.
     unit-cell volume          =    2770.4882 (a.u.)^3
     number of atoms/cell      =           32
     number of atomic types    =            2
     number of electrons       =       368.36
     number of Kohn-Sham states=          221
     kinetic-energy cutoff     =     120.0000  Ry
     charge density cutoff     =     480.0000  Ry
     convergence threshold     =      1.0E-08
     mixing beta               =       0.7000
     number of iterations used =            8  plain     mixing
     Exchange-correlation      = SLA PW NOGX NOGC ( 1  4  0  0 0 0)

     celldm(1)=  13.818213  celldm(2)=   0.000000  celldm(3)=   0.000000
     celldm(4)=   0.000000  celldm(5)=   0.000000  celldm(6)=   0.000000

     crystal axes: (cart. coord. in units of alat)
               a(1) = (   1.000000   0.000000   0.000000 )  
               a(2) = (   0.000000   1.042439   0.000000 )  
               a(3) = (   0.000000   0.000000   1.007279 )  

     reciprocal axes: (cart. coord. in units 2 pi/alat)
               b(1) = (  1.000000  0.000000  0.000000 )  
               b(2) = (  0.000000  0.959288  0.000000 )  
               b(3) = (  0.000000  0.000000  0.992773 )  


     PseudoPot. # 1 for W  read from file:
     /cluster/scratch/mnoe/QE/pps/W_ONCV_LDA-4.0.upf
     MD5 check sum: ba0307d5d4cd419d6f1d13dc49d7c13a
     Pseudo is Norm-conserving + core correction, Zval = 28.0
     Generated using ONCVPSP code by D. R. Hamann
     Using radial grid of 1380 points,  8 beta functions with: 
                l(1) =   0
                l(2) =   0
                l(3) =   1
                l(4) =   1
                l(5) =   2
                l(6) =   2
                l(7) =   3
                l(8) =   3

     PseudoPot. # 2 for O  read from file:
     /cluster/scratch/mnoe/QE/pps/O_ONCV_LDA-3.0.upf
     MD5 check sum: b55cdb4f45ae2203d24ad12cf8d61a31
     Pseudo is Norm-conserving + core correction, Zval =  6.0
     Generated using ONCVPSP code by D. R. Hamann
     Using radial grid of  926 points,  5 beta functions with: 
                l(1) =   0
                l(2) =   0
                l(3) =   1
                l(4) =   1
                l(5) =   2

     atomic species   valence    mass     pseudopotential
        W             28.00   183.84000     W ( 1.00)
        O              6.00    15.99940     O ( 1.00)

      8 Sym. Ops., with inversion, found ( 6 have fractional translation)



   Cartesian axes

     site n.     atom                  positions (alat units)
         1           W   tau(   1) = (   0.2328900   0.2938219   0.0162776  )
         2           W   tau(   2) = (   0.7671100   0.7486174   0.9910015  )
         3           W   tau(   3) = (   0.2671100   0.2273977   0.5199172  )
         4           W   tau(   4) = (   0.7328900   0.8150416   0.4873619  )
         5           W   tau(   5) = (   0.7671100   0.2938219   0.4873619  )
         6           W   tau(   6) = (   0.2328900   0.7486174   0.5199172  )
         7           W   tau(   7) = (   0.7328900   0.2273977   0.9910015  )
         8           W   tau(   8) = (   0.2671100   0.8150416   0.0162776  )
         9           O   tau(   9) = (   0.2184300   0.0086731   0.0050666  )
        10           O   tau(  10) = (   0.7815700   1.0337662   1.0022126  )
        11           O   tau(  11) = (   0.2815700   0.5125466   0.5087062  )
        12           O   tau(  12) = (   0.7184300   0.5298927   0.4985730  )
        13           O   tau(  13) = (   0.7815700   0.0086731   0.4985730  )
        14           O   tau(  14) = (   0.2184300   1.0337662   0.5087062  )
        15           O   tau(  15) = (   0.7184300   0.5125466   1.0022126  )
        16           O   tau(  16) = (   0.2815700   0.5298927   0.0050666  )
        17           O   tau(  17) = (   0.5046800   0.2268556   0.4528123  )
        18           O   tau(  18) = (   0.4953200   0.8155837   0.5544668  )
        19           O   tau(  19) = (   0.9953200   0.2943640   0.9564519  )
        20           O   tau(  20) = (   0.0046799   0.7480753   0.0508273  )
        21           O   tau(  21) = (   0.4953200   0.2268556   0.0508273  )
        22           O   tau(  22) = (   0.5046800   0.8155837   0.9564519  )
        23           O   tau(  23) = (   0.0046799   0.2943640   0.5544668  )
        24           O   tau(  24) = (   0.9953200   0.7480753   0.4528123  )
        25           O   tau(  25) = (   0.6995400   0.2532398   0.7483178  )
        26           O   tau(  26) = (   0.3004600   0.7891995   0.2589614  )
        27           O   tau(  27) = (   0.8004600   0.2679799   0.2446782  )
        28           O   tau(  28) = (   0.1995400   0.7744594   0.7626009  )
        29           O   tau(  29) = (   0.3004600   0.2532398   0.7626009  )
        30           O   tau(  30) = (   0.6995400   0.7891995   0.2446782  )
        31           O   tau(  31) = (   0.1995400   0.2679799   0.2589614  )
        32           O   tau(  32) = (   0.8004600   0.7744594   0.7483178  )

     number of k points=    64  gaussian smearing, width (Ry)=  0.0007
                       cart. coord. in units 2pi/alat
        k(    1) = (   0.0000000   0.0000000   0.0000000), wk =   0.0092593
        k(    2) = (   0.0000000   0.0000000   0.1654622), wk =   0.0185185
        k(    3) = (   0.0000000   0.0000000   0.3309245), wk =   0.0185185
        k(    4) = (   0.0000000   0.0000000  -0.4963867), wk =   0.0092593
        k(    5) = (   0.0000000   0.1598814   0.0000000), wk =   0.0185185
        k(    6) = (   0.0000000   0.1598814   0.1654622), wk =   0.0370370
        k(    7) = (   0.0000000   0.1598814   0.3309245), wk =   0.0370370
        k(    8) = (   0.0000000   0.1598814  -0.4963867), wk =   0.0185185
        k(    9) = (   0.0000000   0.3197628   0.0000000), wk =   0.0185185
        k(   10) = (   0.0000000   0.3197628   0.1654622), wk =   0.0370370
        k(   11) = (   0.0000000   0.3197628   0.3309245), wk =   0.0370370
        k(   12) = (   0.0000000   0.3197628  -0.4963867), wk =   0.0185185
        k(   13) = (   0.0000000  -0.4796442   0.0000000), wk =   0.0092593
        k(   14) = (   0.0000000  -0.4796442   0.1654622), wk =   0.0185185
        k(   15) = (   0.0000000  -0.4796442   0.3309245), wk =   0.0185185
        k(   16) = (   0.0000000  -0.4796442  -0.4963867), wk =   0.0092593
        k(   17) = (   0.1666667   0.0000000   0.0000000), wk =   0.0185185
        k(   18) = (   0.1666667   0.0000000   0.1654622), wk =   0.0370370
        k(   19) = (   0.1666667   0.0000000   0.3309245), wk =   0.0370370
        k(   20) = (   0.1666667   0.0000000  -0.4963867), wk =   0.0185185
        k(   21) = (   0.1666667   0.1598814   0.0000000), wk =   0.0370370
        k(   22) = (   0.1666667   0.1598814   0.1654622), wk =   0.0740741
        k(   23) = (   0.1666667   0.1598814   0.3309245), wk =   0.0740741
        k(   24) = (   0.1666667   0.1598814  -0.4963867), wk =   0.0370370
        k(   25) = (   0.1666667   0.3197628   0.0000000), wk =   0.0370370
        k(   26) = (   0.1666667   0.3197628   0.1654622), wk =   0.0740741
        k(   27) = (   0.1666667   0.3197628   0.3309245), wk =   0.0740741
        k(   28) = (   0.1666667   0.3197628  -0.4963867), wk =   0.0370370
        k(   29) = (   0.1666667  -0.4796442   0.0000000), wk =   0.0185185
        k(   30) = (   0.1666667  -0.4796442   0.1654622), wk =   0.0370370
        k(   31) = (   0.1666667  -0.4796442   0.3309245), wk =   0.0370370
        k(   32) = (   0.1666667  -0.4796442  -0.4963867), wk =   0.0185185
        k(   33) = (   0.3333333   0.0000000   0.0000000), wk =   0.0185185
        k(   34) = (   0.3333333   0.0000000   0.1654622), wk =   0.0370370
        k(   35) = (   0.3333333   0.0000000   0.3309245), wk =   0.0370370
        k(   36) = (   0.3333333   0.0000000  -0.4963867), wk =   0.0185185
        k(   37) = (   0.3333333   0.1598814   0.0000000), wk =   0.0370370
        k(   38) = (   0.3333333   0.1598814   0.1654622), wk =   0.0740741
        k(   39) = (   0.3333333   0.1598814   0.3309245), wk =   0.0740741
        k(   40) = (   0.3333333   0.1598814  -0.4963867), wk =   0.0370370
        k(   41) = (   0.3333333   0.3197628   0.0000000), wk =   0.0370370
        k(   42) = (   0.3333333   0.3197628   0.1654622), wk =   0.0740741
        k(   43) = (   0.3333333   0.3197628   0.3309245), wk =   0.0740741
        k(   44) = (   0.3333333   0.3197628  -0.4963867), wk =   0.0370370
        k(   45) = (   0.3333333  -0.4796442   0.0000000), wk =   0.0185185
        k(   46) = (   0.3333333  -0.4796442   0.1654622), wk =   0.0370370
        k(   47) = (   0.3333333  -0.4796442   0.3309245), wk =   0.0370370
        k(   48) = (   0.3333333  -0.4796442  -0.4963867), wk =   0.0185185
        k(   49) = (  -0.5000000   0.0000000   0.0000000), wk =   0.0092593
        k(   50) = (  -0.5000000   0.0000000   0.1654622), wk =   0.0185185
        k(   51) = (  -0.5000000   0.0000000   0.3309245), wk =   0.0185185
        k(   52) = (  -0.5000000   0.0000000  -0.4963867), wk =   0.0092593
        k(   53) = (  -0.5000000   0.1598814   0.0000000), wk =   0.0185185
        k(   54) = (  -0.5000000   0.1598814   0.1654622), wk =   0.0370370
        k(   55) = (  -0.5000000   0.1598814   0.3309245), wk =   0.0370370
        k(   56) = (  -0.5000000   0.1598814  -0.4963867), wk =   0.0185185
        k(   57) = (  -0.5000000   0.3197628   0.0000000), wk =   0.0185185
        k(   58) = (  -0.5000000   0.3197628   0.1654622), wk =   0.0370370
        k(   59) = (  -0.5000000   0.3197628   0.3309245), wk =   0.0370370
        k(   60) = (  -0.5000000   0.3197628  -0.4963867), wk =   0.0185185
        k(   61) = (  -0.5000000  -0.4796442   0.0000000), wk =   0.0092593
        k(   62) = (  -0.5000000  -0.4796442   0.1654622), wk =   0.0185185
        k(   63) = (  -0.5000000  -0.4796442   0.3309245), wk =   0.0185185
        k(   64) = (  -0.5000000  -0.4796442  -0.4963867), wk =   0.0092593

     Dense  grid:   492213 G-vectors     FFT dimensions: ( 100, 108, 100)

     Estimated max dynamical RAM per process >       2.69 GB

     Estimated total dynamical RAM >     171.85 GB

     Initial potential from superposition of free atoms

     starting charge  367.99656, renormalised to  368.36000
     Starting wfc are  232 randomized atomic wfcs

     total cpu time spent up to now is       20.2 secs

     Self-consistent Calculation

     iteration #  1     ecut=   120.00 Ry     beta= 0.70
     Davidson diagonalization with overlap
     ethr =  1.00E-02,  avg # of iterations =  5.0

     total cpu time spent up to now is       86.3 secs

     total energy              =   -6253.69505988 Ry
     Harris-Foulkes estimate   =   -6264.33484776 Ry
     estimated scf accuracy    <      13.43496238 Ry

     iteration #  2     ecut=   120.00 Ry     beta= 0.70
     Davidson diagonalization with overlap
     ethr =  3.65E-03,  avg # of iterations =  3.4

     total cpu time spent up to now is      152.2 secs

     total energy              =   -6250.59989957 Ry
     Harris-Foulkes estimate   =   -6270.39351240 Ry
     estimated scf accuracy    <      52.90440657 Ry

     iteration #  3     ecut=   120.00 Ry     beta= 0.70
     Davidson diagonalization with overlap
     ethr =  3.65E-03,  avg # of iterations =  3.4

     total cpu time spent up to now is      212.3 secs

     total energy              =   -6260.82280081 Ry
     Harris-Foulkes estimate   =   -6261.09418726 Ry
     estimated scf accuracy    <       0.88640181 Ry

     iteration #  4     ecut=   120.00 Ry     beta= 0.70
     Davidson diagonalization with overlap
     ethr =  2.41E-04,  avg # of iterations =  2.5

     total cpu time spent up to now is      262.0 secs

     total energy              =   -6260.82204948 Ry
     Harris-Foulkes estimate   =   -6260.89115064 Ry
     estimated scf accuracy    <       0.21461295 Ry

     iteration #  5     ecut=   120.00 Ry     beta= 0.70
     Davidson diagonalization with overlap
     ethr =  5.83E-05,  avg # of iterations =  5.0

     total cpu time spent up to now is      318.0 secs

     total energy              =   -6260.82514940 Ry
     Harris-Foulkes estimate   =   -6260.85475310 Ry
     estimated scf accuracy    <       0.06584424 Ry

     iteration #  6     ecut=   120.00 Ry     beta= 0.70
     Davidson diagonalization with overlap
     ethr =  1.79E-05,  avg # of iterations =  5.6

     total cpu time spent up to now is      379.7 secs

     total energy              =   -6260.83951225 Ry
     Harris-Foulkes estimate   =   -6260.84179022 Ry
     estimated scf accuracy    <       0.00626170 Ry

     iteration #  7     ecut=   120.00 Ry     beta= 0.70
     Davidson diagonalization with overlap
     ethr =  1.70E-06,  avg # of iterations =  5.1

     total cpu time spent up to now is      436.9 secs

     total energy              =   -6260.84018994 Ry
     Harris-Foulkes estimate   =   -6260.84033729 Ry
     estimated scf accuracy    <       0.00029164 Ry

     iteration #  8     ecut=   120.00 Ry     beta= 0.70
     Davidson diagonalization with overlap
     ethr =  7.92E-08,  avg # of iterations =  3.1

     total cpu time spent up to now is      497.3 secs

     total energy              =   -6260.84027904 Ry
     Harris-Foulkes estimate   =   -6260.84029408 Ry
     estimated scf accuracy    <       0.00004945 Ry

     iteration #  9     ecut=   120.00 Ry     beta= 0.70
     Davidson diagonalization with overlap
     ethr =  1.34E-08,  avg # of iterations =  2.4

     total cpu time spent up to now is      548.7 secs

     total energy              =   -6260.84028300 Ry
     Harris-Foulkes estimate   =   -6260.84028871 Ry
     estimated scf accuracy    <       0.00002285 Ry

     iteration # 10     ecut=   120.00 Ry     beta= 0.70
     Davidson diagonalization with overlap
     ethr =  6.20E-09,  avg # of iterations =  1.2

     total cpu time spent up to now is      595.6 secs

     total energy              =   -6260.84028184 Ry
     Harris-Foulkes estimate   =   -6260.84028457 Ry
     estimated scf accuracy    <       0.00000631 Ry

     iteration # 11     ecut=   120.00 Ry     beta= 0.70
     Davidson diagonalization with overlap
     ethr =  1.71E-09,  avg # of iterations =  2.9

     total cpu time spent up to now is      647.7 secs

     total energy              =   -6260.84028319 Ry
     Harris-Foulkes estimate   =   -6260.84028324 Ry
     estimated scf accuracy    <       0.00000012 Ry

     iteration # 12     ecut=   120.00 Ry     beta= 0.70
     Davidson diagonalization with overlap
     ethr =  3.24E-11,  avg # of iterations =  2.0

     total cpu time spent up to now is      706.4 secs

     total energy              =   -6260.84028320 Ry
     Harris-Foulkes estimate   =   -6260.84028322 Ry
     estimated scf accuracy    <       0.00000003 Ry

     iteration # 13     ecut=   120.00 Ry     beta= 0.70
     Davidson diagonalization with overlap
     ethr =  6.92E-12,  avg # of iterations =  2.2

     total cpu time spent up to now is      758.2 secs

     End of self-consistent calculation

          k = 0.0000 0.0000 0.0000 ( 61539 PWs)   bands (ev):

   -65.8472 -65.8466 -65.8463 -65.8462 -65.8458 -65.8456 -65.8453 -65.8447
   -30.2755 -30.2669 -30.2666 -30.2569 -30.2386 -30.2324 -30.2250 -30.2240
   -30.2237 -30.2069 -30.1979 -30.1960 -30.1843 -30.1817 -30.1768 -30.1530
   -30.1294 -30.1281 -30.1205 -30.1151 -30.1054 -30.0972 -30.0968 -30.0887
   -20.0002 -20.0000 -19.9996 -19.9995 -19.9993 -19.9992 -19.9987 -19.9986
   -19.9835 -19.9831 -19.9831 -19.9829 -19.9826 -19.9826 -19.9824 -19.9819
   -19.9773 -19.9771 -19.9771 -19.9767 -19.9764 -19.9762 -19.9762 -19.9761
   -19.9760 -19.9759 -19.9757 -19.9755 -19.9721 -19.9718 -19.9712 -19.9709
   -19.9662 -19.9660 -19.9659 -19.9658 -19.9613 -19.9610 -19.9609 -19.9606
   -19.9572 -19.9570 -19.9563 -19.9561 -19.9514 -19.9514 -19.9506 -19.9506
   -19.9442 -19.9441 -19.9431 -19.9429 -19.9414 -19.9412 -19.9402 -19.9400
    -9.7304  -9.4058  -9.2817  -9.2721  -8.9750  -8.9334  -8.8582  -8.7487
    -8.7248  -8.6515  -8.6054  -8.6002  -7.7148  -7.6388  -7.5968  -7.5732
    -7.5556  -7.5536  -7.5519  -7.4877  -7.4746  -7.4422  -7.4333  -7.4246
     1.5556   1.5718   1.6150   1.6162   1.6506   1.6569   1.7087   1.8385
     1.8525   1.9383   1.9505   2.1609   2.6077   2.7078   2.7431   2.7963
     2.8844   2.9737   4.3085   4.4097   4.5584   4.7904   4.8361   4.9389
     4.9883   5.0230   5.0255   5.0286   5.2944   5.3509   5.4322   5.5703
     5.6996   5.7680   5.7743   5.7846   5.8712   5.8838   5.9418   5.9967
     6.0252   6.0406   6.0517   6.0696   6.1621   6.1759   6.2129   6.3007
     6.3460   6.4419   6.4889   6.6989   6.7251   6.9258   6.9708   7.0268
     7.0419   7.1136   7.1449   7.1732   7.1772   7.2303   7.3606   7.4030
     7.4942   7.5320   7.8970   7.9287   8.0883   8.1565   8.3099   8.3590
     9.9648  10.0025  10.3796  10.3866  10.4549  10.4672  12.3506  12.4789
    12.5873  12.5891  12.7559  12.7834  12.7950  12.8929  12.9324  12.9766
    13.4588  13.4634  13.5063  13.5809  13.8022  13.8774  14.2822  14.2880
    14.8263  14.8460  15.1068  15.1409  15.6318  15.6800  15.8641  16.1315
    16.2719  16.9489  17.0621  17.2391  17.8230

          k = 0.0000 0.0000 0.1655 ( 61491 PWs)   bands (ev):

   -65.8471 -65.8466 -65.8464 -65.8461 -65.8458 -65.8455 -65.8453 -65.8448
   -30.2746 -30.2673 -30.2656 -30.2574 -30.2352 -30.2279 -30.2243 -30.2217
   -30.2214 -30.2019 -30.1986 -30.1970 -30.1820 -30.1801 -30.1788 -30.1519
   -30.1341 -30.1331 -30.1259 -30.1194 -30.1051 -30.0981 -30.0968 -30.0898
   -20.0002 -20.0000 -19.9997 -19.9996 -19.9993 -19.9992 -19.9988 -19.9987
   -19.9835 -19.9831 -19.9831 -19.9828 -19.9826 -19.9825 -19.9824 -19.9820
   -19.9773 -19.9771 -19.9771 -19.9767 -19.9765 -19.9764 -19.9762 -19.9762
   -19.9761 -19.9758 -19.9756 -19.9754 -19.9720 -19.9718 -19.9712 -19.9710
   -19.9662 -19.9660 -19.9660 -19.9658 -19.9613 -19.9610 -19.9609 -19.9607
   -19.9568 -19.9566 -19.9559 -19.9558 -19.9518 -19.9518 -19.9510 -19.9510
   -19.9442 -19.9440 -19.9431 -19.9430 -19.9413 -19.9412 -19.9403 -19.9401
    -9.6850  -9.3508  -9.2995  -9.2159  -8.9491  -8.8910  -8.8672  -8.7111
    -8.6899  -8.6427  -8.6049  -8.5753  -7.7593  -7.7424  -7.6457  -7.6014
    -7.5947  -7.5910  -7.5490  -7.5467  -7.5077  -7.4909  -7.4500  -7.4334
     1.6308   1.6469   1.6674   1.7109   1.7432   1.7581   1.8335   1.8614
     1.9341   1.9613   2.0846   2.2611   2.6976   2.7515   2.7991   2.8766
     2.8817   3.0575   4.2972   4.3076   4.5711   4.5925   4.6413   4.7718
     4.8181   4.8259   5.0303   5.0680   5.1325   5.3104   5.4502   5.5256
     5.5662   5.6683   5.6759   5.8011   5.8132   5.8240   5.8865   5.8923
     5.9274   6.0412   6.0849   6.1067   6.1144   6.1797   6.2444   6.3504
     6.3505   6.6001   6.6527   6.7127   6.8573   6.9270   6.9312   6.9442
     7.0475   7.0538   7.1314   7.1662   7.2018   7.2256   7.2654   7.2917
     7.3278   7.3839   7.9217   7.9375   8.1057   8.1614   8.2608   8.3146
    10.1650  10.2503  10.3817  10.4597  10.6623  10.7230  12.3941  12.4332
    12.5302  12.6515  12.7168  12.7957  12.8146  12.9492  12.9784  12.9813
    13.3321  13.4764  13.4852  13.5206  13.8705  13.8782  14.1613  14.1915
    14.8705  14.9360  15.1026  15.2500  15.6509  15.7333  15.8334  16.2422
    16.4013  16.9912  17.1073  17.2290  17.9071

          k = 0.0000 0.0000 0.3309 ( 61500 PWs)   bands (ev):

   -65.8470 -65.8465 -65.8464 -65.8460 -65.8459 -65.8455 -65.8454 -65.8449
   -30.2727 -30.2686 -30.2633 -30.2587 -30.2298 -30.2254 -30.2172 -30.2132
   -30.2126 -30.2010 -30.2000 -30.1878 -30.1855 -30.1744 -30.1739 -30.1481
   -30.1476 -30.1468 -30.1403 -30.1298 -30.1041 -30.1004 -30.0958 -30.0920
   -20.0001 -19.9999 -19.9998 -19.9997 -19.9992 -19.9991 -19.9989 -19.9988
   -19.9834 -19.9832 -19.9830 -19.9827 -19.9827 -19.9825 -19.9824 -19.9821
   -19.9772 -19.9770 -19.9770 -19.9767 -19.9766 -19.9766 -19.9766 -19.9763
   -19.9759 -19.9756 -19.9756 -19.9754 -19.9718 -19.9716 -19.9714 -19.9711
   -19.9662 -19.9660 -19.9659 -19.9658 -19.9612 -19.9610 -19.9609 -19.9607
   -19.9558 -19.9556 -19.9549 -19.9548 -19.9529 -19.9528 -19.9521 -19.9520
   -19.9440 -19.9438 -19.9434 -19.9432 -19.9411 -19.9409 -19.9405 -19.9403
    -9.5728  -9.3543  -9.2184  -9.0841  -8.9976  -8.8980  -8.6540  -8.6530
    -8.6173  -8.5661  -8.5523  -8.4615  -8.0122  -8.0099  -7.9054  -7.8868
    -7.6459  -7.6140  -7.5278  -7.5258  -7.5191  -7.4993  -7.4711  -7.4576
     1.6364   1.6406   1.7194   1.7350   1.8016   1.8227   1.8904   1.9276
     2.5223   2.5748   2.6671   2.7711   2.7744   2.8728   2.9494   3.0591
     3.1162   3.2857   3.9278   4.0703   4.0707   4.1523   4.3454   4.4802
     4.6747   4.7242   4.7901   4.8751   4.9292   5.0461   5.1398   5.3760
     5.4099   5.4414   5.4788   5.5410   5.6880   5.7327   5.7936   5.8745
     6.0133   6.0548   6.0924   6.1240   6.2162   6.2411   6.3581   6.3823
     6.4577   6.5979   6.5988   6.6610   6.7574   6.7703   6.7919   6.9691
     6.9946   7.1188   7.1490   7.1661   7.1743   7.2285   7.3112   7.3595
     7.4165   7.5406   7.8929   7.8997   8.1000   8.1374   8.1621   8.1727
    10.3008  10.3657  10.8339  10.9665  11.2121  11.3176  12.1243  12.2276
    12.4329  12.5114  12.6580  12.7039  12.9182  12.9263  13.0021  13.1152
    13.2006  13.3406  13.4176  13.5318  13.8672  13.8843  13.9383  13.9505
    14.9695  15.0879  15.2340  15.5232  15.7330  15.7868  16.1153  16.1509
    16.4748  17.1803  17.5997  17.6129  17.7525

          k = 0.0000 0.0000-0.4964 ( 61484 PWs)   bands (ev):

   -65.8468 -65.8468 -65.8462 -65.8462 -65.8457 -65.8457 -65.8452 -65.8452
   -30.2705 -30.2705 -30.2608 -30.2608 -30.2271 -30.2271 -30.2065 -30.2065
   -30.2056 -30.2056 -30.1978 -30.1978 -30.1679 -30.1679 -30.1626 -30.1626
   -30.1587 -30.1587 -30.1407 -30.1407 -30.1025 -30.1025 -30.0941 -30.0941
   -19.9999 -19.9999 -19.9998 -19.9998 -19.9990 -19.9990 -19.9989 -19.9989
   -19.9833 -19.9833 -19.9828 -19.9828 -19.9826 -19.9826 -19.9823 -19.9823
   -19.9770 -19.9770 -19.9768 -19.9768 -19.9768 -19.9768 -19.9765 -19.9764
   -19.9757 -19.9757 -19.9754 -19.9754 -19.9716 -19.9716 -19.9713 -19.9713
   -19.9661 -19.9661 -19.9659 -19.9659 -19.9611 -19.9611 -19.9608 -19.9608
   -19.9543 -19.9543 -19.9542 -19.9542 -19.9535 -19.9535 -19.9534 -19.9534
   -19.9437 -19.9437 -19.9435 -19.9435 -19.9408 -19.9408 -19.9406 -19.9406
    -9.4487  -9.4486  -9.0859  -9.0859  -8.9646  -8.9646  -8.6339  -8.6339
    -8.3353  -8.3353  -8.3164  -8.3164  -8.2903  -8.2903  -8.2194  -8.2194
    -7.6314  -7.6314  -7.5107  -7.5107  -7.4992  -7.4992  -7.4914  -7.4914
     1.6371   1.6371   1.7324   1.7324   1.8123   1.8123   1.9210   1.9210
     2.8034   2.8034   3.2153   3.2153   3.3251   3.3252   3.3471   3.3471
     3.4586   3.4586   3.5261   3.5261   3.7722   3.7722   3.9871   3.9871
     4.0727   4.0728   4.7539   4.7539   4.8628   4.8628   5.2186   5.2186
     5.4427   5.4427   5.5676   5.5676   5.5927   5.5927   5.8350   5.8350
     6.0780   6.0780   6.1901   6.1901   6.2324   6.2324   6.3922   6.3922
     6.4516   6.4516   6.5299   6.5299   6.7256   6.7256   6.7889   6.7889
     6.9565   6.9565   7.1626   7.1626   7.2003   7.2003   7.6808   7.6808
     7.7092   7.7092   7.8104   7.8105   7.9159   7.9159   8.1553   8.1553
    10.3391  10.3391  11.5247  11.5247  11.6534  11.6534  11.8738  11.8738
    12.0304  12.0304  12.6444  12.6444  13.0173  13.0173  13.1454  13.1454
    13.1582  13.1582  13.5225  13.5225  13.6820  13.6820  13.9075  13.9075
    15.0526  15.0526  15.5380  15.5380  15.9419  15.9419  15.9927  15.9927
    16.8674  16.8674  18.0793  18.0793  18.3657

          k = 0.0000 0.1599 0.0000 ( 61494 PWs)   bands (ev):

   -65.8472 -65.8467 -65.8463 -65.8461 -65.8458 -65.8456 -65.8452 -65.8447
   -30.2721 -30.2634 -30.2629 -30.2527 -30.2399 -30.2333 -30.2258 -30.2251
   -30.2241 -30.2064 -30.1999 -30.1970 -30.1847 -30.1830 -30.1788 -30.1560
   -30.1293 -30.1282 -30.1204 -30.1159 -30.1050 -30.0980 -30.0964 -30.0895
   -20.0001 -20.0000 -19.9995 -19.9994 -19.9994 -19.9992 -19.9988 -19.9987
   -19.9835 -19.9831 -19.9831 -19.9828 -19.9826 -19.9826 -19.9824 -19.9820
   -19.9771 -19.9771 -19.9768 -19.9767 -19.9764 -19.9762 -19.9761 -19.9759
   -19.9758 -19.9758 -19.9757 -19.9754 -19.9725 -19.9722 -19.9715 -19.9713
   -19.9662 -19.9660 -19.9659 -19.9658 -19.9613 -19.9610 -19.9609 -19.9607
   -19.9572 -19.9570 -19.9563 -19.9561 -19.9514 -19.9514 -19.9506 -19.9506
   -19.9442 -19.9441 -19.9431 -19.9429 -19.9414 -19.9412 -19.9402 -19.9401
    -9.6980  -9.4193  -9.2385  -9.2328  -8.9831  -8.9435  -8.7825  -8.7466
    -8.7264  -8.6061  -8.5686  -8.5640  -7.7667  -7.6849  -7.6457  -7.6381
    -7.6069  -7.5962  -7.5648  -7.5575  -7.4729  -7.4526  -7.4437  -7.4275
     1.5560   1.5697   1.6157   1.6228   1.6846   1.7087   1.7860   1.9495
     2.0298   2.0709   2.1403   2.2986   2.6172   2.7004   2.8195   2.8796
     2.9561   3.0558   4.1685   4.2880   4.2965   4.4694   4.7663   4.9177
     4.9615   5.0203   5.0448   5.0846   5.2219   5.2387   5.3685   5.5212
     5.6147   5.7778   5.7862   5.7971   5.7979   5.8969   5.9194   5.9460
     5.9539   6.0156   6.0286   6.1061   6.1088   6.1886   6.2244   6.2875
     6.3121   6.4175   6.5316   6.7158   6.7944   6.9078   6.9440   7.0090
     7.0987   7.1149   7.1158   7.1398   7.1576   7.1620   7.3711   7.4010
     7.5102   7.5291   7.8963   7.9260   8.0832   8.1259   8.2702   8.2805
     9.9893  10.0053  10.5719  10.5820  10.5904  10.6114  12.2879  12.4870
    12.5929  12.6063  12.7040  12.7416  12.7631  12.7670  12.8107  12.9309
    13.4420  13.4659  13.5225  13.5363  13.8919  13.9110  14.1844  14.1958
    14.9449  15.0593  15.2374  15.2938  15.6269  15.6733  16.1132  16.2367
    16.2481  16.7118  17.2032  17.3774  17.8232

          k = 0.0000 0.1599 0.1655 ( 61487 PWs)   bands (ev):

   -65.8471 -65.8466 -65.8463 -65.8461 -65.8458 -65.8456 -65.8453 -65.8448
   -30.2712 -30.2637 -30.2619 -30.2532 -30.2368 -30.2291 -30.2261 -30.2218
   -30.2215 -30.2015 -30.2007 -30.1978 -30.1830 -30.1808 -30.1805 -30.1548
   -30.1341 -30.1332 -30.1257 -30.1203 -30.1047 -30.0977 -30.0976 -30.0905
   -20.0001 -19.9999 -19.9996 -19.9995 -19.9993 -19.9992 -19.9988 -19.9987
   -19.9835 -19.9831 -19.9831 -19.9828 -19.9826 -19.9826 -19.9824 -19.9820
   -19.9771 -19.9771 -19.9769 -19.9766 -19.9764 -19.9761 -19.9761 -19.9761
   -19.9760 -19.9757 -19.9756 -19.9754 -19.9724 -19.9721 -19.9716 -19.9713
   -19.9662 -19.9660 -19.9659 -19.9658 -19.9613 -19.9610 -19.9609 -19.9607
   -19.9568 -19.9566 -19.9559 -19.9558 -19.9518 -19.9518 -19.9510 -19.9510
   -19.9442 -19.9440 -19.9431 -19.9430 -19.9413 -19.9412 -19.9403 -19.9401
    -9.6513  -9.3644  -9.2564  -9.1724  -8.9594  -8.8991  -8.7916  -8.7097
    -8.6913  -8.5981  -8.5698  -8.5414  -7.7891  -7.7409  -7.7021  -7.6761
    -7.6481  -7.6073  -7.5931  -7.5699  -7.5515  -7.5464  -7.4609  -7.4363
     1.6631   1.6673   1.6841   1.7109   1.8362   1.8619   1.8700   2.0359
     2.0838   2.0995   2.1359   2.3578   2.7074   2.7909   2.8279   2.9488
     2.9658   3.1385   4.1769   4.2326   4.3395   4.4494   4.5966   4.6265
     4.7618   4.8676   4.9995   5.0098   5.0692   5.2312   5.3718   5.4323
     5.5111   5.5699   5.7321   5.7407   5.7428   5.8291   5.8714   5.9071
     5.9286   6.0105   6.0131   6.0855   6.1069   6.1441   6.2403   6.2948
     6.4087   6.5361   6.6662   6.7721   6.8879   6.9462   6.9598   7.0052
     7.0120   7.0706   7.1098   7.1541   7.1560   7.1789   7.2712   7.2989
     7.3592   7.3819   7.9199   7.9352   8.0919   8.1326   8.2232   8.2436
    10.2344  10.2579  10.5784  10.6073  10.7850  10.8368  12.3432  12.4348
    12.5341  12.6651  12.6722  12.7516  12.8041  12.8157  12.8574  12.9580
    13.3163  13.4407  13.4524  13.5236  13.8918  13.9550  14.0602  14.1031
    15.0008  15.1735  15.2509  15.3823  15.6438  15.7335  16.2067  16.2178
    16.3817  16.8682  17.1197  17.3507  17.8788

          k = 0.0000 0.1599 0.3309 ( 61474 PWs)   bands (ev):

   -65.8469 -65.8465 -65.8465 -65.8460 -65.8459 -65.8454 -65.8454 -65.8450
   -30.2691 -30.2649 -30.2594 -30.2546 -30.2319 -30.2273 -30.2190 -30.2131
   -30.2126 -30.2035 -30.2003 -30.1876 -30.1869 -30.1763 -30.1730 -30.1508
   -30.1476 -30.1471 -30.1400 -30.1312 -30.1037 -30.1000 -30.0965 -30.0928
   -20.0000 -19.9999 -19.9997 -19.9996 -19.9992 -19.9991 -19.9989 -19.9988
   -19.9834 -19.9832 -19.9830 -19.9827 -19.9827 -19.9825 -19.9824 -19.9821
   -19.9770 -19.9769 -19.9768 -19.9766 -19.9766 -19.9764 -19.9764 -19.9763
   -19.9758 -19.9755 -19.9755 -19.9753 -19.9722 -19.9719 -19.9717 -19.9715
   -19.9662 -19.9660 -19.9660 -19.9658 -19.9612 -19.9610 -19.9609 -19.9608
   -19.9558 -19.9556 -19.9549 -19.9548 -19.9529 -19.9528 -19.9521 -19.9520
   -19.9439 -19.9438 -19.9434 -19.9432 -19.9411 -19.9410 -19.9405 -19.9404
    -9.5358  -9.3121  -9.2320  -9.0275  -9.0087  -8.8232  -8.6613  -8.6298
    -8.5818  -8.5679  -8.5335  -8.4410  -8.0183  -8.0077  -7.9184  -7.8843
    -7.7157  -7.6941  -7.6217  -7.5998  -7.5483  -7.5288  -7.4842  -7.4606
     1.6852   1.6967   1.7191   1.7345   1.9953   2.0112   2.0873   2.1294
     2.5216   2.5798   2.6707   2.7862   2.8498   2.9377   2.9612   3.0537
     3.2006   3.3586   3.9377   4.0464   4.0810   4.1065   4.3503   4.3964
     4.4780   4.6922   4.7031   4.7487   4.8108   4.9709   4.9925   5.2424
     5.2642   5.3973   5.4375   5.4574   5.6519   5.7316   5.7772   5.9034
     5.9572   5.9898   6.0445   6.0465   6.0884   6.2512   6.2818   6.3322
     6.5265   6.5873   6.7293   6.7492   6.7656   6.8532   6.9333   6.9464
     7.0041   7.0932   7.1153   7.1501   7.1600   7.1979   7.3379   7.3579
     7.4304   7.5335   7.8915   7.8976   8.0727   8.1121   8.1194   8.1337
    10.5022  10.5687  10.8459  10.9793  11.3006  11.3889  12.1294  12.2248
    12.4475  12.5015  12.6844  12.7375  12.8386  12.8486  12.9231  13.0248
    13.0786  13.3154  13.3818  13.5004  13.7556  13.8838  13.8975  13.9724
    15.1199  15.2067  15.5490  15.6423  15.7703  16.0783  16.1169  16.1755
    16.6029  17.1546  17.3505  17.6505  17.8303

          k = 0.0000 0.1599-0.4964 ( 61512 PWs)   bands (ev):

   -65.8467 -65.8467 -65.8462 -65.8462 -65.8457 -65.8457 -65.8452 -65.8452
   -30.2668 -30.2668 -30.2568 -30.2568 -30.2290 -30.2290 -30.2094 -30.2094
   -30.2052 -30.2052 -30.1984 -30.1984 -30.1678 -30.1678 -30.1635 -30.1635
   -30.1581 -30.1581 -30.1428 -30.1428 -30.1021 -30.1021 -30.0949 -30.0949
   -19.9998 -19.9998 -19.9997 -19.9997 -19.9991 -19.9991 -19.9990 -19.9990
   -19.9833 -19.9833 -19.9829 -19.9829 -19.9826 -19.9826 -19.9823 -19.9823
   -19.9768 -19.9768 -19.9768 -19.9768 -19.9767 -19.9767 -19.9764 -19.9764
   -19.9756 -19.9756 -19.9754 -19.9754 -19.9719 -19.9719 -19.9717 -19.9717
   -19.9661 -19.9661 -19.9659 -19.9659 -19.9611 -19.9611 -19.9608 -19.9608
   -19.9543 -19.9543 -19.9542 -19.9542 -19.9535 -19.9535 -19.9534 -19.9534
   -19.9437 -19.9437 -19.9435 -19.9435 -19.9408 -19.9408 -19.9407 -19.9407
    -9.4084  -9.4084  -9.0984  -9.0984  -8.8946  -8.8946  -8.5991  -8.5991
    -8.3397  -8.3396  -8.3114  -8.3114  -8.2983  -8.2983  -8.2123  -8.2123
    -7.7080  -7.7080  -7.6125  -7.6125  -7.5162  -7.5162  -7.4944  -7.4944
     1.6920   1.6920   1.7320   1.7320   2.0108   2.0108   2.1197   2.1197
     2.8745   2.8745   3.2297   3.2297   3.3395   3.3395   3.3532   3.3532
     3.4554   3.4554   3.5614   3.5614   3.7603   3.7604   3.9997   3.9998
     4.1267   4.1267   4.6055   4.6055   4.6445   4.6445   4.9968   4.9968
     5.3269   5.3269   5.5358   5.5358   5.5895   5.5895   5.8266   5.8266
     5.9836   5.9836   6.0242   6.0242   6.2192   6.2192   6.3896   6.3896
     6.5253   6.5253   6.5840   6.5840   6.7841   6.7841   6.8795   6.8795
     7.0148   7.0148   7.1397   7.1397   7.1504   7.1504   7.6815   7.6815
     7.7071   7.7071   7.8010   7.8010   7.8873   7.8873   8.1263   8.1263
    10.5479  10.5479  11.5328  11.5328  11.6530  11.6530  11.9329  11.9329
    12.0771  12.0771  12.6700  12.6700  12.8729  12.8729  13.0842  13.0842
    13.1399  13.1399  13.4022  13.4022  13.6389  13.6389  13.9227  13.9227
    15.1826  15.1826  15.8833  15.8833  15.9644  15.9644  16.0789  16.0789
    16.9170  16.9170  17.9079  17.9080  18.2445

          k = 0.0000 0.3198 0.0000 ( 61480 PWs)   bands (ev):

   -65.8471 -65.8468 -65.8462 -65.8460 -65.8459 -65.8457 -65.8451 -65.8448
   -30.2633 -30.2543 -30.2533 -30.2444 -30.2413 -30.2367 -30.2316 -30.2252
   -30.2250 -30.2106 -30.2044 -30.1944 -30.1920 -30.1839 -30.1789 -30.1635
   -30.1292 -30.1285 -30.1200 -30.1176 -30.1038 -30.0998 -30.0953 -30.0914
   -20.0000 -19.9998 -19.9995 -19.9994 -19.9994 -19.9993 -19.9989 -19.9988
   -19.9834 -19.9832 -19.9830 -19.9828 -19.9827 -19.9826 -19.9823 -19.9821
   -19.9770 -19.9769 -19.9766 -19.9765 -19.9762 -19.9760 -19.9759 -19.9757
   -19.9756 -19.9754 -19.9750 -19.9748 -19.9734 -19.9731 -19.9725 -19.9722
   -19.9662 -19.9660 -19.9659 -19.9658 -19.9612 -19.9611 -19.9608 -19.9607
   -19.9572 -19.9571 -19.9562 -19.9562 -19.9514 -19.9514 -19.9506 -19.9506
   -19.9442 -19.9441 -19.9430 -19.9429 -19.9414 -19.9413 -19.9402 -19.9401
    -9.6184  -9.4604  -9.1442  -9.1367  -9.0094  -8.9760  -8.7419  -8.7305
    -8.5698  -8.4626  -8.4467  -8.4353  -7.9794  -7.9293  -7.8978  -7.8770
    -7.6366  -7.6322  -7.5669  -7.5620  -7.4682  -7.4540  -7.4536  -7.4354
     1.5576   1.5651   1.6177   1.6237   1.7043   1.7089   1.9079   1.9462
     2.5414   2.6452   2.6653   2.6804   2.7526   2.8724   3.0376   3.1515
     3.1600   3.3199   3.7955   3.8046   3.9716   3.9718   4.3135   4.6371
     4.7796   4.9025   4.9715   4.9997   5.0517   5.1148   5.2599   5.2779
     5.3670   5.3730   5.6692   5.7259   5.7681   5.8147   5.9259   5.9935
     5.9986   6.0052   6.0899   6.1027   6.1400   6.1887   6.2322   6.3062
     6.3400   6.3791   6.5472   6.6858   6.7742   6.8475   6.9872   7.0198
     7.0391   7.1046   7.2944   7.3023   7.3208   7.3403   7.4014   7.4030
     7.5310   7.5338   7.8688   7.9164   7.9929   8.0061   8.0546   8.0989
    10.0092  10.0104  10.9697  11.0533  11.0863  11.0864  12.0099  12.2772
    12.2820  12.3757  12.5930  12.5999  12.7216  12.7332  12.7743  12.9078
    13.4552  13.5091  13.5452  13.5643  13.7802  13.9159  13.9499  13.9869
    15.2218  15.5264  15.5901  15.6127  15.6601  15.9373  16.0429  16.1256
    16.2284  17.1819  17.4926  17.6896  17.8414

          k = 0.0000 0.3198 0.1655 ( 61484 PWs)   bands (ev):

   -65.8470 -65.8467 -65.8462 -65.8460 -65.8459 -65.8457 -65.8452 -65.8449
   -30.2622 -30.2541 -30.2524 -30.2421 -30.2418 -30.2334 -30.2318 -30.2221
   -30.2216 -30.2113 -30.1999 -30.1952 -30.1896 -30.1852 -30.1769 -30.1620
   -30.1340 -30.1335 -30.1253 -30.1223 -30.1035 -30.0995 -30.0965 -30.0925
   -19.9999 -19.9998 -19.9995 -19.9994 -19.9993 -19.9993 -19.9990 -19.9989
   -19.9834 -19.9832 -19.9830 -19.9828 -19.9827 -19.9826 -19.9823 -19.9821
   -19.9770 -19.9768 -19.9766 -19.9765 -19.9763 -19.9760 -19.9760 -19.9758
   -19.9755 -19.9753 -19.9750 -19.9747 -19.9733 -19.9730 -19.9725 -19.9723
   -19.9662 -19.9660 -19.9659 -19.9658 -19.9612 -19.9610 -19.9608 -19.9607
   -19.9568 -19.9567 -19.9559 -19.9558 -19.9518 -19.9518 -19.9510 -19.9510
   -19.9441 -19.9440 -19.9431 -19.9430 -19.9413 -19.9412 -19.9403 -19.9402
    -9.5686  -9.4061  -9.1553  -9.0728  -8.9927  -8.9262  -8.7058  -8.6952
    -8.5786  -8.4574  -8.4495  -8.4216  -7.9817  -7.9366  -7.8983  -7.8833
    -7.7366  -7.7183  -7.5890  -7.5808  -7.5649  -7.5580  -7.4627  -7.4442
     1.6675   1.6696   1.7056   1.7109   1.8635   1.8646   2.0347   2.0810
     2.5581   2.6612   2.7217   2.7506   2.7707   2.8780   3.0443   3.1533
     3.2329   3.3985   3.8056   3.8830   3.9556   3.9780   4.2871   4.5813
     4.6086   4.6569   4.7848   4.9631   5.0026   5.0650   5.1024   5.1274
     5.3095   5.3972   5.5045   5.5636   5.6115   5.7228   5.7954   5.8891
     5.9377   5.9386   6.0006   6.0876   6.1578   6.1690   6.1871   6.3040
     6.4911   6.5638   6.6603   6.7372   6.8022   6.9594   7.0097   7.0955
     7.1045   7.1394   7.2263   7.2494   7.2630   7.2738   7.3134   7.3663
     7.4189   7.4428   7.8889   7.9227   7.9889   8.0158   8.0316   8.0694
    10.2719  10.2756  11.0866  11.0993  11.1288  11.2152  12.0938  12.2667
    12.3489  12.3778  12.5382  12.5434  12.7669  12.7994  12.8097  12.9640
    13.3455  13.4149  13.4613  13.5118  13.7800  13.8152  13.9246  13.9387
    15.3013  15.5594  15.6208  15.7380  15.7531  15.9958  16.0943  16.3004
    16.4034  17.1479  17.5412  17.5505  17.7800

          k = 0.0000 0.3198 0.3309 ( 61501 PWs)   bands (ev):

   -65.8468 -65.8466 -65.8464 -65.8461 -65.8458 -65.8455 -65.8453 -65.8451
   -30.2597 -30.2553 -30.2491 -30.2434 -30.2381 -30.2333 -30.2252 -30.2144
   -30.2128 -30.2119 -30.1983 -30.1906 -30.1867 -30.1807 -30.1699 -30.1573
   -30.1478 -30.1475 -30.1392 -30.1343 -30.1025 -30.0988 -30.0984 -30.0947
   -19.9998 -19.9997 -19.9995 -19.9994 -19.9994 -19.9992 -19.9991 -19.9990
   -19.9833 -19.9831 -19.9831 -19.9828 -19.9827 -19.9825 -19.9824 -19.9822
   -19.9769 -19.9767 -19.9765 -19.9765 -19.9765 -19.9763 -19.9762 -19.9761
   -19.9753 -19.9751 -19.9750 -19.9748 -19.9731 -19.9728 -19.9726 -19.9724
   -19.9661 -19.9660 -19.9660 -19.9659 -19.9612 -19.9610 -19.9609 -19.9608
   -19.9558 -19.9557 -19.9549 -19.9548 -19.9529 -19.9528 -19.9521 -19.9520
   -19.9439 -19.9438 -19.9433 -19.9432 -19.9411 -19.9410 -19.9405 -19.9404
    -9.4456  -9.2741  -9.2120  -9.0444  -8.8898  -8.6909  -8.6139  -8.5946
    -8.5730  -8.4627  -8.4304  -8.3601  -8.0642  -8.0134  -8.0005  -7.9301
    -7.9023  -7.8765  -7.8725  -7.7959  -7.5544  -7.5367  -7.4869  -7.4685
     1.7110   1.7185   1.7263   1.7335   2.4294   2.5060   2.5194   2.6006
     2.6709   2.7129   2.7498   2.9316   3.0144   3.0197   3.0672   3.1454
     3.4491   3.5835   3.8354   3.8906   3.9540   3.9855   4.0386   4.0925
     4.2953   4.4990   4.5085   4.6252   4.6272   4.7959   4.8375   4.9698
     4.9963   5.1422   5.3072   5.4164   5.4383   5.4505   5.4977   5.6133
     5.6550   5.8397   5.8699   6.0457   6.2425   6.2947   6.2973   6.3354
     6.6328   6.6691   6.7328   6.8172   6.8269   6.9358   6.9611   6.9619
     7.1664   7.1747   7.2256   7.2719   7.2928   7.3393   7.4061   7.4099
     7.4481   7.5280   7.8748   7.8775   7.9527   7.9646   7.9843   8.0071
    10.8419  10.8716  11.0837  11.1697  11.5623  11.6482  12.1097  12.2124
    12.3463  12.3600  12.3960  12.5502  12.7659  12.8469  12.8773  12.9048
    12.9616  13.2340  13.2564  13.4767  13.5030  13.7881  13.7917  13.9089
    15.4092  15.5345  15.7163  16.0119  16.1857  16.2439  16.2598  16.8963
    17.0266  17.0325  17.0706  17.7423  17.8306

          k = 0.0000 0.3198-0.4964 ( 61490 PWs)   bands (ev):

   -65.8466 -65.8466 -65.8463 -65.8463 -65.8456 -65.8456 -65.8453 -65.8453
   -30.2573 -30.2573 -30.2459 -30.2459 -30.2352 -30.2352 -30.2182 -30.2182
   -30.2039 -30.2039 -30.2000 -30.2000 -30.1676 -30.1676 -30.1654 -30.1654
   -30.1563 -30.1563 -30.1478 -30.1478 -30.1009 -30.1009 -30.0968 -30.0968
   -19.9997 -19.9997 -19.9995 -19.9995 -19.9992 -19.9992 -19.9991 -19.9991
   -19.9832 -19.9832 -19.9830 -19.9830 -19.9825 -19.9825 -19.9824 -19.9824
   -19.9767 -19.9767 -19.9766 -19.9765 -19.9764 -19.9764 -19.9763 -19.9763
   -19.9751 -19.9751 -19.9749 -19.9749 -19.9728 -19.9728 -19.9726 -19.9726
   -19.9661 -19.9661 -19.9659 -19.9659 -19.9610 -19.9610 -19.9609 -19.9609
   -19.9543 -19.9543 -19.9543 -19.9543 -19.9535 -19.9535 -19.9535 -19.9535
   -19.9436 -19.9436 -19.9435 -19.9435 -19.9408 -19.9408 -19.9407 -19.9407
    -9.3114  -9.3114  -9.1379  -9.1379  -8.7045  -8.7044  -8.4925  -8.4925
    -8.3620  -8.3619  -8.3266  -8.3266  -8.2881  -8.2881  -8.1842  -8.1841
    -7.9308  -7.9308  -7.8608  -7.8608  -7.5206  -7.5206  -7.5024  -7.5024
     1.7224   1.7224   1.7310   1.7310   2.5728   2.5728   2.7214   2.7214
     3.0679   3.0679   3.2716   3.2716   3.3195   3.3195   3.4076   3.4076
     3.4438   3.4438   3.6667   3.6667   3.7104   3.7104   3.9306   3.9306
     4.2196   4.2197   4.2861   4.2861   4.3564   4.3564   4.5142   4.5143
     5.0893   5.0893   5.2670   5.2670   5.4191   5.4191   5.5207   5.5207
     5.6839   5.6839   5.9605   5.9605   6.3195   6.3195   6.3934   6.3934
     6.6456   6.6456   6.6779   6.6779   6.7741   6.7741   6.9075   6.9075
     7.2358   7.2359   7.2871   7.2871   7.3279   7.3279   7.6721   7.6721
     7.6996   7.6996   7.7425   7.7425   7.8004   7.8004   7.9898   7.9898
    11.0625  11.0625  11.5516  11.5516  11.6587  11.6587  12.1025  12.1025
    12.2350  12.2350  12.4762  12.4762  12.6991  12.6991  12.8407  12.8407
    13.1164  13.1164  13.1383  13.1383  13.6060  13.6060  13.8260  13.8260
    15.4850  15.4850  15.8767  15.8767  16.5322  16.5322  16.7591  16.7591
    17.0847  17.0847  17.5425  17.5425  18.0347

          k = 0.0000-0.4796 0.0000 ( 61446 PWs)   bands (ev):

   -65.8469 -65.8469 -65.8460 -65.8460 -65.8459 -65.8459 -65.8450 -65.8450
   -30.2528 -30.2528 -30.2439 -30.2439 -30.2415 -30.2415 -30.2267 -30.2267
   -30.2244 -30.2244 -30.1997 -30.1996 -30.1898 -30.1898 -30.1721 -30.1721
   -30.1289 -30.1288 -30.1191 -30.1191 -30.1020 -30.1020 -30.0935 -30.0935
   -19.9997 -19.9997 -19.9996 -19.9996 -19.9991 -19.9991 -19.9990 -19.9990
   -19.9833 -19.9833 -19.9829 -19.9829 -19.9827 -19.9827 -19.9822 -19.9822
   -19.9769 -19.9769 -19.9765 -19.9765 -19.9761 -19.9761 -19.9758 -19.9758
   -19.9746 -19.9746 -19.9743 -19.9743 -19.9738 -19.9737 -19.9735 -19.9735
   -19.9661 -19.9661 -19.9658 -19.9658 -19.9612 -19.9612 -19.9608 -19.9608
   -19.9571 -19.9571 -19.9562 -19.9562 -19.9514 -19.9514 -19.9506 -19.9506
   -19.9442 -19.9441 -19.9430 -19.9430 -19.9413 -19.9413 -19.9401 -19.9401
    -9.5296  -9.5296  -9.0613  -9.0613  -9.0389  -9.0389  -8.7362  -8.7362
    -8.2735  -8.2735  -8.2202  -8.2201  -8.2093  -8.2093  -8.1973  -8.1972
    -7.6357  -7.6357  -7.5659  -7.5659  -7.4615  -7.4615  -7.4457  -7.4457
     1.5606   1.5606   1.6208   1.6208   1.7085   1.7085   1.9377   1.9377
     2.6527   2.6528   3.1914   3.1914   3.3234   3.3234   3.3834   3.3834
     3.4142   3.4142   3.5755   3.5755   3.8103   3.8103   3.9322   3.9322
     4.0216   4.0216   4.9215   4.9216   5.0623   5.0623   5.4225   5.4225
     5.4891   5.4891   5.5919   5.5919   5.6096   5.6097   5.9802   5.9802
     6.0153   6.0153   6.0627   6.0627   6.2019   6.2019   6.2718   6.2718
     6.3739   6.3739   6.5242   6.5242   6.8642   6.8642   6.9249   6.9249
     7.0718   7.0718   7.3895   7.3895   7.5039   7.5039   7.6434   7.6434
     7.6775   7.6775   7.7328   7.7329   7.7857   7.7857   7.9406   7.9406
    10.0134  10.0134  11.5047  11.5047  11.5933  11.5934  11.7241  11.7241
    11.8276  11.8276  12.5965  12.5965  12.7553  12.7553  12.8311  12.8311
    13.5808  13.5808  13.5854  13.5854  13.7030  13.7031  13.8456  13.8457
    15.5449  15.5449  15.7736  15.7736  15.8728  15.8728  15.9185  15.9185
    16.7981  16.7982  18.2407  18.2410  18.3260

          k = 0.0000-0.4796 0.1655 ( 61484 PWs)   bands (ev):

   -65.8469 -65.8469 -65.8461 -65.8461 -65.8458 -65.8458 -65.8451 -65.8450
   -30.2512 -30.2512 -30.2425 -30.2424 -30.2410 -30.2410 -30.2267 -30.2267
   -30.2216 -30.2216 -30.1962 -30.1961 -30.1908 -30.1908 -30.1704 -30.1704
   -30.1338 -30.1338 -30.1242 -30.1242 -30.1016 -30.1016 -30.0947 -30.0946
   -19.9997 -19.9997 -19.9996 -19.9995 -19.9992 -19.9992 -19.9991 -19.9991
   -19.9833 -19.9833 -19.9829 -19.9829 -19.9827 -19.9827 -19.9822 -19.9822
   -19.9769 -19.9769 -19.9765 -19.9765 -19.9762 -19.9761 -19.9759 -19.9759
   -19.9745 -19.9745 -19.9742 -19.9742 -19.9738 -19.9738 -19.9736 -19.9735
   -19.9661 -19.9661 -19.9659 -19.9659 -19.9611 -19.9611 -19.9608 -19.9608
   -19.9568 -19.9567 -19.9559 -19.9558 -19.9518 -19.9518 -19.9510 -19.9510
   -19.9441 -19.9441 -19.9431 -19.9430 -19.9412 -19.9412 -19.9402 -19.9402
    -9.4770  -9.4770  -9.0567  -9.0567  -8.9812  -8.9812  -8.7005  -8.7005
    -8.2785  -8.2785  -8.2250  -8.2250  -8.2111  -8.2111  -8.1913  -8.1913
    -7.7301  -7.7300  -7.5841  -7.5841  -7.5647  -7.5647  -7.4545  -7.4545
     1.6686   1.6686   1.7102   1.7102   1.8654   1.8654   2.0719   2.0719
     2.7424   2.7424   3.2118   3.2118   3.3198   3.3198   3.3764   3.3764
     3.4779   3.4779   3.5644   3.5644   3.8198   3.8198   3.9513   3.9513
     4.0529   4.0529   4.6045   4.6045   5.0470   5.0470   5.2271   5.2271
     5.3303   5.3303   5.5108   5.5109   5.5804   5.5804   5.7344   5.7345
     5.9446   5.9446   6.0111   6.0111   6.1635   6.1635   6.2780   6.2780
     6.5583   6.5583   6.6325   6.6325   6.8592   6.8592   7.0667   7.0667
     7.1519   7.1519   7.2601   7.2601   7.3275   7.3275   7.6628   7.6628
     7.6697   7.6697   7.7212   7.7212   7.7696   7.7696   7.9566   7.9566
    10.2801  10.2801  11.6123  11.6123  11.6846  11.6846  11.7330  11.7330
    11.8503  11.8503  12.5339  12.5339  12.7888  12.7888  12.9139  12.9139
    13.4373  13.4373  13.5486  13.5486  13.5885  13.5885  13.8582  13.8582
    15.5479  15.5479  15.8709  15.8709  15.9654  15.9654  16.1262  16.1262
    16.8535  16.8535  18.1047  18.1048  18.2210

          k = 0.0000-0.4796 0.3309 ( 61516 PWs)   bands (ev):

   -65.8467 -65.8467 -65.8463 -65.8462 -65.8457 -65.8456 -65.8452 -65.8452
   -30.2481 -30.2481 -30.2434 -30.2434 -30.2362 -30.2361 -30.2284 -30.2284
   -30.2126 -30.2126 -30.1949 -30.1948 -30.1846 -30.1846 -30.1645 -30.1645
   -30.1478 -30.1478 -30.1373 -30.1373 -30.1006 -30.1006 -30.0969 -30.0969
   -19.9996 -19.9996 -19.9995 -19.9994 -19.9993 -19.9993 -19.9992 -19.9992
   -19.9832 -19.9832 -19.9830 -19.9830 -19.9826 -19.9826 -19.9823 -19.9823
   -19.9768 -19.9768 -19.9764 -19.9764 -19.9764 -19.9763 -19.9761 -19.9761
   -19.9743 -19.9742 -19.9740 -19.9740 -19.9739 -19.9739 -19.9736 -19.9736
   -19.9661 -19.9661 -19.9659 -19.9659 -19.9611 -19.9611 -19.9609 -19.9609
   -19.9557 -19.9557 -19.9549 -19.9549 -19.9529 -19.9529 -19.9521 -19.9520
   -19.9439 -19.9439 -19.9433 -19.9433 -19.9410 -19.9410 -19.9404 -19.9404
    -9.3476  -9.3476  -9.1117  -9.1117  -8.7601  -8.7601  -8.5814  -8.5814
    -8.3144  -8.3144  -8.2484  -8.2483  -8.2085  -8.2085  -8.1687  -8.1686
    -7.9834  -7.9834  -7.8595  -7.8595  -7.5469  -7.5468  -7.4788  -7.4788
     1.7171   1.7171   1.7320   1.7320   2.5117   2.5117   2.6520   2.6520
     2.9946   2.9946   3.2482   3.2482   3.3157   3.3158   3.4016   3.4016
     3.4899   3.4899   3.6487   3.6487   3.7839   3.7839   4.0228   4.0228
     4.0583   4.0583   4.1162   4.1162   4.6730   4.6730   4.8329   4.8329
     4.9994   4.9994   5.0999   5.0999   5.4731   5.4731   5.5306   5.5307
     5.6373   5.6373   5.9110   5.9110   6.2958   6.2958   6.3357   6.3357
     6.6671   6.6671   6.7620   6.7620   6.8572   6.8573   6.9818   6.9818
     7.2637   7.2637   7.3393   7.3393   7.3865   7.3865   7.6388   7.6388
     7.6790   7.6790   7.6954   7.6954   7.7454   7.7454   7.9203   7.9203
    10.8862  10.8862  11.7007  11.7007  11.7737  11.7737  11.9712  11.9712
    12.0852  12.0852  12.2324  12.2324  12.8848  12.8848  12.9185  12.9185
    13.0446  13.0446  13.2313  13.2313  13.6035  13.6035  13.8048  13.8048
    15.6048  15.6049  15.8245  15.8245  16.5041  16.5041  16.8117  16.8117
    17.0471  17.0471  17.6263  17.6263  18.0535

          k = 0.0000-0.4796-0.4964 ( 61500 PWs)   bands (ev):

   -65.8465 -65.8465 -65.8465 -65.8465 -65.8454 -65.8454 -65.8454 -65.8454
   -30.2454 -30.2454 -30.2454 -30.2454 -30.2315 -30.2315 -30.2315 -30.2315
   -30.2020 -30.2020 -30.2020 -30.2020 -30.1669 -30.1669 -30.1669 -30.1669
   -30.1529 -30.1529 -30.1529 -30.1529 -30.0990 -30.0990 -30.0990 -30.0990
   -19.9994 -19.9994 -19.9994 -19.9994 -19.9993 -19.9993 -19.9993 -19.9993
   -19.9831 -19.9831 -19.9831 -19.9831 -19.9825 -19.9825 -19.9824 -19.9824
   -19.9766 -19.9766 -19.9766 -19.9766 -19.9763 -19.9763 -19.9763 -19.9763
   -19.9740 -19.9740 -19.9740 -19.9740 -19.9738 -19.9738 -19.9738 -19.9738
   -19.9660 -19.9660 -19.9660 -19.9660 -19.9610 -19.9610 -19.9610 -19.9610
   -19.9543 -19.9543 -19.9543 -19.9543 -19.9535 -19.9535 -19.9535 -19.9535
   -19.9436 -19.9436 -19.9436 -19.9436 -19.9407 -19.9407 -19.9407 -19.9407
    -9.2099  -9.2099  -9.2099  -9.2099  -8.4770  -8.4770  -8.4770  -8.4770
    -8.3745  -8.3745  -8.3745  -8.3745  -8.1755  -8.1755  -8.1755  -8.1755
    -8.0926  -8.0925  -8.0925  -8.0925  -7.5127  -7.5127  -7.5127  -7.5127
     1.7291   1.7291   1.7291   1.7292   3.1658   3.1658   3.1658   3.1658
     3.2761   3.2761   3.2761   3.2761   3.4059   3.4059   3.4059   3.4059
     3.5001   3.5001   3.5001   3.5001   3.7567   3.7567   3.7567   3.7567
     3.9104   3.9104   3.9104   3.9104   4.5581   4.5581   4.5581   4.5581
     4.6765   4.6765   4.6765   4.6765   5.4828   5.4828   5.4828   5.4829
     5.7653   5.7654   5.7654   5.7654   6.3786   6.3786   6.3786   6.3786
     6.6884   6.6884   6.6884   6.6884   6.8159   6.8159   6.8159   6.8159
     7.4727   7.4727   7.4727   7.4727   7.5781   7.5781   7.5781   7.5781
     7.6685   7.6685   7.6685   7.6685   7.7782   7.7782   7.7782   7.7782
    11.5210  11.5210  11.5210  11.5210  11.8317  11.8317  11.8317  11.8317
    12.4711  12.4712  12.4712  12.4712  12.5434  12.5434  12.5434  12.5434
    13.0591  13.0591  13.0591  13.0591  13.6739  13.6739  13.6739  13.6740
    15.7218  15.7218  15.7218  15.7218  17.1454  17.1454  17.1455  17.1455
    17.5057  17.5057  17.5057  17.5057  17.6532

          k = 0.1667 0.0000 0.0000 ( 61466 PWs)   bands (ev):

   -65.8471 -65.8466 -65.8462 -65.8462 -65.8457 -65.8457 -65.8453 -65.8448
   -30.2746 -30.2671 -30.2659 -30.2574 -30.2379 -30.2327 -30.2226 -30.2203
   -30.2195 -30.2075 -30.1968 -30.1925 -30.1831 -30.1806 -30.1743 -30.1510
   -30.1317 -30.1304 -30.1200 -30.1144 -30.1113 -30.1025 -30.1010 -30.0926
   -20.0002 -20.0001 -19.9996 -19.9995 -19.9993 -19.9992 -19.9987 -19.9986
   -19.9835 -19.9831 -19.9830 -19.9829 -19.9826 -19.9825 -19.9824 -19.9820
   -19.9773 -19.9772 -19.9771 -19.9768 -19.9764 -19.9762 -19.9762 -19.9761
   -19.9760 -19.9759 -19.9757 -19.9755 -19.9721 -19.9718 -19.9711 -19.9709
   -19.9659 -19.9656 -19.9655 -19.9654 -19.9616 -19.9613 -19.9611 -19.9610
   -19.9572 -19.9569 -19.9563 -19.9562 -19.9514 -19.9513 -19.9506 -19.9506
   -19.9441 -19.9439 -19.9429 -19.9427 -19.9416 -19.9414 -19.9404 -19.9403
    -9.6859  -9.3566  -9.2918  -9.2279  -8.9910  -8.8697  -8.8503  -8.7191
    -8.6839  -8.6315  -8.6113  -8.5668  -7.7688  -7.6868  -7.6409  -7.6081
    -7.6039  -7.5623  -7.5576  -7.5403  -7.5134  -7.4929  -7.4842  -7.4425
     1.6094   1.6129   1.6155   1.6180   1.7232   1.7590   1.8348   1.8489
     1.9393   2.0582   2.1454   2.2988   2.6846   2.7957   2.8032   2.8328
     2.9616   2.9879   4.2438   4.3789   4.5197   4.5808   4.6676   4.7627
     4.7985   4.9537   4.9726   4.9765   5.0382   5.3227   5.4413   5.6196
     5.6622   5.7141   5.7369   5.7531   5.7924   5.8557   5.8571   5.9081
     6.0085   6.0219   6.0757   6.0954   6.1213   6.1489   6.2845   6.2944
     6.4427   6.5511   6.6236   6.6728   6.8921   6.9091   7.0044   7.0200
     7.0349   7.0447   7.0476   7.0809   7.1062   7.1684   7.2904   7.2961
     7.3906   7.3923   7.9227   7.9406   8.0689   8.1388   8.3218   8.3601
    10.2265  10.2625  10.4273  10.4668  10.5954  10.6962  12.3002  12.5177
    12.5383  12.6214  12.7014  12.7770  12.8254  12.9023  13.0210  13.0461
    13.3245  13.4177  13.5136  13.5850  13.8159  13.8613  14.2798  14.2811
    14.8064  14.8234  15.1102  15.2673  15.6569  15.6697  15.8176  16.1116
    16.5360  16.8498  17.0918  17.4103  17.9077

          k = 0.1667 0.0000 0.1655 ( 61474 PWs)   bands (ev):

   -65.8471 -65.8465 -65.8463 -65.8462 -65.8457 -65.8456 -65.8454 -65.8448
   -30.2737 -30.2663 -30.2661 -30.2579 -30.2341 -30.2283 -30.2207 -30.2187
   -30.2179 -30.2025 -30.1977 -30.1933 -30.1815 -30.1789 -30.1761 -30.1499
   -30.1362 -30.1349 -30.1254 -30.1187 -30.1110 -30.1028 -30.1019 -30.0939
   -20.0002 -20.0000 -19.9997 -19.9996 -19.9993 -19.9992 -19.9988 -19.9987
   -19.9834 -19.9831 -19.9830 -19.9829 -19.9826 -19.9825 -19.9825 -19.9820
   -19.9773 -19.9771 -19.9771 -19.9767 -19.9765 -19.9763 -19.9762 -19.9762
   -19.9761 -19.9758 -19.9756 -19.9754 -19.9720 -19.9718 -19.9712 -19.9710
   -19.9659 -19.9656 -19.9655 -19.9654 -19.9616 -19.9613 -19.9612 -19.9610
   -19.9568 -19.9566 -19.9560 -19.9558 -19.9517 -19.9517 -19.9510 -19.9510
   -19.9440 -19.9438 -19.9430 -19.9428 -19.9415 -19.9414 -19.9405 -19.9403
    -9.6389  -9.2976  -9.2455  -9.2355  -8.9072  -8.8791  -8.8661  -8.6793
    -8.6531  -8.6269  -8.5812  -8.5719  -7.7845  -7.7381  -7.6742  -7.6642
    -7.6436  -7.6206  -7.5949  -7.5758  -7.5458  -7.5171  -7.5105  -7.4957
     1.7070   1.7435   1.7493   1.8033   1.8112   1.8292   1.8656   1.9412
     1.9684   2.0591   2.1966   2.3542   2.7762   2.8393   2.8814   2.8929
     2.9847   3.0520   4.2377   4.2912   4.5330   4.5526   4.6627   4.6653
     4.7075   4.7483   4.8163   4.8566   5.0154   5.1378   5.4126   5.4594
     5.5268   5.5926   5.5946   5.7357   5.7637   5.7737   5.8276   5.9124
     5.9224   5.9576   5.9709   6.0382   6.0813   6.2671   6.3079   6.3149
     6.5503   6.6517   6.7673   6.8259   6.8467   6.8650   6.9240   6.9509
     6.9889   6.9899   7.0361   7.1063   7.1172   7.1301   7.1781   7.2470
     7.3901   7.4381   7.9321   7.9411   8.0873   8.1425   8.2780   8.3158
    10.3773  10.4148  10.6138  10.6640  10.6810  10.7989  12.3407  12.4965
    12.5537  12.5688  12.7311  12.7648  12.8276  12.9688  13.0193  13.0465
    13.2748  13.4323  13.4382  13.5390  13.8498  13.8586  14.1566  14.1865
    14.8382  14.9308  15.1050  15.3844  15.7108  15.7324  15.7952  16.3710
    16.5026  17.0105  17.1092  17.2707  17.9309

          k = 0.1667 0.0000 0.3309 ( 61474 PWs)   bands (ev):

   -65.8469 -65.8465 -65.8464 -65.8460 -65.8459 -65.8456 -65.8455 -65.8450
   -30.2717 -30.2676 -30.2638 -30.2592 -30.2273 -30.2218 -30.2176 -30.2101
   -30.2095 -30.2007 -30.1958 -30.1885 -30.1834 -30.1758 -30.1714 -30.1487
   -30.1485 -30.1463 -30.1396 -30.1289 -30.1099 -30.1058 -30.1009 -30.0966
   -20.0001 -19.9999 -19.9998 -19.9997 -19.9992 -19.9991 -19.9989 -19.9988
   -19.9834 -19.9832 -19.9829 -19.9828 -19.9826 -19.9825 -19.9825 -19.9821
   -19.9772 -19.9771 -19.9770 -19.9767 -19.9766 -19.9766 -19.9765 -19.9763
   -19.9759 -19.9756 -19.9756 -19.9754 -19.9718 -19.9716 -19.9713 -19.9711
   -19.9658 -19.9657 -19.9656 -19.9655 -19.9615 -19.9613 -19.9612 -19.9611
   -19.9557 -19.9556 -19.9550 -19.9548 -19.9528 -19.9528 -19.9521 -19.9521
   -19.9438 -19.9436 -19.9432 -19.9430 -19.9413 -19.9412 -19.9407 -19.9406
    -9.5228  -9.3000  -9.1534  -9.1027  -8.9156  -8.9113  -8.6697  -8.6196
    -8.5857  -8.5437  -8.5414  -8.4694  -8.0037  -7.9996  -7.9210  -7.8994
    -7.7034  -7.6578  -7.6359  -7.5807  -7.5593  -7.5319  -7.5245  -7.5041
     1.7164   1.7353   1.7942   1.8174   1.9511   1.9682   2.0361   2.0620
     2.5282   2.5808   2.6539   2.7623   2.8609   2.9479   3.0483   3.1362
     3.1666   3.2882   3.9482   4.1040   4.1231   4.1270   4.3371   4.4994
     4.5269   4.6790   4.7002   4.7401   4.9113   5.0037   5.0291   5.1094
     5.2000   5.3021   5.3978   5.4585   5.5053   5.5721   5.8202   5.8352
     5.9104   5.9323   6.0641   6.0709   6.1045   6.1663   6.2450   6.3140
     6.5779   6.6189   6.6586   6.7408   6.7608   6.8322   6.9366   6.9712
     6.9861   7.0762   7.0800   7.1085   7.2295   7.2453   7.3971   7.3992
     7.4582   7.5430   7.9037   7.9146   8.0887   8.1415   8.1485   8.1741
    10.5283  10.5504  10.9870  11.1020  11.2224  11.3473  12.1928  12.2810
    12.4258  12.4865  12.6035  12.6763  12.8598  12.9377  13.0557  13.1593
    13.1818  13.3219  13.3542  13.5156  13.8033  13.8626  13.8893  13.9737
    14.9511  15.0881  15.2228  15.6680  15.7016  15.9309  16.1276  16.4120
    16.6114  17.1431  17.4948  17.6245  17.7277

          k = 0.1667 0.0000-0.4964 ( 61466 PWs)   bands (ev):

   -65.8467 -65.8467 -65.8461 -65.8461 -65.8458 -65.8458 -65.8452 -65.8452
   -30.2695 -30.2695 -30.2613 -30.2613 -30.2237 -30.2237 -30.2070 -30.2070
   -30.2010 -30.2010 -30.1958 -30.1958 -30.1686 -30.1686 -30.1641 -30.1641
   -30.1574 -30.1574 -30.1393 -30.1393 -30.1082 -30.1082 -30.0991 -30.0991
   -19.9999 -19.9999 -19.9998 -19.9998 -19.9990 -19.9990 -19.9989 -19.9989
   -19.9833 -19.9833 -19.9828 -19.9828 -19.9827 -19.9827 -19.9823 -19.9823
   -19.9770 -19.9770 -19.9769 -19.9769 -19.9767 -19.9767 -19.9765 -19.9765
   -19.9757 -19.9757 -19.9755 -19.9755 -19.9716 -19.9716 -19.9713 -19.9713
   -19.9657 -19.9657 -19.9655 -19.9655 -19.9614 -19.9614 -19.9611 -19.9611
   -19.9543 -19.9543 -19.9542 -19.9542 -19.9536 -19.9536 -19.9535 -19.9535
   -19.9435 -19.9435 -19.9433 -19.9433 -19.9410 -19.9410 -19.9409 -19.9409
    -9.3953  -9.3953  -9.0088  -9.0088  -8.9805  -8.9805  -8.6027  -8.6027
    -8.3457  -8.3457  -8.3206  -8.3206  -8.2758  -8.2757  -8.2212  -8.2212
    -7.6814  -7.6814  -7.6065  -7.6065  -7.5497  -7.5497  -7.5152  -7.5152
     1.7238   1.7238   1.8059   1.8059   1.9696   1.9696   2.0680   2.0680
     2.8804   2.8805   3.2358   3.2358   3.3021   3.3021   3.3953   3.3953
     3.4586   3.4586   3.5889   3.5889   3.8242   3.8242   4.0108   4.0108
     4.0646   4.0646   4.5901   4.5902   4.8209   4.8209   5.1649   5.1650
     5.2184   5.2184   5.3135   5.3135   5.4515   5.4515   5.8639   5.8640
     5.9204   5.9204   6.0043   6.0043   6.1193   6.1193   6.2513   6.2513
     6.5292   6.5292   6.6910   6.6910   6.7578   6.7578   6.9823   6.9823
     7.0572   7.0572   7.0949   7.0949   7.1670   7.1670   7.7123   7.7123
     7.7408   7.7408   7.8311   7.8311   7.9169   7.9169   8.1364   8.1364
    10.5566  10.5566  11.6109  11.6109  11.7361  11.7361  11.8873  11.8873
    12.0485  12.0485  12.5712  12.5712  13.0347  13.0347  13.0905  13.0905
    13.2019  13.2019  13.5112  13.5112  13.5983  13.5983  13.8928  13.8928
    15.0458  15.0458  15.5157  15.5157  16.0723  16.0723  16.2154  16.2154
    16.9156  16.9156  18.0302  18.0303  18.1779

          k = 0.1667 0.1599 0.0000 ( 61481 PWs)   bands (ev):

   -65.8471 -65.8466 -65.8462 -65.8462 -65.8457 -65.8457 -65.8453 -65.8448
   -30.2712 -30.2635 -30.2621 -30.2532 -30.2391 -30.2336 -30.2228 -30.2222
   -30.2202 -30.2070 -30.2006 -30.1918 -30.1860 -30.1795 -30.1759 -30.1539
   -30.1317 -30.1304 -30.1199 -30.1152 -30.1109 -30.1033 -30.1007 -30.0934
   -20.0001 -20.0000 -19.9995 -19.9995 -19.9994 -19.9992 -19.9988 -19.9987
   -19.9834 -19.9831 -19.9830 -19.9829 -19.9827 -19.9825 -19.9824 -19.9820
   -19.9771 -19.9771 -19.9769 -19.9767 -19.9764 -19.9761 -19.9761 -19.9759
   -19.9758 -19.9758 -19.9757 -19.9755 -19.9724 -19.9722 -19.9715 -19.9713
   -19.9658 -19.9657 -19.9655 -19.9654 -19.9616 -19.9613 -19.9611 -19.9610
   -19.9571 -19.9569 -19.9563 -19.9562 -19.9514 -19.9513 -19.9506 -19.9506
   -19.9441 -19.9439 -19.9429 -19.9427 -19.9416 -19.9415 -19.9404 -19.9403
    -9.6525  -9.3699  -9.2527  -9.1805  -8.9993  -8.8605  -8.7939  -8.7133
    -8.6856  -8.5909  -8.5732  -8.5359  -7.7950  -7.7034  -7.6882  -7.6570
    -7.6449  -7.6128  -7.6073  -7.5808  -7.5514  -7.5347  -7.4827  -7.4531
     1.6098   1.6183   1.6228   1.6253   1.8655   1.8786   1.9372   2.0442
     2.0631   2.1480   2.1808   2.3800   2.6956   2.7883   2.8872   2.9106
     3.0447   3.0575   4.1340   4.2396   4.3505   4.5034   4.5400   4.6614
     4.7505   4.9044   4.9215   4.9780   5.0868   5.2373   5.3016   5.4920
     5.5864   5.6556   5.6829   5.7230   5.7556   5.8096   5.8566   5.9091
     5.9753   6.0295   6.0782   6.0934   6.1091   6.1528   6.1808   6.2850
     6.4361   6.5209   6.6354   6.7045   6.8675   6.9051   6.9832   6.9923
     7.0199   7.0609   7.1135   7.1545   7.1623   7.1660   7.2883   7.2933
     7.3907   7.4037   7.9190   7.9401   8.0634   8.1133   8.2711   8.2818
    10.2505  10.2811  10.5837  10.5900  10.7607  10.8419  12.2521  12.5420
    12.5500  12.6126  12.6826  12.7130  12.7593  12.8093  12.8902  13.0082
    13.3043  13.4295  13.5195  13.5353  13.8513  13.8721  14.1817  14.1902
    14.9660  15.0601  15.2759  15.4020  15.6618  15.6619  16.0586  16.2349
    16.5010  16.8508  16.9946  17.5070  17.8832

          k = 0.1667 0.1599 0.1655 ( 61510 PWs)   bands (ev):

   -65.8470 -65.8466 -65.8463 -65.8461 -65.8458 -65.8457 -65.8454 -65.8449
   -30.2702 -30.2627 -30.2623 -30.2537 -30.2356 -30.2294 -30.2228 -30.2188
   -30.2182 -30.2022 -30.2013 -30.1926 -30.1842 -30.1788 -30.1767 -30.1527
   -30.1361 -30.1350 -30.1252 -30.1196 -30.1105 -30.1030 -30.1022 -30.0948
   -20.0001 -20.0000 -19.9996 -19.9995 -19.9993 -19.9992 -19.9988 -19.9987
   -19.9834 -19.9831 -19.9830 -19.9828 -19.9826 -19.9826 -19.9824 -19.9821
   -19.9771 -19.9771 -19.9769 -19.9767 -19.9764 -19.9762 -19.9761 -19.9761
   -19.9760 -19.9757 -19.9755 -19.9754 -19.9724 -19.9721 -19.9715 -19.9713
   -19.9658 -19.9657 -19.9655 -19.9654 -19.9616 -19.9613 -19.9612 -19.9610
   -19.9568 -19.9566 -19.9560 -19.9558 -19.9517 -19.9517 -19.9510 -19.9510
   -19.9440 -19.9438 -19.9430 -19.9428 -19.9415 -19.9414 -19.9405 -19.9404
    -9.6040  -9.3111  -9.1985  -9.1921  -8.9156  -8.8766  -8.8035  -8.6760
    -8.6545  -8.5853  -8.5478  -8.5403  -7.8085  -7.7378  -7.7073  -7.6894
    -7.6631  -7.6541  -7.6443  -7.6197  -7.6033  -7.5589  -7.5522  -7.5355
     1.7876   1.8062   1.8377   1.8601   1.8750   1.8863   1.9455   2.0414
     2.0980   2.1753   2.1999   2.4216   2.7887   2.8828   2.9199   2.9666
     3.0561   3.1307   4.1408   4.2179   4.3562   4.4724   4.5564   4.6286
     4.6699   4.7096   4.7954   4.8523   4.9398   5.0469   5.2845   5.3712
     5.4757   5.5006   5.5996   5.6099   5.6986   5.7200   5.7371   5.8211
     5.9300   5.9739   6.0050   6.0630   6.0959   6.1237   6.2677   6.3133
     6.5751   6.5878   6.7683   6.7917   6.8715   6.9001   6.9445   6.9609
     7.0157   7.0335   7.0812   7.1027   7.1233   7.1791   7.2183   7.2634
     7.4019   7.4368   7.9287   7.9411   8.0731   8.1176   8.2290   8.2449
    10.4270  10.4709  10.7448  10.7739  10.8142  10.9150  12.3042  12.4995
    12.5643  12.5797  12.6942  12.7103  12.8190  12.8566  12.8898  13.0190
    13.2448  13.3766  13.4411  13.5190  13.8401  13.8928  14.0562  14.1015
    15.0246  15.1864  15.2787  15.4999  15.7130  15.7304  16.1655  16.3643
    16.4691  16.9788  17.1332  17.2534  17.9204

          k = 0.1667 0.1599 0.3309 ( 61470 PWs)   bands (ev):

   -65.8469 -65.8464 -65.8464 -65.8460 -65.8459 -65.8455 -65.8455 -65.8450
   -30.2681 -30.2639 -30.2599 -30.2551 -30.2295 -30.2239 -30.2194 -30.2101
   -30.2095 -30.2042 -30.1953 -30.1883 -30.1845 -30.1777 -30.1705 -30.1493
   -30.1487 -30.1483 -30.1394 -30.1303 -30.1095 -30.1053 -30.1018 -30.0975
   -20.0000 -19.9999 -19.9997 -19.9996 -19.9992 -19.9991 -19.9989 -19.9988
   -19.9833 -19.9831 -19.9830 -19.9828 -19.9827 -19.9825 -19.9825 -19.9822
   -19.9770 -19.9770 -19.9769 -19.9766 -19.9766 -19.9764 -19.9764 -19.9763
   -19.9758 -19.9755 -19.9755 -19.9753 -19.9721 -19.9719 -19.9717 -19.9715
   -19.9658 -19.9657 -19.9656 -19.9655 -19.9615 -19.9613 -19.9612 -19.9611
   -19.9557 -19.9556 -19.9550 -19.9549 -19.9528 -19.9528 -19.9521 -19.9521
   -19.9438 -19.9436 -19.9432 -19.9430 -19.9413 -19.9412 -19.9407 -19.9406
    -9.4839  -9.2542  -9.1672  -9.0466  -8.9270  -8.8366  -8.6784  -8.5943
    -8.5545  -8.5424  -8.5278  -8.4485  -8.0104  -7.9974  -7.9343  -7.8968
    -7.7332  -7.7061  -7.6529  -7.6318  -7.6166  -7.6087  -7.5757  -7.5634
     1.8583   1.8683   1.9438   1.9600   2.0099   2.0277   2.1168   2.1748
     2.5279   2.5859   2.6569   2.7748   2.9368   3.0099   3.0751   3.1614
     3.2160   3.3573   3.9563   4.0609   4.1180   4.1264   4.3633   4.3970
     4.4780   4.5653   4.6576   4.7075   4.7783   4.9174   4.9579   5.0526
     5.0818   5.1839   5.2686   5.3574   5.4232   5.4959   5.6988   5.7837
     5.8416   5.9123   6.0179   6.0482   6.0599   6.0778   6.1765   6.2301
     6.5491   6.7003   6.7447   6.8201   6.8528   6.8783   6.9342   6.9767
     7.0171   7.0693   7.1179   7.1946   7.2333   7.2716   7.3886   7.4160
     7.4630   7.5366   7.9043   7.9119   8.0579   8.1120   8.1164   8.1250
    10.6944  10.7132  11.0148  11.1160  11.3120  11.4129  12.1969  12.2768
    12.4313  12.4998  12.6373  12.7071  12.8060  12.8978  12.9458  13.0405
    13.0670  13.2545  13.3342  13.4960  13.7379  13.7544  13.8974  13.9390
    15.1557  15.2568  15.5421  15.7595  15.9201  16.0608  16.1679  16.3850
    16.7189  17.1253  17.4043  17.5666  17.7145

          k = 0.1667 0.1599-0.4964 ( 61516 PWs)   bands (ev):

   -65.8466 -65.8466 -65.8462 -65.8462 -65.8457 -65.8457 -65.8453 -65.8453
   -30.2658 -30.2658 -30.2573 -30.2573 -30.2259 -30.2259 -30.2099 -30.2099
   -30.2007 -30.2007 -30.1962 -30.1962 -30.1686 -30.1686 -30.1649 -30.1649
   -30.1569 -30.1569 -30.1414 -30.1414 -30.1078 -30.1078 -30.1000 -30.1000
   -19.9998 -19.9998 -19.9997 -19.9997 -19.9991 -19.9991 -19.9990 -19.9990
   -19.9832 -19.9832 -19.9828 -19.9828 -19.9826 -19.9826 -19.9823 -19.9823
   -19.9769 -19.9769 -19.9767 -19.9767 -19.9766 -19.9766 -19.9764 -19.9764
   -19.9756 -19.9756 -19.9754 -19.9754 -19.9719 -19.9719 -19.9717 -19.9717
   -19.9657 -19.9657 -19.9655 -19.9655 -19.9614 -19.9614 -19.9612 -19.9612
   -19.9543 -19.9543 -19.9542 -19.9542 -19.9536 -19.9536 -19.9535 -19.9535
   -19.9435 -19.9435 -19.9433 -19.9433 -19.9410 -19.9410 -19.9409 -19.9409
    -9.3522  -9.3522  -9.0217  -9.0217  -8.9108  -8.9108  -8.5706  -8.5706
    -8.3508  -8.3508  -8.3206  -8.3206  -8.2775  -8.2775  -8.2148  -8.2148
    -7.7226  -7.7226  -7.6324  -7.6324  -7.6073  -7.6073  -7.5881  -7.5881
     1.8633   1.8633   1.9611   1.9611   2.0224   2.0224   2.1689   2.1689
     2.9507   2.9507   3.2522   3.2522   3.3215   3.3215   3.3972   3.3972
     3.4587   3.4587   3.6217   3.6217   3.8127   3.8128   4.0265   4.0265
     4.1155   4.1155   4.5442   4.5442   4.6193   4.6193   4.9691   4.9691
     5.1089   5.1089   5.2617   5.2617   5.3515   5.3515   5.7681   5.7681
     5.9042   5.9042   5.9349   5.9349   6.0586   6.0586   6.1017   6.1017
     6.6459   6.6459   6.7885   6.7885   6.8427   6.8427   6.9675   6.9676
     7.0556   7.0556   7.1202   7.1202   7.2324   7.2324   7.7122   7.7122
     7.7385   7.7385   7.8117   7.8118   7.8872   7.8872   8.1105   8.1105
    10.7330  10.7330  11.6191  11.6191  11.7371  11.7371  11.9469  11.9469
    12.0938  12.0938  12.6011  12.6011  12.9245  12.9245  13.0212  13.0212
    13.1667  13.1667  13.3928  13.3928  13.5361  13.5361  13.8849  13.8849
    15.2295  15.2295  15.8660  15.8660  16.1358  16.1358  16.2392  16.2392
    16.9586  16.9586  17.8968  17.8968  18.1526

          k = 0.1667 0.3198 0.0000 ( 61503 PWs)   bands (ev):

   -65.8470 -65.8467 -65.8461 -65.8461 -65.8458 -65.8458 -65.8452 -65.8449
   -30.2623 -30.2545 -30.2521 -30.2434 -30.2418 -30.2370 -30.2288 -30.2226
   -30.2216 -30.2113 -30.2051 -30.1931 -30.1895 -30.1808 -30.1753 -30.1610
   -30.1314 -30.1307 -30.1195 -30.1170 -30.1096 -30.1054 -30.0995 -30.0954
   -19.9999 -19.9998 -19.9995 -19.9994 -19.9994 -19.9993 -19.9989 -19.9988
   -19.9834 -19.9832 -19.9829 -19.9828 -19.9827 -19.9826 -19.9823 -19.9821
   -19.9770 -19.9769 -19.9766 -19.9766 -19.9763 -19.9760 -19.9759 -19.9757
   -19.9756 -19.9754 -19.9750 -19.9748 -19.9733 -19.9731 -19.9725 -19.9723
   -19.9658 -19.9657 -19.9655 -19.9654 -19.9615 -19.9614 -19.9611 -19.9610
   -19.9571 -19.9570 -19.9563 -19.9562 -19.9514 -19.9513 -19.9506 -19.9506
   -19.9440 -19.9439 -19.9429 -19.9428 -19.9416 -19.9415 -19.9404 -19.9403
    -9.5708  -9.4108  -9.1635  -9.0683  -9.0265  -8.8938  -8.7047  -8.6903
    -8.5807  -8.4546  -8.4446  -8.4256  -7.9804  -7.9263  -7.9074  -7.8866
    -7.7039  -7.6906  -7.6070  -7.5920  -7.5625  -7.5451  -7.4779  -7.4632
     1.6119   1.6183   1.6229   1.6272   1.9261   1.9368   2.0828   2.1373
     2.5598   2.6570   2.7205   2.7404   2.7688   2.8550   3.1348   3.1629
     3.2620   3.3129   3.7933   3.7943   4.0227   4.0240   4.2931   4.5520
     4.6445   4.7329   4.8086   4.8600   4.9594   5.0217   5.1352   5.2116
     5.2579   5.2741   5.5695   5.6078   5.6280   5.7733   5.8115   5.8578
     5.9358   5.9808   6.0074   6.0757   6.1263   6.1436   6.2475   6.2822
     6.4445   6.5111   6.6020   6.7323   6.8128   7.0102   7.0381   7.0670
     7.1177   7.1340   7.2012   7.2562   7.2889   7.2925   7.3485   7.3521
     7.4278   7.4700   7.8836   7.9327   7.9789   8.0070   8.0563   8.0933
    10.2793  10.2946  10.9733  11.0292  11.2125  11.2624  12.0017  12.2788
    12.3669  12.4201  12.6088  12.6447  12.6488  12.6757  12.8444  12.9700
    13.3236  13.4620  13.5383  13.5495  13.7022  13.8059  13.9472  13.9780
    15.3689  15.5244  15.5862  15.6354  15.7854  15.9850  16.0120  16.3648
    16.3917  17.1438  17.4239  17.5734  17.9374

          k = 0.1667 0.3198 0.1655 ( 61499 PWs)   bands (ev):

   -65.8469 -65.8467 -65.8462 -65.8460 -65.8459 -65.8458 -65.8453 -65.8450
   -30.2611 -30.2532 -30.2524 -30.2424 -30.2408 -30.2335 -30.2292 -30.2189
   -30.2189 -30.2119 -30.2006 -30.1908 -30.1902 -30.1822 -30.1736 -30.1596
   -30.1360 -30.1353 -30.1247 -30.1217 -30.1093 -30.1050 -30.1011 -30.0968
   -19.9999 -19.9998 -19.9995 -19.9994 -19.9994 -19.9993 -19.9990 -19.9989
   -19.9834 -19.9831 -19.9830 -19.9828 -19.9827 -19.9826 -19.9824 -19.9821
   -19.9770 -19.9768 -19.9766 -19.9766 -19.9763 -19.9761 -19.9760 -19.9758
   -19.9755 -19.9753 -19.9749 -19.9748 -19.9733 -19.9730 -19.9725 -19.9723
   -19.9658 -19.9657 -19.9655 -19.9655 -19.9615 -19.9614 -19.9612 -19.9611
   -19.9567 -19.9566 -19.9559 -19.9559 -19.9517 -19.9517 -19.9510 -19.9510
   -19.9440 -19.9439 -19.9429 -19.9428 -19.9415 -19.9414 -19.9405 -19.9404
    -9.5185  -9.3529  -9.0928  -9.0866  -8.9435  -8.9107  -8.6706  -8.6591
    -8.5899  -8.4496  -8.4336  -8.4257  -7.9842  -7.9325  -7.9081  -7.8929
    -7.7342  -7.7216  -7.6675  -7.6610  -7.6064  -7.5883  -7.5612  -7.5452
     1.7926   1.8028   1.8650   1.8685   1.9323   1.9432   2.1251   2.1897
     2.5700   2.6580   2.7299   2.8017   2.8425   2.8878   3.1429   3.2367
     3.2641   3.3903   3.7992   3.8682   4.0149   4.0256   4.2722   4.5669
     4.5880   4.6500   4.7118   4.7446   4.8646   4.9699   5.0217   5.0663
     5.1244   5.2174   5.4026   5.4237   5.6015   5.6134   5.6248   5.6831
     5.8785   5.8905   5.9146   5.9488   6.0379   6.0447   6.2916   6.3048
     6.6012   6.6518   6.7464   6.8009   6.9320   6.9974   7.0065   7.0586
     7.0812   7.1246   7.1823   7.2042   7.2828   7.2957   7.3293   7.3679
     7.4632   7.4742   7.8944   7.9340   7.9723   8.0098   8.0318   8.0680
    10.4806  10.5026  11.1300  11.1597  11.2300  11.2991  12.0835  12.3252
    12.3741  12.4164  12.5946  12.6196  12.6442  12.7030  12.8999  13.0105
    13.2625  13.3715  13.4433  13.4903  13.6680  13.8057  13.8309  13.9169
    15.4648  15.6185  15.7107  15.7230  15.7998  16.0437  16.2698  16.3637
    16.5081  17.1128  17.4908  17.6049  17.6642

          k = 0.1667 0.3198 0.3309 ( 61498 PWs)   bands (ev):

   -65.8468 -65.8465 -65.8463 -65.8460 -65.8459 -65.8456 -65.8454 -65.8451
   -30.2585 -30.2540 -30.2496 -30.2439 -30.2360 -30.2306 -30.2256 -30.2145
   -30.2096 -30.2095 -30.1936 -30.1880 -30.1870 -30.1817 -30.1675 -30.1552
   -30.1490 -30.1489 -30.1384 -30.1335 -30.1082 -30.1041 -30.1038 -30.0996
   -19.9998 -19.9997 -19.9995 -19.9994 -19.9994 -19.9993 -19.9991 -19.9990
   -19.9833 -19.9831 -19.9830 -19.9828 -19.9827 -19.9825 -19.9825 -19.9823
   -19.9769 -19.9768 -19.9766 -19.9765 -19.9765 -19.9763 -19.9762 -19.9761
   -19.9753 -19.9751 -19.9749 -19.9748 -19.9730 -19.9728 -19.9726 -19.9724
   -19.9658 -19.9657 -19.9656 -19.9655 -19.9615 -19.9613 -19.9612 -19.9611
   -19.9557 -19.9556 -19.9549 -19.9549 -19.9528 -19.9528 -19.9521 -19.9521
   -19.9437 -19.9437 -19.9432 -19.9431 -19.9413 -19.9412 -19.9407 -19.9406
    -9.3889  -9.2102  -9.1446  -8.9639  -8.9099  -8.7092  -8.6275  -8.5655
    -8.5467  -8.4443  -8.4246  -8.3668  -8.0659  -8.0180  -7.9905  -7.9294
    -7.9037  -7.8891  -7.8739  -7.8024  -7.6591  -7.6422  -7.5930  -7.5762
     1.9311   1.9455   1.9562   1.9670   2.4349   2.4969   2.5253   2.6006
     2.6590   2.7129   2.7355   2.9129   3.0818   3.1260   3.1811   3.2500
     3.4607   3.5784   3.8270   3.9006   3.9939   4.0135   4.0855   4.1647
     4.2882   4.4697   4.5218   4.6066   4.6344   4.7151   4.8375   4.9163
     4.9387   5.0497   5.0965   5.1573   5.2053   5.2900   5.3868   5.4376
     5.5683   5.5942   5.6774   5.8716   5.9615   6.0390   6.2026   6.2227
     6.7077   6.7873   6.7970   6.9097   6.9778   7.0158   7.1006   7.1211
     7.1736   7.2180   7.2539   7.2751   7.3240   7.3933   7.4257   7.4435
     7.4990   7.5264   7.8879   7.8947   7.9339   7.9546   7.9940   8.0017
    10.9661  10.9899  11.2424  11.2971  11.5767  11.6615  12.1839  12.2390
    12.3373  12.4181  12.4866  12.5509  12.7268  12.7929  12.8579  12.8916
    12.9843  13.1680  13.2287  13.4703  13.4807  13.5830  13.7893  13.8110
    15.5772  15.6748  15.8921  16.1331  16.2418  16.2790  16.3452  16.9376
    16.9670  17.0423  17.1454  17.7244  17.8080

          k = 0.1667 0.3198-0.4964 ( 61486 PWs)   bands (ev):

   -65.8465 -65.8465 -65.8463 -65.8463 -65.8456 -65.8456 -65.8454 -65.8454
   -30.2560 -30.2560 -30.2464 -30.2464 -30.2327 -30.2327 -30.2187 -30.2187
   -30.1998 -30.1998 -30.1972 -30.1972 -30.1684 -30.1684 -30.1666 -30.1666
   -30.1550 -30.1550 -30.1463 -30.1463 -30.1065 -30.1065 -30.1021 -30.1021
   -19.9997 -19.9997 -19.9996 -19.9996 -19.9992 -19.9992 -19.9991 -19.9991
   -19.9832 -19.9832 -19.9829 -19.9829 -19.9826 -19.9826 -19.9824 -19.9824
   -19.9767 -19.9767 -19.9766 -19.9766 -19.9764 -19.9764 -19.9764 -19.9764
   -19.9750 -19.9750 -19.9749 -19.9749 -19.9728 -19.9728 -19.9726 -19.9726
   -19.9657 -19.9657 -19.9656 -19.9656 -19.9614 -19.9614 -19.9612 -19.9612
   -19.9543 -19.9543 -19.9542 -19.9542 -19.9535 -19.9535 -19.9535 -19.9535
   -19.9435 -19.9435 -19.9434 -19.9434 -19.9410 -19.9410 -19.9409 -19.9409
    -9.2476  -9.2476  -9.0626  -9.0626  -8.7226  -8.7226  -8.4713  -8.4713
    -8.3783  -8.3783  -8.3250  -8.3250  -8.2709  -8.2709  -8.1883  -8.1883
    -7.9272  -7.9271  -7.8684  -7.8684  -7.6266  -7.6266  -7.6091  -7.6091
     1.9500   1.9500   1.9655   1.9655   2.5783   2.5783   2.7020   2.7020
     3.1329   3.1329   3.2985   3.2985   3.3427   3.3427   3.4201   3.4201
     3.4609   3.4609   3.7149   3.7149   3.7629   3.7629   3.9783   3.9783
     4.2078   4.2078   4.2883   4.2883   4.3470   4.3471   4.5406   4.5406
     4.9841   4.9841   5.1160   5.1160   5.2659   5.2659   5.3144   5.3144
     5.3942   5.3943   5.7561   5.7561   6.0260   6.0260   6.0783   6.0783
     6.8030   6.8030   6.9178   6.9178   6.9666   6.9666   7.0455   7.0455
     7.2362   7.2362   7.2855   7.2855   7.3982   7.3982   7.7004   7.7004
     7.7254   7.7254   7.7442   7.7442   7.8014   7.8014   7.9840   7.9840
    11.1835  11.1835  11.6375  11.6375  11.7494  11.7494  12.1264  12.1264
    12.2498  12.2498  12.5215  12.5215  12.6593  12.6593  12.8412  12.8412
    13.0681  13.0681  13.1342  13.1342  13.4861  13.4861  13.7462  13.7462
    15.6464  15.6464  16.0862  16.0862  16.5990  16.5990  16.7466  16.7466
    17.1063  17.1063  17.5672  17.5672  18.0197

          k = 0.1667-0.4796 0.0000 ( 61550 PWs)   bands (ev):

   -65.8469 -65.8469 -65.8460 -65.8460 -65.8459 -65.8459 -65.8451 -65.8450
   -30.2517 -30.2517 -30.2442 -30.2442 -30.2396 -30.2396 -30.2266 -30.2266
   -30.2222 -30.2222 -30.2005 -30.2005 -30.1857 -30.1857 -30.1690 -30.1690
   -30.1311 -30.1311 -30.1186 -30.1186 -30.1077 -30.1077 -30.0977 -30.0977
   -19.9997 -19.9997 -19.9996 -19.9996 -19.9991 -19.9991 -19.9990 -19.9990
   -19.9833 -19.9833 -19.9828 -19.9828 -19.9828 -19.9827 -19.9822 -19.9822
   -19.9769 -19.9769 -19.9766 -19.9765 -19.9761 -19.9761 -19.9759 -19.9759
   -19.9745 -19.9745 -19.9743 -19.9743 -19.9737 -19.9737 -19.9735 -19.9735
   -19.9657 -19.9657 -19.9655 -19.9655 -19.9615 -19.9615 -19.9611 -19.9611
   -19.9571 -19.9571 -19.9563 -19.9563 -19.9514 -19.9513 -19.9506 -19.9506
   -19.9440 -19.9440 -19.9428 -19.9428 -19.9415 -19.9415 -19.9404 -19.9404
    -9.4804  -9.4804  -9.0796  -9.0796  -8.9605  -8.9605  -8.6970  -8.6970
    -8.2812  -8.2812  -8.2263  -8.2263  -8.2020  -8.2019  -8.1963  -8.1963
    -7.7012  -7.7012  -7.6003  -7.6003  -7.5552  -7.5552  -7.4711  -7.4711
     1.6151   1.6151   1.6247   1.6247   1.9355   1.9355   2.1266   2.1267
     2.7393   2.7393   3.1925   3.1926   3.3126   3.3126   3.3800   3.3800
     3.4909   3.4909   3.5904   3.5905   3.8227   3.8227   3.9571   3.9571
     4.0421   4.0421   4.6701   4.6701   4.8809   4.8809   5.2886   5.2886
     5.3787   5.3787   5.4912   5.4912   5.5592   5.5592   5.8010   5.8010
     5.9605   5.9605   5.9666   5.9666   6.1353   6.1353   6.2805   6.2805
     6.5429   6.5429   6.5952   6.5952   6.8919   6.8919   7.0811   7.0811
     7.1583   7.1583   7.2465   7.2465   7.3626   7.3626   7.6482   7.6482
     7.6885   7.6886   7.7328   7.7328   7.7801   7.7802   7.9576   7.9576
    10.2930  10.2930  11.5063  11.5063  11.5867  11.5867  11.8354  11.8354
    11.9122  11.9122  12.6479  12.6479  12.6522  12.6522  12.9130  12.9130
    13.4507  13.4507  13.5552  13.5552  13.6969  13.6969  13.7866  13.7866
    15.6247  15.6247  15.8212  15.8212  15.8632  15.8632  16.1506  16.1506
    16.8540  16.8540  18.0687  18.0687  18.3192

          k = 0.1667-0.4796 0.1655 ( 61514 PWs)   bands (ev):

   -65.8468 -65.8468 -65.8460 -65.8460 -65.8459 -65.8459 -65.8451 -65.8451
   -30.2500 -30.2500 -30.2420 -30.2418 -30.2400 -30.2398 -30.2271 -30.2271
   -30.2189 -30.2189 -30.1970 -30.1969 -30.1869 -30.1868 -30.1675 -30.1675
   -30.1357 -30.1357 -30.1236 -30.1236 -30.1073 -30.1073 -30.0992 -30.0992
   -19.9997 -19.9997 -19.9996 -19.9995 -19.9992 -19.9992 -19.9991 -19.9991
   -19.9833 -19.9832 -19.9829 -19.9828 -19.9827 -19.9827 -19.9823 -19.9823
   -19.9769 -19.9769 -19.9765 -19.9765 -19.9762 -19.9762 -19.9759 -19.9759
   -19.9744 -19.9744 -19.9742 -19.9742 -19.9738 -19.9737 -19.9736 -19.9736
   -19.9657 -19.9657 -19.9655 -19.9655 -19.9615 -19.9614 -19.9611 -19.9611
   -19.9567 -19.9567 -19.9559 -19.9559 -19.9517 -19.9517 -19.9510 -19.9510
   -19.9439 -19.9439 -19.9429 -19.9429 -19.9415 -19.9414 -19.9404 -19.9404
    -9.4246  -9.4245  -9.0005  -8.9998  -8.9786  -8.9782  -8.6646  -8.6646
    -8.2889  -8.2878  -8.2263  -8.2250  -8.2072  -8.2053  -8.1930  -8.1901
    -7.7322  -7.7306  -7.6663  -7.6661  -7.5995  -7.5993  -7.5546  -7.5543
     1.7938   1.8005   1.8664   1.8702   1.9403   1.9435   2.1755   2.1807
     2.8300   2.8336   3.2119   3.2138   3.3060   3.3489   3.3604   3.3897
     3.5063   3.5402   3.5682   3.6188   3.8362   3.8551   3.9602   3.9706
     4.0656   4.0674   4.5961   4.6457   4.7163   4.7493   5.1320   5.1556
     5.2650   5.2882   5.3060   5.3737   5.4030   5.4547   5.6749   5.6828
     5.7342   5.7613   5.8784   5.9349   5.9966   6.0081   6.3054   6.3074
[...]
    11.7339  11.7339  11.7339  11.7339  11.9880  11.9880  11.9880  11.9880
    12.3632  12.3632  12.3632  12.3632  12.5765  12.5765  12.5766  12.5766
    13.2728  13.2729  13.2729  13.2729  13.4756  13.4756  13.4756  13.4756
    15.6520  15.6520  15.6520  15.6520  17.0208  17.0208  17.0208  17.0208
    17.5906  17.5906  17.5906  17.5906  17.8302

          k =-0.5000 0.3198 0.0000 ( 61558 PWs)   bands (ev):

   -65.8465 -65.8465 -65.8463 -65.8463 -65.8456 -65.8456 -65.8454 -65.8454
   -30.2577 -30.2577 -30.2459 -30.2459 -30.2395 -30.2395 -30.2172 -30.2172
   -30.2112 -30.2112 -30.2032 -30.2032 -30.1566 -30.1566 -30.1549 -30.1549
   -30.1455 -30.1455 -30.1378 -30.1378 -30.1146 -30.1146 -30.1112 -30.1112
   -19.9999 -19.9999 -19.9995 -19.9994 -19.9993 -19.9993 -19.9989 -19.9989
   -19.9831 -19.9831 -19.9829 -19.9829 -19.9827 -19.9826 -19.9824 -19.9824
   -19.9769 -19.9769 -19.9768 -19.9768 -19.9763 -19.9762 -19.9759 -19.9759
   -19.9754 -19.9754 -19.9748 -19.9748 -19.9732 -19.9732 -19.9724 -19.9723
   -19.9636 -19.9636 -19.9635 -19.9635 -19.9632 -19.9632 -19.9632 -19.9632
   -19.9567 -19.9567 -19.9566 -19.9566 -19.9510 -19.9510 -19.9510 -19.9510
   -19.9429 -19.9429 -19.9428 -19.9428 -19.9417 -19.9417 -19.9416 -19.9416
    -9.3225  -9.3225  -9.1672  -9.1672  -8.7169  -8.7169  -8.5026  -8.5026
    -8.3329  -8.3329  -8.3101  -8.3100  -8.2482  -8.2482  -8.1681  -8.1681
    -7.9060  -7.9059  -7.8656  -7.8656  -7.5419  -7.5419  -7.5265  -7.5265
     1.6390   1.6390   1.6479   1.6479   2.5567   2.5567   2.7015   2.7015
     3.1695   3.1695   3.2133   3.2133   3.2701   3.2701   3.4028   3.4028
     3.4929   3.4929   3.6934   3.6934   3.8156   3.8156   3.9116   3.9117
     4.1438   4.1438   4.2598   4.2598   4.5064   4.5065   4.6439   4.6439
     5.0867   5.0867   5.0986   5.0986   5.3901   5.3901   5.5477   5.5477
     5.6875   5.6875   5.9574   5.9574   6.3210   6.3210   6.3481   6.3481
     6.6446   6.6446   6.7477   6.7477   6.7700   6.7700   6.9341   6.9341
     7.2357   7.2357   7.2646   7.2646   7.3040   7.3040   7.6393   7.6393
     7.6725   7.6725   7.8136   7.8136   7.8523   7.8523   8.0630   8.0630
    11.0006  11.0007  11.5801  11.5801  11.6773  11.6773  11.8305  11.8305
    12.2804  12.2804  12.4856  12.4856  12.7916  12.7916  12.9781  12.9781
    13.0807  13.0807  13.2543  13.2543  13.5346  13.5346  13.9333  13.9333
    15.4637  15.4637  15.7845  15.7845  16.5140  16.5140  16.7346  16.7346
    16.8643  16.8643  17.5480  17.5480  18.0207

          k =-0.5000 0.3198 0.1655 ( 61526 PWs)   bands (ev):

   -65.8465 -65.8465 -65.8462 -65.8462 -65.8457 -65.8457 -65.8454 -65.8454
   -30.2562 -30.2562 -30.2464 -30.2464 -30.2362 -30.2362 -30.2177 -30.2177
   -30.2068 -30.2068 -30.2008 -30.2008 -30.1583 -30.1582 -30.1571 -30.1571
   -30.1450 -30.1450 -30.1372 -30.1372 -30.1190 -30.1190 -30.1149 -30.1149
   -19.9999 -19.9998 -19.9994 -19.9994 -19.9994 -19.9993 -19.9989 -19.9989
   -19.9831 -19.9831 -19.9829 -19.9829 -19.9827 -19.9827 -19.9824 -19.9824
   -19.9769 -19.9769 -19.9768 -19.9768 -19.9763 -19.9763 -19.9760 -19.9760
   -19.9753 -19.9753 -19.9748 -19.9748 -19.9731 -19.9731 -19.9724 -19.9724
   -19.9636 -19.9636 -19.9635 -19.9635 -19.9632 -19.9632 -19.9632 -19.9632
   -19.9563 -19.9563 -19.9562 -19.9562 -19.9514 -19.9514 -19.9514 -19.9514
   -19.9428 -19.9428 -19.9427 -19.9427 -19.9418 -19.9418 -19.9417 -19.9417
    -9.2569  -9.2569  -9.0899  -9.0899  -8.7325  -8.7324  -8.4838  -8.4838
    -8.3522  -8.3522  -8.3026  -8.3026  -8.2378  -8.2378  -8.1714  -8.1714
    -7.9037  -7.9037  -7.8709  -7.8709  -7.6517  -7.6517  -7.6348  -7.6348
     1.8799   1.8799   1.8900   1.8900   2.5663   2.5663   2.6882   2.6882
     3.1903   3.1903   3.2630   3.2630   3.2923   3.2923   3.4356   3.4357
     3.5128   3.5128   3.7378   3.7378   3.8485   3.8485   3.9635   3.9635
     4.1341   4.1341   4.2726   4.2726   4.4977   4.4977   4.6275   4.6275
     4.9461   4.9461   5.0599   5.0599   5.2558   5.2558   5.2981   5.2981
     5.4172   5.4172   5.7384   5.7384   5.9964   5.9964   6.0521   6.0521
     6.8157   6.8157   6.9737   6.9738   7.0039   7.0039   7.0474   7.0474
     7.2110   7.2110   7.2950   7.2950   7.3455   7.3455   7.6449   7.6449
     7.6841   7.6841   7.8203   7.8203   7.8529   7.8529   8.0389   8.0390
    11.1511  11.1511  11.6423  11.6423  11.7505  11.7506  11.8813  11.8813
    12.3025  12.3025  12.5241  12.5242  12.7828  12.7828  12.9411  12.9411
    13.0787  13.0787  13.2274  13.2274  13.3998  13.3998  13.8098  13.8098
    15.6569  15.6569  16.0050  16.0050  16.5691  16.5691  16.7338  16.7338
    16.9215  16.9215  17.5856  17.5856  17.9776

          k =-0.5000 0.3198 0.3309 ( 61494 PWs)   bands (ev):

   -65.8463 -65.8463 -65.8460 -65.8460 -65.8459 -65.8459 -65.8456 -65.8456
   -30.2532 -30.2532 -30.2478 -30.2478 -30.2290 -30.2290 -30.2196 -30.2196
   -30.1945 -30.1945 -30.1925 -30.1924 -30.1648 -30.1648 -30.1645 -30.1645
   -30.1430 -30.1429 -30.1352 -30.1352 -30.1290 -30.1290 -30.1232 -30.1232
   -19.9998 -19.9997 -19.9995 -19.9995 -19.9993 -19.9993 -19.9990 -19.9990
   -19.9830 -19.9830 -19.9828 -19.9828 -19.9828 -19.9827 -19.9825 -19.9825
   -19.9768 -19.9768 -19.9767 -19.9767 -19.9764 -19.9764 -19.9763 -19.9762
   -19.9751 -19.9751 -19.9748 -19.9748 -19.9729 -19.9729 -19.9725 -19.9725
   -19.9636 -19.9636 -19.9636 -19.9636 -19.9632 -19.9632 -19.9632 -19.9632
   -19.9553 -19.9553 -19.9552 -19.9552 -19.9525 -19.9524 -19.9524 -19.9524
   -19.9426 -19.9426 -19.9425 -19.9425 -19.9420 -19.9420 -19.9419 -19.9419
    -9.0883  -9.0883  -8.8785  -8.8785  -8.7858  -8.7858  -8.4428  -8.4428
    -8.3928  -8.3928  -8.2775  -8.2775  -8.2158  -8.2158  -8.1766  -8.1766
    -7.9424  -7.9424  -7.9187  -7.9186  -7.8836  -7.8836  -7.8393  -7.8393
     2.4382   2.4382   2.5355   2.5355   2.5979   2.5979   2.7301   2.7302
     3.2317   3.2317   3.2651   3.2651   3.4195   3.4195   3.4893   3.4893
     3.5916   3.5916   3.8750   3.8750   3.9576   3.9576   4.0548   4.0548
     4.1176   4.1176   4.3094   4.3095   4.4209   4.4209   4.4714   4.4714
     4.6132   4.6132   4.7484   4.7484   4.9203   4.9203   5.0821   5.0821
     5.1568   5.1568   5.2618   5.2618   5.3155   5.3155   5.5739   5.5739
     7.0221   7.0221   7.0935   7.0935   7.1969   7.1969   7.2153   7.2153
     7.3759   7.3759   7.4539   7.4539   7.5018   7.5018   7.6617   7.6617
     7.7164   7.7164   7.8260   7.8260   7.8434   7.8435   7.9649   7.9649
    11.5473  11.5473  11.8278  11.8278  11.9444  11.9444  12.0099  12.0099
    12.3840  12.3840  12.5985  12.5985  12.6721  12.6721  12.7105  12.7105
    13.0145  13.0145  13.1124  13.1124  13.1304  13.1304  13.4933  13.4933
    16.1724  16.1724  16.5193  16.5193  16.7631  16.7631  16.8609  16.8609
    17.1121  17.1121  17.6338  17.6338  17.8433

          k =-0.5000 0.3198-0.4964 ( 61512 PWs)   bands (ev):

   -65.8461 -65.8461 -65.8461 -65.8461 -65.8458 -65.8458 -65.8458 -65.8458
   -30.2501 -30.2501 -30.2501 -30.2501 -30.2231 -30.2231 -30.2231 -30.2231
   -30.1795 -30.1795 -30.1795 -30.1795 -30.1767 -30.1767 -30.1767 -30.1767
   -30.1383 -30.1383 -30.1383 -30.1383 -30.1304 -30.1304 -30.1304 -30.1304
   -19.9996 -19.9996 -19.9996 -19.9996 -19.9992 -19.9992 -19.9992 -19.9992
   -19.9829 -19.9829 -19.9829 -19.9829 -19.9827 -19.9827 -19.9826 -19.9826
   -19.9767 -19.9767 -19.9767 -19.9767 -19.9765 -19.9765 -19.9765 -19.9765
   -19.9750 -19.9749 -19.9749 -19.9749 -19.9727 -19.9727 -19.9727 -19.9727
   -19.9636 -19.9636 -19.9636 -19.9636 -19.9632 -19.9632 -19.9632 -19.9632
   -19.9540 -19.9539 -19.9539 -19.9539 -19.9538 -19.9538 -19.9538 -19.9538
   -19.9423 -19.9423 -19.9423 -19.9423 -19.9422 -19.9422 -19.9422 -19.9422
    -8.9042  -8.9042  -8.9041  -8.9041  -8.6083  -8.6083  -8.6083  -8.6083
    -8.2826  -8.2826  -8.2826  -8.2826  -8.1635  -8.1635  -8.1635  -8.1634
    -8.1242  -8.1242  -8.1242  -8.1242  -7.8756  -7.8756  -7.8756  -7.8756
     2.5836   2.5836   2.5836   2.5836   3.1754   3.1754   3.1754   3.1754
     3.2945   3.2945   3.2945   3.2945   3.4492   3.4492   3.4492   3.4492
     3.6450   3.6450   3.6450   3.6450   4.0280   4.0281   4.0281   4.0281
     4.2225   4.2225   4.2225   4.2226   4.3333   4.3333   4.3333   4.3333
     4.5602   4.5602   4.5602   4.5602   4.6938   4.6938   4.6938   4.6938
     4.9730   4.9730   4.9730   4.9730   5.3457   5.3457   5.3457   5.3457
     7.0944   7.0944   7.0944   7.0944   7.2278   7.2279   7.2279   7.2279
     7.5406   7.5406   7.5406   7.5406   7.6713   7.6713   7.6713   7.6713
     7.7598   7.7598   7.7598   7.7598   7.8744   7.8744   7.8744   7.8744
    11.9374  11.9374  11.9374  11.9374  12.1310  12.1310  12.1310  12.1310
    12.3553  12.3553  12.3553  12.3553  12.6326  12.6326  12.6326  12.6326
    12.9447  12.9447  12.9447  12.9447  13.1795  13.1795  13.1795  13.1795
    16.5016  16.5016  16.5016  16.5016  17.1562  17.1562  17.1562  17.1562
    17.5357  17.5357  17.5357  17.5357  17.8540

          k =-0.5000-0.4796 0.0000 ( 61600 PWs)   bands (ev):

   -65.8464 -65.8464 -65.8464 -65.8464 -65.8455 -65.8455 -65.8455 -65.8455
   -30.2473 -30.2473 -30.2469 -30.2469 -30.2317 -30.2317 -30.2306 -30.2306
   -30.2087 -30.2087 -30.2078 -30.2078 -30.1561 -30.1560 -30.1554 -30.1554
   -30.1431 -30.1431 -30.1414 -30.1414 -30.1135 -30.1135 -30.1130 -30.1130
   -19.9997 -19.9997 -19.9997 -19.9996 -19.9991 -19.9991 -19.9991 -19.9991
   -19.9831 -19.9831 -19.9830 -19.9830 -19.9826 -19.9826 -19.9825 -19.9825
   -19.9768 -19.9768 -19.9768 -19.9768 -19.9761 -19.9761 -19.9760 -19.9760
   -19.9744 -19.9744 -19.9744 -19.9744 -19.9736 -19.9736 -19.9736 -19.9736
   -19.9636 -19.9635 -19.9635 -19.9635 -19.9632 -19.9632 -19.9632 -19.9632
   -19.9567 -19.9567 -19.9566 -19.9566 -19.9510 -19.9510 -19.9510 -19.9510
   -19.9429 -19.9428 -19.9428 -19.9428 -19.9417 -19.9417 -19.9417 -19.9417
    -9.2362  -9.2362  -9.2255  -9.2255  -8.4944  -8.4943  -8.4581  -8.4581
    -8.3784  -8.3784  -8.3456  -8.3456  -8.1872  -8.1872  -8.1137  -8.1137
    -8.1130  -8.1130  -8.0493  -8.0493  -7.5350  -7.5350  -7.5344  -7.5344
     1.6398   1.6398   1.6480   1.6480   3.0798   3.0798   3.1876   3.1876
     3.2161   3.2161   3.2443   3.2443   3.4262   3.4262   3.4978   3.4978
     3.5249   3.5249   3.6621   3.6621   3.6899   3.6899   3.8088   3.8088
     3.8213   3.8213   4.1776   4.1776   4.4724   4.4725   4.5658   4.5658
     4.5986   4.5987   4.6830   4.6830   5.4326   5.4326   5.4975   5.4975
     5.7106   5.7106   5.7990   5.7990   6.3397   6.3397   6.3487   6.3487
     6.7416   6.7416   6.7515   6.7515   6.7908   6.7908   6.8515   6.8515
     7.4157   7.4157   7.4416   7.4417   7.5061   7.5061   7.6390   7.6390
     7.7291   7.7291   7.7633   7.7633   7.7733   7.7733   7.8414   7.8414
    11.5183  11.5183  11.5366  11.5366  11.6465  11.6465  11.6677  11.6677
    12.4719  12.4719  12.5548  12.5548  12.5665  12.5665  12.6899  12.6899
    13.1218  13.1218  13.1318  13.1318  13.6481  13.6481  13.7184  13.7184
    15.6797  15.6797  15.7125  15.7125  16.9560  16.9560  17.1536  17.1536
    17.4155  17.4155  17.5229  17.5232  17.5922

          k =-0.5000-0.4796 0.1655 ( 61504 PWs)   bands (ev):

   -65.8464 -65.8463 -65.8463 -65.8463 -65.8456 -65.8456 -65.8456 -65.8456
   -30.2451 -30.2451 -30.2446 -30.2446 -30.2322 -30.2322 -30.2311 -30.2311
   -30.2051 -30.2051 -30.2043 -30.2043 -30.1579 -30.1579 -30.1573 -30.1573
   -30.1425 -30.1425 -30.1408 -30.1407 -30.1177 -30.1177 -30.1170 -30.1170
   -19.9996 -19.9996 -19.9996 -19.9996 -19.9991 -19.9991 -19.9991 -19.9991
   -19.9830 -19.9830 -19.9830 -19.9830 -19.9826 -19.9826 -19.9825 -19.9825
   -19.9768 -19.9768 -19.9768 -19.9768 -19.9762 -19.9761 -19.9761 -19.9761
   -19.9743 -19.9743 -19.9743 -19.9743 -19.9736 -19.9736 -19.9736 -19.9736
   -19.9636 -19.9636 -19.9635 -19.9635 -19.9632 -19.9632 -19.9632 -19.9632
   -19.9563 -19.9563 -19.9563 -19.9563 -19.9514 -19.9514 -19.9514 -19.9514
   -19.9428 -19.9428 -19.9428 -19.9428 -19.9418 -19.9418 -19.9418 -19.9417
    -9.1634  -9.1634  -9.1515  -9.1515  -8.5146  -8.5146  -8.4783  -8.4782
    -8.3629  -8.3629  -8.3282  -8.3282  -8.1841  -8.1841  -8.1251  -8.1250
    -8.1013  -8.1013  -8.0524  -8.0524  -7.6445  -7.6445  -7.6442  -7.6442
     1.8820   1.8820   1.8922   1.8922   3.0971   3.0971   3.2083   3.2083
     3.2151   3.2151   3.2742   3.2742   3.3866   3.3866   3.5035   3.5035
     3.5858   3.5858   3.6992   3.6992   3.7461   3.7461   3.8134   3.8134
     3.8889   3.8889   4.1965   4.1965   4.4788   4.4788   4.5525   4.5525
     4.5958   4.5958   4.6672   4.6673   5.1336   5.1336   5.2955   5.2955
     5.4090   5.4090   5.5462   5.5462   5.9959   5.9959   6.0262   6.0262
     6.8840   6.8840   6.9703   6.9703   7.0348   7.0348   7.0787   7.0787
     7.4058   7.4059   7.4498   7.4498   7.5427   7.5427   7.6276   7.6277
     7.7111   7.7111   7.7415   7.7415   7.8072   7.8072   7.8425   7.8425
    11.5922  11.5922  11.6489  11.6489  11.7013  11.7013  11.7877  11.7877
    12.4859  12.4859  12.5553  12.5553  12.5645  12.5645  12.7058  12.7058
    13.0542  13.0542  13.1184  13.1184  13.5128  13.5128  13.5882  13.5882
    15.9049  15.9049  15.9408  15.9408  17.0086  17.0086  17.2076  17.2076
    17.4164  17.4164  17.5373  17.5379  17.5956

          k =-0.5000-0.4796 0.3309 ( 61480 PWs)   bands (ev):

   -65.8462 -65.8462 -65.8462 -65.8462 -65.8457 -65.8457 -65.8457 -65.8457
   -30.2406 -30.2406 -30.2399 -30.2399 -30.2338 -30.2338 -30.2328 -30.2328
   -30.1942 -30.1942 -30.1936 -30.1936 -30.1647 -30.1647 -30.1645 -30.1645
   -30.1403 -30.1403 -30.1387 -30.1387 -30.1271 -30.1271 -30.1261 -30.1261
   -19.9995 -19.9995 -19.9995 -19.9995 -19.9992 -19.9992 -19.9992 -19.9992
   -19.9829 -19.9829 -19.9829 -19.9829 -19.9827 -19.9827 -19.9826 -19.9826
   -19.9767 -19.9767 -19.9767 -19.9767 -19.9763 -19.9763 -19.9763 -19.9763
   -19.9741 -19.9741 -19.9741 -19.9741 -19.9737 -19.9737 -19.9737 -19.9737
   -19.9636 -19.9636 -19.9636 -19.9636 -19.9632 -19.9632 -19.9632 -19.9632
   -19.9553 -19.9553 -19.9553 -19.9553 -19.9525 -19.9524 -19.9524 -19.9524
   -19.9426 -19.9426 -19.9426 -19.9425 -19.9420 -19.9420 -19.9420 -19.9420
    -8.9689  -8.9689  -8.9522  -8.9522  -8.5834  -8.5834  -8.5473  -8.5473
    -8.3097  -8.3097  -8.2738  -8.2738  -8.1770  -8.1770  -8.1364  -8.1364
    -8.0883  -8.0883  -8.0611  -8.0611  -7.9039  -7.9039  -7.9024  -7.9024
     2.5139   2.5139   2.5378   2.5378   3.1380   3.1380   3.1975   3.1975
     3.2523   3.2523   3.3429   3.3429   3.3639   3.3639   3.4775   3.4775
     3.6831   3.6831   3.7671   3.7671   3.8306   3.8306   3.8856   3.8856
     4.1037   4.1037   4.2521   4.2521   4.4584   4.4584   4.4765   4.4765
     4.5502   4.5502   4.6070   4.6070   4.7456   4.7456   4.8734   4.8734
     4.9502   4.9503   5.0856   5.0856   5.2582   5.2582   5.3076   5.3076
     7.1298   7.1298   7.2462   7.2462   7.3321   7.3321   7.3826   7.3826
     7.4174   7.4174   7.5052   7.5052   7.5842   7.5842   7.6209   7.6209
     7.6874   7.6874   7.7440   7.7440   7.8228   7.8228   7.8400   7.8400
    11.8239  11.8239  11.8926  11.8926  11.9567  11.9567  12.0875  12.0875
    12.4829  12.4829  12.4931  12.4931  12.5907  12.5907  12.7391  12.7391
    12.8028  12.8028  12.9306  12.9306  13.1775  13.1775  13.2544  13.2544
    16.5701  16.5701  16.6303  16.6304  17.1479  17.1479  17.3398  17.3399
    17.4014  17.4014  17.5636  17.5651  17.6035

          k =-0.5000-0.4796-0.4964 ( 61560 PWs)   bands (ev):

   -65.8460 -65.8460 -65.8460 -65.8460 -65.8460 -65.8459 -65.8459 -65.8459
   -30.2367 -30.2367 -30.2367 -30.2367 -30.2356 -30.2356 -30.2355 -30.2355
   -30.1796 -30.1796 -30.1796 -30.1796 -30.1768 -30.1768 -30.1768 -30.1768
   -30.1362 -30.1362 -30.1362 -30.1362 -30.1335 -30.1335 -30.1335 -30.1334
   -19.9994 -19.9994 -19.9994 -19.9994 -19.9994 -19.9994 -19.9994 -19.9994
   -19.9828 -19.9828 -19.9828 -19.9828 -19.9827 -19.9827 -19.9827 -19.9827
   -19.9766 -19.9766 -19.9766 -19.9765 -19.9765 -19.9765 -19.9765 -19.9765
   -19.9740 -19.9740 -19.9740 -19.9740 -19.9738 -19.9738 -19.9738 -19.9738
   -19.9636 -19.9636 -19.9636 -19.9636 -19.9632 -19.9632 -19.9632 -19.9632
   -19.9540 -19.9539 -19.9539 -19.9539 -19.9538 -19.9538 -19.9538 -19.9538
   -19.9423 -19.9423 -19.9423 -19.9423 -19.9423 -19.9422 -19.9422 -19.9422
    -8.7410  -8.7410  -8.7410  -8.7410  -8.7053  -8.7053  -8.7053  -8.7053
    -8.2023  -8.2023  -8.2023  -8.2023  -8.1501  -8.1500  -8.1500  -8.1500
    -8.1204  -8.1204  -8.1204  -8.1204  -8.0706  -8.0706  -8.0705  -8.0705
     3.0772   3.0772   3.0772   3.0772   3.1838   3.1838   3.1838   3.1838
     3.3671   3.3671   3.3671   3.3671   3.4956   3.4956   3.4956   3.4956
     3.5699   3.5699   3.5699   3.5699   3.7825   3.7825   3.7825   3.7825
     4.3563   4.3563   4.3563   4.3563   4.4020   4.4020   4.4020   4.4020
     4.5669   4.5669   4.5669   4.5669   4.6569   4.6569   4.6569   4.6569
     4.7398   4.7398   4.7398   4.7398   4.8405   4.8405   4.8405   4.8405
     7.2634   7.2634   7.2634   7.2634   7.4497   7.4497   7.4497   7.4497
     7.5284   7.5284   7.5284   7.5284   7.5986   7.5986   7.5986   7.5987
     7.7342   7.7342   7.7343   7.7343   7.8282   7.8282   7.8283   7.8283
    12.1422  12.1422  12.1422  12.1422  12.1751  12.1751  12.1751  12.1751
    12.4223  12.4223  12.4223  12.4223  12.6238  12.6238  12.6238  12.6238
    12.7837  12.7837  12.7837  12.7837  12.9187  12.9187  12.9187  12.9187
    17.2011  17.2011  17.2011  17.2011  17.3151  17.3151  17.3151  17.3151
    17.5556  17.5556  17.5556  17.5556  17.6715

     the Fermi energy is    10.2746 ev

!    total energy              =   -6260.84028321 Ry
     Harris-Foulkes estimate   =   -6260.84028321 Ry
     estimated scf accuracy    <          2.0E-09 Ry

     The total energy is the sum of the following terms:

     one-electron contribution =   -4658.44389394 Ry
     hartree contribution      =    2570.00101302 Ry
     xc contribution           =    -966.05413963 Ry
     ewald contribution        =   -3206.34322925 Ry
     smearing contrib. (-TS)   =      -0.00003340 Ry

     convergence has been achieved in  13 iterations

     Writing output data file Landau_37.save
 
     init_run     :     18.27s CPU     19.50s WALL (       1 calls)
     electrons    :    718.19s CPU    738.13s WALL (       1 calls)

     Called by init_run:
     wfcinit      :     15.80s CPU     16.89s WALL (       1 calls)
     potinit      :      0.97s CPU      1.00s WALL (       1 calls)

     Called by electrons:
     c_bands      :    621.59s CPU    640.31s WALL (      13 calls)
     sum_band     :     89.58s CPU     90.04s WALL (      13 calls)
     v_of_rho     :      1.40s CPU      1.43s WALL (      14 calls)
     mix_rho      :      3.79s CPU      4.26s WALL (      13 calls)

     Called by c_bands:
     init_us_2    :      7.86s CPU      8.47s WALL (      27 calls)
     cegterg      :    509.27s CPU    527.38s WALL (      13 calls)

     Called by sum_band:

     Called by *egterg:
     h_psi        :    417.50s CPU    420.92s WALL (      65 calls)
     g_psi        :      1.08s CPU      1.08s WALL (      51 calls)
     cdiaghg      :      7.54s CPU      7.61s WALL (      64 calls)

     Called by h_psi:
     h_psi:pot    :    413.80s CPU    416.99s WALL (      65 calls)
     h_psi:calbec :     40.02s CPU     41.37s WALL (      65 calls)
     vloc_psi     :    331.78s CPU    333.25s WALL (      65 calls)
     add_vuspsi   :     42.00s CPU     42.37s WALL (      65 calls)

     General routines
     calbec       :     40.02s CPU     41.37s WALL (      65 calls)
     fft          :      0.98s CPU      0.99s WALL (      56 calls)
     fftw         :    329.23s CPU    330.31s WALL (   16827 calls)
 
     Parallel routines
 
     PWSCF        : 12m17.43s CPU    12m41.14s WALL

 
   This run was terminated on:  12:47:14  28Aug2019            

=------------------------------------------------------------------------------=
   JOB DONE.
=------------------------------------------------------------------------------=
