
     Program PWSCF v.6.4.1 starts on 16Dec2019 at 23:25:22 

     This program is part of the open-source Quantum ESPRESSO suite
     for quantum simulation of materials; please cite
         "P. Giannozzi et al., J. Phys.:Condens. Matter 21 395502 (2009);
         "P. Giannozzi et al., J. Phys.:Condens. Matter 29 465901 (2017);
          URL http://www.quantum-espresso.org", 
     in publications or presentations arising from this work. More details at
     http://www.quantum-espresso.org/quote

     Parallel version (MPI), running on    40 processors

     MPI processes distributed on     4 nodes
     K-points division:     npool     =      40
     Reading input from scf.in

     Current dimensions of program PWSCF are:
     Max number of different atomic species (ntypx) = 10
     Max number of k-points (npk) =  40000
     Max angular momentum in pseudopotentials (lmaxx) =  3

     Subspace diagonalization in iterative solution of the eigenvalue problem:
     a serial algorithm will be used

     Message from routine setup:
     using ibrav=0 with symmetry is DISCOURAGED, use correct ibrav instead
 
     G-vector sticks info
     --------------------
     sticks:   dense  smooth     PW     G-vecs:    dense   smooth      PW
     Sum        7753    7753   2079               502181   502181   69653
 


     bravais-lattice index     =            0
     lattice parameter (alat)  =      13.9206  a.u.
     unit-cell volume          =    2826.7150 (a.u.)^3
     number of atoms/cell      =           32
     number of atomic types    =            2
     number of electrons       =       368.30
     number of Kohn-Sham states=          221
     kinetic-energy cutoff     =     120.0000  Ry
     charge density cutoff     =     480.0000  Ry
     convergence threshold     =      1.0E-08
     mixing beta               =       0.7000
     number of iterations used =            8  plain     mixing
     Exchange-correlation      = SLA PW NOGX NOGC ( 1  4  0  0 0 0)

     celldm(1)=  13.920566  celldm(2)=   0.000000  celldm(3)=   0.000000
     celldm(4)=   0.000000  celldm(5)=   0.000000  celldm(6)=   0.000000

     crystal axes: (cart. coord. in units of alat)
               a(1) = (   1.000000   0.000000   0.000000 )  
               a(2) = (   0.000000   1.047747   0.000000 )  
               a(3) = (   0.000000   0.000000   1.000127 )  

     reciprocal axes: (cart. coord. in units 2 pi/alat)
               b(1) = (  1.000000  0.000000  0.000000 )  
               b(2) = (  0.000000  0.954429  0.000000 )  
               b(3) = (  0.000000  0.000000  0.999873 )  


     PseudoPot. # 1 for W  read from file:
     /cluster/scratch/mnoe/QE/pps/W_ONCV_LDA-4.0.upf
     MD5 check sum: ba0307d5d4cd419d6f1d13dc49d7c13a
     Pseudo is Norm-conserving + core correction, Zval = 28.0
     Generated using ONCVPSP code by D. R. Hamann
     Using radial grid of 1380 points,  8 beta functions with: 
                l(1) =   0
                l(2) =   0
                l(3) =   1
                l(4) =   1
                l(5) =   2
                l(6) =   2
                l(7) =   3
                l(8) =   3

     PseudoPot. # 2 for O  read from file:
     /cluster/scratch/mnoe/QE/pps/O_ONCV_LDA-3.0.upf
     MD5 check sum: b55cdb4f45ae2203d24ad12cf8d61a31
     Pseudo is Norm-conserving + core correction, Zval =  6.0
     Generated using ONCVPSP code by D. R. Hamann
     Using radial grid of  926 points,  5 beta functions with: 
                l(1) =   0
                l(2) =   0
                l(3) =   1
                l(4) =   1
                l(5) =   2

     atomic species   valence    mass     pseudopotential
        W             28.00   183.84000     W ( 1.00)
        O              6.00    15.99940     O ( 1.00)

      8 Sym. Ops., with inversion, found ( 6 have fractional translation)



   Cartesian axes

     site n.     atom                  positions (alat units)
         1           W   tau(   1) = (   0.2472300   0.2974528   0.0026203  )
         2           W   tau(   2) = (   0.7527700   0.7502940   0.9975063  )
         3           W   tau(   3) = (   0.2527700   0.2264206   0.5026836  )
         4           W   tau(   4) = (   0.7472300   0.8213262   0.4974430  )
         5           W   tau(   5) = (   0.7527700   0.2974528   0.4974430  )
         6           W   tau(   6) = (   0.2472300   0.7502940   0.5026836  )
         7           W   tau(   7) = (   0.7472300   0.2264206   0.9975063  )
         8           W   tau(   8) = (   0.2527700   0.8213262   0.0026203  )
         9           O   tau(   9) = (   0.2448800   0.0127569   0.0008201  )
        10           O   tau(  10) = (   0.7551200   1.0349899   0.9993066  )
        11           O   tau(  11) = (   0.2551200   0.5111164   0.5008834  )
        12           O   tau(  12) = (   0.7448800   0.5366303   0.4992432  )
        13           O   tau(  13) = (   0.7551200   0.0127569   0.4992432  )
        14           O   tau(  14) = (   0.2448800   1.0349899   0.5008834  )
        15           O   tau(  15) = (   0.7448800   0.5111164   0.9993066  )
        16           O   tau(  16) = (   0.2551200   0.5366303   0.0008201  )
        17           O   tau(  17) = (   0.5007600   0.2564360   0.4601301  )
        18           O   tau(  18) = (   0.4992400   0.7913108   0.5399965  )
        19           O   tau(  19) = (   0.9992399   0.2674374   0.9601934  )
        20           O   tau(  20) = (   0.0007601   0.7803095   0.0399333  )
        21           O   tau(  21) = (   0.4992400   0.2564360   0.0399333  )
        22           O   tau(  22) = (   0.5007600   0.7913108   0.9601934  )
        23           O   tau(  23) = (   0.0007601   0.2674374   0.5399965  )
        24           O   tau(  24) = (   0.9992399   0.7803095   0.4601301  )
        25           O   tau(  25) = (   0.7100719   0.2607318   0.7489448  )
        26           O   tau(  26) = (   0.2899282   0.7870150   0.2511818  )
        27           O   tau(  27) = (   0.7899282   0.2631416   0.2488815  )
        28           O   tau(  28) = (   0.2100718   0.7846052   0.7512451  )
        29           O   tau(  29) = (   0.2899282   0.2607318   0.7512451  )
        30           O   tau(  30) = (   0.7100719   0.7870150   0.2488815  )
        31           O   tau(  31) = (   0.2100718   0.2631416   0.2511818  )
        32           O   tau(  32) = (   0.7899282   0.7846052   0.7489448  )

     number of k points=    64  gaussian smearing, width (Ry)=  0.0007
                       cart. coord. in units 2pi/alat
        k(    1) = (   0.0000000   0.0000000   0.0000000), wk =   0.0092593
        k(    2) = (   0.0000000   0.0000000   0.1666456), wk =   0.0185185
        k(    3) = (   0.0000000   0.0000000   0.3332911), wk =   0.0185185
        k(    4) = (   0.0000000   0.0000000  -0.4999367), wk =   0.0092593
        k(    5) = (   0.0000000   0.1590715   0.0000000), wk =   0.0185185
        k(    6) = (   0.0000000   0.1590715   0.1666456), wk =   0.0370370
        k(    7) = (   0.0000000   0.1590715   0.3332911), wk =   0.0370370
        k(    8) = (   0.0000000   0.1590715  -0.4999367), wk =   0.0185185
        k(    9) = (   0.0000000   0.3181430   0.0000000), wk =   0.0185185
        k(   10) = (   0.0000000   0.3181430   0.1666456), wk =   0.0370370
        k(   11) = (   0.0000000   0.3181430   0.3332911), wk =   0.0370370
        k(   12) = (   0.0000000   0.3181430  -0.4999367), wk =   0.0185185
        k(   13) = (   0.0000000  -0.4772145   0.0000000), wk =   0.0092593
        k(   14) = (   0.0000000  -0.4772145   0.1666456), wk =   0.0185185
        k(   15) = (   0.0000000  -0.4772145   0.3332911), wk =   0.0185185
        k(   16) = (   0.0000000  -0.4772145  -0.4999367), wk =   0.0092593
        k(   17) = (   0.1666667   0.0000000   0.0000000), wk =   0.0185185
        k(   18) = (   0.1666667   0.0000000   0.1666456), wk =   0.0370370
        k(   19) = (   0.1666667   0.0000000   0.3332911), wk =   0.0370370
        k(   20) = (   0.1666667   0.0000000  -0.4999367), wk =   0.0185185
        k(   21) = (   0.1666667   0.1590715   0.0000000), wk =   0.0370370
        k(   22) = (   0.1666667   0.1590715   0.1666456), wk =   0.0740741
        k(   23) = (   0.1666667   0.1590715   0.3332911), wk =   0.0740741
        k(   24) = (   0.1666667   0.1590715  -0.4999367), wk =   0.0370370
        k(   25) = (   0.1666667   0.3181430   0.0000000), wk =   0.0370370
        k(   26) = (   0.1666667   0.3181430   0.1666456), wk =   0.0740741
        k(   27) = (   0.1666667   0.3181430   0.3332911), wk =   0.0740741
        k(   28) = (   0.1666667   0.3181430  -0.4999367), wk =   0.0370370
        k(   29) = (   0.1666667  -0.4772145   0.0000000), wk =   0.0185185
        k(   30) = (   0.1666667  -0.4772145   0.1666456), wk =   0.0370370
        k(   31) = (   0.1666667  -0.4772145   0.3332911), wk =   0.0370370
        k(   32) = (   0.1666667  -0.4772145  -0.4999367), wk =   0.0185185
        k(   33) = (   0.3333333   0.0000000   0.0000000), wk =   0.0185185
        k(   34) = (   0.3333333   0.0000000   0.1666456), wk =   0.0370370
        k(   35) = (   0.3333333   0.0000000   0.3332911), wk =   0.0370370
        k(   36) = (   0.3333333   0.0000000  -0.4999367), wk =   0.0185185
        k(   37) = (   0.3333333   0.1590715   0.0000000), wk =   0.0370370
        k(   38) = (   0.3333333   0.1590715   0.1666456), wk =   0.0740741
        k(   39) = (   0.3333333   0.1590715   0.3332911), wk =   0.0740741
        k(   40) = (   0.3333333   0.1590715  -0.4999367), wk =   0.0370370
        k(   41) = (   0.3333333   0.3181430   0.0000000), wk =   0.0370370
        k(   42) = (   0.3333333   0.3181430   0.1666456), wk =   0.0740741
        k(   43) = (   0.3333333   0.3181430   0.3332911), wk =   0.0740741
        k(   44) = (   0.3333333   0.3181430  -0.4999367), wk =   0.0370370
        k(   45) = (   0.3333333  -0.4772145   0.0000000), wk =   0.0185185
        k(   46) = (   0.3333333  -0.4772145   0.1666456), wk =   0.0370370
        k(   47) = (   0.3333333  -0.4772145   0.3332911), wk =   0.0370370
        k(   48) = (   0.3333333  -0.4772145  -0.4999367), wk =   0.0185185
        k(   49) = (  -0.5000000   0.0000000   0.0000000), wk =   0.0092593
        k(   50) = (  -0.5000000   0.0000000   0.1666456), wk =   0.0185185
        k(   51) = (  -0.5000000   0.0000000   0.3332911), wk =   0.0185185
        k(   52) = (  -0.5000000   0.0000000  -0.4999367), wk =   0.0092593
        k(   53) = (  -0.5000000   0.1590715   0.0000000), wk =   0.0185185
        k(   54) = (  -0.5000000   0.1590715   0.1666456), wk =   0.0370370
        k(   55) = (  -0.5000000   0.1590715   0.3332911), wk =   0.0370370
        k(   56) = (  -0.5000000   0.1590715  -0.4999367), wk =   0.0185185
        k(   57) = (  -0.5000000   0.3181430   0.0000000), wk =   0.0185185
        k(   58) = (  -0.5000000   0.3181430   0.1666456), wk =   0.0370370
        k(   59) = (  -0.5000000   0.3181430   0.3332911), wk =   0.0370370
        k(   60) = (  -0.5000000   0.3181430  -0.4999367), wk =   0.0185185
        k(   61) = (  -0.5000000  -0.4772145   0.0000000), wk =   0.0092593
        k(   62) = (  -0.5000000  -0.4772145   0.1666456), wk =   0.0185185
        k(   63) = (  -0.5000000  -0.4772145   0.3332911), wk =   0.0185185
        k(   64) = (  -0.5000000  -0.4772145  -0.4999367), wk =   0.0092593

     Dense  grid:   502181 G-vectors     FFT dimensions: ( 100, 108, 100)

     Estimated max dynamical RAM per process >       3.15 GB

     Estimated total dynamical RAM >     126.02 GB

     Initial potential from superposition of free atoms

     starting charge  367.99656, renormalised to  368.30000
     Starting wfcs are  232 randomized atomic wfcs

     total cpu time spent up to now is       51.4 secs

     Self-consistent Calculation

     iteration #  1     ecut=   120.00 Ry     beta= 0.70
     Davidson diagonalization with overlap
     ethr =  1.00E-02,  avg # of iterations =  5.1

     total cpu time spent up to now is      232.8 secs

     total energy              =   -6253.68754721 Ry
     Harris-Foulkes estimate   =   -6264.44360468 Ry
     estimated scf accuracy    <      13.58365865 Ry

     iteration #  2     ecut=   120.00 Ry     beta= 0.70
     Davidson diagonalization with overlap
     ethr =  3.69E-03,  avg # of iterations =  3.6

     total cpu time spent up to now is      406.4 secs

     total energy              =   -6250.57401674 Ry
     Harris-Foulkes estimate   =   -6270.60304120 Ry
     estimated scf accuracy    <      53.58846392 Ry

     iteration #  3     ecut=   120.00 Ry     beta= 0.70
     Davidson diagonalization with overlap
     ethr =  3.69E-03,  avg # of iterations =  3.5

     total cpu time spent up to now is      564.8 secs

     total energy              =   -6260.88607936 Ry
     Harris-Foulkes estimate   =   -6261.16176532 Ry
     estimated scf accuracy    <       0.91765279 Ry

     iteration #  4     ecut=   120.00 Ry     beta= 0.70
     Davidson diagonalization with overlap
     ethr =  2.49E-04,  avg # of iterations =  3.1

     total cpu time spent up to now is      693.6 secs

     total energy              =   -6260.87802636 Ry
     Harris-Foulkes estimate   =   -6260.95200322 Ry
     estimated scf accuracy    <       0.22346901 Ry

     iteration #  5     ecut=   120.00 Ry     beta= 0.70
     Davidson diagonalization with overlap
     ethr =  6.07E-05,  avg # of iterations =  5.0

     total cpu time spent up to now is      834.8 secs

     total energy              =   -6260.88478226 Ry
     Harris-Foulkes estimate   =   -6260.91320421 Ry
     estimated scf accuracy    <       0.06470819 Ry

     iteration #  6     ecut=   120.00 Ry     beta= 0.70
     Davidson diagonalization with overlap
     ethr =  1.76E-05,  avg # of iterations =  5.8

     total cpu time spent up to now is      982.8 secs

     total energy              =   -6260.89821775 Ry
     Harris-Foulkes estimate   =   -6260.90103806 Ry
     estimated scf accuracy    <       0.00712967 Ry

     iteration #  7     ecut=   120.00 Ry     beta= 0.70
     Davidson diagonalization with overlap
     ethr =  1.94E-06,  avg # of iterations =  5.7

     total cpu time spent up to now is     1125.0 secs

     total energy              =   -6260.89929035 Ry
     Harris-Foulkes estimate   =   -6260.89933174 Ry
     estimated scf accuracy    <       0.00007089 Ry

     iteration #  8     ecut=   120.00 Ry     beta= 0.70
     Davidson diagonalization with overlap
     ethr =  1.92E-08,  avg # of iterations =  3.8

     total cpu time spent up to now is     1304.7 secs

     total energy              =   -6260.89933514 Ry
     Harris-Foulkes estimate   =   -6260.89934333 Ry
     estimated scf accuracy    <       0.00004395 Ry

     iteration #  9     ecut=   120.00 Ry     beta= 0.70
     Davidson diagonalization with overlap
     ethr =  1.19E-08,  avg # of iterations =  1.0

     total cpu time spent up to now is     1421.1 secs

     total energy              =   -6260.89932986 Ry
     Harris-Foulkes estimate   =   -6260.89933716 Ry
     estimated scf accuracy    <       0.00002187 Ry

     iteration # 10     ecut=   120.00 Ry     beta= 0.70
     Davidson diagonalization with overlap
     ethr =  5.94E-09,  avg # of iterations =  2.0

     total cpu time spent up to now is     1543.8 secs

     total energy              =   -6260.89933183 Ry
     Harris-Foulkes estimate   =   -6260.89933263 Ry
     estimated scf accuracy    <       0.00000183 Ry

     iteration # 11     ecut=   120.00 Ry     beta= 0.70
     Davidson diagonalization with overlap
     ethr =  4.96E-10,  avg # of iterations =  3.1

     total cpu time spent up to now is     1688.9 secs

     total energy              =   -6260.89933227 Ry
     Harris-Foulkes estimate   =   -6260.89933237 Ry
     estimated scf accuracy    <       0.00000032 Ry

     iteration # 12     ecut=   120.00 Ry     beta= 0.70
     Davidson diagonalization with overlap
     ethr =  8.66E-11,  avg # of iterations =  2.0

     total cpu time spent up to now is     1810.0 secs

     total energy              =   -6260.89933224 Ry
     Harris-Foulkes estimate   =   -6260.89933229 Ry
     estimated scf accuracy    <       0.00000008 Ry

     iteration # 13     ecut=   120.00 Ry     beta= 0.70
     Davidson diagonalization with overlap
     ethr =  2.28E-11,  avg # of iterations =  2.8

     total cpu time spent up to now is     1966.6 secs

     End of self-consistent calculation

          k = 0.0000 0.0000 0.0000 ( 62815 PWs)   bands (ev):

   -66.2344 -66.2340 -66.2335 -66.2335 -66.2331 -66.2331 -66.2327 -66.2323
   -30.6397 -30.6366 -30.6364 -30.6335 -30.5816 -30.5771 -30.5764 -30.5758
   -30.5757 -30.5725 -30.5721 -30.5708 -30.5690 -30.5679 -30.5676 -30.5647
   -30.4812 -30.4811 -30.4784 -30.4781 -30.4771 -30.4768 -30.4742 -30.4738
   -20.3898 -20.3897 -20.3897 -20.3897 -20.3897 -20.3897 -20.3896 -20.3896
   -20.3800 -20.3798 -20.3798 -20.3796 -20.3743 -20.3740 -20.3740 -20.3738
   -20.3705 -20.3702 -20.3701 -20.3697 -20.3696 -20.3696 -20.3693 -20.3689
   -20.3688 -20.3684 -20.3682 -20.3682 -20.3678 -20.3675 -20.3674 -20.3670
   -20.3633 -20.3630 -20.3630 -20.3628 -20.3623 -20.3621 -20.3620 -20.3618
   -20.3558 -20.3557 -20.3552 -20.3551 -20.3545 -20.3544 -20.3539 -20.3539
   -20.3491 -20.3490 -20.3489 -20.3488 -20.3479 -20.3478 -20.3476 -20.3476
   -10.0502  -9.7401  -9.6418  -9.6418  -9.3447  -9.3435  -9.2203  -9.1178
    -9.1019  -8.9796  -8.9621  -8.9618  -7.9506  -7.8896  -7.8884  -7.8593
    -7.8579  -7.8366  -7.8330  -7.8324  -7.7500  -7.7494  -7.7274  -7.7271
     1.0745   1.0748   1.1662   1.1677   1.1900   1.1931   1.2190   1.4637
     1.4657   1.4688   1.4812   1.6689   2.3596   2.4447   2.4524   2.4528
     2.5676   2.5698   4.0436   4.0471   4.2549   4.2609   4.6762   4.6774
     4.7131   4.7134   4.7186   4.7284   4.8644   4.8647   4.9700   5.3701
     5.3740   5.4352   5.4563   5.4590   5.4685   5.4748   5.4868   5.7181
     5.7234   5.7846   5.7846   5.8529   5.8793   5.9826   5.9853   6.0451
     6.0472   6.2142   6.2205   6.4393   6.4400   6.6545   6.6598   6.6853
     6.6884   6.7792   6.9676   6.9690   7.0096   7.0111   7.2211   7.2244
     7.2526   7.2553   7.9226   7.9320   8.0236   8.0303   8.0761   8.0830
     9.0877   9.0892   9.8241   9.8256   9.8424   9.8433  12.2397  12.2566
    12.2612  12.2845  12.3093  12.3124  12.4099  12.4145  12.9908  13.0272
    13.1854  13.2142  13.2958  13.3028  13.6283  14.0205  14.0971  14.0974
    14.1144  14.1681  14.2409  14.7223  15.0581  15.0674  15.4295  15.7852
    15.7893  16.6318  16.9424  16.9473  17.2879

          k = 0.0000 0.0000 0.1666 ( 62803 PWs)   bands (ev):

   -66.2344 -66.2339 -66.2336 -66.2335 -66.2332 -66.2331 -66.2327 -66.2323
   -30.6396 -30.6369 -30.6364 -30.6338 -30.5811 -30.5774 -30.5768 -30.5755
   -30.5724 -30.5711 -30.5709 -30.5661 -30.5660 -30.5651 -30.5627 -30.5612
   -30.4875 -30.4847 -30.4832 -30.4808 -30.4805 -30.4778 -30.4771 -30.4741
   -20.3898 -20.3897 -20.3897 -20.3897 -20.3897 -20.3897 -20.3896 -20.3896
   -20.3800 -20.3798 -20.3798 -20.3797 -20.3743 -20.3741 -20.3740 -20.3738
   -20.3705 -20.3702 -20.3701 -20.3697 -20.3696 -20.3695 -20.3691 -20.3688
   -20.3687 -20.3685 -20.3682 -20.3681 -20.3679 -20.3676 -20.3674 -20.3671
   -20.3632 -20.3630 -20.3630 -20.3628 -20.3623 -20.3621 -20.3620 -20.3618
   -20.3553 -20.3553 -20.3551 -20.3550 -20.3540 -20.3540 -20.3540 -20.3540
   -20.3495 -20.3494 -20.3488 -20.3487 -20.3483 -20.3483 -20.3477 -20.3477
   -10.0057  -9.6879  -9.6568  -9.5830  -9.3552  -9.2562  -9.2291  -9.0812
    -9.0616  -8.9663  -8.9653  -8.9305  -7.9794  -7.9696  -7.9504  -7.8932
    -7.8812  -7.8779  -7.8527  -7.8498  -7.8399  -7.8259  -7.7565  -7.7344
     1.1475   1.1635   1.1681   1.1972   1.2849   1.3319   1.4492   1.4588
     1.4609   1.5582   1.6565   1.7958   2.4428   2.4582   2.5342   2.5405
     2.5606   2.6579   3.9947   4.0372   4.2383   4.2609   4.2656   4.3571
     4.5318   4.6135   4.7171   4.7613   4.7703   4.8559   4.9574   5.2210
     5.2993   5.3561   5.4365   5.4558   5.4830   5.4874   5.5026   5.5566
     5.6077   5.6780   5.7228   5.8132   5.8893   5.9889   6.0366   6.0941
     6.2257   6.3839   6.4310   6.4379   6.5171   6.5468   6.6384   6.6827
     6.7331   6.7667   6.8927   6.9001   6.9538   6.9950   7.0101   7.0183
     7.0540   7.1121   7.9023   7.9037   7.9904   8.0377   8.0390   8.0771
     9.4432   9.4672   9.8250   9.8421  10.1157  10.1259  12.1407  12.1829
    12.2511  12.3078  12.3285  12.3440  12.4161  12.5086  12.9264  12.9825
    13.0251  13.2105  13.2498  13.2962  13.7619  13.9480  13.9657  14.0186
    14.1160  14.2370  14.3267  14.8273  15.1184  15.1490  15.3947  15.7655
    16.1323  16.6721  16.8075  17.1272  17.2768

          k = 0.0000 0.0000 0.3333 ( 62706 PWs)   bands (ev):

   -66.2342 -66.2338 -66.2338 -66.2333 -66.2333 -66.2329 -66.2329 -66.2325
   -30.6393 -30.6376 -30.6362 -30.6345 -30.5804 -30.5782 -30.5757 -30.5746
   -30.5732 -30.5720 -30.5687 -30.5660 -30.5506 -30.5488 -30.5461 -30.5440
   -30.5046 -30.5019 -30.5002 -30.4975 -30.4800 -30.4779 -30.4770 -30.4749
   -20.3898 -20.3897 -20.3897 -20.3897 -20.3897 -20.3897 -20.3896 -20.3896
   -20.3800 -20.3799 -20.3798 -20.3797 -20.3743 -20.3741 -20.3741 -20.3739
   -20.3704 -20.3703 -20.3700 -20.3698 -20.3694 -20.3694 -20.3690 -20.3688
   -20.3687 -20.3684 -20.3681 -20.3680 -20.3679 -20.3677 -20.3677 -20.3673
   -20.3632 -20.3631 -20.3630 -20.3629 -20.3622 -20.3621 -20.3620 -20.3619
   -20.3549 -20.3549 -20.3542 -20.3542 -20.3541 -20.3541 -20.3528 -20.3528
   -20.3508 -20.3507 -20.3496 -20.3495 -20.3486 -20.3485 -20.3480 -20.3479
    -9.8986  -9.7033  -9.5687  -9.4464  -9.3917  -9.2593  -9.0162  -9.0040
    -8.9750  -8.9177  -8.8704  -8.8099  -8.2775  -8.2769  -8.2152  -8.1939
    -7.9267  -7.9030  -7.8725  -7.8488  -7.8298  -7.8064  -7.7760  -7.7535
     1.1687   1.1691   1.2077   1.2183   1.3964   1.4064   1.4428   1.4455
     2.1445   2.1698   2.3064   2.3662   2.4775   2.5514   2.6820   2.7777
     2.7927   2.8919   3.6687   3.7655   3.7663   3.8335   4.0536   4.1082
     4.1812   4.3423   4.4851   4.6919   4.7023   4.7214   4.8806   4.9130
     5.0211   5.0599   5.1086   5.2728   5.3768   5.3774   5.5618   5.5677
     5.6303   5.6415   5.7200   5.8709   5.9131   6.0349   6.2068   6.2172
     6.2268   6.2273   6.3801   6.3999   6.4316   6.4577   6.5207   6.6736
     6.6781   6.6980   6.7363   6.8897   6.9571   6.9874   7.0159   7.0460
     7.2264   7.2595   7.7553   7.7925   7.8697   7.8936   8.0662   8.0786
     9.8275   9.8335  10.1830  10.2389  10.7642  10.8235  11.7116  11.7509
    12.0743  12.4171  12.4209  12.4543  12.4771  12.5658  12.5972  12.7707
    12.9451  13.0885  13.1381  13.3030  13.5966  13.6185  13.9517  14.0127
    14.1498  14.2244  14.7083  15.1146  15.2812  15.3271  15.6263  15.6897
    16.1230  17.0436  17.1892  17.3748  17.4704

          k = 0.0000 0.0000-0.4999 ( 62780 PWs)   bands (ev):

   -66.2340 -66.2340 -66.2336 -66.2336 -66.2331 -66.2331 -66.2327 -66.2327
   -30.6385 -30.6385 -30.6354 -30.6354 -30.5793 -30.5793 -30.5744 -30.5744
   -30.5733 -30.5733 -30.5673 -30.5673 -30.5278 -30.5278 -30.5253 -30.5253
   -30.5232 -30.5232 -30.5207 -30.5207 -30.4789 -30.4789 -30.4760 -30.4760
   -20.3898 -20.3898 -20.3897 -20.3897 -20.3897 -20.3897 -20.3896 -20.3896
   -20.3800 -20.3800 -20.3798 -20.3798 -20.3742 -20.3742 -20.3740 -20.3740
   -20.3704 -20.3704 -20.3699 -20.3699 -20.3692 -20.3692 -20.3690 -20.3690
   -20.3684 -20.3684 -20.3680 -20.3680 -20.3679 -20.3679 -20.3676 -20.3676
   -20.3631 -20.3631 -20.3629 -20.3629 -20.3622 -20.3622 -20.3620 -20.3620
   -20.3546 -20.3546 -20.3545 -20.3545 -20.3524 -20.3524 -20.3524 -20.3524
   -20.3512 -20.3512 -20.3512 -20.3512 -20.3483 -20.3483 -20.3482 -20.3482
    -9.7856  -9.7855  -9.4598  -9.4598  -9.3253  -9.3253  -8.9900  -8.9900
    -8.6398  -8.6397  -8.6295  -8.6294  -8.6155  -8.6155  -8.5510  -8.5509
    -7.9159  -7.9159  -7.8609  -7.8609  -7.8028  -7.8028  -7.7798  -7.7798
     1.1702   1.1702   1.2191   1.2191   1.4249   1.4249   1.4299   1.4299
     2.5025   2.5025   2.8550   2.8551   2.9854   2.9855   3.0330   3.0330
     3.1775   3.1775   3.2380   3.2380   3.3100   3.3100   3.6912   3.6913
     3.8082   3.8082   4.2882   4.2882   4.6588   4.6588   4.8454   4.8454
     5.1534   5.1534   5.2039   5.2039   5.2296   5.2296   5.6064   5.6064
     5.6706   5.6706   5.8212   5.8212   6.0409   6.0409   6.1217   6.1217
     6.1866   6.1866   6.3255   6.3255   6.3452   6.3452   6.4550   6.4550
     6.6794   6.6794   6.7231   6.7231   7.0032   7.0032   7.4343   7.4343
     7.5078   7.5078   7.6207   7.6207   7.6349   7.6349   8.0773   8.0773
     9.8309   9.8309  10.9996  10.9996  11.0550  11.0550  11.5048  11.5048
    11.6507  11.6507  12.4512  12.4512  12.6880  12.6880  12.7652  12.7652
    12.9051  12.9051  13.1678  13.1678  13.3527  13.3527  14.0001  14.0001
    14.1986  14.1986  15.0608  15.0608  15.5476  15.5476  15.5654  15.5655
    16.4409  16.4409  17.6377  17.6377  17.8693

          k = 0.0000 0.1591 0.0000 ( 62747 PWs)   bands (ev):

   -66.2344 -66.2340 -66.2335 -66.2335 -66.2331 -66.2331 -66.2326 -66.2323
   -30.6355 -30.6325 -30.6323 -30.6294 -30.5844 -30.5805 -30.5797 -30.5762
   -30.5757 -30.5756 -30.5727 -30.5705 -30.5697 -30.5694 -30.5678 -30.5657
   -30.4810 -30.4809 -30.4786 -30.4783 -30.4769 -30.4767 -30.4743 -30.4740
   -20.3898 -20.3897 -20.3897 -20.3897 -20.3897 -20.3897 -20.3896 -20.3896
   -20.3796 -20.3794 -20.3794 -20.3793 -20.3746 -20.3744 -20.3744 -20.3742
   -20.3704 -20.3701 -20.3700 -20.3696 -20.3696 -20.3695 -20.3694 -20.3689
   -20.3687 -20.3683 -20.3683 -20.3683 -20.3678 -20.3675 -20.3674 -20.3671
   -20.3633 -20.3631 -20.3630 -20.3628 -20.3623 -20.3621 -20.3620 -20.3618
   -20.3558 -20.3557 -20.3552 -20.3551 -20.3545 -20.3544 -20.3539 -20.3539
   -20.3491 -20.3490 -20.3489 -20.3488 -20.3479 -20.3478 -20.3476 -20.3476
   -10.0184  -9.7524  -9.6029  -9.6028  -9.3528  -9.3516  -9.1444  -9.1167
    -9.1030  -8.9339  -8.9237  -8.9235  -8.0484  -7.9928  -7.9919  -7.9473
    -7.8576  -7.8574  -7.8348  -7.8343  -7.7485  -7.7483  -7.7289  -7.7288
     1.0745   1.0747   1.1788   1.1809   1.1900   1.1930   1.3508   1.4805
     1.6443   1.6985   1.7002   1.8546   2.3652   2.4397   2.5238   2.5253
     2.6364   2.6389   3.8968   3.9009   3.9880   3.9930   4.6773   4.6805
     4.6915   4.7063   4.7089   4.7904   4.8159   4.8438   4.8444   5.1660
     5.1688   5.3730   5.3730   5.5216   5.5386   5.5402   5.5768   5.5835
     5.7176   5.7201   5.8120   5.8152   5.8934   5.9790   5.9794   6.0476
     6.0501   6.1892   6.1983   6.4624   6.4650   6.6850   6.6885   6.7313
     6.7349   6.7879   6.7927   6.9201   6.9216   6.9568   7.2262   7.2289
     7.2523   7.2546   7.9251   7.9313   7.9722   7.9776   7.9946   7.9993
     9.0879   9.0894  10.0129  10.0135  10.0482  10.0487  12.1230  12.1301
    12.2524  12.2564  12.2683  12.2703  12.3086  12.3104  12.9980  13.0280
    13.2180  13.2420  13.3098  13.3161  13.9020  13.9816  13.9994  14.0053
    14.0591  14.4356  14.4552  14.9060  15.0584  15.0662  15.7524  15.7561
    15.8350  16.3229  17.0950  17.0999  17.3323

          k = 0.0000 0.1591 0.1666 ( 62741 PWs)   bands (ev):

   -66.2343 -66.2340 -66.2336 -66.2335 -66.2332 -66.2331 -66.2327 -66.2323
   -30.6355 -30.6328 -30.6323 -30.6297 -30.5842 -30.5808 -30.5802 -30.5765
   -30.5752 -30.5714 -30.5709 -30.5669 -30.5663 -30.5661 -30.5630 -30.5614
   -30.4873 -30.4849 -30.4831 -30.4807 -30.4806 -30.4780 -30.4769 -30.4743
   -20.3898 -20.3897 -20.3897 -20.3897 -20.3897 -20.3897 -20.3897 -20.3896
   -20.3796 -20.3795 -20.3794 -20.3793 -20.3747 -20.3745 -20.3744 -20.3742
   -20.3704 -20.3702 -20.3700 -20.3697 -20.3696 -20.3695 -20.3692 -20.3688
   -20.3688 -20.3684 -20.3682 -20.3682 -20.3679 -20.3676 -20.3675 -20.3672
   -20.3632 -20.3631 -20.3630 -20.3629 -20.3623 -20.3621 -20.3620 -20.3619
   -20.3553 -20.3553 -20.3551 -20.3551 -20.3540 -20.3540 -20.3540 -20.3540
   -20.3495 -20.3494 -20.3488 -20.3487 -20.3483 -20.3483 -20.3477 -20.3477
    -9.9728  -9.7002  -9.6178  -9.5397  -9.3635  -9.2644  -9.1532  -9.0791
    -9.0627  -8.9270  -8.9229  -8.8966  -8.0508  -8.0104  -7.9919  -7.9777
    -7.9559  -7.9434  -7.8764  -7.8536  -7.8485  -7.8277  -7.7555  -7.7359
     1.1586   1.1635   1.1837   1.1971   1.4066   1.4490   1.4517   1.6557
     1.6567   1.6948   1.7240   1.9127   2.4499   2.5252   2.5325   2.6147
     2.6304   2.7262   3.8770   3.9080   3.9774   4.0179   4.2882   4.3541
     4.5711   4.5904   4.6772   4.7497   4.7608   4.8164   4.8499   5.1313
     5.1656   5.2121   5.2243   5.3951   5.4683   5.4945   5.5365   5.6050
     5.6433   5.6897   5.7508   5.7600   5.7963   5.9858   6.0702   6.0948
     6.1235   6.3774   6.3945   6.4553   6.5670   6.6528   6.6536   6.7226
     6.7447   6.7672   6.8681   6.8893   6.9105   6.9265   6.9956   7.0048
     7.0662   7.1149   7.9025   7.9035   7.9403   7.9599   7.9763   7.9958
     9.4476   9.4664  10.0171  10.0476  10.2726  10.2911  12.1092  12.1603
    12.1796  12.2055  12.2587  12.2813  12.3214  12.4076  12.9398  13.0160
    13.0316  13.2352  13.2567  13.3085  13.8467  13.8735  13.9570  13.9806
    14.1363  14.4497  14.6202  14.9983  15.1177  15.1507  15.7326  15.8005
    16.0971  16.4817  16.8117  17.2574  17.3999

          k = 0.0000 0.1591 0.3333 ( 62735 PWs)   bands (ev):

   -66.2342 -66.2338 -66.2337 -66.2334 -66.2333 -66.2329 -66.2329 -66.2325
   -30.6352 -30.6335 -30.6321 -30.6304 -30.5837 -30.5816 -30.5796 -30.5774
   -30.5743 -30.5718 -30.5696 -30.5670 -30.5507 -30.5490 -30.5461 -30.5442
   -30.5044 -30.5021 -30.5000 -30.4977 -30.4798 -30.4777 -30.4772 -30.4751
   -20.3898 -20.3897 -20.3897 -20.3897 -20.3897 -20.3897 -20.3897 -20.3896
   -20.3796 -20.3795 -20.3794 -20.3793 -20.3747 -20.3745 -20.3745 -20.3743
   -20.3704 -20.3702 -20.3699 -20.3697 -20.3693 -20.3693 -20.3689 -20.3688
   -20.3687 -20.3685 -20.3681 -20.3681 -20.3680 -20.3678 -20.3677 -20.3674
   -20.3632 -20.3631 -20.3630 -20.3629 -20.3622 -20.3621 -20.3621 -20.3619
   -20.3549 -20.3549 -20.3542 -20.3542 -20.3541 -20.3541 -20.3528 -20.3528
   -20.3508 -20.3507 -20.3496 -20.3495 -20.3486 -20.3485 -20.3480 -20.3479
    -9.8629  -9.6645  -9.5805  -9.4007  -9.3894  -9.1841  -9.0126  -8.9947
    -8.9372  -8.9196  -8.8492  -8.7897  -8.2847  -8.2748  -8.2315  -8.1917
    -8.0196  -8.0006  -7.9744  -7.9498  -7.8290  -7.8081  -7.7750  -7.7551
     1.1909   1.1997   1.2076   1.2182   1.5857   1.6134   1.6915   1.6946
     2.1429   2.1808   2.3074   2.3841   2.5489   2.6158   2.6947   2.7884
     2.8525   2.9511   3.6670   3.7559   3.7608   3.7761   3.9801   3.9820
     4.1145   4.1995   4.5006   4.6322   4.6752   4.7355   4.7441   4.7840
     4.9152   4.9979   5.0052   5.0529   5.2588   5.3190   5.3860   5.5353
     5.6046   5.6673   5.7385   5.7805   5.8361   6.0197   6.0772   6.2152
     6.2534   6.4074   6.4198   6.4316   6.5031   6.5658   6.5875   6.6601
     6.6747   6.7469   6.7824   6.8870   6.9207   6.9364   6.9969   7.0340
     7.2195   7.2540   7.7562   7.7889   7.8272   7.8377   7.9913   7.9980
    10.0186  10.0374  10.1897  10.2429  10.8787  10.9211  11.7127  11.7488
    12.0277  12.2666  12.4127  12.4495  12.4566  12.4939  12.5492  12.6682
    12.9346  13.0968  13.1533  13.3079  13.4972  13.5302  13.9741  13.9792
    14.3214  14.4339  15.0526  15.2657  15.3161  15.6496  15.6585  15.6872
    16.2617  16.9556  17.0005  17.2493  17.6402

          k = 0.0000 0.1591-0.4999 ( 62726 PWs)   bands (ev):

   -66.2340 -66.2340 -66.2336 -66.2336 -66.2331 -66.2331 -66.2327 -66.2327
   -30.6344 -30.6344 -30.6314 -30.6314 -30.5827 -30.5827 -30.5785 -30.5785
   -30.5730 -30.5730 -30.5682 -30.5682 -30.5276 -30.5276 -30.5255 -30.5255
   -30.5231 -30.5231 -30.5209 -30.5209 -30.4787 -30.4787 -30.4762 -30.4762
   -20.3898 -20.3898 -20.3897 -20.3897 -20.3897 -20.3897 -20.3896 -20.3896
   -20.3796 -20.3796 -20.3794 -20.3794 -20.3746 -20.3746 -20.3744 -20.3744
   -20.3703 -20.3703 -20.3698 -20.3698 -20.3691 -20.3691 -20.3690 -20.3690
   -20.3684 -20.3684 -20.3681 -20.3681 -20.3679 -20.3679 -20.3677 -20.3677
   -20.3631 -20.3631 -20.3630 -20.3630 -20.3622 -20.3622 -20.3620 -20.3620
   -20.3546 -20.3546 -20.3545 -20.3545 -20.3524 -20.3524 -20.3524 -20.3524
   -20.3512 -20.3512 -20.3512 -20.3512 -20.3483 -20.3483 -20.3482 -20.3482
    -9.7476  -9.7476  -9.4702  -9.4702  -9.2546  -9.2546  -8.9546  -8.9546
    -8.6448  -8.6447  -8.6383  -8.6382  -8.6103  -8.6102  -8.5443  -8.5442
    -8.0128  -8.0128  -7.9638  -7.9638  -7.8019  -7.8019  -7.7815  -7.7814
     1.1991   1.1991   1.2190   1.2190   1.6105   1.6105   1.6978   1.6978
     2.5716   2.5716   2.8764   2.8764   3.0239   3.0239   3.0283   3.0283
     3.1829   3.1830   3.2325   3.2325   3.2998   3.2998   3.6930   3.6930
     3.8563   3.8564   4.1035   4.1035   4.5708   4.5708   4.6793   4.6793
     4.9543   4.9543   5.1821   5.1821   5.1858   5.1858   5.3924   5.3924
     5.6069   5.6069   5.7616   5.7616   6.0295   6.0295   6.1878   6.1878
     6.2051   6.2051   6.3708   6.3708   6.4399   6.4399   6.5393   6.5393
     6.7026   6.7026   6.7845   6.7845   6.9086   6.9086   7.4456   7.4456
     7.5014   7.5015   7.5900   7.5900   7.6068   7.6068   7.9982   7.9982
    10.0317  10.0317  11.0034  11.0034  11.0532  11.0532  11.5715  11.5715
    11.7139  11.7139  12.3082  12.3082  12.6592  12.6592  12.7766  12.7766
    12.8323  12.8323  13.0722  13.0722  13.3308  13.3308  13.9764  13.9764
    14.4010  14.4010  15.4345  15.4345  15.5227  15.5227  15.7223  15.7223
    16.4896  16.4896  17.4330  17.4331  17.8887

          k = 0.0000 0.3181 0.0000 ( 62779 PWs)   bands (ev):

   -66.2343 -66.2341 -66.2334 -66.2334 -66.2332 -66.2332 -66.2326 -66.2324
   -30.6243 -30.6213 -30.6211 -30.6182 -30.5941 -30.5909 -30.5904 -30.5875
   -30.5753 -30.5750 -30.5731 -30.5716 -30.5698 -30.5698 -30.5684 -30.5673
   -30.4805 -30.4803 -30.4791 -30.4789 -30.4764 -30.4762 -30.4748 -30.4745
   -20.3898 -20.3898 -20.3897 -20.3897 -20.3897 -20.3897 -20.3896 -20.3896
   -20.3786 -20.3784 -20.3784 -20.3782 -20.3757 -20.3755 -20.3755 -20.3753
   -20.3702 -20.3700 -20.3699 -20.3697 -20.3695 -20.3695 -20.3694 -20.3692
   -20.3685 -20.3684 -20.3684 -20.3682 -20.3678 -20.3676 -20.3675 -20.3673
   -20.3632 -20.3631 -20.3630 -20.3629 -20.3622 -20.3621 -20.3620 -20.3619
   -20.3557 -20.3557 -20.3552 -20.3552 -20.3545 -20.3544 -20.3539 -20.3539
   -20.3491 -20.3490 -20.3489 -20.3488 -20.3479 -20.3478 -20.3476 -20.3476
    -9.9409  -9.7905  -9.5143  -9.5139  -9.3793  -9.3782  -9.1138  -9.1059
    -8.9297  -8.7933  -8.7931  -8.7907  -8.2998  -8.2522  -8.2515  -8.2263
    -7.8531  -7.8528  -7.8398  -7.8393  -7.7445  -7.7444  -7.7332  -7.7331
     1.0745   1.0746   1.1868   1.1894   1.1899   1.1928   1.4493   1.4780
     2.2222   2.3689   2.3714   2.3807   2.4237   2.5300   2.7367   2.7403
     2.8374   2.8421   3.5158   3.5210   3.5390   3.5442   4.0290   4.3455
     4.3490   4.6279   4.6839   4.6882   4.7118   4.7163   4.9298   4.9322
     4.9645   4.9672   5.2775   5.2787   5.5089   5.5101   5.5801   5.5819
     5.7751   5.7755   5.8315   5.8328   5.9681   5.9695   6.0078   6.0602
     6.0626   6.1337   6.1454   6.4661   6.5290   6.5322   6.7648   6.7679
     6.8284   6.9212   6.9698   6.9711   6.9792   6.9808   7.2333   7.2346
     7.2547   7.2559   7.7504   7.7529   7.7746   7.7773   7.9290   7.9313
     9.0884   9.0895  10.5035  10.5075  10.5649  10.5674  11.7185  11.7263
    11.8185  11.8222  12.2866  12.2897  12.3054  12.3074  13.0123  13.0277
    13.3245  13.3380  13.3843  13.3904  13.7646  13.7658  13.7782  13.7871
    14.5700  14.9793  14.9837  15.0593  15.0636  15.5314  15.6413  15.6440
    15.7545  16.8442  17.0844  17.6036  17.6081

          k = 0.0000 0.3181 0.1666 ( 62764 PWs)   bands (ev):

   -66.2343 -66.2340 -66.2335 -66.2334 -66.2333 -66.2332 -66.2326 -66.2324
   -30.6243 -30.6216 -30.6211 -30.6185 -30.5942 -30.5912 -30.5907 -30.5878
   -30.5745 -30.5723 -30.5701 -30.5678 -30.5676 -30.5668 -30.5631 -30.5620
   -30.4868 -30.4854 -30.4826 -30.4812 -30.4801 -30.4786 -30.4763 -30.4749
   -20.3898 -20.3897 -20.3897 -20.3897 -20.3897 -20.3897 -20.3897 -20.3896
   -20.3786 -20.3784 -20.3784 -20.3782 -20.3757 -20.3755 -20.3755 -20.3753
   -20.3702 -20.3700 -20.3699 -20.3697 -20.3695 -20.3694 -20.3693 -20.3690
   -20.3686 -20.3684 -20.3683 -20.3683 -20.3678 -20.3677 -20.3676 -20.3674
   -20.3632 -20.3631 -20.3630 -20.3629 -20.3622 -20.3621 -20.3620 -20.3619
   -20.3553 -20.3553 -20.3551 -20.3551 -20.3540 -20.3540 -20.3540 -20.3540
   -20.3495 -20.3495 -20.3488 -20.3487 -20.3483 -20.3483 -20.3477 -20.3477
    -9.8925  -9.7385  -9.5285  -9.4398  -9.3908  -9.2917  -9.0749  -9.0658
    -8.9384  -8.7973  -8.7840  -8.7772  -8.3021  -8.2603  -8.2486  -8.2318
    -7.9731  -7.9592  -7.8723  -7.8602  -7.8446  -7.8324  -7.7516  -7.7402
     1.1622   1.1634   1.1932   1.1969   1.4395   1.4482   1.6138   1.6527
     2.2246   2.3482   2.3712   2.4656   2.5109   2.5187   2.7424   2.8320
     2.8407   2.9361   3.5195   3.5378   3.5557   3.5787   4.0222   4.3006
     4.3110   4.3609   4.3878   4.6306   4.6613   4.7402   4.7643   4.7698
     4.9327   4.9768   5.0797   5.2060   5.3175   5.3602   5.5152   5.5241
     5.5889   5.6339   5.6806   5.7582   5.9358   5.9965   6.0518   6.0907
     6.1758   6.3524   6.3871   6.5211   6.5227   6.7528   6.7700   6.8362
     6.8722   6.8826   6.9375   6.9663   6.9713   6.9811   7.0049   7.0170
     7.0981   7.1311   7.7275   7.7481   7.7527   7.7618   7.9070   7.9094
     9.4549   9.4641  10.5133  10.5656  10.6928  10.7397  11.7261  11.8151
    11.8219  11.9014  12.1640  12.1783  12.3411  12.3645  12.9757  13.0365
    13.1302  13.3020  13.3242  13.3811  13.6053  13.6584  13.7637  13.7762
    14.6999  14.9746  15.1138  15.1617  15.2299  15.6030  15.6219  15.9173
    15.9771  16.8064  17.1571  17.2388  17.5175

          k = 0.0000 0.3181 0.3333 ( 62751 PWs)   bands (ev):

   -66.2341 -66.2339 -66.2337 -66.2334 -66.2332 -66.2330 -66.2328 -66.2326
   -30.6240 -30.6223 -30.6209 -30.6193 -30.5939 -30.5920 -30.5905 -30.5886
   -30.5736 -30.5711 -30.5710 -30.5686 -30.5506 -30.5495 -30.5459 -30.5447
   -30.5040 -30.5026 -30.4995 -30.4982 -30.4793 -30.4778 -30.4771 -30.4757
   -20.3898 -20.3897 -20.3897 -20.3897 -20.3897 -20.3897 -20.3897 -20.3896
   -20.3786 -20.3785 -20.3784 -20.3783 -20.3757 -20.3756 -20.3755 -20.3754
   -20.3702 -20.3701 -20.3699 -20.3698 -20.3692 -20.3692 -20.3688 -20.3688
   -20.3686 -20.3686 -20.3682 -20.3681 -20.3680 -20.3679 -20.3678 -20.3676
   -20.3632 -20.3631 -20.3630 -20.3629 -20.3622 -20.3621 -20.3621 -20.3620
   -20.3549 -20.3549 -20.3542 -20.3542 -20.3541 -20.3541 -20.3528 -20.3528
   -20.3507 -20.3507 -20.3495 -20.3495 -20.3486 -20.3485 -20.3480 -20.3479
    -9.7765  -9.6178  -9.5745  -9.4302  -9.2494  -9.0434  -8.9726  -8.9559
    -8.9253  -8.8106  -8.7503  -8.7104  -8.3606  -8.3436  -8.2683  -8.2488
    -8.2412  -8.1895  -8.1849  -8.1253  -7.8250  -7.8127  -7.7711  -7.7594
     1.2028   1.2073   1.2133   1.2178   2.0568   2.1380   2.1475   2.2415
     2.3039   2.3684   2.3765   2.5834   2.7223   2.7499   2.7608   2.8329
     3.0788   3.1402   3.4994   3.5183   3.5803   3.6295   3.7395   3.7537
     4.0052   4.1920   4.2753   4.2935   4.3658   4.4808   4.5528   4.6749
     4.7093   4.7494   4.8828   4.9510   5.0080   5.0693   5.1059   5.2498
     5.2553   5.4652   5.5625   5.7150   6.0091   6.0532   6.1482   6.2221
     6.3372   6.4803   6.5048   6.5109   6.5801   6.7010   6.7212   6.7226
     6.7873   6.9047   6.9285   6.9448   6.9499   7.0376   7.0748   7.0966
     7.1967   7.2348   7.6467   7.6534   7.7262   7.7594   7.7893   7.8199
    10.2031  10.2180  10.5322  10.5600  11.1920  11.2131  11.6938  11.7394
    11.7427  11.8474  12.1095  12.1467  12.5043  12.5538  12.5651  12.6126
    12.8761  13.1015  13.1180  13.2992  13.3770  13.4074  13.7631  13.7740
    14.8294  14.9475  15.2723  15.5538  15.7248  15.8275  15.8626  16.4355
    16.6730  16.6834  16.8507  17.4075  17.4780

          k = 0.0000 0.3181-0.4999 ( 62742 PWs)   bands (ev):

   -66.2339 -66.2339 -66.2337 -66.2337 -66.2330 -66.2330 -66.2328 -66.2328
   -30.6233 -30.6233 -30.6202 -30.6202 -30.5930 -30.5930 -30.5896 -30.5896
   -30.5723 -30.5723 -30.5699 -30.5699 -30.5273 -30.5273 -30.5260 -30.5260
   -30.5227 -30.5227 -30.5214 -30.5214 -30.4782 -30.4782 -30.4767 -30.4767
   -20.3898 -20.3898 -20.3897 -20.3897 -20.3897 -20.3897 -20.3897 -20.3896
   -20.3786 -20.3786 -20.3784 -20.3784 -20.3757 -20.3757 -20.3755 -20.3755
   -20.3701 -20.3701 -20.3698 -20.3698 -20.3690 -20.3690 -20.3689 -20.3689
   -20.3684 -20.3684 -20.3682 -20.3682 -20.3680 -20.3680 -20.3679 -20.3679
   -20.3631 -20.3631 -20.3630 -20.3630 -20.3621 -20.3621 -20.3620 -20.3620
   -20.3546 -20.3546 -20.3545 -20.3545 -20.3524 -20.3524 -20.3524 -20.3524
   -20.3512 -20.3512 -20.3512 -20.3512 -20.3483 -20.3483 -20.3482 -20.3482
    -9.6575  -9.6575  -9.5036  -9.5035  -9.0615  -9.0615  -8.8448  -8.8448
    -8.6837  -8.6837  -8.6573  -8.6573  -8.5872  -8.5871  -8.5181  -8.5181
    -8.2489  -8.2489  -8.2121  -8.2121  -7.7979  -7.7979  -7.7859  -7.7859
     1.2135   1.2135   1.2185   1.2185   2.2287   2.2287   2.3636   2.3636
     2.7713   2.7713   2.9365   2.9366   2.9946   2.9947   3.1346   3.1346
     3.1994   3.1994   3.2096   3.2096   3.2675   3.2675   3.5181   3.5181
     3.9760   3.9760   4.0109   4.0109   4.0263   4.0263   4.2608   4.2608
     4.7228   4.7228   4.8292   4.8293   5.0050   5.0050   5.1467   5.1467
     5.2828   5.2828   5.6357   5.6358   6.1470   6.1470   6.1972   6.1972
     6.3637   6.3637   6.4329   6.4329   6.4557   6.4557   6.6880   6.6880
     6.9129   6.9129   6.9483   6.9483   7.0169   7.0169   7.4369   7.4369
     7.4789   7.4789   7.4844   7.4844   7.5377   7.5377   7.7709   7.7709
    10.5372  10.5372  11.0129  11.0130  11.0495  11.0496  11.6466  11.6466
    11.9073  11.9073  12.0198  12.0198  12.5089  12.5089  12.5757  12.5757
    12.7970  12.7970  12.9007  12.9007  13.3736  13.3736  13.7683  13.7683
    14.8986  14.8986  15.4360  15.4360  16.1735  16.1735  16.3703  16.3703
    16.7006  16.7006  17.0449  17.0449  17.8501

          k = 0.0000-0.4772 0.0000 ( 62858 PWs)   bands (ev):

   -66.2342 -66.2342 -66.2333 -66.2333 -66.2333 -66.2333 -66.2325 -66.2325
   -30.6090 -30.6090 -30.6060 -30.6060 -30.6057 -30.6057 -30.6029 -30.6029
   -30.5748 -30.5747 -30.5730 -30.5730 -30.5692 -30.5691 -30.5687 -30.5687
   -30.4798 -30.4798 -30.4796 -30.4796 -30.4759 -30.4759 -30.4750 -30.4750
   -20.3898 -20.3898 -20.3897 -20.3897 -20.3897 -20.3897 -20.3896 -20.3896
   -20.3772 -20.3772 -20.3770 -20.3770 -20.3770 -20.3770 -20.3768 -20.3768
   -20.3700 -20.3700 -20.3698 -20.3698 -20.3694 -20.3694 -20.3694 -20.3694
   -20.3685 -20.3685 -20.3683 -20.3683 -20.3677 -20.3677 -20.3675 -20.3675
   -20.3632 -20.3632 -20.3629 -20.3629 -20.3622 -20.3622 -20.3619 -20.3619
   -20.3557 -20.3557 -20.3552 -20.3552 -20.3544 -20.3544 -20.3539 -20.3539
   -20.3490 -20.3490 -20.3489 -20.3488 -20.3479 -20.3479 -20.3476 -20.3476
    -9.8557  -9.8557  -9.4314  -9.4314  -9.4306  -9.4306  -9.1099  -9.1099
    -8.6202  -8.6202  -8.5545  -8.5544  -8.5540  -8.5540  -8.5455  -8.5455
    -7.8472  -7.8472  -7.8455  -7.8455  -7.7389  -7.7389  -7.7388  -7.7388
     1.0745   1.0745   1.1892   1.1892   1.1920   1.1920   1.4712   1.4712
     2.4020   2.4020   3.0468   3.0468   3.0780   3.0780   3.1346   3.1346
     3.1428   3.1428   3.1461   3.1461   3.3355   3.3355   3.3404   3.3404
     3.5351   3.5351   4.6953   4.6953   4.6995   4.6995   5.1102   5.1102
     5.1164   5.1164   5.2233   5.2233   5.2260   5.2260   5.6498   5.6498
     5.6519   5.6519   5.9367   5.9367   5.9385   5.9385   6.0851   6.0851
     6.0934   6.0934   6.2049   6.2049   6.6320   6.6320   6.6353   6.6353
     6.8760   6.8760   7.2293   7.2293   7.2311   7.2311   7.3786   7.3786
     7.3799   7.3799   7.4251   7.4251   7.4260   7.4261   7.9301   7.9301
     9.0890   9.0890  11.1299  11.1299  11.1365  11.1365  11.2076  11.2076
    11.2157  11.2157  12.2988  12.2988  12.3015  12.3015  13.0230  13.0230
    13.5104  13.5104  13.5231  13.5231  13.5487  13.5487  13.5553  13.5553
    15.0610  15.0610  15.1560  15.1560  15.4069  15.4069  15.4090  15.4091
    16.4053  16.4053  17.7604  17.7604  18.0617

          k = 0.0000-0.4772 0.1666 ( 62742 PWs)   bands (ev):

   -66.2341 -66.2341 -66.2334 -66.2334 -66.2333 -66.2333 -66.2325 -66.2325
   -30.6090 -30.6090 -30.6063 -30.6063 -30.6058 -30.6058 -30.6032 -30.6032
   -30.5735 -30.5734 -30.5690 -30.5690 -30.5675 -30.5675 -30.5627 -30.5626
   -30.4861 -30.4861 -30.4819 -30.4819 -30.4793 -30.4793 -30.4756 -30.4756
   -20.3898 -20.3898 -20.3897 -20.3897 -20.3897 -20.3897 -20.3896 -20.3896
   -20.3772 -20.3772 -20.3770 -20.3770 -20.3770 -20.3770 -20.3768 -20.3768
   -20.3700 -20.3700 -20.3698 -20.3698 -20.3694 -20.3694 -20.3692 -20.3692
   -20.3684 -20.3684 -20.3684 -20.3684 -20.3678 -20.3678 -20.3676 -20.3676
   -20.3632 -20.3631 -20.3629 -20.3629 -20.3622 -20.3622 -20.3619 -20.3619
   -20.3553 -20.3553 -20.3551 -20.3551 -20.3540 -20.3540 -20.3540 -20.3540
   -20.3495 -20.3495 -20.3488 -20.3488 -20.3483 -20.3483 -20.3477 -20.3477
    -9.8048  -9.8048  -9.4442  -9.4442  -9.3475  -9.3475  -9.0702  -9.0702
    -8.6273  -8.6273  -8.5601  -8.5601  -8.5475  -8.5474  -8.5439  -8.5439
    -7.9666  -7.9666  -7.8665  -7.8665  -7.8386  -7.8386  -7.7459  -7.7459
     1.1631   1.1631   1.1960   1.1960   1.4461   1.4461   1.6440   1.6440
     2.4889   2.4889   3.0551   3.0551   3.0821   3.0821   3.1301   3.1301
     3.1444   3.1444   3.1848   3.1848   3.3370   3.3370   3.3909   3.3909
     3.5617   3.5617   4.3325   4.3325   4.7538   4.7538   4.8766   4.8766
     5.0201   5.0201   5.0989   5.0989   5.2384   5.2385   5.3913   5.3913
     5.6226   5.6226   5.6448   5.6448   5.9951   5.9951   6.0855   6.0855
     6.3256   6.3256   6.3718   6.3718   6.6238   6.6238   6.8122   6.8122
     6.9199   6.9199   7.0002   7.0002   7.0610   7.0610   7.3663   7.3663
     7.3858   7.3858   7.4019   7.4019   7.4155   7.4155   7.9078   7.9078
     9.4604   9.4604  11.1412  11.1412  11.2080  11.2080  11.2615  11.2615
    11.3329  11.3329  12.1719  12.1719  12.3539  12.3539  13.0184  13.0184
    13.3275  13.3275  13.4248  13.4249  13.5300  13.5300  13.5480  13.5480
    15.0817  15.0817  15.3592  15.3592  15.3925  15.3925  15.7165  15.7166
    16.4751  16.4751  17.7212  17.7212  17.8002

          k = 0.0000-0.4772 0.3333 ( 62740 PWs)   bands (ev):

   -66.2340 -66.2340 -66.2336 -66.2335 -66.2331 -66.2331 -66.2327 -66.2327
   -30.6088 -30.6088 -30.6071 -30.6071 -30.6057 -30.6057 -30.6040 -30.6040
   -30.5725 -30.5725 -30.5700 -30.5700 -30.5501 -30.5501 -30.5454 -30.5454
   -30.5033 -30.5033 -30.4989 -30.4989 -30.4785 -30.4785 -30.4764 -30.4764
   -20.3898 -20.3897 -20.3897 -20.3897 -20.3897 -20.3897 -20.3897 -20.3896
   -20.3772 -20.3772 -20.3771 -20.3771 -20.3770 -20.3770 -20.3769 -20.3769
   -20.3700 -20.3700 -20.3699 -20.3699 -20.3692 -20.3691 -20.3688 -20.3688
   -20.3686 -20.3686 -20.3683 -20.3682 -20.3680 -20.3679 -20.3678 -20.3678
   -20.3631 -20.3631 -20.3630 -20.3630 -20.3622 -20.3622 -20.3620 -20.3620
   -20.3549 -20.3549 -20.3542 -20.3542 -20.3541 -20.3541 -20.3528 -20.3528
   -20.3507 -20.3507 -20.3495 -20.3495 -20.3486 -20.3486 -20.3480 -20.3479
    -9.6847  -9.6847  -9.4871  -9.4871  -9.1155  -9.1155  -8.9360  -8.9360
    -8.6652  -8.6651  -8.5845  -8.5845  -8.5343  -8.5343  -8.5220  -8.5220
    -8.2543  -8.2543  -8.1709  -8.1709  -7.8189  -7.8189  -7.7653  -7.7653
     1.2062   1.2062   1.2166   1.2167   2.1265   2.1265   2.2846   2.2846
     2.7406   2.7406   3.0608   3.0609   3.0943   3.0943   3.1210   3.1210
     3.1370   3.1370   3.2594   3.2594   3.3269   3.3270   3.5413   3.5414
     3.6158   3.6159   3.7408   3.7408   4.4059   4.4059   4.5391   4.5391
     4.7092   4.7092   4.7488   4.7488   5.0411   5.0411   5.1397   5.1397
     5.2759   5.2759   5.5396   5.5396   6.0518   6.0518   6.2117   6.2117
     6.4421   6.4421   6.5316   6.5316   6.5993   6.5993   6.7280   6.7280
     6.9312   6.9312   7.0914   7.0915   7.1183   7.1183   7.3429   7.3429
     7.3680   7.3680   7.3914   7.3914   7.4113   7.4113   7.7941   7.7941
    10.2144  10.2144  11.1552  11.1552  11.1912  11.1912  11.6441  11.6441
    11.6859  11.6859  11.7397  11.7397  12.5238  12.5238  12.7251  12.7252
    12.8439  12.8439  13.1696  13.1696  13.5264  13.5264  13.5450  13.5450
    15.1458  15.1458  15.3387  15.3387  15.9910  15.9910  16.5055  16.5055
    16.7216  16.7216  17.2019  17.2019  17.8586

          k = 0.0000-0.4772-0.4999 ( 62740 PWs)   bands (ev):

   -66.2338 -66.2338 -66.2338 -66.2338 -66.2329 -66.2329 -66.2329 -66.2329
   -30.6080 -30.6080 -30.6080 -30.6080 -30.6049 -30.6049 -30.6049 -30.6049
   -30.5712 -30.5712 -30.5712 -30.5712 -30.5267 -30.5267 -30.5267 -30.5267
   -30.5221 -30.5221 -30.5221 -30.5221 -30.4775 -30.4775 -30.4775 -30.4775
   -20.3897 -20.3897 -20.3897 -20.3897 -20.3897 -20.3897 -20.3897 -20.3897
   -20.3771 -20.3771 -20.3771 -20.3771 -20.3769 -20.3769 -20.3769 -20.3769
   -20.3700 -20.3700 -20.3699 -20.3699 -20.3689 -20.3689 -20.3689 -20.3689
   -20.3683 -20.3683 -20.3683 -20.3683 -20.3680 -20.3680 -20.3680 -20.3680
   -20.3631 -20.3631 -20.3630 -20.3630 -20.3621 -20.3621 -20.3621 -20.3621
   -20.3546 -20.3546 -20.3546 -20.3545 -20.3524 -20.3524 -20.3524 -20.3524
   -20.3512 -20.3512 -20.3512 -20.3512 -20.3483 -20.3483 -20.3483 -20.3483
    -9.5661  -9.5661  -9.5661  -9.5661  -8.8226  -8.8226  -8.8226  -8.8226
    -8.7093  -8.7093  -8.7093  -8.7093  -8.4872  -8.4872  -8.4872  -8.4871
    -8.4346  -8.4345  -8.4345  -8.4345  -7.7920  -7.7920  -7.7920  -7.7920
     1.2173   1.2173   1.2173   1.2173   2.8987   2.8987   2.8988   2.8988
     3.0209   3.0210   3.0210   3.0210   3.0982   3.0982   3.0982   3.0983
     3.1841   3.1842   3.1842   3.1842   3.3210   3.3210   3.3210   3.3210
     3.4686   3.4686   3.4686   3.4686   4.2250   4.2250   4.2251   4.2251
     4.3260   4.3260   4.3260   4.3260   5.0963   5.0963   5.0963   5.0963
     5.3896   5.3896   5.3896   5.3896   6.1902   6.1902   6.1902   6.1902
     6.4290   6.4290   6.4290   6.4290   6.5576   6.5576   6.5576   6.5576
     7.2184   7.2184   7.2185   7.2185   7.2781   7.2781   7.2781   7.2781
     7.3526   7.3526   7.3526   7.3526   7.5493   7.5493   7.5493   7.5493
    11.0094  11.0094  11.0094  11.0094  11.1944  11.1944  11.1944  11.1944
    12.1960  12.1960  12.1960  12.1960  12.2252  12.2252  12.2252  12.2252
    12.8250  12.8250  12.8250  12.8250  13.5348  13.5348  13.5348  13.5348
    15.2497  15.2497  15.2497  15.2497  16.6556  16.6557  16.6557  16.6557
    17.2812  17.2812  17.2812  17.2812  17.3875

          k = 0.1667 0.0000 0.0000 ( 62799 PWs)   bands (ev):

   -66.2344 -66.2339 -66.2336 -66.2335 -66.2332 -66.2331 -66.2327 -66.2323
   -30.6396 -30.6367 -30.6365 -30.6338 -30.5810 -30.5773 -30.5767 -30.5745
   -30.5724 -30.5722 -30.5694 -30.5681 -30.5679 -30.5649 -30.5624 -30.5593
   -30.4874 -30.4844 -30.4831 -30.4809 -30.4803 -30.4781 -30.4771 -30.4745
   -20.3898 -20.3897 -20.3897 -20.3897 -20.3897 -20.3897 -20.3896 -20.3896
   -20.3800 -20.3798 -20.3798 -20.3797 -20.3743 -20.3741 -20.3741 -20.3738
   -20.3704 -20.3701 -20.3700 -20.3697 -20.3696 -20.3695 -20.3692 -20.3689
   -20.3688 -20.3684 -20.3683 -20.3683 -20.3678 -20.3675 -20.3673 -20.3670
   -20.3632 -20.3630 -20.3629 -20.3627 -20.3623 -20.3621 -20.3621 -20.3619
   -20.3557 -20.3556 -20.3548 -20.3547 -20.3545 -20.3545 -20.3535 -20.3535
   -20.3493 -20.3493 -20.3490 -20.3489 -20.3481 -20.3481 -20.3480 -20.3479
   -10.0058  -9.6881  -9.6567  -9.5832  -9.3564  -9.2550  -9.2292  -9.0813
    -9.0615  -8.9661  -8.9656  -8.9301  -7.9846  -7.9647  -7.9484  -7.8920
    -7.8904  -7.8683  -7.8544  -7.8508  -7.8399  -7.8256  -7.7571  -7.7340
     1.1466   1.1618   1.1666   1.1941   1.2845   1.3321   1.4519   1.4569
     1.4607   1.5609   1.6583   1.7969   2.4418   2.4603   2.5324   2.5408
     2.5627   2.6562   3.9930   4.0396   4.2341   4.2584   4.2708   4.3568
     4.5285   4.6109   4.7283   4.7594   4.7716   4.8514   4.9523   5.2243
     5.3081   5.3541   5.4357   5.4536   5.4790   5.4857   5.5091   5.5560
     5.6064   5.6833   5.7192   5.8130   5.8955   5.9854   6.0362   6.0948
     6.2305   6.3844   6.4285   6.4292   6.5232   6.5490   6.6341   6.6795
     6.7210   6.7795   6.8805   6.9109   6.9576   6.9980   7.0104   7.0141
     7.0548   7.1099   7.9019   7.9039   7.9851   8.0315   8.0456   8.0837
     9.4429   9.4691   9.8266   9.8408  10.1178  10.1224  12.1479  12.1832
    12.2379  12.2970  12.3339  12.3534  12.4119  12.5124  12.9272  12.9360
    13.1105  13.1652  13.2544  13.3029  13.7521  13.9419  13.9789  14.0947
    14.0966  14.1627  14.3456  14.8276  15.1184  15.1470  15.3944  15.7615
    16.1355  16.6683  16.8068  17.1322  17.2768

          k = 0.1667 0.0000 0.1666 ( 62758 PWs)   bands (ev):

   -66.2343 -66.2339 -66.2335 -66.2335 -66.2331 -66.2331 -66.2328 -66.2324
   -30.6395 -30.6368 -30.6367 -30.6341 -30.5806 -30.5775 -30.5770 -30.5727
   -30.5682 -30.5681 -30.5657 -30.5651 -30.5641 -30.5615 -30.5611 -30.5596
   -30.4873 -30.4871 -30.4846 -30.4841 -30.4836 -30.4832 -30.4807 -30.4803
   -20.3898 -20.3897 -20.3897 -20.3897 -20.3897 -20.3897 -20.3896 -20.3896
   -20.3800 -20.3798 -20.3798 -20.3797 -20.3743 -20.3741 -20.3741 -20.3739
   -20.3704 -20.3701 -20.3700 -20.3696 -20.3696 -20.3696 -20.3691 -20.3689
   -20.3687 -20.3685 -20.3683 -20.3682 -20.3678 -20.3676 -20.3674 -20.3671
   -20.3632 -20.3630 -20.3629 -20.3628 -20.3623 -20.3621 -20.3621 -20.3619
   -20.3552 -20.3552 -20.3547 -20.3547 -20.3541 -20.3541 -20.3536 -20.3536
   -20.3495 -20.3494 -20.3493 -20.3492 -20.3484 -20.3484 -20.3482 -20.3481
    -9.9593  -9.6306  -9.5981  -9.5980  -9.2681  -9.2669  -9.2383  -9.0425
    -9.0263  -8.9570  -8.9341  -8.9338  -7.9840  -7.9731  -7.9584  -7.9574
    -7.9522  -7.9080  -7.8845  -7.8828  -7.8728  -7.8614  -7.8431  -7.8412
     1.2766   1.3244   1.3256   1.3343   1.3360   1.4520   1.4540   1.4562
     1.5585   1.5611   1.7456   1.8785   2.5228   2.5453   2.5469   2.6254
     2.6362   2.6704   3.9817   3.9973   4.1927   4.1929   4.3758   4.3764
     4.4238   4.4249   4.5577   4.5583   4.5716   4.6448   4.9405   5.1708
     5.2309   5.2448   5.3218   5.4058   5.4132   5.5227   5.5244   5.5974
     5.5975   5.6184   5.6200   5.6733   5.7136   5.9032   6.2430   6.3769
     6.3946   6.4366   6.4747   6.5060   6.5304   6.5380   6.5426   6.5707
     6.5854   6.7342   6.7373   6.7822   6.8188   6.9093   6.9101   7.0060
     7.1432   7.1964   7.8783   7.8838   7.9883   8.0231   8.0326   8.0385
     9.6831   9.7363  10.0792  10.1177  10.1187  10.1779  12.1946  12.1999
    12.2224  12.2224  12.2960  12.3364  12.4965  12.5007  12.9332  12.9365
    12.9764  13.0779  13.1118  13.3106  13.8423  13.9109  13.9446  13.9870
    13.9996  14.3193  14.3384  14.9419  15.2391  15.2497  15.3609  16.1052
    16.1084  16.8269  16.8294  16.9497  17.3808

          k = 0.1667 0.0000 0.3333 ( 62760 PWs)   bands (ev):

   -66.2341 -66.2337 -66.2337 -66.2334 -66.2333 -66.2330 -66.2329 -66.2325
   -30.6392 -30.6376 -30.6364 -30.6348 -30.5799 -30.5781 -30.5760 -30.5736
   -30.5673 -30.5654 -30.5631 -30.5606 -30.5503 -30.5484 -30.5464 -30.5443
   -30.5043 -30.5016 -30.5005 -30.4978 -30.4863 -30.4841 -30.4833 -30.4811
   -20.3898 -20.3897 -20.3897 -20.3897 -20.3897 -20.3897 -20.3897 -20.3896
   -20.3800 -20.3799 -20.3798 -20.3797 -20.3743 -20.3742 -20.3741 -20.3740
   -20.3703 -20.3702 -20.3699 -20.3697 -20.3694 -20.3694 -20.3690 -20.3688
   -20.3688 -20.3684 -20.3681 -20.3680 -20.3679 -20.3677 -20.3676 -20.3674
   -20.3631 -20.3630 -20.3629 -20.3628 -20.3623 -20.3622 -20.3621 -20.3620
   -20.3545 -20.3545 -20.3540 -20.3540 -20.3538 -20.3538 -20.3529 -20.3529
   -20.3507 -20.3506 -20.3496 -20.3496 -20.3490 -20.3490 -20.3484 -20.3484
    -9.8470  -9.6450  -9.4973  -9.4607  -9.3043  -9.2695  -9.0165  -8.9779
    -8.9436  -8.8963  -8.8658  -8.8148  -8.2700  -8.2698  -8.2297  -8.2036
    -7.9560  -7.9424  -7.9246  -7.9050  -7.8828  -7.8759  -7.8725  -7.8520
     1.2875   1.3115   1.3964   1.4343   1.4674   1.4713   1.5272   1.5634
     2.1492   2.1745   2.2995   2.3637   2.5628   2.6297   2.7666   2.7820
     2.8955   2.9101   3.7087   3.7734   3.8154   3.8372   4.0403   4.1486
     4.1492   4.3202   4.4350   4.4790   4.4997   4.6212   4.6679   4.7737
     4.9008   4.9912   5.0450   5.1114   5.2319   5.2914   5.4798   5.5631
     5.6334   5.6343   5.6591   5.7277   5.7322   5.9129   5.9976   6.0521
     6.3048   6.3347   6.3548   6.4529   6.4893   6.5244   6.5306   6.5760
     6.6842   6.7944   6.8009   6.8061   7.0127   7.0593   7.0784   7.1015
     7.2325   7.2839   7.7610   7.7830   7.8757   7.8953   8.0290   8.0348
    10.0854  10.1126  10.3378  10.3829  10.7695  10.8391  11.7703  11.8059
    12.1206  12.3530  12.3719  12.4306  12.4980  12.5203  12.6475  12.7476
    12.8876  12.9843  13.0045  13.1882  13.5773  13.5927  13.9110  13.9354
    14.1486  14.3148  14.6953  15.2466  15.2514  15.5691  15.7467  16.0250
    16.2558  17.0209  17.2531  17.3127  17.4103

          k = 0.1667 0.0000-0.4999 ( 62728 PWs)   bands (ev):

   -66.2339 -66.2339 -66.2335 -66.2335 -66.2332 -66.2332 -66.2327 -66.2327
   -30.6385 -30.6385 -30.6357 -30.6357 -30.5790 -30.5790 -30.5747 -30.5747
   -30.5663 -30.5663 -30.5618 -30.5618 -30.5275 -30.5275 -30.5250 -30.5250
   -30.5235 -30.5235 -30.5210 -30.5210 -30.4852 -30.4852 -30.4822 -30.4822
   -20.3898 -20.3898 -20.3897 -20.3897 -20.3897 -20.3897 -20.3896 -20.3896
   -20.3800 -20.3800 -20.3798 -20.3798 -20.3743 -20.3743 -20.3741 -20.3741
   -20.3703 -20.3703 -20.3698 -20.3698 -20.3693 -20.3693 -20.3690 -20.3690
   -20.3684 -20.3684 -20.3680 -20.3680 -20.3679 -20.3679 -20.3677 -20.3676
   -20.3631 -20.3631 -20.3629 -20.3629 -20.3622 -20.3622 -20.3620 -20.3620
   -20.3542 -20.3542 -20.3541 -20.3541 -20.3523 -20.3523 -20.3523 -20.3523
   -20.3513 -20.3513 -20.3513 -20.3513 -20.3487 -20.3487 -20.3487 -20.3487
    -9.7293  -9.7293  -9.3766  -9.3766  -9.3374  -9.3374  -8.9577  -8.9577
    -8.6516  -8.6516  -8.6324  -8.6323  -8.6004  -8.6003  -8.5538  -8.5537
    -7.9362  -7.9362  -7.9197  -7.9197  -7.8874  -7.8874  -7.8641  -7.8641
     1.2975   1.2975   1.4157   1.4157   1.4792   1.4792   1.5627   1.5627
     2.5831   2.5831   2.8621   2.8621   2.9489   2.9489   3.0697   3.0698
     3.1792   3.1792   3.3275   3.3275   3.3832   3.3833   3.7049   3.7049
     3.8015   3.8015   4.2518   4.2518   4.4392   4.4392   4.8111   4.8111
     4.9301   4.9301   4.9675   4.9675   5.1619   5.1619   5.5685   5.5685
     5.6680   5.6680   5.7047   5.7047   5.7608   5.7608   5.8728   5.8728
     6.2255   6.2255   6.2973   6.2973   6.5191   6.5191   6.6155   6.6155
     6.7280   6.7280   6.8711   6.8711   6.9322   6.9322   7.4752   7.4752
     7.5207   7.5207   7.6275   7.6276   7.6387   7.6387   8.0352   8.0352
    10.1083  10.1083  11.0812  11.0812  11.1355  11.1355  11.5227  11.5228
    11.6597  11.6597  12.5192  12.5192  12.6137  12.6137  12.6463  12.6463
    12.8675  12.8675  13.1425  13.1425  13.2389  13.2389  13.9226  13.9226
    14.2631  14.2631  15.0385  15.0385  15.7000  15.7000  15.8592  15.8592
    16.5635  16.5635  17.6493  17.6506  17.6920

          k = 0.1667 0.1591 0.0000 ( 62751 PWs)   bands (ev):

   -66.2343 -66.2340 -66.2336 -66.2335 -66.2332 -66.2331 -66.2327 -66.2323
   -30.6355 -30.6326 -30.6325 -30.6297 -30.5840 -30.5807 -30.5800 -30.5766
   -30.5748 -30.5725 -30.5700 -30.5682 -30.5681 -30.5650 -30.5630 -30.5600
   -30.4872 -30.4846 -30.4829 -30.4807 -30.4805 -30.4783 -30.4769 -30.4746
   -20.3898 -20.3897 -20.3897 -20.3897 -20.3897 -20.3897 -20.3896 -20.3896
   -20.3796 -20.3795 -20.3794 -20.3793 -20.3747 -20.3745 -20.3745 -20.3742
   -20.3703 -20.3700 -20.3700 -20.3697 -20.3696 -20.3695 -20.3693 -20.3689
   -20.3688 -20.3684 -20.3684 -20.3683 -20.3678 -20.3676 -20.3674 -20.3671
   -20.3632 -20.3630 -20.3629 -20.3628 -20.3623 -20.3621 -20.3620 -20.3619
   -20.3557 -20.3556 -20.3548 -20.3548 -20.3545 -20.3545 -20.3535 -20.3535
   -20.3493 -20.3493 -20.3490 -20.3489 -20.3481 -20.3481 -20.3480 -20.3479
    -9.9728  -9.7004  -9.6179  -9.5397  -9.3647  -9.2633  -9.1533  -9.0792
    -9.0626  -8.9272  -8.9227  -8.8964  -8.0514  -8.0104  -7.9922  -7.9759
    -7.9560  -7.9438  -7.8758  -7.8536  -7.8492  -7.8275  -7.7556  -7.7358
     1.1573   1.1617   1.1816   1.1941   1.4079   1.4493   1.4542   1.6570
     1.6570   1.6936   1.7260   1.9132   2.4495   2.5270   2.5321   2.6133
     2.6328   2.7241   3.8736   3.9102   3.9747   4.0222   4.2870   4.3542
     4.5714   4.5729   4.7206   4.7451   4.7532   4.7995   4.8481   5.1327
     5.1768   5.2016   5.2281   5.3963   5.4683   5.4921   5.5331   5.6111
     5.6391   5.6946   5.7508   5.7587   5.7995   5.9857   6.0681   6.0919
     6.1309   6.3825   6.3838   6.4538   6.5680   6.6442   6.6588   6.7198
     6.7400   6.7730   6.8638   6.8947   6.9095   6.9299   6.9983   7.0071
     7.0646   7.1128   7.9018   7.9032   7.9368   7.9560   7.9816   8.0001
     9.4475   9.4674  10.0164  10.0453  10.2758  10.2894  12.1090  12.1530
    12.1831  12.2095  12.2554  12.2825  12.3201  12.4085  12.9443  12.9572
    13.1160  13.1960  13.2652  13.3147  13.8310  13.8612  13.9973  14.0040
    14.1123  14.4314  14.6258  14.9987  15.1183  15.1483  15.7277  15.8015
    16.0999  16.4810  16.8088  17.2614  17.4004

          k = 0.1667 0.1591 0.1666 ( 62781 PWs)   bands (ev):

   -66.2343 -66.2339 -66.2335 -66.2335 -66.2331 -66.2331 -66.2328 -66.2324
   -30.6354 -30.6327 -30.6326 -30.6300 -30.5839 -30.5810 -30.5804 -30.5769
   -30.5684 -30.5682 -30.5659 -30.5652 -30.5642 -30.5619 -30.5617 -30.5603
   -30.4871 -30.4869 -30.4847 -30.4843 -30.4834 -30.4831 -30.4808 -30.4804
   -20.3898 -20.3897 -20.3897 -20.3897 -20.3897 -20.3897 -20.3897 -20.3896
   -20.3796 -20.3795 -20.3795 -20.3793 -20.3747 -20.3745 -20.3745 -20.3743
   -20.3703 -20.3701 -20.3699 -20.3696 -20.3696 -20.3695 -20.3692 -20.3688
   -20.3688 -20.3685 -20.3683 -20.3682 -20.3679 -20.3676 -20.3675 -20.3672
   -20.3631 -20.3630 -20.3629 -20.3628 -20.3623 -20.3621 -20.3621 -20.3619
   -20.3552 -20.3552 -20.3547 -20.3547 -20.3541 -20.3541 -20.3536 -20.3536
   -20.3495 -20.3494 -20.3493 -20.3492 -20.3484 -20.3484 -20.3482 -20.3481
    -9.9248  -9.6430  -9.5548  -9.5547  -9.2765  -9.2753  -9.1625  -9.0414
    -9.0274  -8.9141  -8.9002  -8.8999  -8.0563  -8.0087  -8.0082  -7.9704
    -7.9693  -7.9650  -7.9389  -7.9378  -7.9023  -7.8730  -7.8620  -7.8432
     1.3342   1.3345   1.4082   1.4094   1.4534   1.4552   1.4727   1.6583
     1.7202   1.7224   1.7451   1.9657   2.5341   2.6145   2.6206   2.6228
     2.7096   2.7325   3.8704   3.9007   3.9943   3.9960   4.3547   4.3575
     4.4237   4.4260   4.5422   4.5819   4.5959   4.6300   4.7126   5.1220
     5.1396   5.1445   5.1592   5.2693   5.2748   5.4800   5.4815   5.5304
     5.6142   5.6179   5.7060   5.7118   5.7163   5.7901   6.2570   6.2819
     6.2858   6.4362   6.4666   6.5288   6.5382   6.5611   6.6104   6.6640
     6.6674   6.7516   6.7649   6.7667   6.8676   6.8811   6.8840   7.0121
     7.1445   7.1972   7.8770   7.8810   7.9287   7.9568   7.9607   7.9645
     9.6960   9.7337  10.2383  10.2847  10.2900  10.3258  12.1671  12.1940
    12.2022  12.2077  12.2109  12.2267  12.3576  12.3606  12.9356  12.9652
    13.0104  13.0911  13.1150  13.3188  13.8198  13.8324  13.8438  13.9024
    14.2334  14.6138  14.6208  15.0984  15.2400  15.2489  15.7671  16.0712
    16.0740  16.6080  16.9441  16.9466  17.4081

          k = 0.1667 0.1591 0.3333 ( 62763 PWs)   bands (ev):

   -66.2341 -66.2337 -66.2337 -66.2334 -66.2333 -66.2330 -66.2329 -66.2326
   -30.6351 -30.6335 -30.6324 -30.6307 -30.5834 -30.5816 -30.5799 -30.5777
   -30.5673 -30.5653 -30.5637 -30.5612 -30.5503 -30.5486 -30.5464 -30.5445
   -30.5041 -30.5018 -30.5003 -30.4980 -30.4861 -30.4839 -30.4835 -30.4813
   -20.3898 -20.3897 -20.3897 -20.3897 -20.3897 -20.3897 -20.3897 -20.3896
   -20.3796 -20.3795 -20.3795 -20.3794 -20.3747 -20.3746 -20.3745 -20.3744
   -20.3703 -20.3701 -20.3699 -20.3697 -20.3694 -20.3693 -20.3690 -20.3688
   -20.3687 -20.3685 -20.3682 -20.3681 -20.3680 -20.3678 -20.3677 -20.3674
   -20.3631 -20.3630 -20.3629 -20.3628 -20.3623 -20.3621 -20.3621 -20.3620
   -20.3545 -20.3545 -20.3540 -20.3540 -20.3538 -20.3538 -20.3529 -20.3529
   -20.3507 -20.3506 -20.3496 -20.3496 -20.3490 -20.3490 -20.3484 -20.3484
    -9.8089  -9.6022  -9.5094  -9.4040  -9.3135  -9.1944  -9.0254  -8.9578
    -8.9099  -8.8978  -8.8456  -8.7943  -8.2773  -8.2677  -8.2468  -8.2013
    -8.0189  -8.0070  -7.9805  -7.9567  -7.9489  -7.9222  -7.8959  -7.8744
     1.4131   1.4193   1.4670   1.4710   1.6053   1.6138   1.6917   1.7193
     2.1477   2.1854   2.2999   2.3801   2.6354   2.6961   2.7909   2.8555
     2.8912   2.9592   3.7012   3.7503   3.7824   3.8287   3.9663   4.0369
     4.1191   4.2050   4.4545   4.4979   4.5400   4.5917   4.6274   4.6660
     4.7791   4.8262   4.8601   5.0419   5.1116   5.1504   5.2202   5.5222
     5.5317   5.5654   5.6385   5.6866   5.7429   5.7665   6.0013   6.0514
     6.2425   6.4061   6.4354   6.5156   6.5684   6.5837   6.6162   6.6516
     6.7281   6.7978   6.8150   6.8528   7.0029   7.0543   7.0697   7.1110
     7.2254   7.2782   7.7567   7.7786   7.8285   7.8369   7.9586   7.9615
    10.2205  10.2783  10.3565  10.4019  10.8832  10.9350  11.7707  11.8030
    12.0862  12.3343  12.3453  12.3754  12.4265  12.4758  12.5822  12.6265
    12.8916  12.9887  13.0042  13.1974  13.4694  13.4957  13.8336  13.8538
    14.4503  14.6006  15.0426  15.3745  15.5623  15.6610  15.7600  15.9933
    16.3729  16.9807  17.0148  17.3147  17.3657

          k = 0.1667 0.1591-0.4999 ( 62740 PWs)   bands (ev):

   -66.2339 -66.2339 -66.2335 -66.2335 -66.2331 -66.2331 -66.2328 -66.2328
   -30.6344 -30.6344 -30.6316 -30.6316 -30.5826 -30.5826 -30.5788 -30.5788
   -30.5662 -30.5662 -30.5624 -30.5624 -30.5273 -30.5273 -30.5252 -30.5252
   -30.5234 -30.5234 -30.5212 -30.5212 -30.4850 -30.4850 -30.4824 -30.4824
   -20.3898 -20.3898 -20.3897 -20.3897 -20.3897 -20.3897 -20.3896 -20.3896
   -20.3796 -20.3796 -20.3794 -20.3794 -20.3747 -20.3746 -20.3745 -20.3745
   -20.3702 -20.3702 -20.3698 -20.3698 -20.3692 -20.3692 -20.3690 -20.3690
   -20.3684 -20.3684 -20.3681 -20.3681 -20.3680 -20.3680 -20.3677 -20.3677
   -20.3630 -20.3630 -20.3629 -20.3629 -20.3622 -20.3622 -20.3621 -20.3621
   -20.3542 -20.3542 -20.3541 -20.3541 -20.3523 -20.3523 -20.3523 -20.3523
   -20.3513 -20.3513 -20.3513 -20.3513 -20.3487 -20.3487 -20.3487 -20.3487
    -9.6879  -9.6878  -9.3872  -9.3872  -9.2671  -9.2671  -8.9255  -8.9255
    -8.6599  -8.6598  -8.6353  -8.6353  -8.5976  -8.5975  -8.5475  -8.5474
    -8.0143  -8.0143  -7.9718  -7.9718  -7.9228  -7.9227  -7.8986  -7.8986
     1.4182   1.4182   1.4788   1.4788   1.6210   1.6210   1.7170   1.7170
     2.6522   2.6522   2.8844   2.8844   2.9749   2.9750   3.0737   3.0738
     3.1783   3.1784   3.3292   3.3292   3.3767   3.3767   3.7086   3.7086
     3.8497   3.8497   4.1045   4.1045   4.4669   4.4669   4.5891   4.5891
     4.8394   4.8394   4.9056   4.9056   4.9847   4.9848   5.3495   5.3495
     5.5952   5.5952   5.6483   5.6483   5.7536   5.7536   5.7673   5.7673
     6.3541   6.3541   6.4988   6.4988   6.5165   6.5165   6.6571   6.6571
     6.7917   6.7917   6.8309   6.8309   6.9595   6.9595   7.4731   7.4731
     7.5142   7.5142   7.5971   7.5971   7.6099   7.6099   7.9619   7.9619
    10.2733  10.2733  11.0851  11.0851  11.1349  11.1349  11.5903  11.5903
    11.7229  11.7229  12.3754  12.3754  12.5959  12.5959  12.6408  12.6408
    12.8405  12.8405  13.0371  13.0371  13.1846  13.1846  13.8399  13.8399
    14.5558  14.5558  15.4181  15.4181  15.8236  15.8236  15.8444  15.8444
    16.6005  16.6005  17.4546  17.4546  17.7179

          k = 0.1667 0.3181 0.0000 ( 62766 PWs)   bands (ev):

   -66.2342 -66.2340 -66.2335 -66.2334 -66.2333 -66.2332 -66.2326 -66.2324
   -30.6242 -30.6214 -30.6213 -30.6185 -30.5940 -30.5911 -30.5907 -30.5878
   -30.5746 -30.5731 -30.5701 -30.5687 -30.5679 -30.5659 -30.5631 -30.5612
   -30.4866 -30.4852 -30.4824 -30.4810 -30.4802 -30.4788 -30.4765 -30.4751
   -20.3898 -20.3897 -20.3897 -20.3897 -20.3897 -20.3897 -20.3897 -20.3896
   -20.3786 -20.3784 -20.3784 -20.3782 -20.3757 -20.3755 -20.3755 -20.3753
   -20.3701 -20.3699 -20.3698 -20.3696 -20.3695 -20.3695 -20.3694 -20.3691
   -20.3686 -20.3685 -20.3685 -20.3683 -20.3678 -20.3676 -20.3675 -20.3673
   -20.3631 -20.3630 -20.3629 -20.3628 -20.3623 -20.3622 -20.3620 -20.3619
   -20.3557 -20.3556 -20.3548 -20.3548 -20.3545 -20.3545 -20.3535 -20.3535
   -20.3493 -20.3493 -20.3490 -20.3489 -20.3481 -20.3481 -20.3480 -20.3479
    -9.8926  -9.7386  -9.5289  -9.4395  -9.3918  -9.2907  -9.0749  -9.0657
    -8.9384  -8.7973  -8.7840  -8.7772  -8.3021  -8.2597  -8.2491  -8.2319
    -7.9727  -7.9590  -7.8724  -7.8602  -7.8448  -7.8322  -7.7515  -7.7401
     1.1607   1.1617   1.1906   1.1940   1.4415   1.4506   1.6152   1.6543
     2.2246   2.3480   2.3711   2.4659   2.5108   2.5174   2.7461   2.8322
     2.8421   2.9321   3.5129   3.5316   3.5646   3.5829   4.0224   4.2967
     4.3122   4.3626   4.3914   4.6287   4.6607   4.7355   4.7654   4.7698
     4.9337   4.9737   5.0819   5.2085   5.3170   5.3616   5.5156   5.5226
     5.5899   5.6340   5.6801   5.7582   5.9382   5.9966   6.0501   6.0949
     6.1754   6.3427   6.3878   6.5162   6.5300   6.7557   6.7662   6.8348
     6.8734   6.8820   6.9404   6.9575   6.9715   6.9922   7.0096   7.0137
     7.0980   7.1292   7.7250   7.7459   7.7550   7.7650   7.9072   7.9095
     9.4550   9.4646  10.5092  10.5615  10.6982  10.7406  11.7183  11.8128
    11.8282  11.9046  12.1656  12.1796  12.3382  12.3630  12.9758  13.0142
    13.1647  13.2809  13.3340  13.3870  13.6056  13.6503  13.7653  13.7847
    14.7005  14.9714  15.1096  15.1581  15.2347  15.6023  15.6196  15.9164
    15.9788  16.8063  17.1553  17.2391  17.7120

          k = 0.1667 0.3181 0.1666 ( 62747 PWs)   bands (ev):

   -66.2342 -66.2340 -66.2334 -66.2334 -66.2332 -66.2332 -66.2327 -66.2325
   -30.6242 -30.6216 -30.6214 -30.6188 -30.5941 -30.5914 -30.5910 -30.5881
   -30.5683 -30.5680 -30.5664 -30.5657 -30.5638 -30.5628 -30.5623 -30.5614
   -30.4866 -30.4864 -30.4852 -30.4849 -30.4829 -30.4827 -30.4813 -30.4810
   -20.3898 -20.3897 -20.3897 -20.3897 -20.3897 -20.3897 -20.3897 -20.3896
   -20.3786 -20.3784 -20.3784 -20.3783 -20.3757 -20.3756 -20.3755 -20.3754
   -20.3701 -20.3699 -20.3698 -20.3696 -20.3695 -20.3694 -20.3692 -20.3690
   -20.3687 -20.3684 -20.3684 -20.3684 -20.3678 -20.3677 -20.3676 -20.3674
   -20.3631 -20.3630 -20.3629 -20.3628 -20.3623 -20.3622 -20.3620 -20.3620
   -20.3552 -20.3552 -20.3547 -20.3547 -20.3541 -20.3541 -20.3536 -20.3536
   -20.3494 -20.3494 -20.3492 -20.3492 -20.3484 -20.3484 -20.3482 -20.3481
    -9.8409  -9.6818  -9.4548  -9.4545  -9.3045  -9.3035  -9.0385  -9.0305
    -8.9475  -8.7812  -8.7811  -8.7777  -8.3063  -8.2571  -8.2565  -8.2365
    -7.9660  -7.9659  -7.9520  -7.9517  -7.8987  -7.8846  -7.8583  -7.8474
     1.3341   1.3344   1.4435   1.4454   1.4526   1.4550   1.6902   1.7411
     2.2266   2.3486   2.3506   2.4974   2.5551   2.6075   2.8421   2.8453
     2.9241   2.9347   3.5467   3.5508   3.5615   3.6003   4.0162   4.3245
     4.3276   4.3717   4.3741   4.4446   4.4494   4.6231   4.6342   4.7203
     4.7671   4.7702   5.0341   5.0615   5.2707   5.2995   5.3218   5.3234
     5.5458   5.5699   5.6217   5.6230   5.6957   5.6969   6.3138   6.3237
     6.3495   6.4297   6.4500   6.5281   6.5797   6.6259   6.7549   6.7603
     6.8338   6.8366   6.8906   6.9051   6.9745   6.9907   6.9930   7.0360
     7.1635   7.2075   7.7204   7.7292   7.7298   7.7550   7.8850   7.8906
     9.7131   9.7292  10.6683  10.7233  10.7404  10.7487  11.7950  11.8406
    11.8993  11.9015  12.2128  12.2143  12.2431  12.2441  12.9585  13.0206
    13.1277  13.1540  13.1737  13.3626  13.5886  13.6003  13.6048  13.6969
    14.8673  15.2087  15.2226  15.2462  15.2554  15.6700  15.9535  15.9560
    16.0414  16.7706  17.2197  17.3118  17.3124

          k = 0.1667 0.3181 0.3333 ( 62729 PWs)   bands (ev):

   -66.2340 -66.2338 -66.2336 -66.2334 -66.2333 -66.2331 -66.2328 -66.2326
   -30.6240 -30.6223 -30.6212 -30.6196 -30.5938 -30.5921 -30.5908 -30.5889
   -30.5669 -30.5651 -30.5644 -30.5624 -30.5503 -30.5491 -30.5462 -30.5450
   -30.5037 -30.5023 -30.4999 -30.4985 -30.4855 -30.4841 -30.4834 -30.4819
   -20.3898 -20.3897 -20.3897 -20.3897 -20.3897 -20.3897 -20.3897 -20.3896
   -20.3786 -20.3785 -20.3784 -20.3783 -20.3757 -20.3756 -20.3756 -20.3754
   -20.3701 -20.3700 -20.3698 -20.3697 -20.3692 -20.3692 -20.3688 -20.3688
   -20.3687 -20.3686 -20.3683 -20.3682 -20.3680 -20.3679 -20.3678 -20.3676
   -20.3631 -20.3630 -20.3629 -20.3629 -20.3623 -20.3622 -20.3621 -20.3620
   -20.3545 -20.3545 -20.3540 -20.3540 -20.3538 -20.3538 -20.3529 -20.3529
   -20.3507 -20.3506 -20.3496 -20.3496 -20.3490 -20.3490 -20.3484 -20.3484
    -9.7165  -9.5482  -9.5018  -9.3441  -9.2648  -9.0571  -8.9829  -8.9264
    -8.9023  -8.7934  -8.7463  -8.7143  -8.3745  -8.3372  -8.2622  -8.2487
    -8.2460  -8.1941  -8.1859  -8.1300  -7.9458  -7.9326  -7.8927  -7.8807
     1.4557   1.4622   1.4662   1.4703   2.0606   2.1392   2.1434   2.2390
     2.2965   2.3520   2.3752   2.5590   2.8115   2.8516   2.8753   2.9271
     3.0788   3.1390   3.5255   3.5394   3.5848   3.6207   3.8033   3.8633
     4.0010   4.1960   4.2724   4.2961   4.3561   4.4773   4.5063   4.5545
     4.5917   4.6820   4.7189   4.7637   4.8192   4.8474   5.0433   5.0624
     5.2149   5.2300   5.3543   5.5189   5.6511   5.7066   6.0333   6.0517
     6.4367   6.5439   6.5540   6.6686   6.7142   6.7298   6.8376   6.8492
     6.8762   6.9284   6.9438   6.9776   7.0163   7.0703   7.0998   7.1638
     7.2077   7.2578   7.6416   7.6503   7.7115   7.7361   7.7827   7.8093
    10.3338  10.3604  10.7191  10.7355  11.1991  11.2246  11.7607  11.7811
    11.8189  11.9513  12.1127  12.1365  12.3774  12.4535  12.5752  12.6199
    12.8534  12.9987  13.0594  13.2388  13.2546  13.2870  13.6019  13.6383
    15.0612  15.1974  15.5320  15.8104  15.8216  15.8748  15.9189  16.4963
    16.6442  16.7207  16.8633  17.4389  17.5084

          k = 0.1667 0.3181-0.4999 ( 62726 PWs)   bands (ev):

   -66.2338 -66.2338 -66.2336 -66.2336 -66.2331 -66.2331 -66.2328 -66.2328
   -30.6232 -30.6232 -30.6205 -30.6205 -30.5930 -30.5930 -30.5899 -30.5899
   -30.5657 -30.5657 -30.5636 -30.5636 -30.5270 -30.5270 -30.5257 -30.5257
   -30.5230 -30.5230 -30.5217 -30.5217 -30.4845 -30.4845 -30.4830 -30.4830
   -20.3897 -20.3897 -20.3897 -20.3897 -20.3897 -20.3897 -20.3897 -20.3897
   -20.3786 -20.3786 -20.3784 -20.3784 -20.3757 -20.3757 -20.3755 -20.3755
   -20.3700 -20.3700 -20.3698 -20.3698 -20.3690 -20.3690 -20.3689 -20.3689
   -20.3684 -20.3684 -20.3682 -20.3682 -20.3681 -20.3681 -20.3679 -20.3679
   -20.3630 -20.3630 -20.3629 -20.3629 -20.3622 -20.3622 -20.3621 -20.3621
   -20.3542 -20.3542 -20.3542 -20.3541 -20.3523 -20.3523 -20.3523 -20.3523
   -20.3513 -20.3513 -20.3513 -20.3513 -20.3487 -20.3487 -20.3487 -20.3487
    -9.5891  -9.5891  -9.4221  -9.4221  -9.0753  -9.0753  -8.8237  -8.8237
    -8.7001  -8.7000  -8.6476  -8.6475  -8.5795  -8.5794  -8.5218  -8.5218
    -8.2467  -8.2467  -8.2171  -8.2171  -7.9194  -7.9194  -7.9067  -7.9067
     1.4672   1.4672   1.4779   1.4779   2.2310   2.2310   2.3447   2.3447
     2.8473   2.8473   2.9508   2.9508   2.9916   2.9917   3.1238   3.1239
     3.1716   3.1716   3.3249   3.3249   3.3595   3.3595   3.5609   3.5609
     3.9796   3.9796   4.0109   4.0109   4.0190   4.0190   4.2695   4.2695
     4.6375   4.6375   4.7117   4.7117   4.8894   4.8894   4.9142   4.9142
     5.0094   5.0094   5.4250   5.4250   5.7556   5.7556   5.7714   5.7714
     6.5733   6.5734   6.6947   6.6947   6.7362   6.7362   6.7650   6.7650
     6.9002   6.9002   6.9539   6.9539   7.0860   7.0860   7.4368   7.4368
     7.4763   7.4763   7.5075   7.5075   7.5493   7.5493   7.7506   7.7506
    10.7064  10.7064  11.0939  11.0939  11.1368  11.1368  11.7069  11.7069
    11.9159  11.9159  12.0557  12.0558  12.4878  12.4878  12.5456  12.5456
    12.7186  12.7186  12.8329  12.8329  13.1998  13.1998  13.6146  13.6146
    15.1479  15.1479  15.7495  15.7495  16.2420  16.2420  16.3597  16.3597
    16.7654  16.7654  17.0903  17.0903  17.7154

          k = 0.1667-0.4772 0.0000 ( 62746 PWs)   bands (ev):

   -66.2341 -66.2341 -66.2334 -66.2334 -66.2333 -66.2333 -66.2325 -66.2325
   -30.6090 -30.6090 -30.6061 -30.6061 -30.6060 -30.6060 -30.6032 -30.6032
   -30.5739 -30.5739 -30.5695 -30.5695 -30.5670 -30.5670 -30.5623 -30.5623
   -30.4859 -30.4859 -30.4817 -30.4816 -30.4795 -30.4795 -30.4758 -30.4758
   -20.3898 -20.3898 -20.3897 -20.3897 -20.3897 -20.3897 -20.3896 -20.3896
   -20.3772 -20.3772 -20.3770 -20.3770 -20.3770 -20.3770 -20.3768 -20.3768
   -20.3699 -20.3698 -20.3697 -20.3697 -20.3694 -20.3694 -20.3694 -20.3694
   -20.3686 -20.3686 -20.3684 -20.3684 -20.3677 -20.3677 -20.3675 -20.3675
   -20.3631 -20.3631 -20.3628 -20.3628 -20.3622 -20.3622 -20.3620 -20.3620
   -20.3557 -20.3556 -20.3548 -20.3548 -20.3545 -20.3545 -20.3535 -20.3535
   -20.3493 -20.3493 -20.3490 -20.3490 -20.3481 -20.3481 -20.3479 -20.3479
    -9.8049  -9.8049  -9.4450  -9.4450  -9.3468  -9.3468  -9.0701  -9.0701
    -8.6274  -8.6273  -8.5599  -8.5599  -8.5478  -8.5478  -8.5437  -8.5436
    -7.9663  -7.9663  -7.8666  -7.8666  -7.8386  -7.8386  -7.7459  -7.7459
     1.1615   1.1615   1.1932   1.1932   1.4484   1.4484   1.6456   1.6456
     2.4888   2.4888   3.0504   3.0504   3.0836   3.0836   3.1328   3.1328
     3.1459   3.1460   3.1848   3.1848   3.3343   3.3343   3.3932   3.3932
     3.5613   3.5613   4.3339   4.3339   4.7439   4.7439   4.8844   4.8845
     5.0204   5.0204   5.0985   5.0985   5.2383   5.2383   5.3927   5.3927
     5.6221   5.6221   5.6444   5.6444   5.9954   5.9954   6.0871   6.0871
     6.3268   6.3268   6.3668   6.3668   6.6262   6.6262   6.8108   6.8108
     6.9206   6.9206   7.0026   7.0026   7.0595   7.0595   7.3652   7.3652
     7.3863   7.3863   7.4013   7.4013   7.4174   7.4174   7.9079   7.9079
     9.4606   9.4606  11.1349  11.1349  11.2009  11.2009  11.2685  11.2685
    11.3380  11.3380  12.1736  12.1736  12.3516  12.3516  13.0150  13.0150
    13.3291  13.3291  13.4374  13.4374  13.5176  13.5176  13.5535  13.5535
    15.0837  15.0837  15.3559  15.3559  15.3903  15.3903  15.7170  15.7170
    16.4750  16.4750  17.7211  17.7211  17.8002

          k = 0.1667-0.4772 0.1666 ( 62738 PWs)   bands (ev):

   -66.2341 -66.2341 -66.2333 -66.2333 -66.2333 -66.2333 -66.2326 -66.2326
   -30.6090 -30.6090 -30.6064 -30.6063 -30.6061 -30.6061 -30.6035 -30.6035
   -30.5679 -30.5679 -30.5664 -30.5664 -30.5630 -30.5630 -30.5625 -30.5624
   -30.4859 -30.4859 -30.4856 -30.4856 -30.4824 -30.4824 -30.4815 -30.4815
   -20.3898 -20.3898 -20.3897 -20.3897 -20.3897 -20.3897 -20.3896 -20.3896
   -20.3772 -20.3772 -20.3770 -20.3770 -20.3770 -20.3770 -20.3768 -20.3768
   -20.3699 -20.3699 -20.3697 -20.3697 -20.3694 -20.3694 -20.3692 -20.3692
   -20.3685 -20.3685 -20.3685 -20.3685 -20.3678 -20.3677 -20.3676 -20.3676
   -20.3631 -20.3631 -20.3629 -20.3629 -20.3622 -20.3622 -20.3620 -20.3620
   -20.3552 -20.3552 -20.3547 -20.3547 -20.3541 -20.3541 -20.3536 -20.3536
   -20.3494 -20.3494 -20.3492 -20.3492 -20.3484 -20.3484 -20.3482 -20.3482
    -9.7499  -9.7499  -9.3615  -9.3614  -9.3608  -9.3607  -9.0345  -9.0345
    -8.6356  -8.6356  -8.5536  -8.5532  -8.5531  -8.5529  -8.5416  -8.5415
    -7.9603  -7.9601  -7.9586  -7.9584  -7.8923  -7.8923  -7.8529  -7.8529
     1.3341   1.3343   1.4501   1.4506   1.4526   1.4530   1.7304   1.7305
     2.5777   2.5778   3.0589   3.0605   3.0841   3.0899   3.1294   3.1295
     3.1480   3.1482   3.2247   3.2276   3.3862   3.3891   3.3893   3.3940
     3.5816   3.5820   4.3780   4.3809   4.4183   4.4216   4.8374   4.8407
     4.9057   4.9073   5.0073   5.0105   5.0476   5.0505   5.3442   5.3451
[...]
    11.8745  11.8745  11.8745  11.8745  12.0451  12.0451  12.0451  12.0451
    12.9047  12.9047  12.9047  12.9047  13.0660  13.0660  13.0660  13.0660
    15.2040  15.2040  15.2040  15.2040  16.6113  16.6113  16.6113  16.6113
    17.5575  17.5575  17.5575  17.5575  17.7721

          k =-0.5000 0.3181 0.0000 ( 62742 PWs)   bands (ev):

   -66.2339 -66.2339 -66.2337 -66.2337 -66.2330 -66.2330 -66.2328 -66.2328
   -30.6231 -30.6231 -30.6202 -30.6202 -30.5926 -30.5926 -30.5897 -30.5897
   -30.5723 -30.5723 -30.5709 -30.5709 -30.5271 -30.5271 -30.5256 -30.5256
   -30.5226 -30.5226 -30.5211 -30.5211 -30.4784 -30.4784 -30.4770 -30.4770
   -20.3898 -20.3898 -20.3897 -20.3897 -20.3897 -20.3897 -20.3896 -20.3896
   -20.3786 -20.3786 -20.3784 -20.3784 -20.3757 -20.3757 -20.3755 -20.3755
   -20.3697 -20.3697 -20.3696 -20.3696 -20.3692 -20.3692 -20.3690 -20.3690
   -20.3690 -20.3690 -20.3689 -20.3688 -20.3677 -20.3677 -20.3674 -20.3674
   -20.3627 -20.3627 -20.3625 -20.3625 -20.3624 -20.3624 -20.3623 -20.3623
   -20.3551 -20.3551 -20.3551 -20.3551 -20.3521 -20.3521 -20.3521 -20.3521
   -20.3509 -20.3509 -20.3509 -20.3509 -20.3485 -20.3485 -20.3484 -20.3484
    -9.6579  -9.6579  -9.5045  -9.5045  -9.0618  -9.0618  -8.8451  -8.8451
    -8.6829  -8.6829  -8.6570  -8.6570  -8.5864  -8.5864  -8.5178  -8.5178
    -8.2483  -8.2483  -8.2122  -8.2122  -7.7979  -7.7979  -7.7859  -7.7859
     1.2109   1.2109   1.2158   1.2158   2.2280   2.2280   2.3632   2.3632
     2.7761   2.7761   2.9327   2.9327   2.9927   2.9927   3.1386   3.1386
     3.1785   3.1785   3.2427   3.2427   3.2565   3.2566   3.5168   3.5168
     3.9739   3.9739   3.9962   3.9962   4.0444   4.0444   4.2647   4.2647
     4.7215   4.7215   4.8238   4.8238   5.0049   5.0049   5.1484   5.1484
     5.2832   5.2832   5.6362   5.6362   6.1477   6.1477   6.1967   6.1967
     6.3648   6.3648   6.4371   6.4371   6.4530   6.4530   6.6897   6.6897
     6.9105   6.9105   6.9485   6.9485   7.0155   7.0155   7.4357   7.4357
     7.4690   7.4690   7.4963   7.4963   7.5389   7.5389   7.7726   7.7726
    10.5349  10.5349  11.0139  11.0139  11.0483  11.0483  11.6357  11.6357
    11.9075  11.9075  12.0218  12.0218  12.5093  12.5093  12.5819  12.5819
    12.7967  12.7967  12.9051  12.9051  13.3762  13.3762  13.7756  13.7756
    14.8953  14.8953  15.4325  15.4325  16.1734  16.1734  16.3688  16.3688
    16.6939  16.6939  17.0450  17.0450  17.8470

          k =-0.5000 0.3181 0.1666 ( 62730 PWs)   bands (ev):

   -66.2338 -66.2338 -66.2336 -66.2336 -66.2331 -66.2331 -66.2329 -66.2328
   -30.6231 -30.6231 -30.6205 -30.6205 -30.5928 -30.5928 -30.5900 -30.5900
   -30.5657 -30.5657 -30.5645 -30.5645 -30.5268 -30.5268 -30.5253 -30.5253
   -30.5229 -30.5229 -30.5214 -30.5214 -30.4846 -30.4846 -30.4833 -30.4833
   -20.3898 -20.3898 -20.3897 -20.3897 -20.3897 -20.3897 -20.3896 -20.3896
   -20.3786 -20.3786 -20.3784 -20.3784 -20.3757 -20.3757 -20.3755 -20.3755
   -20.3696 -20.3696 -20.3696 -20.3695 -20.3692 -20.3692 -20.3690 -20.3690
   -20.3689 -20.3689 -20.3687 -20.3687 -20.3678 -20.3678 -20.3675 -20.3675
   -20.3627 -20.3626 -20.3625 -20.3625 -20.3625 -20.3625 -20.3624 -20.3624
   -20.3547 -20.3547 -20.3547 -20.3547 -20.3520 -20.3520 -20.3520 -20.3520
   -20.3509 -20.3509 -20.3509 -20.3509 -20.3489 -20.3489 -20.3489 -20.3489
    -9.5894  -9.5894  -9.4230  -9.4230  -9.0755  -9.0755  -8.8241  -8.8241
    -8.6993  -8.6993  -8.6472  -8.6472  -8.5788  -8.5788  -8.5215  -8.5215
    -8.2462  -8.2462  -8.2171  -8.2171  -7.9196  -7.9196  -7.9069  -7.9069
     1.4650   1.4650   1.4754   1.4754   2.2305   2.2305   2.3445   2.3445
     2.8517   2.8517   2.9484   2.9484   2.9887   2.9887   3.1248   3.1248
     3.1723   3.1723   3.3304   3.3304   3.3571   3.3571   3.5595   3.5595
     3.9763   3.9763   3.9949   3.9949   4.0401   4.0401   4.2727   4.2727
     4.6360   4.6360   4.7083   4.7083   4.8889   4.8889   4.9156   4.9156
     5.0101   5.0101   5.4252   5.4252   5.7550   5.7550   5.7714   5.7714
     6.5741   6.5741   6.6976   6.6976   6.7374   6.7374   6.7656   6.7656
     6.8971   6.8971   6.9538   6.9538   7.0846   7.0846   7.4356   7.4356
     7.4728   7.4728   7.5126   7.5126   7.5501   7.5501   7.7518   7.7518
    10.7051  10.7051  11.0942  11.0942  11.1352  11.1352  11.6968  11.6968
    11.9162  11.9162  12.0577  12.0577  12.4877  12.4877  12.5524  12.5524
    12.7196  12.7196  12.8369  12.8369  13.2004  13.2004  13.6185  13.6185
    15.1473  15.1473  15.7471  15.7471  16.2417  16.2417  16.3590  16.3590
    16.7594  16.7594  17.0906  17.0906  17.7127

          k =-0.5000 0.3181 0.3333 ( 62748 PWs)   bands (ev):

   -66.2337 -66.2337 -66.2334 -66.2334 -66.2332 -66.2332 -66.2330 -66.2330
   -30.6229 -30.6229 -30.6213 -30.6213 -30.5925 -30.5925 -30.5908 -30.5908
   -30.5485 -30.5485 -30.5472 -30.5472 -30.5260 -30.5260 -30.5245 -30.5245
   -30.5236 -30.5236 -30.5223 -30.5222 -30.5017 -30.5016 -30.5003 -30.5003
   -20.3897 -20.3897 -20.3897 -20.3897 -20.3897 -20.3897 -20.3897 -20.3897
   -20.3786 -20.3786 -20.3785 -20.3785 -20.3757 -20.3757 -20.3756 -20.3756
   -20.3696 -20.3696 -20.3695 -20.3695 -20.3693 -20.3693 -20.3691 -20.3691
   -20.3687 -20.3686 -20.3684 -20.3684 -20.3680 -20.3680 -20.3677 -20.3677
   -20.3626 -20.3626 -20.3625 -20.3625 -20.3625 -20.3625 -20.3624 -20.3624
   -20.3535 -20.3535 -20.3535 -20.3535 -20.3518 -20.3518 -20.3518 -20.3518
   -20.3512 -20.3512 -20.3512 -20.3512 -20.3501 -20.3501 -20.3501 -20.3501
    -9.4153  -9.4153  -9.1999  -9.1999  -9.1239  -9.1239  -8.7674  -8.7674
    -8.7350  -8.7350  -8.6133  -8.6133  -8.5605  -8.5605  -8.5305  -8.5305
    -8.2755  -8.2755  -8.2315  -8.2315  -8.2118  -8.2118  -8.1591  -8.1591
     2.0866   2.0866   2.1642   2.1642   2.2387   2.2387   2.3619   2.3619
     2.9265   2.9265   2.9822   2.9822   3.0512   3.0512   3.1181   3.1181
     3.1938   3.1938   3.4929   3.4929   3.6118   3.6118   3.6803   3.6803
     3.9624   3.9624   4.0012   4.0012   4.0362   4.0362   4.1616   4.1616
     4.2308   4.2308   4.3729   4.3729   4.5184   4.5184   4.7533   4.7533
     4.8488   4.8488   4.9066   4.9066   4.9399   4.9399   5.1933   5.1933
     6.7638   6.7638   6.8123   6.8123   6.8634   6.8634   6.9252   6.9252
     7.0771   7.0771   7.1671   7.1671   7.3027   7.3027   7.4187   7.4187
     7.4589   7.4589   7.5447   7.5447   7.5601   7.5601   7.6937   7.6937
    11.1428  11.1428  11.3480  11.3480  11.4299  11.4299  11.7874  11.7874
    11.9497  11.9497  12.2135  12.2135  12.2664  12.2665  12.3069  12.3069
    12.6172  12.6172  12.6982  12.6982  12.7702  12.7702  13.2085  13.2085
    15.7410  15.7410  16.2934  16.2934  16.4589  16.4589  16.5797  16.5797
    17.0103  17.0103  17.1761  17.1761  17.4225

          k =-0.5000 0.3181-0.4999 ( 62772 PWs)   bands (ev):

   -66.2334 -66.2334 -66.2334 -66.2334 -66.2332 -66.2332 -66.2332 -66.2332
   -30.6222 -30.6222 -30.6222 -30.6222 -30.5917 -30.5917 -30.5917 -30.5917
   -30.5265 -30.5265 -30.5265 -30.5265 -30.5252 -30.5252 -30.5252 -30.5251
   -30.5233 -30.5233 -30.5233 -30.5233 -30.5220 -30.5220 -30.5220 -30.5220
   -20.3897 -20.3897 -20.3897 -20.3897 -20.3897 -20.3897 -20.3897 -20.3897
   -20.3785 -20.3785 -20.3785 -20.3785 -20.3757 -20.3757 -20.3757 -20.3757
   -20.3695 -20.3695 -20.3695 -20.3695 -20.3692 -20.3692 -20.3692 -20.3692
   -20.3683 -20.3683 -20.3683 -20.3683 -20.3681 -20.3680 -20.3680 -20.3680
   -20.3626 -20.3626 -20.3626 -20.3626 -20.3625 -20.3625 -20.3625 -20.3625
   -20.3519 -20.3519 -20.3519 -20.3519 -20.3519 -20.3519 -20.3519 -20.3519
   -20.3514 -20.3514 -20.3514 -20.3514 -20.3514 -20.3514 -20.3514 -20.3514
    -9.2326  -9.2326  -9.2326  -9.2326  -8.9240  -8.9240  -8.9239  -8.9239
    -8.5941  -8.5941  -8.5941  -8.5941  -8.5007  -8.5007  -8.5007  -8.5007
    -8.4849  -8.4849  -8.4848  -8.4848  -8.2179  -8.2179  -8.2179  -8.2179
     2.2433   2.2433   2.2433   2.2433   2.8717   2.8717   2.8717   2.8717
     2.9713   2.9713   2.9713   2.9713   3.0942   3.0942   3.0942   3.0942
     3.1603   3.1603   3.1603   3.1603   3.8876   3.8876   3.8876   3.8876
     3.9237   3.9237   3.9237   3.9237   3.9874   3.9874   3.9874   3.9874
     4.1949   4.1949   4.1949   4.1949   4.2277   4.2277   4.2277   4.2277
     4.6303   4.6303   4.6303   4.6303   4.9375   4.9375   4.9375   4.9375
     6.8243   6.8243   6.8243   6.8243   6.8958   6.8958   6.8958   6.8958
     7.3193   7.3193   7.3193   7.3193   7.3773   7.3773   7.3773   7.3773
     7.4975   7.4975   7.4975   7.4975   7.6122   7.6122   7.6123   7.6123
    11.6540  11.6540  11.6540  11.6540  11.6926  11.6926  11.6926  11.6926
    11.9420  11.9420  11.9420  11.9420  12.1492  12.1492  12.1492  12.1492
    12.5844  12.5844  12.5844  12.5844  12.7621  12.7621  12.7621  12.7621
    16.1494  16.1494  16.1494  16.1494  16.8051  16.8051  16.8051  16.8051
    17.3139  17.3139  17.3140  17.3140  17.7648

          k =-0.5000-0.4772 0.0000 ( 62732 PWs)   bands (ev):

   -66.2338 -66.2338 -66.2338 -66.2338 -66.2329 -66.2329 -66.2329 -66.2329
   -30.6079 -30.6079 -30.6077 -30.6077 -30.6051 -30.6051 -30.6049 -30.6049
   -30.5717 -30.5717 -30.5717 -30.5717 -30.5265 -30.5265 -30.5263 -30.5263
   -30.5220 -30.5220 -30.5217 -30.5217 -30.4777 -30.4777 -30.4777 -30.4777
   -20.3897 -20.3897 -20.3897 -20.3897 -20.3897 -20.3897 -20.3897 -20.3897
   -20.3772 -20.3772 -20.3771 -20.3771 -20.3770 -20.3770 -20.3769 -20.3769
   -20.3695 -20.3695 -20.3695 -20.3695 -20.3691 -20.3691 -20.3691 -20.3691
   -20.3690 -20.3690 -20.3690 -20.3690 -20.3676 -20.3676 -20.3676 -20.3676
   -20.3626 -20.3626 -20.3626 -20.3626 -20.3624 -20.3624 -20.3624 -20.3624
   -20.3551 -20.3551 -20.3551 -20.3551 -20.3521 -20.3521 -20.3521 -20.3521
   -20.3509 -20.3509 -20.3509 -20.3509 -20.3485 -20.3485 -20.3485 -20.3484
    -9.5677  -9.5677  -9.5660  -9.5660  -8.8266  -8.8266  -8.8186  -8.8186
    -8.7122  -8.7122  -8.7060  -8.7059  -8.4929  -8.4929  -8.4803  -8.4803
    -8.4403  -8.4403  -8.4283  -8.4283  -7.7920  -7.7920  -7.7919  -7.7919
     1.2138   1.2138   1.2154   1.2154   2.8799   2.8799   2.9168   2.9168
     3.0206   3.0206   3.0397   3.0397   3.0751   3.0751   3.0821   3.0821
     3.1994   3.1994   3.2093   3.2093   3.2927   3.2927   3.3375   3.3375
     3.4190   3.4190   3.5196   3.5196   4.2137   4.2137   4.2343   4.2343
     4.3077   4.3077   4.3404   4.3404   5.0902   5.0902   5.1032   5.1032
     5.3810   5.3810   5.3981   5.3981   6.1880   6.1880   6.1914   6.1914
     6.4307   6.4307   6.4323   6.4323   6.5502   6.5502   6.5660   6.5660
     7.2059   7.2059   7.2258   7.2259   7.2450   7.2450   7.3115   7.3115
     7.3356   7.3356   7.3757   7.3757   7.5485   7.5485   7.5495   7.5495
    11.0087  11.0087  11.0175  11.0175  11.1788  11.1788  11.1898  11.1898
    12.1697  12.1697  12.2059  12.2059  12.2255  12.2255  12.2485  12.2485
    12.8262  12.8262  12.8274  12.8274  13.5345  13.5345  13.5439  13.5439
    15.2467  15.2467  15.2494  15.2494  16.6377  16.6377  16.6703  16.6703
    17.2645  17.2645  17.2903  17.2904  17.3761

          k =-0.5000-0.4772 0.1666 ( 62712 PWs)   bands (ev):

   -66.2337 -66.2337 -66.2337 -66.2337 -66.2330 -66.2330 -66.2330 -66.2329
   -30.6080 -30.6080 -30.6078 -30.6078 -30.6054 -30.6054 -30.6052 -30.6052
   -30.5652 -30.5652 -30.5652 -30.5652 -30.5262 -30.5262 -30.5260 -30.5260
   -30.5223 -30.5223 -30.5220 -30.5220 -30.4840 -30.4840 -30.4839 -30.4839
   -20.3897 -20.3897 -20.3897 -20.3897 -20.3897 -20.3897 -20.3897 -20.3897
   -20.3772 -20.3772 -20.3771 -20.3771 -20.3770 -20.3770 -20.3770 -20.3770
   -20.3695 -20.3695 -20.3695 -20.3695 -20.3691 -20.3691 -20.3691 -20.3691
   -20.3689 -20.3689 -20.3689 -20.3689 -20.3677 -20.3677 -20.3677 -20.3677
   -20.3626 -20.3626 -20.3626 -20.3626 -20.3624 -20.3624 -20.3624 -20.3624
   -20.3547 -20.3547 -20.3547 -20.3547 -20.3520 -20.3520 -20.3520 -20.3520
   -20.3510 -20.3509 -20.3509 -20.3509 -20.3489 -20.3489 -20.3489 -20.3489
    -9.4907  -9.4907  -9.4888  -9.4888  -8.8434  -8.8433  -8.8354  -8.8354
    -8.6969  -8.6969  -8.6897  -8.6897  -8.4907  -8.4906  -8.4778  -8.4778
    -8.4426  -8.4426  -8.4308  -8.4308  -7.9137  -7.9137  -7.9133  -7.9133
     1.4719   1.4719   1.4741   1.4741   2.8817   2.8817   2.9164   2.9164
     3.0032   3.0032   3.0149   3.0149   3.0929   3.0929   3.1375   3.1375
     3.1980   3.1980   3.2802   3.2802   3.3587   3.3587   3.3966   3.3966
     3.4566   3.4567   3.5518   3.5518   4.2161   4.2161   4.2358   4.2358
     4.3007   4.3007   4.3333   4.3333   4.7708   4.7708   4.9235   4.9235
     5.0445   5.0446   5.1839   5.1839   5.7564   5.7564   5.7658   5.7658
     6.6610   6.6610   6.7014   6.7014   6.7634   6.7634   6.8031   6.8031
     7.2010   7.2010   7.2126   7.2126   7.2638   7.2638   7.3089   7.3089
     7.3351   7.3351   7.3883   7.3883   7.5461   7.5461   7.5695   7.5695
    11.0723  11.0723  11.1002  11.1002  11.2898  11.2898  11.3423  11.3423
    12.1658  12.1658  12.2082  12.2082  12.2281  12.2281  12.2540  12.2540
    12.6950  12.6950  12.7666  12.7666  13.3469  13.3469  13.3939  13.3939
    15.5407  15.5407  15.5623  15.5623  16.7023  16.7023  16.7356  16.7356
    17.2695  17.2696  17.3040  17.3041  17.3624

          k =-0.5000-0.4772 0.3333 ( 62712 PWs)   bands (ev):

   -66.2336 -66.2336 -66.2335 -66.2335 -66.2331 -66.2331 -66.2331 -66.2331
   -30.6078 -30.6077 -30.6076 -30.6076 -30.6061 -30.6061 -30.6059 -30.6059
   -30.5479 -30.5479 -30.5479 -30.5479 -30.5254 -30.5254 -30.5251 -30.5251
   -30.5231 -30.5231 -30.5229 -30.5229 -30.5010 -30.5010 -30.5010 -30.5010
   -20.3897 -20.3897 -20.3897 -20.3897 -20.3897 -20.3897 -20.3897 -20.3897
   -20.3772 -20.3772 -20.3771 -20.3771 -20.3771 -20.3771 -20.3770 -20.3770
   -20.3694 -20.3694 -20.3694 -20.3694 -20.3692 -20.3692 -20.3692 -20.3691
   -20.3686 -20.3686 -20.3686 -20.3686 -20.3679 -20.3679 -20.3679 -20.3679
   -20.3626 -20.3626 -20.3626 -20.3626 -20.3625 -20.3625 -20.3625 -20.3625
   -20.3535 -20.3535 -20.3535 -20.3535 -20.3518 -20.3518 -20.3518 -20.3518
   -20.3512 -20.3512 -20.3512 -20.3512 -20.3501 -20.3501 -20.3501 -20.3501
    -9.2852  -9.2852  -9.2823  -9.2823  -8.9024  -8.9023  -8.8949  -8.8949
    -8.6410  -8.6410  -8.6341  -8.6341  -8.4844  -8.4844  -8.4738  -8.4738
    -8.4467  -8.4467  -8.4376  -8.4376  -8.2036  -8.2036  -8.2027  -8.2026
     2.1525   2.1525   2.1566   2.1567   2.8870   2.8870   2.9083   2.9083
     2.9883   2.9883   2.9950   2.9950   3.1358   3.1359   3.1610   3.1610
     3.2577   3.2577   3.2850   3.2850   3.5117   3.5117   3.5252   3.5252
     3.6658   3.6658   3.7103   3.7103   4.1906   4.1906   4.2071   4.2071
     4.2491   4.2491   4.3001   4.3001   4.3684   4.3684   4.4713   4.4713
     4.5680   4.5680   4.7067   4.7067   4.9470   4.9470   4.9596   4.9596
     6.9412   6.9412   6.9810   6.9810   7.0800   7.0800   7.0892   7.0892
     7.1876   7.1877   7.2181   7.2181   7.2450   7.2450   7.2939   7.2939
     7.3946   7.3946   7.4454   7.4454   7.5516   7.5516   7.5733   7.5733
    11.3159  11.3159  11.3474  11.3474  11.6463  11.6463  11.7140  11.7140
    12.1052  12.1052  12.1697  12.1697  12.2301  12.2301  12.2535  12.2535
    12.3984  12.3984  12.5112  12.5112  12.8846  12.8846  12.9601  12.9601
    16.3208  16.3208  16.3740  16.3740  16.8975  16.8975  16.9164  16.9164
    17.2307  17.2309  17.3244  17.3245  17.3421

          k =-0.5000-0.4772-0.4999 ( 62680 PWs)   bands (ev):

   -66.2333 -66.2333 -66.2333 -66.2333 -66.2333 -66.2333 -66.2333 -66.2333
   -30.6070 -30.6070 -30.6070 -30.6070 -30.6068 -30.6068 -30.6068 -30.6068
   -30.5262 -30.5262 -30.5262 -30.5262 -30.5252 -30.5252 -30.5252 -30.5252
   -30.5234 -30.5233 -30.5233 -30.5233 -30.5223 -30.5223 -30.5223 -30.5223
   -20.3897 -20.3897 -20.3897 -20.3897 -20.3897 -20.3897 -20.3897 -20.3897
   -20.3771 -20.3771 -20.3771 -20.3771 -20.3771 -20.3771 -20.3771 -20.3771
   -20.3694 -20.3693 -20.3693 -20.3693 -20.3693 -20.3692 -20.3692 -20.3692
   -20.3683 -20.3683 -20.3683 -20.3683 -20.3682 -20.3682 -20.3682 -20.3682
   -20.3626 -20.3625 -20.3625 -20.3625 -20.3625 -20.3625 -20.3625 -20.3625
   -20.3519 -20.3519 -20.3519 -20.3519 -20.3519 -20.3519 -20.3519 -20.3519
   -20.3514 -20.3514 -20.3514 -20.3514 -20.3514 -20.3514 -20.3514 -20.3514
    -9.0466  -9.0466  -9.0466  -9.0466  -9.0413  -9.0413  -9.0412  -9.0412
    -8.5081  -8.5081  -8.5081  -8.5081  -8.5022  -8.5022  -8.5022  -8.5022
    -8.4477  -8.4477  -8.4476  -8.4476  -8.4407  -8.4407  -8.4406  -8.4406
     2.8787   2.8787   2.8787   2.8787   2.8969   2.8969   2.8970   2.8970
     2.9935   2.9935   2.9935   2.9935   3.0173   3.0173   3.0173   3.0173
     3.3115   3.3115   3.3115   3.3115   3.3533   3.3533   3.3533   3.3533
     4.0575   4.0575   4.0575   4.0575   4.0703   4.0703   4.0703   4.0703
     4.2681   4.2681   4.2681   4.2681   4.2738   4.2738   4.2738   4.2738
     4.3637   4.3637   4.3637   4.3637   4.3760   4.3761   4.3761   4.3761
     7.0930   7.0930   7.0930   7.0930   7.1468   7.1468   7.1468   7.1468
     7.2300   7.2300   7.2300   7.2300   7.2368   7.2368   7.2368   7.2368
     7.5142   7.5142   7.5142   7.5142   7.5280   7.5280   7.5280   7.5280
    11.7232  11.7232  11.7232  11.7232  11.7283  11.7283  11.7283  11.7283
    12.1668  12.1668  12.1668  12.1668  12.2179  12.2179  12.2179  12.2179
    12.4065  12.4065  12.4065  12.4065  12.4308  12.4308  12.4308  12.4308
    16.9825  16.9825  16.9825  16.9826  17.0120  17.0120  17.0120  17.0120
    17.3187  17.3187  17.3188  17.3189  17.3338

     the Fermi energy is     9.4568 ev

!    total energy              =   -6260.89933226 Ry
     Harris-Foulkes estimate   =   -6260.89933226 Ry
     estimated scf accuracy    <          1.6E-09 Ry

     The total energy is the sum of the following terms:

     one-electron contribution =   -4754.08213177 Ry
     hartree contribution      =    2612.97833404 Ry
     xc contribution           =    -966.01159114 Ry
     ewald contribution        =   -3153.78389103 Ry
     smearing contrib. (-TS)   =      -0.00005236 Ry

     convergence has been achieved in  13 iterations

     Writing output data file chempot_3.save/
 
     init_run     :     47.40s CPU     49.72s WALL (       1 calls)
     electrons    :   1881.17s CPU   1915.29s WALL (       1 calls)

     Called by init_run:
     wfcinit      :     44.62s CPU     46.74s WALL (       1 calls)
     potinit      :      1.07s CPU      1.11s WALL (       1 calls)
     hinit0       :      1.50s CPU      1.58s WALL (       1 calls)

     Called by electrons:
     c_bands      :   1677.41s CPU   1709.18s WALL (      13 calls)
     sum_band     :    195.90s CPU    197.33s WALL (      13 calls)
     v_of_rho     :      1.55s CPU      1.63s WALL (      14 calls)
     mix_rho      :      2.71s CPU      3.37s WALL (      13 calls)

     Called by c_bands:
     init_us_2    :      9.14s CPU      9.70s WALL (      54 calls)
     cegterg      :   1473.61s CPU   1503.08s WALL (      26 calls)

     Called by sum_band:

     Called by *egterg:
     h_psi        :   1086.06s CPU   1101.25s WALL (     118 calls)
     g_psi        :      1.65s CPU      1.68s WALL (      90 calls)
     cdiaghg      :     19.84s CPU     19.96s WALL (     116 calls)

     Called by h_psi:
     h_psi:pot    :   1083.20s CPU   1091.85s WALL (     118 calls)
     h_psi:calbec :    171.63s CPU    176.26s WALL (     118 calls)
     vloc_psi     :    734.82s CPU    737.43s WALL (     118 calls)
     add_vuspsi   :    176.75s CPU    178.16s WALL (     118 calls)

     General routines
     calbec       :    171.63s CPU    176.26s WALL (     118 calls)
     fft          :      0.91s CPU      0.92s WALL (      42 calls)
     ffts         :      0.30s CPU      0.31s WALL (      13 calls)
     fftw         :    775.94s CPU    778.17s WALL (   33726 calls)
 
     Parallel routines
 
     PWSCF        :  32m11.43s CPU  32m50.15s WALL

 
   This run was terminated on:  23:58:12  16Dec2019            

=------------------------------------------------------------------------------=
   JOB DONE.
=------------------------------------------------------------------------------=
