
     Program PWSCF v.6.2 (svn rev. 14038) starts on 20Mar2020 at  0: 0:21 

     This program is part of the open-source Quantum ESPRESSO suite
     for quantum simulation of materials; please cite
         "P. Giannozzi et al., J. Phys.:Condens. Matter 21 395502 (2009);
         "P. Giannozzi et al., J. Phys.:Condens. Matter 29 465901 (2017);
          URL http://www.quantum-espresso.org", 
     in publications or presentations arising from this work. More details at
     http://www.quantum-espresso.org/quote

     Parallel version (MPI), running on    40 processors

     MPI processes distributed on     9 nodes
     K-points division:     npool     =      40
     Reading input from rscf.in

     Current dimensions of program PWSCF are:
     Max number of different atomic species (ntypx) = 10
     Max number of k-points (npk) =  40000
     Max angular momentum in pseudopotentials (lmaxx) =  3

     Subspace diagonalization in iterative solution of the eigenvalue problem:
     a serial algorithm will be used

 
     G-vector sticks info
     --------------------
     sticks:   dense  smooth     PW     G-vecs:    dense   smooth      PW
     Sum        7747    7747   2077               498127   498127   69057
 


     bravais-lattice index     =            0
     lattice parameter (alat)  =      13.8397  a.u.
     unit-cell volume          =    2804.9816 (a.u.)^3
     number of atoms/cell      =           32
     number of atomic types    =            2
     number of electrons       =       368.00
     number of Kohn-Sham states=          221
     kinetic-energy cutoff     =     120.0000  Ry
     charge density cutoff     =     480.0000  Ry
     convergence threshold     =      1.0E-08
     mixing beta               =       0.7000
     number of iterations used =            8  plain     mixing
     Exchange-correlation      = SLA PW NOGX NOGC ( 1  4  0  0 0 0)
     nstep                     =           50


     celldm(1)=  13.839685  celldm(2)=   0.000000  celldm(3)=   0.000000
     celldm(4)=   0.000000  celldm(5)=   0.000000  celldm(6)=   0.000000

     crystal axes: (cart. coord. in units of alat)
               a(1) = (   1.000000   0.000000   0.000000 )  
               a(2) = (   0.000000   1.058160   0.000000 )  
               a(3) = (   0.000000   0.000000   1.000000 )  

     reciprocal axes: (cart. coord. in units 2 pi/alat)
               b(1) = (  1.000000  0.000000  0.000000 )  
               b(2) = (  0.000000  0.945037  0.000000 )  
               b(3) = (  0.000000  0.000000  1.000000 )  


     PseudoPot. # 1 for W  read from file:
     /cluster/scratch/mnoe/QE/pps/W_ONCV_LDA-4.0.upf
     MD5 check sum: ba0307d5d4cd419d6f1d13dc49d7c13a
     Pseudo is Norm-conserving + core correction, Zval = 28.0
     Generated using ONCVPSP code by D. R. Hamann
     Using radial grid of 1380 points,  8 beta functions with: 
                l(1) =   0
                l(2) =   0
                l(3) =   1
                l(4) =   1
                l(5) =   2
                l(6) =   2
                l(7) =   3
                l(8) =   3

     PseudoPot. # 2 for O  read from file:
     /cluster/scratch/mnoe/QE/pps/O_ONCV_LDA-3.0.upf
     MD5 check sum: a1bd6164e7280c17a38c229939bfbd54
     Pseudo is Norm-conserving + core correction, Zval =  6.0
     Generated using ONCVPSP code by D. R. Hamann
     Using radial grid of  926 points,  5 beta functions with: 
                l(1) =   0
                l(2) =   0
                l(3) =   1
                l(4) =   1
                l(5) =   2

     atomic species   valence    mass     pseudopotential
        W             28.00   183.84000     W ( 1.00)
        O              6.00    15.99940     O ( 1.00)

      8 Sym. Ops., with inversion, found ( 6 have fractional translation)



   Cartesian axes

     site n.     atom                  positions (alat units)
         1           W   tau(   1) = (   0.2442253   0.2878643   0.0054532  )
         2           W   tau(   2) = (   0.7557746   0.7702958  -0.0054532  )
         3           W   tau(   3) = (   0.2557747   0.2412158   0.5054532  )
         4           W   tau(   4) = (   0.7442252   0.8169444   0.4945468  )
         5           W   tau(   5) = (   0.7557746   0.2878643   0.4945468  )
         6           W   tau(   6) = (   0.2442253   0.7702958   0.5054532  )
         7           W   tau(   7) = (   0.7442252   0.2412158  -0.0054532  )
         8           W   tau(   8) = (   0.2557747   0.8169444   0.0054532  )
         9           O   tau(   9) = (   0.2393464   0.0059737   0.0016950  )
        10           O   tau(  10) = (   0.7606535  -0.0059737  -0.0016950  )
        11           O   tau(  11) = (   0.2606536   0.5231064   0.5016949  )
        12           O   tau(  12) = (   0.7393464   0.5350538   0.4983050  )
        13           O   tau(  13) = (   0.7606535   0.0059737   0.4983050  )
        14           O   tau(  14) = (   0.2393464  -0.0059737   0.5016949  )
        15           O   tau(  15) = (   0.7393464   0.5231064  -0.0016950  )
        16           O   tau(  16) = (   0.2606536   0.5350538   0.0016950  )
        17           O   tau(  17) = (   0.5015795   0.2529762   0.4735462  )
        18           O   tau(  18) = (   0.4984205   0.8051839   0.5264539  )
        19           O   tau(  19) = (  -0.0015795   0.2761038   0.9735463  )
        20           O   tau(  20) = (   0.0015794   0.7820563   0.0264537  )
        21           O   tau(  21) = (   0.4984205   0.2529762   0.0264537  )
        22           O   tau(  22) = (   0.5015795   0.8051839   0.9735463  )
        23           O   tau(  23) = (   0.0015794   0.2761038   0.5264539  )
        24           O   tau(  24) = (  -0.0015795   0.7820563   0.4735462  )
        25           O   tau(  25) = (   0.7235462   0.2620165   0.7476058  )
        26           O   tau(  26) = (   0.2764537   0.7961436   0.2523942  )
        27           O   tau(  27) = (   0.7764539   0.2670635   0.2476059  )
        28           O   tau(  28) = (   0.2235462   0.7910966   0.7523941  )
        29           O   tau(  29) = (   0.2764537   0.2620165   0.7523941  )
        30           O   tau(  30) = (   0.7235462   0.7961436   0.2476059  )
        31           O   tau(  31) = (   0.2235462   0.2670635   0.2523942  )
        32           O   tau(  32) = (   0.7764539   0.7910966   0.7476058  )

     number of k points=    64  gaussian smearing, width (Ry)=  0.0007
                       cart. coord. in units 2pi/alat
        k(    1) = (   0.0000000   0.0000000   0.0000000), wk =   0.0092593
        k(    2) = (   0.0000000   0.0000000   0.1666667), wk =   0.0185185
        k(    3) = (   0.0000000   0.0000000   0.3333333), wk =   0.0185185
        k(    4) = (   0.0000000   0.0000000  -0.5000000), wk =   0.0092593
        k(    5) = (   0.0000000   0.1575061   0.0000000), wk =   0.0185185
        k(    6) = (   0.0000000   0.1575061   0.1666667), wk =   0.0370370
        k(    7) = (   0.0000000   0.1575061   0.3333333), wk =   0.0370370
        k(    8) = (   0.0000000   0.1575061  -0.5000000), wk =   0.0185185
        k(    9) = (   0.0000000   0.3150122   0.0000000), wk =   0.0185185
        k(   10) = (   0.0000000   0.3150122   0.1666667), wk =   0.0370370
        k(   11) = (   0.0000000   0.3150122   0.3333333), wk =   0.0370370
        k(   12) = (   0.0000000   0.3150122  -0.5000000), wk =   0.0185185
        k(   13) = (   0.0000000  -0.4725183   0.0000000), wk =   0.0092593
        k(   14) = (   0.0000000  -0.4725183   0.1666667), wk =   0.0185185
        k(   15) = (   0.0000000  -0.4725183   0.3333333), wk =   0.0185185
        k(   16) = (   0.0000000  -0.4725183  -0.5000000), wk =   0.0092593
        k(   17) = (   0.1666667   0.0000000   0.1666667), wk =   0.0370370
        k(   18) = (   0.1666667   0.0000000   0.3333333), wk =   0.0370370
        k(   19) = (   0.1666667   0.0000000  -0.5000000), wk =   0.0185185
        k(   20) = (   0.1666667   0.1575061   0.1666667), wk =   0.0740741
        k(   21) = (   0.1666667   0.1575061   0.3333333), wk =   0.0740741
        k(   22) = (   0.1666667   0.1575061  -0.5000000), wk =   0.0370370
        k(   23) = (   0.1666667   0.3150122   0.1666667), wk =   0.0740741
        k(   24) = (   0.1666667   0.3150122   0.3333333), wk =   0.0740741
        k(   25) = (   0.1666667   0.3150122  -0.5000000), wk =   0.0370370
        k(   26) = (   0.1666667  -0.4725183   0.1666667), wk =   0.0370370
        k(   27) = (   0.1666667  -0.4725183   0.3333333), wk =   0.0370370
        k(   28) = (   0.1666667  -0.4725183  -0.5000000), wk =   0.0185185
        k(   29) = (   0.3333333   0.0000000   0.3333333), wk =   0.0370370
        k(   30) = (   0.3333333   0.0000000  -0.5000000), wk =   0.0185185
        k(   31) = (   0.3333333   0.1575061   0.3333333), wk =   0.0740741
        k(   32) = (   0.3333333   0.1575061  -0.5000000), wk =   0.0370370
        k(   33) = (   0.3333333   0.3150122   0.3333333), wk =   0.0740741
        k(   34) = (   0.3333333   0.3150122  -0.5000000), wk =   0.0370370
        k(   35) = (   0.3333333  -0.4725183   0.3333333), wk =   0.0370370
        k(   36) = (   0.3333333  -0.4725183  -0.5000000), wk =   0.0185185
        k(   37) = (  -0.5000000   0.0000000  -0.5000000), wk =   0.0092593
        k(   38) = (  -0.5000000   0.1575061  -0.5000000), wk =   0.0185185
        k(   39) = (  -0.5000000   0.3150122  -0.5000000), wk =   0.0185185
        k(   40) = (  -0.5000000  -0.4725183  -0.5000000), wk =   0.0092593
        k(   41) = (   0.1666667   0.0000000   0.0000000), wk =   0.0185185
        k(   42) = (   0.3333333   0.0000000   0.0000000), wk =   0.0185185
        k(   43) = (  -0.5000000   0.0000000   0.0000000), wk =   0.0092593
        k(   44) = (   0.1666667  -0.1575061   0.0000000), wk =   0.0370370
        k(   45) = (   0.3333333  -0.1575061   0.0000000), wk =   0.0370370
        k(   46) = (  -0.5000000  -0.1575061   0.0000000), wk =   0.0185185
        k(   47) = (   0.1666667  -0.3150122   0.0000000), wk =   0.0370370
        k(   48) = (   0.3333333  -0.3150122   0.0000000), wk =   0.0370370
        k(   49) = (  -0.5000000  -0.3150122   0.0000000), wk =   0.0185185
        k(   50) = (   0.1666667   0.4725183   0.0000000), wk =   0.0185185
        k(   51) = (   0.3333333   0.4725183   0.0000000), wk =   0.0185185
        k(   52) = (  -0.5000000   0.4725183   0.0000000), wk =   0.0092593
        k(   53) = (   0.3333333   0.0000000   0.1666667), wk =   0.0370370
        k(   54) = (  -0.5000000   0.0000000   0.1666667), wk =   0.0185185
        k(   55) = (   0.3333333  -0.1575061   0.1666667), wk =   0.0740741
        k(   56) = (  -0.5000000  -0.1575061   0.1666667), wk =   0.0370370
        k(   57) = (   0.3333333  -0.3150122   0.1666667), wk =   0.0740741
        k(   58) = (  -0.5000000  -0.3150122   0.1666667), wk =   0.0370370
        k(   59) = (   0.3333333   0.4725183   0.1666667), wk =   0.0370370
        k(   60) = (  -0.5000000   0.4725183   0.1666667), wk =   0.0185185
        k(   61) = (  -0.5000000   0.0000000   0.3333333), wk =   0.0185185
        k(   62) = (  -0.5000000  -0.1575061   0.3333333), wk =   0.0370370
        k(   63) = (  -0.5000000  -0.3150122   0.3333333), wk =   0.0370370
        k(   64) = (  -0.5000000   0.4725183   0.3333333), wk =   0.0185185

     Dense  grid:   498127 G-vectors     FFT dimensions: ( 100, 108, 100)

     Estimated max dynamical RAM per process >       3.15 GB

     Estimated total dynamical RAM >     125.81 GB

     Initial potential from superposition of free atoms

     starting charge  367.99656, renormalised to  368.00000
     Starting wfc are  232 randomized atomic wfcs

     total cpu time spent up to now is       58.8 secs

     Self-consistent Calculation

     iteration #  1     ecut=   120.00 Ry     beta= 0.70
     Davidson diagonalization with overlap
     ethr =  1.00E-02,  avg # of iterations =  5.1

     total cpu time spent up to now is      219.4 secs

     total energy              =   -6254.04201250 Ry
     Harris-Foulkes estimate   =   -6264.54642315 Ry
     estimated scf accuracy    <      13.33461130 Ry

     iteration #  2     ecut=   120.00 Ry     beta= 0.70
     Davidson diagonalization with overlap
     ethr =  3.62E-03,  avg # of iterations =  3.8

     total cpu time spent up to now is      374.2 secs

     total energy              =   -6251.17004734 Ry
     Harris-Foulkes estimate   =   -6270.29405262 Ry
     estimated scf accuracy    <      50.80271659 Ry

     iteration #  3     ecut=   120.00 Ry     beta= 0.70
     Davidson diagonalization with overlap
     ethr =  3.62E-03,  avg # of iterations =  3.7

     total cpu time spent up to now is      522.1 secs

     total energy              =   -6260.97832715 Ry
     Harris-Foulkes estimate   =   -6261.37889938 Ry
     estimated scf accuracy    <       1.25964521 Ry

     iteration #  4     ecut=   120.00 Ry     beta= 0.70
     Davidson diagonalization with overlap
     ethr =  3.42E-04,  avg # of iterations =  3.8

     total cpu time spent up to now is      649.4 secs

     total energy              =   -6261.02637467 Ry
     Harris-Foulkes estimate   =   -6261.11548191 Ry
     estimated scf accuracy    <       0.30717636 Ry

     iteration #  5     ecut=   120.00 Ry     beta= 0.70
     Davidson diagonalization with overlap
     ethr =  8.35E-05,  avg # of iterations =  3.8

     total cpu time spent up to now is      778.5 secs

     total energy              =   -6261.01098605 Ry
     Harris-Foulkes estimate   =   -6261.05392940 Ry
     estimated scf accuracy    <       0.09257685 Ry

     iteration #  6     ecut=   120.00 Ry     beta= 0.70
     Davidson diagonalization with overlap
     ethr =  2.52E-05,  avg # of iterations =  6.2

     total cpu time spent up to now is      916.7 secs

     total energy              =   -6261.03220084 Ry
     Harris-Foulkes estimate   =   -6261.03387515 Ry
     estimated scf accuracy    <       0.00500349 Ry

     iteration #  7     ecut=   120.00 Ry     beta= 0.70
     Davidson diagonalization with overlap
     ethr =  1.36E-06,  avg # of iterations =  5.6

     total cpu time spent up to now is     1049.7 secs

     total energy              =   -6261.03267536 Ry
     Harris-Foulkes estimate   =   -6261.03279856 Ry
     estimated scf accuracy    <       0.00032259 Ry

     iteration #  8     ecut=   120.00 Ry     beta= 0.70
     Davidson diagonalization with overlap
     ethr =  8.77E-08,  avg # of iterations =  3.1

     total cpu time spent up to now is     1179.9 secs

     total energy              =   -6261.03273134 Ry
     Harris-Foulkes estimate   =   -6261.03274625 Ry
     estimated scf accuracy    <       0.00003067 Ry

     iteration #  9     ecut=   120.00 Ry     beta= 0.70
     Davidson diagonalization with overlap
     ethr =  8.33E-09,  avg # of iterations =  3.1

     total cpu time spent up to now is     1317.4 secs

     total energy              =   -6261.03273943 Ry
     Harris-Foulkes estimate   =   -6261.03274142 Ry
     estimated scf accuracy    <       0.00000697 Ry

     iteration # 10     ecut=   120.00 Ry     beta= 0.70
     Davidson diagonalization with overlap
     ethr =  1.89E-09,  avg # of iterations =  2.0

     total cpu time spent up to now is     1434.8 secs

     total energy              =   -6261.03273932 Ry
     Harris-Foulkes estimate   =   -6261.03274014 Ry
     estimated scf accuracy    <       0.00000184 Ry

     iteration # 11     ecut=   120.00 Ry     beta= 0.70
     Davidson diagonalization with overlap
     ethr =  4.99E-10,  avg # of iterations =  2.6

     total cpu time spent up to now is     1566.4 secs

     total energy              =   -6261.03273968 Ry
     Harris-Foulkes estimate   =   -6261.03273968 Ry
     estimated scf accuracy    <       0.00000002 Ry

     iteration # 12     ecut=   120.00 Ry     beta= 0.70
     Davidson diagonalization with overlap
     ethr =  5.22E-12,  avg # of iterations =  3.0

     total cpu time spent up to now is     1726.4 secs

     total energy              =   -6261.03273968 Ry
     Harris-Foulkes estimate   =   -6261.03273969 Ry
     estimated scf accuracy    <       0.00000001 Ry

     iteration # 13     ecut=   120.00 Ry     beta= 0.70
     Davidson diagonalization with overlap
     ethr =  2.87E-12,  avg # of iterations =  2.0

     total cpu time spent up to now is     1872.2 secs

     End of self-consistent calculation

          k = 0.0000 0.0000 0.0000 ( 62239 PWs)   bands (ev):

   -66.1531 -66.1527 -66.1522 -66.1521 -66.1518 -66.1517 -66.1511 -66.1507
   -30.5966 -30.5950 -30.5915 -30.5899 -30.5899 -30.5875 -30.5868 -30.5844
   -30.4835 -30.4815 -30.4813 -30.4787 -30.4787 -30.4774 -30.4746 -30.4727
   -30.4566 -30.4513 -30.4509 -30.4457 -30.3979 -30.3933 -30.3932 -30.3886
   -20.2988 -20.2988 -20.2987 -20.2987 -20.2987 -20.2986 -20.2986 -20.2985
   -20.2753 -20.2749 -20.2742 -20.2741 -20.2740 -20.2734 -20.2734 -20.2732
   -20.2731 -20.2727 -20.2726 -20.2725 -20.2723 -20.2719 -20.2717 -20.2717
   -20.2716 -20.2714 -20.2711 -20.2704 -20.2678 -20.2674 -20.2673 -20.2671
   -20.2670 -20.2666 -20.2658 -20.2656 -20.2653 -20.2653 -20.2637 -20.2636
   -20.2629 -20.2627 -20.2624 -20.2622 -20.2619 -20.2619 -20.2601 -20.2601
   -20.2566 -20.2564 -20.2560 -20.2559 -20.2551 -20.2549 -20.2542 -20.2542
   -10.1417  -9.9699  -9.7410  -9.7297  -9.6206  -9.6052  -9.3810  -9.3639
    -8.8432  -8.7742  -8.7740  -8.7662  -7.8102  -7.8051  -7.7739  -7.7729
    -7.7271  -7.7248  -7.6995  -7.6959  -7.6176  -7.5586  -7.5562  -7.5030
     0.6530   0.6583   0.8401   0.8407   0.8622   0.8647   1.1127   1.1761
     1.7336   1.7570   1.7621   1.8395   2.0735   2.1557   2.5377   2.5385
     2.6649   2.6673   4.1032   4.1301   4.1318   4.1622   4.3553   4.3637
     4.3958   4.4035   4.9230   5.0985   5.1016   5.1033   5.1386   5.3996
     5.4051   5.5228   5.5531   5.5659   5.5709   5.5711   5.6006   5.6552
     5.8884   5.8961   5.9853   5.9966   6.0945   6.0951   6.1244   6.1701
     6.2121   6.2367   6.3409   6.4175   6.4194   6.6583   6.8633   7.0472
     7.0539   7.0957   7.0994   7.1022   7.1141   7.1260   7.1352   7.1420
     7.1534   7.1673   8.0779   8.0828   8.1850   8.2120   8.2209   8.2463
     9.0873   9.1141   9.5335   9.5388   9.5884   9.5901  12.2845  12.3173
    12.3811  12.4006  12.7374  12.7382  12.7634  12.7739  13.1491  13.2404
    13.2944  13.3272  13.7835  13.8943  13.9069  14.0275  14.2043  14.2243
    14.3062  14.3332  14.4918  14.9055  15.3940  15.4503  15.4614  16.4503
    16.4579  17.1224  17.3809  17.4764  17.4882

          k = 0.0000 0.0000 0.1667 ( 62262 PWs)   bands (ev):

   -66.1531 -66.1527 -66.1522 -66.1521 -66.1518 -66.1517 -66.1512 -66.1508
   -30.5936 -30.5915 -30.5879 -30.5874 -30.5852 -30.5848 -30.5824 -30.5795
   -30.4912 -30.4890 -30.4860 -30.4839 -30.4812 -30.4784 -30.4762 -30.4734
   -30.4562 -30.4511 -30.4508 -30.4460 -30.3975 -30.3934 -30.3930 -30.3889
   -20.2988 -20.2988 -20.2987 -20.2987 -20.2987 -20.2986 -20.2986 -20.2985
   -20.2753 -20.2749 -20.2741 -20.2741 -20.2738 -20.2734 -20.2733 -20.2732
   -20.2731 -20.2728 -20.2725 -20.2724 -20.2723 -20.2720 -20.2718 -20.2717
   -20.2716 -20.2713 -20.2712 -20.2705 -20.2678 -20.2674 -20.2674 -20.2670
   -20.2669 -20.2666 -20.2659 -20.2657 -20.2649 -20.2648 -20.2634 -20.2632
   -20.2626 -20.2625 -20.2625 -20.2623 -20.2617 -20.2617 -20.2603 -20.2602
   -20.2572 -20.2570 -20.2559 -20.2558 -20.2556 -20.2555 -20.2544 -20.2543
   -10.0860  -9.9119  -9.7409  -9.6455  -9.6136  -9.5183  -9.3347  -9.3168
    -8.8539  -8.7805  -8.7651  -8.7607  -7.9580  -7.9383  -7.8840  -7.8696
    -7.8002  -7.7675  -7.7325  -7.7011  -7.6132  -7.5626  -7.5529  -7.5067
     0.7684   0.7724   0.8633   0.8663   1.1344   1.1468   1.2753   1.3728
     1.7291   1.7555   1.7708   1.8759   2.1636   2.2455   2.5464   2.6310
     2.6562   2.7567   4.0031   4.0741   4.1187   4.1306   4.1479   4.1815
     4.4437   4.4692   4.6734   4.7358   4.8993   5.1030   5.1343   5.1932
     5.2891   5.3653   5.4515   5.5116   5.5539   5.5823   5.6642   5.7043
     5.7784   5.9118   5.9161   6.0533   6.0843   6.1025   6.1771   6.1857
     6.2958   6.3294   6.4212   6.5226   6.6547   6.7359   6.8102   6.8701
     6.8730   6.8809   6.9312   6.9383   7.0179   7.0637   7.0653   7.0775
     7.1403   7.1637   8.0284   8.0297   8.1672   8.1995   8.2043   8.2224
     9.4765   9.5001   9.5368   9.5979   9.8733   9.9157  12.3065  12.3580
    12.4003  12.4537  12.5770  12.5934  12.7924  12.8198  13.0141  13.0868
    13.1559  13.2944  13.7689  13.8615  14.0078  14.0263  14.0279  14.0852
    14.3057  14.4830  14.4869  15.0379  15.3647  15.5732  15.6139  16.4343
    16.8544  17.0675  17.2164  17.5599  17.5693

          k = 0.0000 0.0000 0.3333 ( 62268 PWs)   bands (ev):

   -66.1529 -66.1525 -66.1524 -66.1520 -66.1519 -66.1515 -66.1514 -66.1510
   -30.5922 -30.5892 -30.5890 -30.5860 -30.5682 -30.5653 -30.5623 -30.5595
   -30.5121 -30.5097 -30.5066 -30.5043 -30.4802 -30.4774 -30.4774 -30.4746
   -30.4550 -30.4520 -30.4497 -30.4469 -30.3966 -30.3942 -30.3920 -30.3896
   -20.2988 -20.2987 -20.2987 -20.2987 -20.2987 -20.2986 -20.2986 -20.2985
   -20.2752 -20.2750 -20.2739 -20.2738 -20.2735 -20.2734 -20.2734 -20.2732
   -20.2730 -20.2727 -20.2727 -20.2727 -20.2723 -20.2721 -20.2719 -20.2716
   -20.2714 -20.2713 -20.2712 -20.2707 -20.2677 -20.2674 -20.2673 -20.2668
   -20.2668 -20.2667 -20.2662 -20.2660 -20.2640 -20.2637 -20.2628 -20.2626
   -20.2624 -20.2623 -20.2618 -20.2618 -20.2610 -20.2610 -20.2606 -20.2606
   -20.2587 -20.2586 -20.2572 -20.2571 -20.2556 -20.2555 -20.2547 -20.2546
    -9.9603  -9.7893  -9.7769  -9.6405  -9.3825  -9.2253  -9.1751  -9.1387
    -8.8993  -8.8062  -8.7394  -8.7293  -8.3337  -8.3226  -8.2872  -8.2609
    -7.7868  -7.7536  -7.7471  -7.7152  -7.6026  -7.5734  -7.5433  -7.5166
     0.8515   0.8545   0.8658   0.8700   1.6407   1.6516   1.7197   1.7413
     1.9623   2.0703   2.1195   2.2614   2.4277   2.5069   2.5702   2.6340
     2.8896   2.9981   3.4154   3.4916   3.9123   3.9761   4.1303   4.1331
     4.1612   4.2549   4.4521   4.6148   4.6533   4.7458   4.7898   4.8193
     4.8581   5.0781   5.1291   5.2310   5.2791   5.3216   5.6311   5.8174
     5.9396   5.9522   6.0184   6.0577   6.0988   6.1375   6.2037   6.2046
     6.2959   6.3467   6.3787   6.4230   6.4531   6.6117   6.6122   6.7991
     6.8410   6.9773   6.9990   7.0024   7.0515   7.0608   7.1366   7.1564
     7.2397   7.3009   7.8389   7.8517   8.0154   8.0445   8.2227   8.2252
     9.5457   9.5689  10.3129  10.3296  10.6445  10.6682  12.0312  12.0508
    12.1991  12.4011  12.4061  12.5757  12.5886  12.6807  12.9682  12.9980
    13.1440  13.3030  13.5238  13.6006  13.6084  13.7691  14.0237  14.0398
    14.3746  14.4709  14.8107  15.2707  15.3554  15.9109  16.2516  16.3564
    16.4306  17.4816  17.7165  17.7897  17.8501

          k = 0.0000 0.0000-0.5000 ( 62264 PWs)   bands (ev):

   -66.1527 -66.1526 -66.1523 -66.1522 -66.1516 -66.1516 -66.1513 -66.1512
   -30.5906 -30.5906 -30.5876 -30.5876 -30.5403 -30.5403 -30.5377 -30.5377
   -30.5346 -30.5346 -30.5321 -30.5320 -30.4788 -30.4788 -30.4760 -30.4760
   -30.4535 -30.4535 -30.4483 -30.4482 -30.3953 -30.3953 -30.3908 -30.3908
   -20.2988 -20.2987 -20.2987 -20.2987 -20.2986 -20.2986 -20.2986 -20.2986
   -20.2751 -20.2750 -20.2736 -20.2736 -20.2736 -20.2736 -20.2730 -20.2730
   -20.2729 -20.2729 -20.2728 -20.2728 -20.2724 -20.2724 -20.2716 -20.2715
   -20.2714 -20.2714 -20.2709 -20.2709 -20.2676 -20.2675 -20.2671 -20.2671
   -20.2665 -20.2665 -20.2664 -20.2664 -20.2633 -20.2633 -20.2630 -20.2630
   -20.2612 -20.2612 -20.2611 -20.2611 -20.2607 -20.2607 -20.2606 -20.2606
   -20.2592 -20.2592 -20.2592 -20.2592 -20.2552 -20.2551 -20.2551 -20.2550
    -9.8466  -9.8466  -9.6935  -9.6935  -9.0615  -9.0615  -8.9214  -8.9214
    -8.7910  -8.7910  -8.7817  -8.7817  -8.6507  -8.6506  -8.6041  -8.6040
    -7.7671  -7.7671  -7.7345  -7.7344  -7.5881  -7.5881  -7.5300  -7.5300
     0.8659   0.8660   0.8709   0.8709   1.7076   1.7076   1.7203   1.7203
     2.5956   2.5956   2.8262   2.8262   2.9045   2.9045   3.0114   3.0114
     3.0622   3.0622   3.1139   3.1139   3.2594   3.2594   3.6537   3.6537
     3.7334   3.7334   4.1817   4.1817   4.6833   4.6833   4.8694   4.8694
     4.9808   4.9808   5.0218   5.0218   5.1694   5.1694   5.7772   5.7772
     6.0072   6.0072   6.0639   6.0639   6.0774   6.0774   6.2312   6.2312
     6.2350   6.2350   6.2643   6.2643   6.3782   6.3782   6.6870   6.6870
     6.8710   6.8710   7.0531   7.0531   7.1481   7.1481   7.4846   7.4846
     7.4990   7.4991   7.7134   7.7134   7.7457   7.7457   8.2270   8.2270
     9.5575   9.5575  11.2199  11.2199  11.2423  11.2423  11.5240  11.5240
    11.5654  11.5654  12.4150  12.4150  12.9522  12.9522  13.0597  13.0597
    13.2555  13.2555  13.2673  13.2673  13.4114  13.4114  14.0247  14.0247
    14.4384  14.4384  15.0933  15.0933  15.8316  15.8316  16.1972  16.1972
    17.1157  17.1157  17.8724  17.9357  17.9357

          k = 0.0000 0.1575 0.0000 ( 62231 PWs)   bands (ev):

   -66.1531 -66.1528 -66.1521 -66.1521 -66.1518 -66.1518 -66.1511 -66.1508
   -30.5964 -30.5950 -30.5915 -30.5901 -30.5897 -30.5873 -30.5870 -30.5846
   -30.4833 -30.4814 -30.4813 -30.4789 -30.4786 -30.4774 -30.4745 -30.4729
   -30.4527 -30.4474 -30.4471 -30.4420 -30.4019 -30.3972 -30.3971 -30.3925
   -20.2988 -20.2988 -20.2987 -20.2987 -20.2987 -20.2986 -20.2986 -20.2985
   -20.2752 -20.2748 -20.2742 -20.2740 -20.2740 -20.2735 -20.2734 -20.2730
   -20.2727 -20.2727 -20.2723 -20.2723 -20.2722 -20.2719 -20.2717 -20.2717
   -20.2714 -20.2714 -20.2711 -20.2705 -20.2682 -20.2678 -20.2677 -20.2671
   -20.2670 -20.2669 -20.2657 -20.2656 -20.2653 -20.2653 -20.2637 -20.2636
   -20.2629 -20.2627 -20.2624 -20.2622 -20.2619 -20.2619 -20.2601 -20.2601
   -20.2566 -20.2564 -20.2560 -20.2559 -20.2551 -20.2549 -20.2542 -20.2542
   -10.1254  -9.9779  -9.7277  -9.7159  -9.6255  -9.6102  -9.3798  -9.3651
    -8.7694  -8.7126  -8.7119  -8.7065  -7.8112  -7.8032  -7.7763  -7.7750
    -7.7282  -7.7230  -7.7135  -7.7043  -7.6978  -7.6593  -7.6570  -7.6117
     0.6533   0.6579   0.8411   0.8418   0.8644   0.8651   1.1359   1.1761
     1.9356   1.9957   2.0019   2.0782   2.0952   2.1501   2.6083   2.6089
     2.7323   2.7363   3.9327   3.9484   3.9596   3.9753   4.3580   4.3643
     4.3920   4.4001   4.7606   5.1171   5.1278   5.1627   5.1805   5.2899
     5.3035   5.3829   5.3947   5.5952   5.5959   5.6657   5.7014   5.7057
     5.7819   5.8687   5.8735   5.9832   5.9920   6.1295   6.1316   6.1515
     6.2628   6.2995   6.4164   6.4286   6.4407   6.6820   6.8525   6.8614
     6.8937   6.8981   7.0276   7.0336   7.1053   7.1072   7.1165   7.1183
     7.1280   7.1340   8.0785   8.0828   8.1385   8.1507   8.1604   8.1689
     9.0912   9.1136   9.7734   9.7797   9.8338   9.8402  12.1283  12.1620
    12.2151  12.2346  12.7484  12.7500  12.7641  12.7742  13.1862  13.2761
    13.3204  13.3528  13.7960  13.9061  14.0334  14.0720  14.1077  14.1284
    14.4239  14.6543  14.7124  15.0062  15.4505  15.4598  15.8133  16.4093
    16.4157  16.9328  17.1994  17.5828  17.5960

          k = 0.0000 0.1575 0.1667 ( 62237 PWs)   bands (ev):

   -66.1530 -66.1527 -66.1522 -66.1520 -66.1518 -66.1517 -66.1512 -66.1508
   -30.5934 -30.5915 -30.5877 -30.5873 -30.5854 -30.5850 -30.5822 -30.5797
   -30.4910 -30.4891 -30.4859 -30.4840 -30.4810 -30.4785 -30.4760 -30.4736
   -30.4523 -30.4473 -30.4470 -30.4422 -30.4015 -30.3973 -30.3969 -30.3928
   -20.2988 -20.2988 -20.2987 -20.2987 -20.2987 -20.2986 -20.2986 -20.2985
   -20.2751 -20.2748 -20.2741 -20.2740 -20.2738 -20.2735 -20.2733 -20.2731
   -20.2728 -20.2727 -20.2724 -20.2722 -20.2721 -20.2720 -20.2717 -20.2717
   -20.2716 -20.2713 -20.2712 -20.2705 -20.2682 -20.2678 -20.2677 -20.2670
   -20.2670 -20.2669 -20.2659 -20.2657 -20.2649 -20.2648 -20.2634 -20.2632
   -20.2626 -20.2625 -20.2625 -20.2623 -20.2617 -20.2617 -20.2603 -20.2602
   -20.2571 -20.2570 -20.2559 -20.2558 -20.2556 -20.2555 -20.2544 -20.2543
   -10.0694  -9.9199  -9.7269  -9.6308  -9.6188  -9.5232  -9.3334  -9.3180
    -8.7802  -8.7193  -8.7043  -8.7017  -7.9559  -7.9424  -7.8820  -7.8753
    -7.7997  -7.7697  -7.7334  -7.7096  -7.7030  -7.6616  -7.6562  -7.6128
     0.7688   0.7725   0.8657   0.8667   1.1412   1.1472   1.3139   1.3727
     1.9360   1.9928   2.0030   2.1072   2.1694   2.2398   2.6159   2.7046
     2.7240   2.8270   3.9290   3.9637   3.9748   4.0014   4.0465   4.0717
     4.4365   4.4641   4.7048   4.7373   4.7945   5.1219   5.1518   5.1659
     5.2507   5.2937   5.3306   5.3547   5.5289   5.5425   5.7067   5.7632
     5.7971   5.8739   5.8894   5.9696   6.0673   6.1302   6.1445   6.1648
     6.2978   6.3095   6.4033   6.5229   6.6737   6.7528   6.8015   6.8366
     6.8661   6.8746   6.8873   6.8899   6.9132   6.9271   7.0703   7.0751
     7.0897   7.1150   8.0287   8.0306   8.1180   8.1284   8.1448   8.1527
     9.4874   9.5025   9.7865   9.8390  10.0551  10.1072  12.1573  12.2062
    12.2336  12.2923  12.5814  12.5939  12.8035  12.8193  13.0527  13.1139
    13.1937  13.3193  13.8008  13.8303  13.9267  14.0164  14.0327  14.0960
    14.4873  14.7058  14.8310  15.1330  15.5722  15.6180  15.7851  16.3926
    16.8101  17.0594  17.1548  17.2889  17.7064

          k = 0.0000 0.1575 0.3333 ( 62284 PWs)   bands (ev):

   -66.1529 -66.1525 -66.1524 -66.1520 -66.1519 -66.1515 -66.1514 -66.1510
   -30.5920 -30.5894 -30.5888 -30.5862 -30.5680 -30.5655 -30.5621 -30.5597
   -30.5119 -30.5099 -30.5065 -30.5045 -30.4799 -30.4775 -30.4772 -30.4748
   -30.4511 -30.4482 -30.4459 -30.4431 -30.4005 -30.3981 -30.3959 -30.3935
   -20.2988 -20.2987 -20.2987 -20.2987 -20.2987 -20.2986 -20.2986 -20.2985
   -20.2750 -20.2748 -20.2739 -20.2738 -20.2735 -20.2734 -20.2732 -20.2732
   -20.2728 -20.2726 -20.2726 -20.2724 -20.2723 -20.2720 -20.2717 -20.2716
   -20.2713 -20.2713 -20.2713 -20.2707 -20.2681 -20.2678 -20.2677 -20.2672
   -20.2668 -20.2667 -20.2661 -20.2660 -20.2640 -20.2638 -20.2628 -20.2626
   -20.2624 -20.2623 -20.2618 -20.2618 -20.2610 -20.2610 -20.2606 -20.2606
   -20.2587 -20.2586 -20.2572 -20.2571 -20.2556 -20.2555 -20.2547 -20.2546
    -9.9432  -9.7968  -9.7620  -9.6460  -9.3614  -9.2303  -9.1713  -9.1405
    -8.8287  -8.7489  -8.6836  -8.6749  -8.3376  -8.3177  -8.2925  -8.2558
    -7.7869  -7.7557  -7.7478  -7.7172  -7.6998  -7.6716  -7.6471  -7.6216
     0.8539   0.8548   0.8685   0.8703   1.8074   1.8244   1.9432   1.9623
     1.9849   2.1190   2.1394   2.3254   2.4332   2.5014   2.6374   2.7033
     2.9654   3.0671   3.4173   3.4877   3.8824   3.9195   3.9631   4.0457
     4.1545   4.2043   4.4667   4.6039   4.6048   4.6460   4.6554   4.7923
     4.7964   5.0045   5.1307   5.2111   5.2145   5.3553   5.3830   5.7906
     5.8284   5.9117   5.9224   6.0293   6.0566   6.1087   6.1269   6.1708
     6.2819   6.3384   6.4176   6.4558   6.4898   6.6042   6.7597   6.8451
     6.8672   6.8931   6.8968   6.9898   7.0041   7.0505   7.0623   7.1702
     7.2427   7.3036   7.8475   7.8485   7.9769   7.9916   8.1531   8.1567
     9.7920   9.8216  10.3176  10.3332  10.7528  10.7843  12.0267  12.0506
    12.1196  12.2379  12.4509  12.4536  12.5350  12.5460  12.9822  12.9919
    13.1759  13.3226  13.4332  13.5025  13.6293  13.7501  14.0309  14.0554
    14.6105  14.6952  15.1959  15.4367  15.6952  15.8983  16.2834  16.3185
    16.5188  17.3812  17.5397  17.7839  17.8537

          k = 0.0000 0.1575-0.5000 ( 62234 PWs)   bands (ev):

   -66.1526 -66.1526 -66.1523 -66.1523 -66.1516 -66.1516 -66.1513 -66.1513
   -30.5904 -30.5904 -30.5878 -30.5878 -30.5402 -30.5401 -30.5379 -30.5379
   -30.5344 -30.5344 -30.5322 -30.5322 -30.4786 -30.4786 -30.4762 -30.4762
   -30.4496 -30.4496 -30.4445 -30.4445 -30.3993 -30.3993 -30.3947 -30.3947
   -20.2988 -20.2987 -20.2987 -20.2987 -20.2986 -20.2986 -20.2986 -20.2986
   -20.2749 -20.2749 -20.2737 -20.2736 -20.2735 -20.2735 -20.2730 -20.2730
   -20.2728 -20.2728 -20.2726 -20.2726 -20.2723 -20.2723 -20.2715 -20.2715
   -20.2714 -20.2714 -20.2710 -20.2709 -20.2679 -20.2679 -20.2675 -20.2674
   -20.2665 -20.2665 -20.2664 -20.2664 -20.2633 -20.2633 -20.2631 -20.2630
   -20.2612 -20.2612 -20.2611 -20.2611 -20.2607 -20.2607 -20.2606 -20.2606
   -20.2592 -20.2592 -20.2592 -20.2592 -20.2552 -20.2551 -20.2551 -20.2550
    -9.8304  -9.8304  -9.6999  -9.6998  -9.0162  -9.0162  -8.8960  -8.8960
    -8.7952  -8.7952  -8.7856  -8.7856  -8.6154  -8.6154  -8.5737  -8.5737
    -7.7674  -7.7674  -7.7365  -7.7365  -7.6858  -7.6858  -7.6344  -7.6344
     0.8689   0.8689   0.8712   0.8712   1.9160   1.9161   1.9751   1.9751
     2.6612   2.6612   2.8317   2.8317   2.9014   2.9014   3.0208   3.0208
     3.0600   3.0600   3.1472   3.1473   3.2538   3.2538   3.6888   3.6888
     3.7929   3.7929   4.0206   4.0206   4.5078   4.5078   4.7173   4.7173
     4.9673   4.9673   5.0049   5.0049   5.2028   5.2028   5.5206   5.5206
     5.8779   5.8779   6.0224   6.0224   6.1152   6.1152   6.1617   6.1617
     6.2639   6.2639   6.3091   6.3091   6.3918   6.3918   6.8478   6.8478
     6.8956   6.8956   6.9699   6.9699   7.0374   7.0374   7.4945   7.4945
     7.5104   7.5104   7.6949   7.6949   7.7193   7.7193   8.1571   8.1571
     9.8086   9.8086  11.2227  11.2227  11.2429  11.2429  11.5907  11.5908
    11.6306  11.6306  12.2557  12.2557  12.8632  12.8632  12.9412  12.9412
    13.2339  13.2339  13.2851  13.2851  13.4155  13.4155  14.0340  14.0340
    14.6695  14.6695  15.4971  15.4972  15.9255  15.9255  16.1680  16.1681
    17.1693  17.1693  17.7178  17.7179  17.9032

          k = 0.0000 0.3150 0.0000 ( 62175 PWs)   bands (ev):

   -66.1530 -66.1528 -66.1521 -66.1520 -66.1519 -66.1518 -66.1510 -66.1508
   -30.5960 -30.5951 -30.5915 -30.5906 -30.5891 -30.5876 -30.5867 -30.5852
   -30.4828 -30.4817 -30.4808 -30.4794 -30.4782 -30.4775 -30.4742 -30.4733
   -30.4420 -30.4369 -30.4367 -30.4317 -30.4127 -30.4079 -30.4078 -30.4031
   -20.2988 -20.2988 -20.2987 -20.2987 -20.2986 -20.2986 -20.2986 -20.2985
   -20.2749 -20.2744 -20.2743 -20.2739 -20.2739 -20.2737 -20.2733 -20.2729
   -20.2726 -20.2721 -20.2720 -20.2719 -20.2718 -20.2718 -20.2716 -20.2714
   -20.2713 -20.2711 -20.2708 -20.2705 -20.2692 -20.2688 -20.2687 -20.2680
   -20.2670 -20.2670 -20.2657 -20.2656 -20.2653 -20.2653 -20.2637 -20.2636
   -20.2628 -20.2628 -20.2623 -20.2623 -20.2619 -20.2619 -20.2601 -20.2601
   -20.2565 -20.2564 -20.2560 -20.2559 -20.2550 -20.2550 -20.2542 -20.2542
   -10.0855 -10.0017  -9.6969  -9.6841  -9.6402  -9.6254  -9.3767  -9.3682
    -8.5635  -8.5303  -8.5287  -8.5275  -7.9752  -7.9294  -7.9263  -7.8910
    -7.7982  -7.7965  -7.7803  -7.7802  -7.7181  -7.7164  -7.7041  -7.7031
     0.6542   0.6569   0.8421   0.8435   0.8660   0.8668   1.1615   1.1753
     2.0935   2.1348   2.5271   2.6444   2.6612   2.7562   2.8123   2.8524
     2.9285   2.9470   3.5283   3.5548   3.5971   3.6257   4.2124   4.3653
     4.3707   4.3803   4.3893   4.5781   4.5863   4.8838   5.2119   5.2182
     5.3285   5.3345   5.3486   5.3504   5.6914   5.6945   5.7289   5.7488
     5.8150   5.8655   5.8697   5.9726   5.9776   6.1430   6.1554   6.1590
     6.1826   6.3089   6.3396   6.3702   6.4028   6.4481   6.6427   6.6669
     6.7190   6.8234   7.1072   7.1114   7.1211   7.1233   7.2080   7.2108
     7.2340   7.2342   7.9296   7.9415   7.9453   7.9573   8.0831   8.0839
     9.0978   9.1104  10.3504  10.3714  10.4177  10.4337  11.6844  11.7171
    11.7584  11.7790  12.7617  12.7648  12.7659  12.7740  13.3009  13.3904
    13.4198  13.4534  13.6974  13.8387  13.8517  13.8974  13.9432  14.0016
    15.2415  15.3485  15.3609  15.3665  15.4514  15.4578  16.2634  16.2702
    16.3266  16.8571  17.1923  17.9546  17.9707

          k = 0.0000 0.3150 0.1667 ( 62260 PWs)   bands (ev):

   -66.1530 -66.1528 -66.1521 -66.1520 -66.1519 -66.1518 -66.1511 -66.1509
   -30.5930 -30.5918 -30.5871 -30.5870 -30.5859 -30.5856 -30.5817 -30.5802
   -30.4906 -30.4894 -30.4854 -30.4843 -30.4804 -30.4790 -30.4754 -30.4741
   -30.4416 -30.4369 -30.4365 -30.4319 -30.4123 -30.4080 -30.4076 -30.4033
   -20.2988 -20.2988 -20.2987 -20.2987 -20.2987 -20.2986 -20.2986 -20.2985
   -20.2748 -20.2745 -20.2742 -20.2738 -20.2737 -20.2737 -20.2733 -20.2729
   -20.2727 -20.2722 -20.2721 -20.2720 -20.2718 -20.2717 -20.2716 -20.2714
   -20.2713 -20.2711 -20.2708 -20.2706 -20.2692 -20.2688 -20.2687 -20.2680
   -20.2670 -20.2669 -20.2658 -20.2658 -20.2649 -20.2648 -20.2633 -20.2633
   -20.2626 -20.2625 -20.2625 -20.2624 -20.2617 -20.2617 -20.2603 -20.2602
   -20.2571 -20.2570 -20.2559 -20.2558 -20.2556 -20.2555 -20.2543 -20.2543
   -10.0285  -9.9437  -9.6944  -9.6343  -9.5974  -9.5381  -9.3301  -9.3212
    -8.5730  -8.5386  -8.5259  -8.5237  -7.9898  -7.9720  -7.9499  -7.9296
    -7.9202  -7.8917  -7.8765  -7.8327  -7.7895  -7.7754  -7.7217  -7.7083
     0.7697   0.7721   0.8676   0.8682   1.1477   1.1482   1.3528   1.3716
     2.1834   2.2244   2.5283   2.6186   2.6579   2.7569   2.8187   2.9208
     2.9455   3.0522   3.5536   3.5858   3.6183   3.6568   4.0387   4.0596
     4.2008   4.4374   4.4490   4.5563   4.5986   4.8318   4.8854   4.9654
     5.1019   5.2169   5.2969   5.3397   5.3720   5.4354   5.6446   5.7076
     5.7929   5.8355   5.8882   5.9968   5.9977   6.0354   6.1338   6.1599
     6.1676   6.2960   6.3854   6.4197   6.5195   6.6384   6.7235   6.8452
     6.8685   6.8910   6.8953   6.9066   6.9287   6.9513   7.2069   7.2127
     7.2296   7.2494   7.9156   7.9284   7.9294   7.9364   8.0337   8.0419
     9.4940   9.5027  10.3777  10.4307  10.5417  10.6050  11.7190  11.7771
    11.7778  11.8512  12.5882  12.5938  12.8166  12.8201  13.1746  13.2192
    13.3096  13.4170  13.6501  13.6877  13.7145  13.8487  13.9509  13.9981
    15.3067  15.3550  15.4586  15.5678  15.5981  15.6629  16.2485  16.4642
    16.6504  16.8272  17.2995  17.4288  18.0852

          k = 0.0000 0.3150 0.3333 ( 62269 PWs)   bands (ev):

   -66.1528 -66.1526 -66.1523 -66.1521 -66.1518 -66.1516 -66.1513 -66.1511
   -30.5915 -30.5900 -30.5883 -30.5868 -30.5675 -30.5660 -30.5616 -30.5602
   -30.5115 -30.5103 -30.5060 -30.5048 -30.4794 -30.4780 -30.4766 -30.4753
   -30.4405 -30.4377 -30.4355 -30.4327 -30.4113 -30.4088 -30.4066 -30.4041
   -20.2988 -20.2987 -20.2987 -20.2987 -20.2987 -20.2986 -20.2986 -20.2986
   -20.2747 -20.2745 -20.2740 -20.2738 -20.2735 -20.2733 -20.2730 -20.2729
   -20.2727 -20.2725 -20.2723 -20.2720 -20.2720 -20.2716 -20.2716 -20.2713
   -20.2712 -20.2711 -20.2708 -20.2707 -20.2690 -20.2688 -20.2686 -20.2682
   -20.2668 -20.2667 -20.2661 -20.2661 -20.2640 -20.2638 -20.2628 -20.2627
   -20.2624 -20.2623 -20.2618 -20.2618 -20.2610 -20.2610 -20.2606 -20.2606
   -20.2587 -20.2586 -20.2572 -20.2571 -20.2556 -20.2555 -20.2547 -20.2546
    -9.9018  -9.8193  -9.7274  -9.6629  -9.3158  -9.2459  -9.1625  -9.1455
    -8.6352  -8.5863  -8.5159  -8.5061  -8.3525  -8.3145  -8.2963  -8.2347
    -7.9556  -7.9301  -7.9099  -7.8837  -7.7754  -7.7614  -7.7362  -7.7226
     0.8556   0.8562   0.8711   0.8714   1.9403   1.9620   2.0575   2.1161
     2.4461   2.4862   2.5319   2.6045   2.6561   2.7731   2.8362   2.9017
     3.2024   3.2816   3.4080   3.4769   3.5965   3.6102   3.7021   3.7466
     4.1499   4.2241   4.3589   4.4114   4.4283   4.5369   4.5442   4.6237
     4.6661   4.7903   4.8317   4.9462   5.1648   5.1978   5.2983   5.3301
     5.4419   5.5081   5.8118   6.0262   6.0439   6.1361   6.1630   6.1891
     6.3192   6.3841   6.4670   6.5116   6.5188   6.5948   6.6103   6.6271
     6.8165   6.9304   7.0862   7.1022   7.1487   7.2241   7.2377   7.2460
     7.2997   7.3225   7.8181   7.8251   7.8274   7.8627   7.9406   7.9682
    10.2823  10.3222  10.4080  10.4437  11.0758  11.1232  11.7207  11.7723
    12.0428  12.0513  12.0789  12.1431  12.5952  12.6374  12.9882  12.9951
    13.1454  13.1831  13.3562  13.4172  13.6175  13.7407  13.8430  13.8926
    15.3295  15.3513  15.7534  15.8495  16.1043  16.1883  16.4330  16.7231
    16.8043  16.8503  17.5526  17.7164  17.7759

          k = 0.0000 0.3150-0.5000 ( 62306 PWs)   bands (ev):

   -66.1526 -66.1525 -66.1524 -66.1523 -66.1515 -66.1515 -66.1513 -66.1513
   -30.5899 -30.5899 -30.5883 -30.5883 -30.5397 -30.5396 -30.5383 -30.5383
   -30.5340 -30.5339 -30.5327 -30.5326 -30.4780 -30.4780 -30.4767 -30.4766
   -30.4391 -30.4391 -30.4341 -30.4340 -30.4100 -30.4100 -30.4053 -30.4053
   -20.2988 -20.2987 -20.2987 -20.2987 -20.2986 -20.2986 -20.2986 -20.2986
   -20.2746 -20.2746 -20.2739 -20.2739 -20.2731 -20.2731 -20.2729 -20.2728
   -20.2727 -20.2727 -20.2724 -20.2723 -20.2718 -20.2718 -20.2715 -20.2715
   -20.2710 -20.2710 -20.2709 -20.2709 -20.2689 -20.2689 -20.2684 -20.2684
   -20.2665 -20.2665 -20.2665 -20.2664 -20.2632 -20.2632 -20.2631 -20.2631
   -20.2612 -20.2612 -20.2611 -20.2611 -20.2607 -20.2607 -20.2607 -20.2606
   -20.2592 -20.2592 -20.2592 -20.2592 -20.2551 -20.2551 -20.2551 -20.2551
    -9.7922  -9.7922  -9.7191  -9.7191  -8.9198  -8.9197  -8.8486  -8.8486
    -8.8105  -8.8105  -8.7968  -8.7968  -8.4840  -8.4840  -8.4548  -8.4547
    -7.9436  -7.9435  -7.8985  -7.8985  -7.7559  -7.7559  -7.7420  -7.7420
     0.8719   0.8719   0.8720   0.8720   2.5060   2.5060   2.6125   2.6125
     2.8274   2.8274   2.8494   2.8494   2.9129   2.9129   3.0549   3.0549
     3.0552   3.0552   3.2329   3.2329   3.2347   3.2347   3.5807   3.5807
     3.9189   3.9189   3.9932   3.9932   4.0649   4.0649   4.3020   4.3020
     4.8671   4.8671   4.9599   4.9599   4.9701   4.9701   5.1044   5.1044
     5.3889   5.3889   5.8988   5.8988   6.2158   6.2158   6.2311   6.2311
     6.2974   6.2974   6.3309   6.3309   6.4334   6.4334   6.6089   6.6089
     7.0991   7.0991   7.1715   7.1715   7.2083   7.2083   7.4775   7.4775
     7.5499   7.5499   7.6161   7.6161   7.6330   7.6330   7.9500   7.9500
    10.3992  10.3992  11.2242  11.2242  11.2453  11.2453  11.6782  11.6782
    11.8349  11.8349  11.9404  11.9404  12.5619  12.5619  12.6201  12.6201
    13.2509  13.2509  13.2955  13.2955  13.4674  13.4674  13.8502  13.8502
    15.3420  15.3420  16.0661  16.0661  16.2145  16.2145  16.5112  16.5112
    17.2768  17.2768  17.3717  17.3717  17.9897

          k = 0.0000-0.4725 0.0000 ( 62212 PWs)   bands (ev):

   -66.1530 -66.1529 -66.1520 -66.1519 -66.1519 -66.1519 -66.1509 -66.1509
   -30.5954 -30.5954 -30.5911 -30.5911 -30.5883 -30.5883 -30.5860 -30.5859
   -30.4823 -30.4822 -30.4801 -30.4801 -30.4778 -30.4778 -30.4738 -30.4738
   -30.4274 -30.4273 -30.4225 -30.4224 -30.4223 -30.4222 -30.4175 -30.4174
   -20.2988 -20.2988 -20.2987 -20.2987 -20.2986 -20.2986 -20.2985 -20.2985
   -20.2746 -20.2745 -20.2741 -20.2740 -20.2738 -20.2738 -20.2732 -20.2732
   -20.2723 -20.2722 -20.2719 -20.2719 -20.2719 -20.2718 -20.2709 -20.2709
   -20.2706 -20.2706 -20.2702 -20.2701 -20.2700 -20.2700 -20.2693 -20.2693
   -20.2670 -20.2670 -20.2657 -20.2657 -20.2653 -20.2653 -20.2637 -20.2637
   -20.2628 -20.2628 -20.2623 -20.2623 -20.2619 -20.2619 -20.2601 -20.2601
   -20.2565 -20.2565 -20.2560 -20.2559 -20.2550 -20.2550 -20.2542 -20.2542
   -10.0396 -10.0396  -9.6647  -9.6647  -9.6508  -9.6508  -9.3725  -9.3725
    -8.2806  -8.2805  -8.2492  -8.2492  -8.2469  -8.2468  -8.2324  -8.2323
    -7.7939  -7.7938  -7.7848  -7.7848  -7.7113  -7.7113  -7.7101  -7.7101
     0.6555   0.6555   0.8433   0.8433   0.8669   0.8669   1.1720   1.1720
     2.1141   2.1141   3.1100   3.1101   3.1341   3.1341   3.2120   3.2120
     3.2243   3.2244   3.3911   3.3912   3.6160   3.6160   3.6166   3.6166
     3.8038   3.8038   4.3757   4.3757   4.3816   4.3816   5.2948   5.2948
     5.3023   5.3024   5.5503   5.5503   5.5596   5.5596   5.8979   5.8979
     5.9045   5.9045   5.9131   5.9131   5.9585   5.9585   6.0346   6.0346
     6.2156   6.2156   6.2546   6.2546   6.4636   6.4636   6.4759   6.4759
     6.7663   6.7663   7.1143   7.1144   7.1245   7.1246   7.5907   7.5908
     7.5967   7.5968   7.6012   7.6013   7.6080   7.6080   8.0833   8.0834
     9.1047   9.1047  11.0450  11.0450  11.0749  11.0750  11.1073  11.1073
    11.1420  11.1420  12.7664  12.7664  12.7718  12.7718  13.4872  13.4872
    13.5952  13.5952  13.6082  13.6082  13.6445  13.6445  13.9466  13.9466
    15.4526  15.4527  15.7538  15.7539  15.9380  15.9380  15.9485  15.9485
    16.3639  16.3639  17.7749  17.7749  18.1019

          k = 0.0000-0.4725 0.1667 ( 62246 PWs)   bands (ev):

   -66.1529 -66.1529 -66.1520 -66.1520 -66.1519 -66.1519 -66.1510 -66.1510
   -30.5924 -30.5923 -30.5865 -30.5865 -30.5864 -30.5864 -30.5810 -30.5810
   -30.4900 -30.4900 -30.4849 -30.4849 -30.4797 -30.4797 -30.4748 -30.4747
   -30.4270 -30.4270 -30.4225 -30.4225 -30.4221 -30.4221 -30.4177 -30.4177
   -20.2988 -20.2988 -20.2987 -20.2987 -20.2986 -20.2986 -20.2986 -20.2985
   -20.2745 -20.2745 -20.2741 -20.2741 -20.2737 -20.2737 -20.2731 -20.2731
   -20.2723 -20.2723 -20.2720 -20.2719 -20.2718 -20.2718 -20.2710 -20.2710
   -20.2705 -20.2705 -20.2701 -20.2701 -20.2700 -20.2700 -20.2694 -20.2694
   -20.2670 -20.2670 -20.2658 -20.2658 -20.2649 -20.2649 -20.2633 -20.2633
   -20.2626 -20.2626 -20.2624 -20.2624 -20.2617 -20.2617 -20.2603 -20.2602
   -20.2571 -20.2571 -20.2558 -20.2558 -20.2556 -20.2556 -20.2543 -20.2543
    -9.9819  -9.9819  -9.6603  -9.6603  -9.5634  -9.5634  -9.3256  -9.3256
    -8.2833  -8.2832  -8.2612  -8.2611  -8.2441  -8.2441  -8.2411  -8.2410
    -7.9399  -7.9399  -7.8670  -7.8670  -7.7830  -7.7830  -7.7154  -7.7154
     0.7710   0.7710   0.8684   0.8684   1.1490   1.1490   1.3672   1.3672
     2.2038   2.2038   3.1248   3.1248   3.1648   3.1648   3.2213   3.2214
     3.2754   3.2754   3.3869   3.3870   3.6095   3.6096   3.6472   3.6472
     3.8213   3.8214   4.0508   4.0508   4.4464   4.4464   4.9964   4.9964
     5.2128   5.2128   5.2723   5.2724   5.5105   5.5105   5.5640   5.5640
     5.7932   5.7932   5.8651   5.8651   5.9845   5.9845   6.1783   6.1783
     6.2548   6.2548   6.3180   6.3180   6.4614   6.4614   6.8062   6.8062
     6.8710   6.8710   6.9103   6.9103   6.9480   6.9480   7.5825   7.5826
     7.5914   7.5914   7.5982   7.5983   7.6019   7.6019   8.0359   8.0359
     9.4992   9.4992  11.0786  11.0786  11.1278  11.1278  11.1777  11.1778
    11.2413  11.2413  12.5922  12.5923  12.8208  12.8208  13.3852  13.3853
    13.4131  13.4131  13.5137  13.5137  13.6049  13.6049  13.9509  13.9509
    15.5458  15.5458  15.9177  15.9178  15.9341  15.9341  16.2796  16.2796
    16.4669  16.4669  17.8150  17.8185  17.8243

          k = 0.0000-0.4725 0.3333 ( 62268 PWs)   bands (ev):

   -66.1527 -66.1527 -66.1522 -66.1522 -66.1517 -66.1517 -66.1512 -66.1512
   -30.5907 -30.5907 -30.5875 -30.5875 -30.5668 -30.5667 -30.5609 -30.5609
   -30.5109 -30.5109 -30.5054 -30.5054 -30.4787 -30.4787 -30.4759 -30.4759
   -30.4259 -30.4259 -30.4233 -30.4233 -30.4211 -30.4210 -30.4185 -30.4185
   -20.2988 -20.2988 -20.2987 -20.2987 -20.2986 -20.2986 -20.2986 -20.2986
   -20.2744 -20.2743 -20.2741 -20.2741 -20.2733 -20.2733 -20.2729 -20.2728
   -20.2725 -20.2725 -20.2722 -20.2722 -20.2717 -20.2717 -20.2712 -20.2712
   -20.2703 -20.2703 -20.2701 -20.2701 -20.2699 -20.2699 -20.2695 -20.2695
   -20.2668 -20.2668 -20.2661 -20.2661 -20.2639 -20.2639 -20.2627 -20.2627
   -20.2624 -20.2623 -20.2618 -20.2618 -20.2610 -20.2610 -20.2606 -20.2606
   -20.2587 -20.2586 -20.2572 -20.2571 -20.2555 -20.2555 -20.2547 -20.2547
    -9.8559  -9.8559  -9.6909  -9.6909  -9.2740  -9.2740  -9.1532  -9.1532
    -8.4125  -8.4125  -8.4018  -8.4018  -8.2534  -8.2534  -8.2341  -8.2341
    -8.1913  -8.1913  -8.1457  -8.1457  -7.7689  -7.7689  -7.7298  -7.7298
     0.8564   0.8564   0.8719   0.8719   1.9591   1.9591   2.1054   2.1054
     2.4663   2.4663   3.1292   3.1292   3.1928   3.1928   3.2729   3.2729
     3.3572   3.3572   3.4148   3.4148   3.4812   3.4812   3.5826   3.5826
     3.7499   3.7499   3.8532   3.8532   4.3777   4.3777   4.5238   4.5238
     4.6614   4.6614   4.8195   4.8195   4.9762   4.9762   5.1902   5.1902
     5.5972   5.5972   5.7619   5.7620   6.1028   6.1028   6.2204   6.2204
     6.3794   6.3794   6.4209   6.4209   6.5030   6.5030   6.5881   6.5881
     6.8953   6.8953   7.2023   7.2023   7.2318   7.2319   7.5473   7.5473
     7.5560   7.5561   7.5710   7.5710   7.6188   7.6189   7.8748   7.8748
    10.3204  10.3204  11.0925  11.0925  11.1183  11.1183  11.5636  11.5636
    11.6249  11.6250  12.0508  12.0508  12.8429  12.8429  12.8792  12.8793
    12.9988  12.9988  13.4971  13.4971  13.5995  13.5995  13.7680  13.7680
    15.7152  15.7152  15.9028  15.9028  16.3372  16.3373  16.9653  16.9653
    17.0366  17.0366  17.2655  17.2655  17.9778

          k = 0.0000-0.4725-0.5000 ( 62284 PWs)   bands (ev):

   -66.1525 -66.1524 -66.1524 -66.1524 -66.1515 -66.1514 -66.1514 -66.1514
   -30.5891 -30.5891 -30.5891 -30.5891 -30.5390 -30.5390 -30.5390 -30.5390
   -30.5333 -30.5333 -30.5333 -30.5333 -30.4774 -30.4773 -30.4773 -30.4773
   -30.4246 -30.4246 -30.4246 -30.4245 -30.4197 -30.4197 -30.4197 -30.4197
   -20.2987 -20.2987 -20.2987 -20.2987 -20.2986 -20.2986 -20.2986 -20.2986
   -20.2742 -20.2742 -20.2742 -20.2742 -20.2729 -20.2729 -20.2729 -20.2729
   -20.2725 -20.2725 -20.2725 -20.2725 -20.2715 -20.2715 -20.2715 -20.2715
   -20.2702 -20.2702 -20.2702 -20.2701 -20.2698 -20.2697 -20.2697 -20.2697
   -20.2665 -20.2665 -20.2665 -20.2664 -20.2632 -20.2632 -20.2632 -20.2632
   -20.2612 -20.2612 -20.2611 -20.2611 -20.2607 -20.2607 -20.2607 -20.2606
   -20.2592 -20.2592 -20.2592 -20.2592 -20.2551 -20.2551 -20.2551 -20.2551
    -9.7510  -9.7510  -9.7510  -9.7510  -8.8466  -8.8466  -8.8466  -8.8466
    -8.8157  -8.8157  -8.8157  -8.8157  -8.2412  -8.2412  -8.2412  -8.2411
    -8.2103  -8.2103  -8.2102  -8.2102  -7.7494  -7.7494  -7.7494  -7.7494
     0.8726   0.8726   0.8726   0.8726   2.8531   2.8532   2.8532   2.8532
     2.9884   2.9884   2.9884   2.9884   3.1289   3.1289   3.1289   3.1289
     3.2162   3.2162   3.2162   3.2163   3.4186   3.4186   3.4186   3.4186
     3.6360   3.6360   3.6360   3.6360   4.2669   4.2669   4.2669   4.2669
     4.3632   4.3632   4.3632   4.3632   4.9702   4.9702   4.9702   4.9702
     5.6496   5.6496   5.6496   5.6497   6.2653   6.2653   6.2653   6.2653
     6.3208   6.3208   6.3208   6.3208   6.4395   6.4395   6.4395   6.4395
     7.3471   7.3471   7.3472   7.3472   7.4465   7.4465   7.4466   7.4466
     7.4833   7.4833   7.4833   7.4833   7.6774   7.6774   7.6775   7.6775
    11.0719  11.0719  11.0719  11.0719  11.2685  11.2685  11.2685  11.2685
    12.1674  12.1674  12.1674  12.1674  12.2200  12.2200  12.2200  12.2200
    13.2836  13.2836  13.2836  13.2836  13.6195  13.6195  13.6195  13.6195
    15.8375  15.8375  15.8375  15.8376  16.7577  16.7577  16.7578  16.7578
    17.6675  17.6675  17.6676  17.6676  17.8278

          k = 0.1667 0.0000 0.1667 ( 62234 PWs)   bands (ev):

   -66.1530 -66.1526 -66.1522 -66.1521 -66.1518 -66.1517 -66.1513 -66.1509
   -30.5889 -30.5873 -30.5839 -30.5834 -30.5818 -30.5805 -30.5798 -30.5775
   -30.4909 -30.4889 -30.4887 -30.4866 -30.4863 -30.4853 -30.4825 -30.4809
   -30.4557 -30.4510 -30.4507 -30.4461 -30.3972 -30.3932 -30.3931 -30.3891
   -20.2988 -20.2987 -20.2987 -20.2987 -20.2987 -20.2986 -20.2986 -20.2985
   -20.2752 -20.2748 -20.2741 -20.2741 -20.2739 -20.2734 -20.2733 -20.2733
   -20.2729 -20.2728 -20.2724 -20.2724 -20.2723 -20.2721 -20.2719 -20.2716
   -20.2716 -20.2713 -20.2712 -20.2706 -20.2678 -20.2675 -20.2674 -20.2667
   -20.2666 -20.2665 -20.2656 -20.2655 -20.2648 -20.2647 -20.2635 -20.2634
   -20.2628 -20.2627 -20.2626 -20.2625 -20.2615 -20.2615 -20.2600 -20.2600
   -20.2571 -20.2569 -20.2564 -20.2563 -20.2557 -20.2556 -20.2549 -20.2548
   -10.0266  -9.8488  -9.6570  -9.6466  -9.5267  -9.5120  -9.2926  -9.2752
    -8.8653  -8.7713  -8.7708  -8.7550  -7.9575  -7.9536  -7.9303  -7.9288
    -7.9058  -7.8968  -7.8696  -7.8428  -7.6092  -7.5593  -7.5571  -7.5105
     0.9594   0.9671   1.1354   1.1483   1.1541   1.1696   1.3499   1.4883
     1.7246   1.7647   1.7704   1.9140   2.2556   2.3378   2.6379   2.6392
     2.7369   2.7580   4.0304   4.0477   4.0919   4.1486   4.1525   4.1675
     4.2208   4.2419   4.6086   4.6987   4.7250   4.7868   4.9478   5.1096
     5.1982   5.2105   5.2897   5.4675   5.4901   5.5600   5.5669   5.7064
     5.7105   5.8785   5.8888   6.1029   6.1607   6.2025   6.2106   6.2986
     6.3118   6.4610   6.4650   6.5488   6.5491   6.6406   6.6613   6.7091
     6.9073   6.9226   6.9385   6.9545   6.9707   7.0109   7.0132   7.0343
     7.0460   7.1107   7.9865   7.9880   8.1558   8.1782   8.1897   8.2008
     9.7546   9.7761   9.8315   9.8966   9.9142   9.9587  12.3367  12.3843
    12.4530  12.4682  12.6267  12.6347  12.6439  12.6561  12.9641  13.0159
    13.0663  13.0967  13.7904  13.8098  13.9272  13.9596  14.0272  14.0845
    14.2285  14.4746  14.5327  15.1884  15.3350  15.7666  15.7742  16.8277
    16.8292  17.2356  17.2396  17.3021  17.6189

          k = 0.1667 0.0000 0.3333 ( 62265 PWs)   bands (ev):

   -66.1528 -66.1524 -66.1523 -66.1519 -66.1519 -66.1516 -66.1514 -66.1511
   -30.5849 -30.5820 -30.5817 -30.5787 -30.5677 -30.5649 -30.5627 -30.5599
   -30.5117 -30.5094 -30.5071 -30.5047 -30.4878 -30.4852 -30.4849 -30.4823
   -30.4546 -30.4516 -30.4499 -30.4470 -30.3962 -30.3938 -30.3922 -30.3899
   -20.2988 -20.2987 -20.2987 -20.2987 -20.2987 -20.2986 -20.2986 -20.2985
   -20.2751 -20.2748 -20.2740 -20.2738 -20.2735 -20.2734 -20.2734 -20.2732
   -20.2729 -20.2727 -20.2726 -20.2725 -20.2724 -20.2721 -20.2719 -20.2716
   -20.2713 -20.2713 -20.2713 -20.2707 -20.2677 -20.2674 -20.2674 -20.2669
   -20.2664 -20.2664 -20.2659 -20.2658 -20.2640 -20.2637 -20.2630 -20.2628
   -20.2624 -20.2624 -20.2617 -20.2617 -20.2609 -20.2609 -20.2604 -20.2604
   -20.2586 -20.2585 -20.2573 -20.2572 -20.2561 -20.2560 -20.2552 -20.2551
    -9.8862  -9.7059  -9.6842  -9.5395  -9.3953  -9.2341  -9.1468  -9.1173
    -8.9122  -8.7950  -8.7349  -8.7340  -8.3289  -8.3180  -8.2976  -8.2668
    -7.9378  -7.9143  -7.8990  -7.8759  -7.5988  -7.5700  -7.5474  -7.5205
     1.1369   1.1433   1.1586   1.1735   1.6423   1.6472   1.7147   1.7566
     1.9644   2.0702   2.1185   2.2652   2.5328   2.6114   2.6632   2.7227
     2.8947   2.9921   3.4832   3.5716   3.9243   3.9578   4.1055   4.1208
     4.1731   4.2720   4.3727   4.3772   4.4819   4.6461   4.6630   4.7239
     4.8053   4.8321   4.8815   5.0316   5.0529   5.2519   5.5525   5.5810
     5.7210   5.8847   5.9193   5.9654   6.0669   6.0680   6.1892   6.1992
     6.4077   6.4503   6.5142   6.5769   6.6288   6.6377   6.8158   6.8224
     6.8406   6.8616   6.9239   6.9792   7.0096   7.0542   7.0689   7.1117
     7.2398   7.3229   7.8262   7.8277   8.0225   8.0456   8.1814   8.1818
     9.8670   9.8950  10.4623  10.4925  10.6530  10.6824  12.0973  12.1167
    12.2414  12.4108  12.4735  12.5496  12.6235  12.6738  12.8039  12.8444
    12.9729  13.0894  13.4863  13.5640  13.5964  13.6669  13.9434  13.9680
    14.3507  14.5063  14.7942  15.2427  15.5302  16.2260  16.4168  16.5920
    16.7497  17.5433  17.6054  17.7591  17.8296

          k = 0.1667 0.0000-0.5000 ( 62322 PWs)   bands (ev):

   -66.1526 -66.1526 -66.1522 -66.1522 -66.1517 -66.1517 -66.1513 -66.1513
   -30.5833 -30.5833 -30.5803 -30.5803 -30.5399 -30.5399 -30.5373 -30.5373
   -30.5350 -30.5350 -30.5325 -30.5324 -30.4864 -30.4864 -30.4838 -30.4838
   -30.4531 -30.4531 -30.4484 -30.4484 -30.3950 -30.3950 -30.3910 -30.3910
   -20.2988 -20.2987 -20.2987 -20.2987 -20.2987 -20.2986 -20.2986 -20.2986
   -20.2749 -20.2749 -20.2737 -20.2737 -20.2735 -20.2735 -20.2731 -20.2730
   -20.2728 -20.2728 -20.2727 -20.2727 -20.2724 -20.2724 -20.2716 -20.2716
   -20.2714 -20.2714 -20.2710 -20.2710 -20.2675 -20.2675 -20.2671 -20.2671
   -20.2662 -20.2662 -20.2661 -20.2661 -20.2634 -20.2634 -20.2632 -20.2632
   -20.2610 -20.2609 -20.2609 -20.2609 -20.2606 -20.2606 -20.2606 -20.2605
   -20.2593 -20.2593 -20.2593 -20.2593 -20.2557 -20.2556 -20.2556 -20.2556
    -9.7594  -9.7594  -9.5961  -9.5961  -9.0764  -9.0764  -8.9047  -8.9047
    -8.7965  -8.7965  -8.7772  -8.7772  -8.6470  -8.6470  -8.6072  -8.6072
    -7.9189  -7.9189  -7.8953  -7.8953  -7.5845  -7.5845  -7.5340  -7.5340
     1.1559   1.1559   1.1746   1.1746   1.7021   1.7021   1.7339   1.7339
     2.6826   2.6826   2.8783   2.8783   2.9377   2.9377   3.0167   3.0167
     3.0614   3.0614   3.1671   3.1671   3.2935   3.2935   3.6649   3.6649
     3.7255   3.7255   4.1884   4.1885   4.6038   4.6038   4.6856   4.6856
     4.7147   4.7147   4.7802   4.7802   4.9884   4.9884   5.6516   5.6516
     5.6969   5.6969   5.7816   5.7816   6.1372   6.1373   6.2131   6.2131
     6.3628   6.3628   6.5692   6.5692   6.6597   6.6597   6.6861   6.6861
     6.8907   6.8907   6.9370   6.9370   7.0316   7.0316   7.5006   7.5006
     7.5122   7.5122   7.7171   7.7171   7.7494   7.7494   8.1839   8.1839
     9.8828   9.8828  11.3099  11.3099  11.3360  11.3360  11.5332  11.5332
    11.5770  11.5770  12.4801  12.4801  12.8491  12.8491  13.0381  13.0381
    13.1560  13.1560  13.1723  13.1723  13.2540  13.2540  13.9504  13.9504
    14.4517  14.4517  15.0692  15.0693  16.0035  16.0036  16.5713  16.5713
    17.2846  17.2846  17.8874  17.8876  17.9173

          k = 0.1667 0.1575 0.1667 ( 62255 PWs)   bands (ev):

   -66.1530 -66.1526 -66.1521 -66.1521 -66.1518 -66.1518 -66.1512 -66.1509
   -30.5887 -30.5873 -30.5839 -30.5833 -30.5819 -30.5803 -30.5800 -30.5777
   -30.4907 -30.4888 -30.4887 -30.4865 -30.4865 -30.4853 -30.4824 -30.4810
   -30.4518 -30.4472 -30.4469 -30.4424 -30.4012 -30.3971 -30.3970 -30.3930
   -20.2988 -20.2987 -20.2987 -20.2987 -20.2987 -20.2986 -20.2986 -20.2985
   -20.2750 -20.2746 -20.2741 -20.2740 -20.2738 -20.2734 -20.2733 -20.2731
   -20.2728 -20.2726 -20.2723 -20.2722 -20.2721 -20.2720 -20.2719 -20.2716
   -20.2716 -20.2713 -20.2712 -20.2706 -20.2682 -20.2678 -20.2677 -20.2671
   -20.2666 -20.2666 -20.2656 -20.2655 -20.2648 -20.2647 -20.2635 -20.2634
   -20.2628 -20.2627 -20.2626 -20.2625 -20.2615 -20.2615 -20.2600 -20.2600
   -20.2570 -20.2569 -20.2564 -20.2564 -20.2557 -20.2556 -20.2549 -20.2548
   -10.0093  -9.8568  -9.6420  -9.6311  -9.5318  -9.5172  -9.2915  -9.2764
    -8.7917  -8.7112  -8.7109  -8.6966  -7.9574  -7.9516  -7.9335  -7.9325
    -7.9039  -7.9037  -7.8680  -7.8447  -7.7068  -7.6605  -7.6585  -7.6145
     0.9598   0.9665   1.1425   1.1489   1.1620   1.1701   1.4062   1.4881
     1.9356   1.9945   2.0003   2.1204   2.2610   2.3331   2.7112   2.7113
     2.8094   2.8255   3.9360   3.9558   3.9748   4.0269   4.1272   4.1380
     4.1478   4.1505   4.6368   4.6736   4.7805   4.8192   4.8542   5.0753
     5.1607   5.2219   5.2433   5.2732   5.3104   5.5320   5.5381   5.7001
     5.7152   5.8067   5.9924   6.0020   6.0668   6.1924   6.2291   6.3000
     6.3143   6.3566   6.4262   6.4825   6.5269   6.6588   6.6859   6.7312
     6.7638   6.8866   6.8967   6.9468   6.9544   6.9904   7.0467   7.0731
     7.0828   7.1291   7.9856   7.9880   8.0986   8.1139   8.1281   8.1333
     9.7758   9.7777  10.0254  10.0799  10.1091  10.1332  12.1906  12.2402
    12.2929  12.3074  12.6290  12.6384  12.6443  12.6556  13.0049  13.0539
    13.0911  13.1196  13.7699  13.7847  13.8846  13.9244  13.9464  14.0170
    14.5379  14.8219  14.8425  15.2832  15.7536  15.7687  15.7752  16.7834
    16.7871  17.1526  17.3077  17.3098  17.3722

          k = 0.1667 0.1575 0.3333 ( 62260 PWs)   bands (ev):

   -66.1528 -66.1525 -66.1523 -66.1520 -66.1519 -66.1516 -66.1514 -66.1511
   -30.5847 -30.5822 -30.5815 -30.5789 -30.5675 -30.5651 -30.5625 -30.5601
   -30.5116 -30.5095 -30.5069 -30.5049 -30.4876 -30.4853 -30.4847 -30.4825
   -30.4507 -30.4478 -30.4461 -30.4433 -30.4002 -30.3977 -30.3962 -30.3937
   -20.2988 -20.2987 -20.2987 -20.2987 -20.2987 -20.2986 -20.2986 -20.2985
   -20.2749 -20.2747 -20.2738 -20.2738 -20.2735 -20.2734 -20.2733 -20.2731
   -20.2727 -20.2726 -20.2725 -20.2724 -20.2723 -20.2720 -20.2718 -20.2717
   -20.2713 -20.2713 -20.2713 -20.2708 -20.2680 -20.2678 -20.2677 -20.2672
   -20.2665 -20.2664 -20.2659 -20.2658 -20.2640 -20.2638 -20.2630 -20.2628
   -20.2624 -20.2624 -20.2617 -20.2617 -20.2609 -20.2609 -20.2604 -20.2604
   -20.2586 -20.2585 -20.2573 -20.2572 -20.2561 -20.2560 -20.2552 -20.2551
    -9.8678  -9.7136  -9.6678  -9.5451  -9.3738  -9.2392  -9.1439  -9.1189
    -8.8420  -8.7391  -8.6807  -8.6789  -8.3328  -8.3132  -8.3033  -8.2614
    -7.9360  -7.9184  -7.8973  -7.8797  -7.6974  -7.6701  -7.6493  -7.6235
     1.1428   1.1452   1.1661   1.1740   1.8065   1.8217   1.9380   1.9645
     1.9892   2.1182   2.1374   2.3235   2.5378   2.6104   2.7315   2.7944
     2.9695   3.0609   3.4840   3.5679   3.8900   3.9244   3.9796   4.0643
     4.1623   4.2029   4.3279   4.3626   4.4889   4.6129   4.6151   4.7212
     4.7360   4.7693   4.8217   4.9980   5.0579   5.0716   5.3250   5.5598
     5.7124   5.7504   5.8244   5.8831   5.9600   6.0180   6.1311   6.1939
     6.2711   6.4621   6.5218   6.6437   6.6625   6.7072   6.7288   6.7555
     6.8509   6.8958   6.9730   7.0163   7.0302   7.0522   7.1176   7.1469
     7.2414   7.3244   7.8240   7.8292   7.9760   7.9922   8.1160   8.1206
    10.0569  10.0925  10.4721  10.4996  10.7632  10.7897  12.0925  12.1143
    12.1796  12.3156  12.4410  12.4573  12.5291  12.5659  12.8046  12.8396
    13.0130  13.1001  13.4182  13.4850  13.5649  13.6240  13.8933  13.9152
    14.6844  14.8207  15.1821  15.5907  15.6867  16.2178  16.4326  16.6666
    16.7113  17.4286  17.5975  17.6509  17.7700

          k = 0.1667 0.1575-0.5000 ( 62292 PWs)   bands (ev):

   -66.1526 -66.1525 -66.1522 -66.1522 -66.1517 -66.1517 -66.1513 -66.1513
   -30.5831 -30.5831 -30.5805 -30.5805 -30.5398 -30.5397 -30.5375 -30.5375
   -30.5348 -30.5348 -30.5326 -30.5326 -30.4862 -30.4862 -30.4839 -30.4839
   -30.4492 -30.4492 -30.4446 -30.4446 -30.3989 -30.3989 -30.3949 -30.3949
   -20.2988 -20.2987 -20.2987 -20.2987 -20.2987 -20.2986 -20.2986 -20.2986
   -20.2748 -20.2748 -20.2736 -20.2736 -20.2735 -20.2735 -20.2730 -20.2729
   -20.2728 -20.2728 -20.2725 -20.2725 -20.2723 -20.2723 -20.2716 -20.2716
   -20.2714 -20.2713 -20.2710 -20.2710 -20.2679 -20.2679 -20.2675 -20.2675
   -20.2662 -20.2662 -20.2661 -20.2661 -20.2634 -20.2634 -20.2632 -20.2632
   -20.2610 -20.2609 -20.2609 -20.2609 -20.2606 -20.2606 -20.2606 -20.2605
   -20.2593 -20.2593 -20.2593 -20.2593 -20.2557 -20.2556 -20.2556 -20.2556
    -9.7416  -9.7416  -9.6027  -9.6027  -9.0312  -9.0312  -8.8814  -8.8813
    -8.8012  -8.8012  -8.7800  -8.7800  -8.6118  -8.6118  -8.5771  -8.5771
    -7.9174  -7.9174  -7.8991  -7.8991  -7.6838  -7.6838  -7.6365  -7.6364
     1.1650   1.1650   1.1748   1.1748   1.9167   1.9167   1.9737   1.9737
     2.7476   2.7476   2.8849   2.8849   2.9401   2.9401   3.0256   3.0256
     3.0613   3.0613   3.1949   3.1950   3.2883   3.2883   3.7016   3.7016
     3.7852   3.7852   4.0467   4.0467   4.4879   4.4879   4.6309   4.6309
     4.6861   4.6861   4.7616   4.7616   4.8698   4.8698   5.4641   5.4641
     5.6403   5.6403   5.7761   5.7761   5.8893   5.8893   6.1678   6.1678
     6.4420   6.4420   6.6024   6.6024   6.6421   6.6421   6.7500   6.7501
     6.8545   6.8545   6.9979   6.9979   7.0724   7.0724   7.4966   7.4966
     7.5196   7.5196   7.6936   7.6936   7.7232   7.7232   8.1198   8.1198
    10.0786  10.0786  11.3130  11.3130  11.3386  11.3386  11.5997  11.5997
    11.6411  11.6411  12.3226  12.3226  12.8145  12.8146  12.9298  12.9298
    13.0916  13.0916  13.1694  13.1694  13.2469  13.2469  13.8950  13.8950
    14.7759  14.7759  15.4761  15.4761  16.0869  16.0869  16.5427  16.5427
    17.3217  17.3217  17.7412  17.7414  17.9078

          k = 0.1667 0.3150 0.1667 ( 62249 PWs)   bands (ev):

   -66.1529 -66.1527 -66.1521 -66.1520 -66.1519 -66.1518 -66.1512 -66.1510
   -30.5882 -30.5874 -30.5838 -30.5833 -30.5818 -30.5806 -30.5797 -30.5783
   -30.4903 -30.4891 -30.4882 -30.4869 -30.4861 -30.4854 -30.4822 -30.4813
   -30.4412 -30.4367 -30.4365 -30.4321 -30.4119 -30.4078 -30.4076 -30.4036
   -20.2988 -20.2988 -20.2987 -20.2987 -20.2987 -20.2986 -20.2986 -20.2985
   -20.2747 -20.2743 -20.2742 -20.2738 -20.2737 -20.2736 -20.2732 -20.2728
   -20.2728 -20.2722 -20.2721 -20.2720 -20.2719 -20.2717 -20.2715 -20.2714
   -20.2713 -20.2712 -20.2708 -20.2706 -20.2691 -20.2688 -20.2686 -20.2681
   -20.2666 -20.2666 -20.2656 -20.2655 -20.2648 -20.2647 -20.2634 -20.2634
   -20.2628 -20.2627 -20.2626 -20.2625 -20.2615 -20.2615 -20.2600 -20.2600
   -20.2570 -20.2569 -20.2564 -20.2564 -20.2557 -20.2556 -20.2549 -20.2548
    -9.9671  -9.8808  -9.6078  -9.5958  -9.5470  -9.5330  -9.2883  -9.2796
    -8.5844  -8.5331  -8.5320  -8.5231  -8.0050  -7.9751  -7.9739  -7.9455
    -7.9429  -7.9340  -7.9032  -7.8878  -7.8828  -7.8598  -7.8483  -7.8304
     0.9611   0.9649   1.1492   1.1500   1.1697   1.1710   1.4614   1.4865
     2.2752   2.3149   2.5294   2.6170   2.6276   2.7347   2.9356   2.9494
     3.0232   3.0528   3.5798   3.6078   3.6363   3.6945   4.1079   4.1148
     4.1283   4.1356   4.1915   4.5643   4.5717   4.7737   4.8675   4.9345
     4.9680   4.9785   5.0426   5.1141   5.2694   5.3742   5.4365   5.4400
     5.7281   5.7323   5.8183   5.8193   5.9471   5.9526   6.1973   6.2111
     6.3180   6.3423   6.3750   6.4960   6.5178   6.6831   6.7111   6.7406
     6.8768   6.8867   6.9593   6.9758   6.9920   7.0016   7.1975   7.2275
     7.2413   7.2495   7.9024   7.9056   7.9178   7.9237   7.9916   8.0081
     9.7805   9.7864  10.5235  10.5727  10.6140  10.6208  11.7667  11.8164
    11.8555  11.8669  12.6318  12.6421  12.6481  12.6568  13.1307  13.1723
    13.1965  13.2210  13.6090  13.6394  13.6547  13.6813  13.8964  13.9142
    15.4651  15.5746  15.5802  15.5980  15.7719  15.7751  16.5690  16.6249
    16.6320  16.7990  17.3741  17.5243  17.5336

          k = 0.1667 0.3150 0.3333 ( 62265 PWs)   bands (ev):

   -66.1527 -66.1525 -66.1522 -66.1520 -66.1519 -66.1517 -66.1514 -66.1512
   -30.5842 -30.5828 -30.5810 -30.5795 -30.5670 -30.5656 -30.5620 -30.5606
   -30.5111 -30.5099 -30.5064 -30.5053 -30.4871 -30.4858 -30.4842 -30.4829
   -30.4401 -30.4373 -30.4356 -30.4329 -30.4109 -30.4084 -30.4068 -30.4043
   -20.2988 -20.2987 -20.2987 -20.2987 -20.2987 -20.2986 -20.2986 -20.2986
   -20.2746 -20.2744 -20.2739 -20.2737 -20.2735 -20.2733 -20.2730 -20.2729
   -20.2726 -20.2725 -20.2723 -20.2720 -20.2719 -20.2717 -20.2715 -20.2714
   -20.2712 -20.2711 -20.2708 -20.2707 -20.2690 -20.2687 -20.2687 -20.2682
   -20.2665 -20.2664 -20.2658 -20.2658 -20.2640 -20.2638 -20.2629 -20.2628
   -20.2624 -20.2624 -20.2617 -20.2617 -20.2609 -20.2609 -20.2604 -20.2604
   -20.2586 -20.2585 -20.2573 -20.2573 -20.2561 -20.2560 -20.2552 -20.2552
    -9.8236  -9.7369  -9.6301  -9.5623  -9.3273  -9.2553  -9.1372  -9.1233
    -8.6500  -8.5791  -8.5137  -8.5122  -8.3480  -8.3266  -8.2921  -8.2393
    -7.9645  -7.9608  -7.9238  -7.9214  -7.9171  -7.8877  -7.8735  -7.8460
     1.1468   1.1475   1.1737   1.1750   1.9423   1.9641   2.0564   2.1159
     2.5288   2.5505   2.5754   2.6058   2.6261   2.7594   2.9490   3.0139
     3.2019   3.2756   3.4685   3.5587   3.6381   3.6444   3.7269   3.7683
     4.1403   4.2153   4.2994   4.3204   4.3680   4.4159   4.4912   4.5466
     4.5625   4.7482   4.7786   4.8428   4.9483   4.9756   4.9795   5.1451
     5.2961   5.4064   5.4642   5.6986   5.7434   5.9446   5.9707   6.0237
     6.3798   6.4772   6.5746   6.6930   6.7288   6.7766   6.8193   6.8300
     6.9178   6.9810   7.0836   7.1028   7.1535   7.2289   7.2357   7.2684
     7.3097   7.3294   7.7933   7.8179   7.8282   7.8408   7.9179   7.9471
    10.4404  10.4784  10.5946  10.6257  11.0865  11.1247  11.8057  11.8539
    12.0725  12.1128  12.1179  12.1557  12.5995  12.6350  12.8068  12.8434
    13.1018  13.1746  13.1828  13.2396  13.5247  13.5802  13.6883  13.7400
    15.5439  15.5825  15.8774  16.0963  16.1814  16.5034  16.5845  16.6969
    16.9046  16.9187  17.5529  17.6914  17.7494

          k = 0.1667 0.3150-0.5000 ( 62264 PWs)   bands (ev):

   -66.1525 -66.1525 -66.1523 -66.1523 -66.1516 -66.1516 -66.1514 -66.1514
   -30.5826 -30.5825 -30.5811 -30.5810 -30.5393 -30.5392 -30.5380 -30.5379
   -30.5344 -30.5343 -30.5331 -30.5330 -30.4857 -30.4857 -30.4844 -30.4844
   -30.4387 -30.4387 -30.4342 -30.4342 -30.4096 -30.4096 -30.4055 -30.4055
   -20.2987 -20.2987 -20.2987 -20.2987 -20.2986 -20.2986 -20.2986 -20.2986
   -20.2745 -20.2745 -20.2738 -20.2738 -20.2732 -20.2732 -20.2729 -20.2729
   -20.2727 -20.2726 -20.2723 -20.2723 -20.2718 -20.2718 -20.2716 -20.2716
   -20.2710 -20.2710 -20.2709 -20.2709 -20.2689 -20.2688 -20.2685 -20.2685
   -20.2662 -20.2662 -20.2661 -20.2661 -20.2634 -20.2634 -20.2633 -20.2632
   -20.2610 -20.2609 -20.2609 -20.2609 -20.2606 -20.2606 -20.2606 -20.2606
   -20.2593 -20.2593 -20.2593 -20.2593 -20.2557 -20.2556 -20.2556 -20.2556
    -9.6999  -9.6999  -9.6226  -9.6225  -8.9342  -8.9342  -8.8412  -8.8412
    -8.8149  -8.8149  -8.7885  -8.7885  -8.4805  -8.4805  -8.4599  -8.4599
    -7.9568  -7.9568  -7.9293  -7.9293  -7.9040  -7.9040  -7.8610  -7.8610
     1.1733   1.1733   1.1755   1.1755   2.5076   2.5076   2.5893   2.5893
     2.8793   2.8793   2.9109   2.9109   2.9859   2.9859   3.0559   3.0560
     3.0740   3.0740   3.2661   3.2661   3.2738   3.2738   3.6305   3.6305
     3.9254   3.9254   3.9855   3.9855   4.0618   4.0618   4.3083   4.3083
     4.6379   4.6379   4.6907   4.6907   4.8899   4.8899   4.9982   4.9983
     5.0847   5.0847   5.5283   5.5283   5.7948   5.7948   5.9513   5.9513
     6.5510   6.5510   6.6419   6.6419   6.6770   6.6770   6.8130   6.8130
     7.0986   7.0986   7.1701   7.1701   7.2405   7.2405   7.4792   7.4792
     7.5482   7.5482   7.6110   7.6110   7.6381   7.6381   7.9275   7.9276
    10.5791  10.5791  11.3155  11.3155  11.3426  11.3426  11.7372  11.7372
    11.8461  11.8461  11.9679  11.9679  12.5621  12.5621  12.6149  12.6149
    13.0732  13.0732  13.1718  13.1718  13.2834  13.2835  13.6796  13.6796
    15.5699  15.5699  16.3257  16.3257  16.4332  16.4332  16.4985  16.4985
    17.3276  17.3276  17.4720  17.4721  17.9405

          k = 0.1667-0.4725 0.1667 ( 62220 PWs)   bands (ev):

   -66.1528 -66.1528 -66.1520 -66.1519 -66.1519 -66.1519 -66.1511 -66.1511
   -30.5877 -30.5877 -30.5836 -30.5836 -30.5812 -30.5812 -30.5790 -30.5790
   -30.4897 -30.4897 -30.4876 -30.4875 -30.4857 -30.4857 -30.4818 -30.4818
   -30.4266 -30.4266 -30.4223 -30.4223 -30.4221 -30.4221 -30.4179 -30.4179
   -20.2988 -20.2988 -20.2987 -20.2987 -20.2986 -20.2986 -20.2986 -20.2985
   -20.2744 -20.2744 -20.2739 -20.2739 -20.2737 -20.2737 -20.2730 -20.2730
   -20.2724 -20.2724 -20.2719 -20.2719 -20.2719 -20.2719 -20.2711 -20.2711
   -20.2705 -20.2704 -20.2701 -20.2701 -20.2699 -20.2699 -20.2694 -20.2694
   -20.2666 -20.2666 -20.2656 -20.2655 -20.2648 -20.2647 -20.2634 -20.2634
   -20.2628 -20.2627 -20.2626 -20.2626 -20.2615 -20.2615 -20.2600 -20.2600
   -20.2570 -20.2570 -20.2564 -20.2564 -20.2557 -20.2557 -20.2549 -20.2548
    -9.9195  -9.9195  -9.5730  -9.5730  -9.5598  -9.5598  -9.2839  -9.2839
    -8.2908  -8.2905  -8.2584  -8.2579  -8.2561  -8.2558  -8.2466  -8.2460
    -7.9380  -7.9374  -7.9294  -7.9293  -7.8834  -7.8833  -7.8557  -7.8556
     0.9628   0.9630   1.1505   1.1508   1.1714   1.1717   1.4806   1.4808
     2.2951   2.2953   3.1579   3.1584   3.1741   3.1798   3.2387   3.2422
     3.3134   3.3139   3.3868   3.3873   3.6389   3.6400   3.6412   3.6443
     3.8345   3.8348   4.1127   4.1201   4.1284   4.1341   4.9265   4.9349
     5.0412   5.0465   5.2038   5.2179   5.2182   5.2290   5.4293   5.4369
     5.5398   5.5432   5.7696   5.7853   5.7855   5.7960   6.2318   6.2330
     6.3315   6.3387   6.5034   6.5120   6.5271   6.5284   6.7946   6.7987
     6.8010   6.8073   6.9754   6.9780   7.0276   7.0284   7.5732   7.5739
     7.5865   7.5877   7.5898   7.5956   7.5996   7.6038   7.9952   7.9952
     9.7844   9.7852  11.1533  11.1640  11.2015  11.2175  11.2350  11.2422
    11.2686  11.2688  12.6328  12.6431  12.6500  12.6576  13.3325  13.3337
    13.3751  13.3890  13.4055  13.4059  13.4210  13.4297  13.8883  13.8887
    15.7662  15.7676  16.0168  16.0187  16.2592  16.2636  16.2724  16.2758
    16.5343  16.5358  17.8300  17.8378  17.8535

          k = 0.1667-0.4725 0.3333 ( 62252 PWs)   bands (ev):

   -66.1526 -66.1526 -66.1521 -66.1521 -66.1518 -66.1517 -66.1513 -66.1512
   -30.5835 -30.5835 -30.5803 -30.5802 -30.5663 -30.5663 -30.5613 -30.5613
   -30.5105 -30.5105 -30.5058 -30.5058 -30.4864 -30.4864 -30.4836 -30.4836
   -30.4256 -30.4255 -30.4229 -30.4229 -30.4213 -30.4213 -30.4187 -30.4187
   -20.2988 -20.2987 -20.2987 -20.2987 -20.2986 -20.2986 -20.2986 -20.2986
   -20.2742 -20.2742 -20.2740 -20.2740 -20.2734 -20.2734 -20.2728 -20.2728
   -20.2726 -20.2726 -20.2721 -20.2721 -20.2718 -20.2718 -20.2713 -20.2713
   -20.2703 -20.2703 -20.2700 -20.2700 -20.2699 -20.2699 -20.2696 -20.2695
   -20.2665 -20.2664 -20.2658 -20.2658 -20.2639 -20.2639 -20.2629 -20.2629
   -20.2624 -20.2624 -20.2617 -20.2617 -20.2609 -20.2609 -20.2604 -20.2604
   -20.2586 -20.2585 -20.2573 -20.2573 -20.2561 -20.2560 -20.2552 -20.2552
    -9.7752  -9.7751  -9.5913  -9.5913  -9.2844  -9.2842  -9.1298  -9.1297
    -8.4259  -8.4250  -8.4005  -8.3988  -8.2526  -8.2509  -8.2444  -8.2431
    -8.1889  -8.1881  -8.1512  -8.1501  -7.9181  -7.9177  -7.8807  -7.8805
     1.1478   1.1480   1.1753   1.1758   1.9609   1.9615   2.1056   2.1057
     2.5670   2.5680   3.1662   3.1775   3.2235   3.2273   3.2614   3.2865
     3.3623   3.3644   3.4332   3.4448   3.5348   3.5483   3.6188   3.6294
     3.7511   3.7565   3.8585   3.8645   4.2992   4.3031   4.3972   4.4098
     4.5452   4.5754   4.8016   4.8045   4.8988   4.9422   4.9562   4.9693
     5.2199   5.2453   5.3377   5.4089   5.7817   5.7936   5.9714   5.9870
     6.4491   6.4498   6.6692   6.6938   6.7654   6.7784   6.8193   6.8348
     6.9130   6.9551   7.1945   7.1986   7.2463   7.2582   7.5388   7.5422
     7.5519   7.5605   7.5678   7.5698   7.6047   7.6183   7.8495   7.8556
    10.4782  10.4793  11.2084  11.2145  11.2396  11.2429  11.5738  11.5753
    11.6151  11.6255  12.1061  12.1332  12.7791  12.8363  12.8531  12.8678
    12.8737  12.9008  13.3047  13.3471  13.4012  13.4111  13.6196  13.6638
    16.0439  16.0527  16.2342  16.2386  16.4217  16.4327  16.9729  16.9759
    17.0323  17.0375  17.3132  17.3241  17.8620

          k = 0.1667-0.4725-0.5000 ( 62232 PWs)   bands (ev):

   -66.1524 -66.1524 -66.1524 -66.1524 -66.1515 -66.1515 -66.1515 -66.1515
   -30.5818 -30.5818 -30.5818 -30.5818 -30.5386 -30.5386 -30.5386 -30.5386
   -30.5337 -30.5337 -30.5337 -30.5337 -30.4850 -30.4850 -30.4850 -30.4850
   -30.4242 -30.4242 -30.4242 -30.4242 -30.4199 -30.4199 -30.4199 -30.4199
   -20.2987 -20.2987 -20.2987 -20.2987 -20.2986 -20.2986 -20.2986 -20.2986
   -20.2741 -20.2741 -20.2741 -20.2741 -20.2730 -20.2729 -20.2729 -20.2729
   -20.2725 -20.2724 -20.2724 -20.2724 -20.2716 -20.2716 -20.2716 -20.2715
   -20.2701 -20.2701 -20.2701 -20.2701 -20.2698 -20.2698 -20.2697 -20.2697
   -20.2662 -20.2662 -20.2662 -20.2661 -20.2633 -20.2633 -20.2633 -20.2633
   -20.2610 -20.2609 -20.2609 -20.2609 -20.2606 -20.2606 -20.2606 -20.2606
   -20.2593 -20.2593 -20.2593 -20.2593 -20.2556 -20.2556 -20.2556 -20.2556
    -9.6560  -9.6560  -9.6560  -9.6560  -8.8606  -8.8606  -8.8598  -8.8598
    -8.8045  -8.8045  -8.8036  -8.8036  -8.2403  -8.2403  -8.2392  -8.2391
    -8.2191  -8.2191  -8.2177  -8.2177  -7.8996  -7.8996  -7.8992  -7.8992
     1.1754   1.1754   1.1758   1.1758   2.8935   2.8935   2.8943   2.8943
     2.9890   2.9890   3.0064   3.0064   3.1303   3.1303   3.1624   3.1624
     3.2725   3.2726   3.2868   3.2868   3.4225   3.4225   3.4230   3.4230
     3.6561   3.6561   3.6673   3.6673   4.2643   4.2644   4.2678   4.2678
     4.3496   4.3496   4.3587   4.3588   4.6597   4.6597   4.7104   4.7104
     5.2313   5.2313   5.2903   5.2903   5.8179   5.8179   5.8330   5.8330
     6.6070   6.6070   6.6235   6.6235   6.7524   6.7524   6.7617   6.7617
     7.3290   7.3290   7.3848   7.3848   7.4362   7.4362   7.4378   7.4379
     7.4769   7.4770   7.5034   7.5035   7.6609   7.6609   7.6795   7.6795
    11.1637  11.1637  11.2002  11.2002  11.3487  11.3487  11.4000  11.4000
    12.1701  12.1701  12.1782  12.1782  12.2112  12.2112  12.2221  12.2221
    13.0988  13.0988  13.1719  13.1719  13.4014  13.4014  13.4650  13.4650
    16.1769  16.1769  16.1844  16.1844  16.8240  16.8240  16.8265  16.8265
    17.6313  17.6316  17.6590  17.6590  17.8202

          k = 0.3333 0.0000 0.3333 ( 62316 PWs)   bands (ev):

   -66.1526 -66.1522 -66.1522 -66.1521 -66.1518 -66.1517 -66.1516 -66.1512
   -30.5677 -30.5662 -30.5644 -30.5631 -30.5614 -30.5607 -30.5606 -30.5585
   -30.5109 -30.5095 -30.5088 -30.5075 -30.5075 -30.5054 -30.5039 -30.5025
   -30.4535 -30.4506 -30.4505 -30.4478 -30.3953 -30.3930 -30.3929 -30.3906
   -20.2988 -20.2987 -20.2987 -20.2987 -20.2987 -20.2986 -20.2986 -20.2986
   -20.2748 -20.2745 -20.2741 -20.2737 -20.2736 -20.2735 -20.2733 -20.2730
   -20.2729 -20.2726 -20.2725 -20.2724 -20.2723 -20.2721 -20.2719 -20.2718
   -20.2715 -20.2714 -20.2712 -20.2709 -20.2676 -20.2674 -20.2673 -20.2670
   -20.2656 -20.2655 -20.2651 -20.2650 -20.2642 -20.2639 -20.2635 -20.2633
   -20.2624 -20.2624 -20.2619 -20.2618 -20.2604 -20.2604 -20.2596 -20.2596
   -20.2584 -20.2583 -20.2577 -20.2577 -20.2573 -20.2572 -20.2565 -20.2565
    -9.7053  -9.5024  -9.4387  -9.4314  -9.2638  -9.2512  -9.0398  -9.0224
    -8.9634  -8.7538  -8.7510  -8.7161  -8.3970  -8.3171  -8.3136  -8.3063
    -8.3015  -8.2974  -8.2291  -8.2053  -7.5882  -7.5598  -7.5584  -7.5311
     1.6182   1.6384   1.6394   1.7043   1.7896   1.7996   1.9680   1.9825
     2.0678   2.0794   2.2584   2.4047   2.8270   2.8878   2.9047   2.9339
     2.9355   3.0132   3.6475   3.6632   3.7763   3.7953   3.8727   3.9041
     4.0799   4.1037   4.1097   4.1972   4.2466   4.2467   4.3750   4.3906
     4.5969   4.7301   4.7484   4.8050   4.8065   4.8121   4.8937   5.2078
     5.2480   5.3126   5.3330   5.7110   6.1911   6.1945   6.2201   6.2636
     6.5288   6.5517   6.5648   6.6666   6.7149   6.7799   6.7999   6.8003
     6.9765   7.0348   7.0409   7.0550   7.1501   7.1544   7.1992   7.2293
     7.2380   7.4500   7.7160   7.7297   7.9734   8.0359   8.0498   8.0878
    10.5547  10.6411  10.6438  10.6916  10.9647  11.0145  12.2453  12.2562
    12.2828  12.3315  12.3415  12.3443  12.4607  12.4706  12.6859  12.7061
    12.7246  12.7974  13.1755  13.2365  13.5158  13.5804  13.5976  13.6882
    14.4817  14.7408  14.7448  15.1540  15.9393  16.9473  16.9530  16.9845
    17.0139  17.7082  17.7697  17.7754  17.8479

          k = 0.3333 0.0000-0.5000 ( 62288 PWs)   bands (ev):

   -66.1524 -66.1524 -66.1520 -66.1520 -66.1519 -66.1519 -66.1515 -66.1515
   -30.5633 -30.5632 -30.5605 -30.5604 -30.5388 -30.5388 -30.5363 -30.5362
   -30.5361 -30.5361 -30.5335 -30.5335 -30.5070 -30.5070 -30.5045 -30.5045
   -30.4520 -30.4520 -30.4492 -30.4492 -30.3941 -30.3941 -30.3917 -30.3917
   -20.2987 -20.2987 -20.2987 -20.2987 -20.2987 -20.2987 -20.2986 -20.2986
   -20.2746 -20.2746 -20.2739 -20.2739 -20.2733 -20.2733 -20.2730 -20.2730
   -20.2729 -20.2728 -20.2726 -20.2726 -20.2723 -20.2723 -20.2718 -20.2718
   -20.2713 -20.2713 -20.2711 -20.2711 -20.2675 -20.2675 -20.2672 -20.2672
   -20.2654 -20.2654 -20.2653 -20.2653 -20.2638 -20.2638 -20.2636 -20.2636
   -20.2606 -20.2605 -20.2605 -20.2605 -20.2602 -20.2602 -20.2601 -20.2601
   -20.2595 -20.2595 -20.2594 -20.2594 -20.2570 -20.2570 -20.2569 -20.2569
    -9.5285  -9.5284  -9.3249  -9.3249  -9.1313  -9.1313  -8.8494  -8.8494
    -8.8211  -8.8211  -8.7485  -8.7485  -8.6372  -8.6372  -8.6162  -8.6162
    -8.2836  -8.2836  -8.2794  -8.2793  -7.5741  -7.5741  -7.5449  -7.5449
     1.6332   1.6332   1.6910   1.6910   1.9751   1.9751   2.0520   2.0520
     2.8991   2.8991   2.9565   2.9565   2.9812   2.9812   3.0553   3.0553
     3.0641   3.0641   3.3663   3.3663   3.4585   3.4586   3.6971   3.6971
     3.7007   3.7007   3.9114   3.9114   4.0847   4.0848   4.1320   4.1321
     4.4376   4.4376   4.7069   4.7069   4.8170   4.8170   4.8804   4.8804
[...]
   -20.7249 -20.7249 -20.7247 -20.7247 -20.7224 -20.7224 -20.7218 -20.7218
   -20.7198 -20.7198 -20.7197 -20.7197 -20.7183 -20.7183 -20.7180 -20.7180
   -20.7178 -20.7178 -20.7177 -20.7177 -20.7155 -20.7155 -20.7155 -20.7155
   -20.7148 -20.7148 -20.7147 -20.7147 -20.7124 -20.7124 -20.7121 -20.7121
    -9.8235  -9.8235  -9.6669  -9.6669  -9.3450  -9.3450  -9.1287  -9.1287
    -8.9483  -8.9482  -8.8906  -8.8905  -8.8437  -8.8436  -8.8154  -8.8153
    -8.4864  -8.4864  -8.4613  -8.4613  -8.1507  -8.1507  -8.1333  -8.1333
     1.1331   1.1331   1.1432   1.1432   1.9347   1.9347   2.0242   2.0242
     2.6747   2.6747   2.7952   2.7953   2.8210   2.8211   2.9054   2.9054
     2.9276   2.9276   3.1244   3.1244   3.1407   3.1407   3.4210   3.4210
     3.5732   3.5732   3.6104   3.6104   3.8148   3.8148   4.0170   4.0171
     4.3184   4.3184   4.4534   4.4534   4.5408   4.5408   4.6165   4.6165
     4.6955   4.6956   5.1251   5.1251   5.4953   5.4953   5.6018   5.6018
     6.3208   6.3208   6.3962   6.3962   6.4805   6.4805   6.5192   6.5192
     6.7223   6.7223   6.7733   6.7733   6.8874   6.8874   7.2105   7.2106
     7.2434   7.2434   7.2808   7.2808   7.3243   7.3244   7.5819   7.5819
    10.1943  10.1943  10.8244  10.8244  10.8475  10.8475  11.3000  11.3000
    11.3665  11.3665  11.6326  11.6326  12.2034  12.2034  12.2369  12.2369
    12.4952  12.4952  12.5672  12.5672  12.6518  12.6518  13.1777  13.1777
    15.0434  15.0434  15.5254  15.5254  16.0028  16.0028  16.3255  16.3255
    16.6703  16.6703  16.9530  16.9530  17.4974

          k = 0.3272 0.4799 0.1635 ( 63682 PWs)   bands (ev):

   -66.5826 -66.5826 -66.5822 -66.5822 -66.5820 -66.5820 -66.5816 -66.5816
   -30.9141 -30.9141 -30.9120 -30.9119 -30.9074 -30.9071 -30.9063 -30.9062
   -30.9022 -30.9021 -30.9019 -30.9018 -30.8919 -30.8919 -30.8893 -30.8892
   -30.8516 -30.8516 -30.8483 -30.8482 -30.8349 -30.8348 -30.8327 -30.8327
   -20.7537 -20.7537 -20.7537 -20.7537 -20.7536 -20.7536 -20.7535 -20.7535
   -20.7278 -20.7278 -20.7275 -20.7275 -20.7269 -20.7269 -20.7267 -20.7267
   -20.7255 -20.7254 -20.7252 -20.7252 -20.7249 -20.7249 -20.7247 -20.7247
   -20.7241 -20.7241 -20.7239 -20.7238 -20.7235 -20.7235 -20.7233 -20.7232
   -20.7201 -20.7201 -20.7195 -20.7195 -20.7192 -20.7192 -20.7188 -20.7187
   -20.7175 -20.7174 -20.7173 -20.7172 -20.7165 -20.7164 -20.7159 -20.7159
   -20.7141 -20.7140 -20.7133 -20.7133 -20.7124 -20.7123 -20.7121 -20.7121
    -9.8412  -9.8412  -9.6583  -9.6582  -9.3846  -9.3845  -9.1754  -9.1754
    -8.9292  -8.9289  -8.8549  -8.8546  -8.8172  -8.8167  -8.8110  -8.8110
    -8.4818  -8.4817  -8.4437  -8.4434  -8.1587  -8.1587  -8.1255  -8.1254
     1.1309   1.1319   1.1379   1.1388   1.8642   1.8647   1.9735   1.9747
     2.6391   2.6410   2.8288   2.8320   2.8814   2.8855   2.9139   2.9303
     2.9502   2.9661   3.1171   3.1257   3.1648   3.1869   3.3439   3.3442
     3.4030   3.4098   3.5603   3.5927   3.9751   3.9855   4.1376   4.1516
     4.2547   4.3021   4.4536   4.4744   4.5052   4.5716   4.6079   4.6168
     4.7144   4.7453   5.0305   5.0703   5.4502   5.4599   5.7343   5.7413
     6.3016   6.3036   6.3500   6.3590   6.4820   6.4827   6.6358   6.6385
     6.7368   6.7478   6.8221   6.8372   6.9215   6.9240   7.1629   7.1727
     7.1868   7.1950   7.2228   7.2247   7.2542   7.2683   7.6044   7.6092
    10.0460  10.0483  10.8689  10.8789  10.8928  10.8974  11.2342  11.2423
    11.2625  11.2736  11.5519  11.5840  12.1971  12.2409  12.3364  12.3388
    12.3688  12.3756  12.7531  12.8273  12.8382  12.8569  12.9376  13.0088
    15.1709  15.1776  15.4833  15.4907  15.9491  15.9561  16.4235  16.4413
    16.6302  16.6358  16.9892  17.0191  17.4890

          k =-0.4907 0.4799 0.1635 ( 63680 PWs)   bands (ev):

   -66.5824 -66.5824 -66.5824 -66.5824 -66.5818 -66.5818 -66.5818 -66.5818
   -30.9130 -30.9130 -30.9129 -30.9129 -30.9040 -30.9040 -30.9039 -30.9039
   -30.9035 -30.9035 -30.9031 -30.9031 -30.8732 -30.8732 -30.8724 -30.8724
   -30.8697 -30.8697 -30.8691 -30.8691 -30.8338 -30.8338 -30.8338 -30.8338
   -20.7537 -20.7537 -20.7537 -20.7537 -20.7536 -20.7536 -20.7535 -20.7535
   -20.7277 -20.7277 -20.7276 -20.7276 -20.7268 -20.7268 -20.7268 -20.7268
   -20.7252 -20.7252 -20.7252 -20.7251 -20.7249 -20.7249 -20.7249 -20.7249
   -20.7240 -20.7240 -20.7239 -20.7239 -20.7234 -20.7234 -20.7233 -20.7233
   -20.7198 -20.7198 -20.7197 -20.7197 -20.7182 -20.7182 -20.7181 -20.7181
   -20.7178 -20.7178 -20.7178 -20.7178 -20.7155 -20.7155 -20.7155 -20.7155
   -20.7148 -20.7148 -20.7148 -20.7148 -20.7122 -20.7122 -20.7122 -20.7122
    -9.7274  -9.7274  -9.7253  -9.7253  -9.0878  -9.0877  -9.0780  -9.0779
    -8.9564  -8.9563  -8.9478  -8.9478  -8.7659  -8.7659  -8.7515  -8.7514
    -8.7303  -8.7303  -8.7164  -8.7163  -8.1424  -8.1424  -8.1423  -8.1423
     1.1415   1.1415   1.1437   1.1437   2.6796   2.6796   2.7471   2.7472
     2.7751   2.7751   2.8117   2.8117   2.8897   2.8897   2.9188   2.9189
     2.9897   2.9897   3.0710   3.0710   3.1170   3.1170   3.1635   3.1635
     3.2011   3.2011   3.3558   3.3559   3.8628   3.8628   3.9181   3.9181
     3.9357   3.9357   3.9960   3.9960   4.4439   4.4439   4.5082   4.5082
     4.8116   4.8116   4.8783   4.8783   5.5131   5.5131   5.5239   5.5239
     6.3985   6.3985   6.4437   6.4437   6.4655   6.4655   6.5028   6.5028
     7.0022   7.0022   7.0245   7.0245   7.0730   7.0730   7.1125   7.1125
     7.1217   7.1217   7.1940   7.1940   7.3605   7.3605   7.3848   7.3848
    10.7631  10.7631  10.8042  10.8043  10.9098  10.9098  10.9638  10.9638
    11.7214  11.7214  11.7592  11.7593  11.7960  11.7960  11.8203  11.8203
    12.4969  12.4969  12.5593  12.5593  12.8374  12.8374  12.8903  12.8903
    15.3741  15.3741  15.3829  15.3829  16.4807  16.4808  16.5149  16.5149
    17.2638  17.2638  17.3069  17.3070  17.3719

          k =-0.4907 0.0000 0.3270 ( 63634 PWs)   bands (ev):

   -66.5825 -66.5825 -66.5822 -66.5822 -66.5820 -66.5820 -66.5817 -66.5817
   -30.9408 -30.9408 -30.9386 -30.9386 -30.8972 -30.8972 -30.8920 -30.8920
   -30.8781 -30.8781 -30.8780 -30.8780 -30.8724 -30.8724 -30.8721 -30.8721
   -30.8637 -30.8637 -30.8617 -30.8617 -30.8494 -30.8494 -30.8481 -30.8481
   -20.7537 -20.7537 -20.7536 -20.7536 -20.7536 -20.7536 -20.7535 -20.7535
   -20.7281 -20.7281 -20.7278 -20.7278 -20.7271 -20.7271 -20.7268 -20.7268
   -20.7266 -20.7266 -20.7263 -20.7263 -20.7255 -20.7255 -20.7254 -20.7254
   -20.7247 -20.7247 -20.7245 -20.7245 -20.7209 -20.7209 -20.7204 -20.7204
   -20.7191 -20.7191 -20.7188 -20.7188 -20.7183 -20.7183 -20.7179 -20.7179
   -20.7172 -20.7171 -20.7171 -20.7171 -20.7154 -20.7154 -20.7153 -20.7153
   -20.7151 -20.7151 -20.7149 -20.7149 -20.7137 -20.7137 -20.7131 -20.7131
    -9.8486  -9.8485  -9.6683  -9.6683  -9.3900  -9.3900  -9.1591  -9.1591
    -8.9433  -8.9433  -8.8764  -8.8763  -8.8460  -8.8459  -8.8341  -8.8341
    -8.4727  -8.4727  -8.4555  -8.4555  -8.0842  -8.0842  -8.0619  -8.0619
     0.9834   0.9834   1.0058   1.0058   1.8752   1.8752   1.9291   1.9291
     2.5979   2.5979   2.7478   2.7478   2.7695   2.7696   2.8699   2.8700
     2.9238   2.9238   3.2538   3.2538   3.3313   3.3313   3.3893   3.3893
     3.4856   3.4856   3.6123   3.6123   3.7824   3.7824   4.0330   4.0331
     4.3552   4.3552   4.5828   4.5828   4.6529   4.6529   4.6593   4.6594
     4.9251   4.9252   5.2772   5.2773   5.7388   5.7388   5.7890   5.7890
     6.0824   6.0824   6.1087   6.1087   6.2433   6.2433   6.2650   6.2650
     6.7663   6.7664   6.9020   6.9020   6.9719   6.9719   7.2481   7.2481
     7.2569   7.2569   7.3169   7.3169   7.3792   7.3793   7.6769   7.6769
    10.1743  10.1743  10.9641  10.9641  10.9788  10.9788  11.1474  11.1474
    11.2014  11.2014  11.7836  11.7836  12.1307  12.1307  12.1748  12.1748
    12.4437  12.4437  12.7878  12.7878  12.8090  12.8090  13.2243  13.2243
    14.4947  14.4947  14.8759  14.8759  15.9054  15.9054  16.4942  16.4942
    16.8059  16.8060  16.9888  16.9888  17.6118

          k =-0.4907-0.1600 0.3270 ( 63648 PWs)   bands (ev):

   -66.5825 -66.5825 -66.5821 -66.5821 -66.5821 -66.5821 -66.5817 -66.5817
   -30.9362 -30.9362 -30.9340 -30.9340 -30.8971 -30.8971 -30.8922 -30.8922
   -30.8799 -30.8799 -30.8797 -30.8797 -30.8726 -30.8726 -30.8723 -30.8723
   -30.8657 -30.8657 -30.8645 -30.8645 -30.8497 -30.8497 -30.8483 -30.8483
   -20.7537 -20.7537 -20.7536 -20.7536 -20.7536 -20.7536 -20.7535 -20.7535
   -20.7279 -20.7279 -20.7276 -20.7276 -20.7272 -20.7271 -20.7266 -20.7266
   -20.7265 -20.7265 -20.7260 -20.7260 -20.7255 -20.7255 -20.7254 -20.7253
   -20.7247 -20.7247 -20.7246 -20.7246 -20.7213 -20.7213 -20.7208 -20.7208
   -20.7191 -20.7191 -20.7188 -20.7188 -20.7184 -20.7184 -20.7180 -20.7180
   -20.7172 -20.7172 -20.7171 -20.7171 -20.7154 -20.7154 -20.7153 -20.7153
   -20.7151 -20.7151 -20.7149 -20.7149 -20.7137 -20.7137 -20.7132 -20.7132
    -9.7901  -9.7901  -9.5921  -9.5920  -9.4001  -9.4001  -9.1351  -9.1351
    -8.9531  -8.9530  -8.8707  -8.8707  -8.8430  -8.8429  -8.8348  -8.8347
    -8.4704  -8.4704  -8.4609  -8.4609  -8.1975  -8.1975  -8.1754  -8.1754
     1.2342   1.2342   1.2607   1.2607   1.8753   1.8753   1.9357   1.9357
     2.6699   2.6700   2.7645   2.7646   2.7968   2.7968   2.8750   2.8751
     2.9247   2.9247   3.2876   3.2876   3.3612   3.3613   3.4110   3.4110
     3.4911   3.4911   3.6651   3.6651   3.7550   3.7550   4.0431   4.0431
     4.2147   4.2147   4.3697   4.3697   4.5760   4.5760   4.6297   4.6297
     4.6677   4.6678   5.0058   5.0058   5.4238   5.4238   5.5677   5.5677
     6.2480   6.2480   6.2866   6.2866   6.3597   6.3597   6.4877   6.4877
     6.7764   6.7764   6.8966   6.8966   6.9828   6.9828   7.2381   7.2381
     7.2526   7.2527   7.3082   7.3082   7.3625   7.3626   7.6306   7.6306
    10.2978  10.2978  11.0140  11.0140  11.0493  11.0493  11.1654  11.1654
    11.2285  11.2285  11.8305  11.8305  12.1307  12.1308  12.1740  12.1740
    12.2821  12.2821  12.6445  12.6445  12.6629  12.6629  13.0932  13.0932
    14.8838  14.8838  15.2842  15.2842  15.9868  15.9868  16.4917  16.4917
    16.8192  16.8192  17.0225  17.0226  17.4312

          k =-0.4907-0.3200 0.3270 ( 63646 PWs)   bands (ev):

   -66.5824 -66.5824 -66.5822 -66.5822 -66.5820 -66.5820 -66.5818 -66.5818
   -30.9238 -30.9238 -30.9214 -30.9214 -30.8979 -30.8979 -30.8927 -30.8927
   -30.8884 -30.8884 -30.8873 -30.8873 -30.8729 -30.8729 -30.8719 -30.8719
   -30.8690 -30.8690 -30.8686 -30.8686 -30.8499 -30.8499 -30.8488 -30.8488
   -20.7537 -20.7537 -20.7536 -20.7536 -20.7536 -20.7536 -20.7536 -20.7535
   -20.7277 -20.7277 -20.7273 -20.7273 -20.7272 -20.7272 -20.7268 -20.7268
   -20.7255 -20.7255 -20.7253 -20.7253 -20.7252 -20.7252 -20.7251 -20.7251
   -20.7248 -20.7248 -20.7247 -20.7247 -20.7224 -20.7224 -20.7220 -20.7220
   -20.7190 -20.7190 -20.7189 -20.7189 -20.7184 -20.7184 -20.7181 -20.7181
   -20.7172 -20.7172 -20.7172 -20.7172 -20.7154 -20.7154 -20.7153 -20.7153
   -20.7151 -20.7150 -20.7149 -20.7149 -20.7136 -20.7136 -20.7133 -20.7133
    -9.6483  -9.6482  -9.4350  -9.4350  -9.3838  -9.3838  -9.0474  -9.0474
    -8.9938  -8.9937  -8.8630  -8.8630  -8.8293  -8.8292  -8.8236  -8.8235
    -8.5172  -8.5172  -8.4738  -8.4738  -8.4633  -8.4633  -8.4051  -8.4051
     1.7771   1.7771   1.8747   1.8747   1.9398   1.9398   2.0843   2.0843
     2.7917   2.7918   2.8195   2.8195   2.8542   2.8542   2.9052   2.9052
     2.9711   2.9711   3.3414   3.3414   3.3705   3.3706   3.4784   3.4784
     3.5636   3.5636   3.6407   3.6408   3.7994   3.7995   3.8220   3.8220
     3.9389   3.9389   4.1154   4.1154   4.1755   4.1755   4.4567   4.4567
     4.5222   4.5222   4.6235   4.6235   4.6386   4.6387   4.9879   4.9879
     6.5851   6.5851   6.6380   6.6380   6.6999   6.6999   6.7321   6.7321
     6.8083   6.8083   6.8864   6.8864   7.0322   7.0323   7.1848   7.1848
     7.2210   7.2210   7.2958   7.2958   7.3091   7.3092   7.4935   7.4935
    10.6568  10.6568  11.0820  11.0820  11.1341  11.1341  11.3324  11.3324
    11.4077  11.4077  11.8246  11.8246  11.9740  11.9740  12.1019  12.1019
    12.2025  12.2025  12.2919  12.2919  12.3132  12.3132  12.7707  12.7707
    15.7510  15.7510  16.2335  16.2335  16.2718  16.2718  16.4654  16.4654
    16.8878  16.8878  17.0461  17.0461  17.1626

          k =-0.4907 0.4799 0.3270 ( 63656 PWs)   bands (ev):

   -66.5823 -66.5823 -66.5823 -66.5823 -66.5819 -66.5819 -66.5819 -66.5819
   -30.9079 -30.9079 -30.9074 -30.9074 -30.9047 -30.9047 -30.9041 -30.9041
   -30.8928 -30.8928 -30.8926 -30.8926 -30.8723 -30.8723 -30.8717 -30.8717
   -30.8705 -30.8705 -30.8699 -30.8699 -30.8495 -30.8495 -30.8495 -30.8495
   -20.7537 -20.7537 -20.7537 -20.7536 -20.7536 -20.7536 -20.7536 -20.7536
   -20.7275 -20.7275 -20.7275 -20.7274 -20.7270 -20.7270 -20.7270 -20.7270
   -20.7251 -20.7251 -20.7251 -20.7251 -20.7250 -20.7250 -20.7250 -20.7250
   -20.7239 -20.7239 -20.7239 -20.7239 -20.7236 -20.7236 -20.7235 -20.7235
   -20.7190 -20.7189 -20.7189 -20.7189 -20.7183 -20.7183 -20.7182 -20.7182
   -20.7172 -20.7172 -20.7172 -20.7172 -20.7154 -20.7154 -20.7154 -20.7153
   -20.7150 -20.7150 -20.7150 -20.7150 -20.7135 -20.7135 -20.7134 -20.7134
    -9.5137  -9.5137  -9.5104  -9.5104  -9.1364  -9.1363  -9.1272  -9.1271
    -8.9063  -8.9062  -8.8981  -8.8981  -8.7599  -8.7599  -8.7475  -8.7475
    -8.7339  -8.7339  -8.7229  -8.7228  -8.4527  -8.4526  -8.4522  -8.4522
     1.8661   1.8661   1.8707   1.8707   2.6902   2.6903   2.7253   2.7254
     2.7808   2.7809   2.8013   2.8013   2.8999   2.8999   2.9486   2.9487
     3.0480   3.0480   3.0692   3.0692   3.2999   3.2999   3.3446   3.3446
     3.4166   3.4166   3.4962   3.4962   3.8430   3.8430   3.8621   3.8621
     3.9145   3.9145   3.9487   3.9487   4.0254   4.0254   4.0620   4.0621
     4.3046   4.3046   4.3728   4.3728   4.6725   4.6725   4.6816   4.6816
     6.7093   6.7093   6.7655   6.7656   6.8108   6.8109   6.8178   6.8179
     6.9766   6.9766   7.0299   7.0299   7.0635   7.0635   7.0879   7.0879
     7.1621   7.1621   7.2174   7.2174   7.3270   7.3270   7.3560   7.3560
    11.0409  11.0409  11.0832  11.0832  11.2287  11.2287  11.2996  11.2996
    11.7150  11.7150  11.7600  11.7600  11.7902  11.7902  11.8237  11.8237
    12.0875  12.0875  12.2050  12.2050  12.3711  12.3711  12.4529  12.4529
    16.2756  16.2756  16.3095  16.3095  16.6909  16.6909  16.7074  16.7074
    17.1560  17.1560  17.2558  17.2558  17.3615

     the Fermi energy is     8.5644 ev

!    total energy              =   -6261.09633646 Ry
     Harris-Foulkes estimate   =   -6261.09633646 Ry
     estimated scf accuracy    <          9.4E-12 Ry

     The total energy is the sum of the following terms:

     one-electron contribution =   -4817.65024053 Ry
     hartree contribution      =    2640.40631271 Ry
     xc contribution           =    -965.67537008 Ry
     ewald contribution        =   -3118.17703856 Ry
     smearing contrib. (-TS)   =      -0.00000000 Ry

     convergence has been achieved in  15 iterations

     Forces acting on atoms (cartesian axes, Ry/au):

     atom    1 type  1   force =    -0.00627561    0.01768650    0.00553066
     atom    2 type  1   force =     0.00627561   -0.01768650   -0.00553066
     atom    3 type  1   force =     0.00627561   -0.01768650    0.00553066
     atom    4 type  1   force =    -0.00627561    0.01768650   -0.00553066
     atom    5 type  1   force =     0.00627561    0.01768650   -0.00553066
     atom    6 type  1   force =    -0.00627561   -0.01768650    0.00553066
     atom    7 type  1   force =    -0.00627561   -0.01768650   -0.00553066
     atom    8 type  1   force =     0.00627561    0.01768650    0.00553066
     atom    9 type  2   force =    -0.00005595   -0.00943441   -0.00052065
     atom   10 type  2   force =     0.00005595    0.00943441    0.00052065
     atom   11 type  2   force =     0.00005595    0.00943441   -0.00052065
     atom   12 type  2   force =    -0.00005595   -0.00943441    0.00052065
     atom   13 type  2   force =     0.00005595   -0.00943441    0.00052065
     atom   14 type  2   force =    -0.00005595    0.00943441   -0.00052065
     atom   15 type  2   force =    -0.00005595    0.00943441    0.00052065
     atom   16 type  2   force =     0.00005595   -0.00943441   -0.00052065
     atom   17 type  2   force =    -0.00353281   -0.00063612   -0.00113878
     atom   18 type  2   force =     0.00353281    0.00063612    0.00113878
     atom   19 type  2   force =     0.00353281    0.00063612   -0.00113878
     atom   20 type  2   force =    -0.00353281   -0.00063612    0.00113878
     atom   21 type  2   force =     0.00353281   -0.00063612    0.00113878
     atom   22 type  2   force =    -0.00353281    0.00063612   -0.00113878
     atom   23 type  2   force =    -0.00353281    0.00063612    0.00113878
     atom   24 type  2   force =     0.00353281   -0.00063612   -0.00113878
     atom   25 type  2   force =    -0.00169723    0.00111228    0.00443900
     atom   26 type  2   force =     0.00169723   -0.00111228   -0.00443900
     atom   27 type  2   force =     0.00169723   -0.00111228    0.00443900
     atom   28 type  2   force =    -0.00169723    0.00111228   -0.00443900
     atom   29 type  2   force =     0.00169723    0.00111228   -0.00443900
     atom   30 type  2   force =    -0.00169723   -0.00111228    0.00443900
     atom   31 type  2   force =    -0.00169723   -0.00111228   -0.00443900
     atom   32 type  2   force =     0.00169723    0.00111228    0.00443900

     Total force =     0.000000     Total SCF correction =     0.000000


     Computing stress (Cartesian axis) and pressure

          total   stress  (Ry/bohr**3)                   (kbar)     P=    1.17
   0.00001133   0.00000000   0.00000000          1.67      0.00      0.00
   0.00000000   0.00000095   0.00000000          0.00      0.14      0.00
   0.00000000   0.00000000   0.00001163          0.00      0.00      1.71


     Writing output data file Landau_25.save
 
     init_run     :    101.06s CPU    103.83s WALL (       2 calls)
     electrons    :  12946.44s CPU  13203.36s WALL (       7 calls)
     update_pot   :    156.62s CPU    156.91s WALL (       5 calls)
     forces       :    247.69s CPU    250.67s WALL (       7 calls)
     stress       :   1738.56s CPU   1757.95s WALL (       7 calls)

     Called by init_run:
     wfcinit      :     76.31s CPU     78.80s WALL (       2 calls)
     potinit      :     10.61s CPU     10.68s WALL (       2 calls)

     Called by electrons:
     c_bands      :  11416.28s CPU  11660.94s WALL (      96 calls)
     sum_band     :   1456.63s CPU   1463.09s WALL (      96 calls)
     v_of_rho     :     13.94s CPU     14.13s WALL (     101 calls)
     mix_rho      :     24.27s CPU     28.58s WALL (      96 calls)

     Called by c_bands:
     init_us_2    :    106.89s CPU    111.59s WALL (     416 calls)
     cegterg      :  10057.81s CPU  10291.56s WALL (     192 calls)

     Called by sum_band:

     Called by *egterg:
     h_psi        :   7602.71s CPU   7633.62s WALL (     806 calls)
     g_psi        :     31.94s CPU     32.08s WALL (     610 calls)
     cdiaghg      :    115.73s CPU    115.96s WALL (     788 calls)

     Called by h_psi:
     h_psi:pot    :   7551.54s CPU   7580.72s WALL (     806 calls)
     h_psi:calbec :    924.30s CPU    943.02s WALL (     806 calls)
     vloc_psi     :   5652.17s CPU   5659.70s WALL (     806 calls)
     add_vuspsi   :    975.05s CPU    977.99s WALL (     806 calls)

     General routines
     calbec       :   1057.77s CPU   1076.76s WALL (     876 calls)
     fft          :     10.20s CPU     10.22s WALL (     462 calls)
     fftw         :   5681.93s CPU   5686.11s WALL (  250326 calls)
 
     Parallel routines
 
     PWSCF        :     4h13m CPU        4h18m WALL

 
   This run was terminated on:   4:18:22  20Mar2020            

=------------------------------------------------------------------------------=
   JOB DONE.
=------------------------------------------------------------------------------=
