
     Program PWSCF v.6.2 (svn rev. 14038) starts on  5Mar2020 at 17:50:50 

     This program is part of the open-source Quantum ESPRESSO suite
     for quantum simulation of materials; please cite
         "P. Giannozzi et al., J. Phys.:Condens. Matter 21 395502 (2009);
         "P. Giannozzi et al., J. Phys.:Condens. Matter 29 465901 (2017);
          URL http://www.quantum-espresso.org", 
     in publications or presentations arising from this work. More details at
     http://www.quantum-espresso.org/quote

     Parallel version (MPI), running on    64 processors

     MPI processes distributed on     7 nodes
     K-points division:     npool     =      64
     Reading input from rscf.in

     Current dimensions of program PWSCF are:
     Max number of different atomic species (ntypx) = 10
     Max number of k-points (npk) =  40000
     Max angular momentum in pseudopotentials (lmaxx) =  3

     Subspace diagonalization in iterative solution of the eigenvalue problem:
     a serial algorithm will be used

 
     G-vector sticks info
     --------------------
     sticks:   dense  smooth     PW     G-vecs:    dense   smooth      PW
     Sum        7747    7747   2077               498127   498127   69057
 


     bravais-lattice index     =            0
     lattice parameter (alat)  =      13.8397  a.u.
     unit-cell volume          =    2804.9816 (a.u.)^3
     number of atoms/cell      =           32
     number of atomic types    =            2
     number of electrons       =       368.00
     number of Kohn-Sham states=          221
     kinetic-energy cutoff     =     120.0000  Ry
     charge density cutoff     =     480.0000  Ry
     convergence threshold     =      1.0E-08
     mixing beta               =       0.7000
     number of iterations used =            8  plain     mixing
     Exchange-correlation      = SLA PW NOGX NOGC ( 1  4  0  0 0 0)
     nstep                     =           50


     celldm(1)=  13.839685  celldm(2)=   0.000000  celldm(3)=   0.000000
     celldm(4)=   0.000000  celldm(5)=   0.000000  celldm(6)=   0.000000

     crystal axes: (cart. coord. in units of alat)
               a(1) = (   1.000000   0.000000   0.000000 )  
               a(2) = (   0.000000   1.058160   0.000000 )  
               a(3) = (   0.000000   0.000000   1.000000 )  

     reciprocal axes: (cart. coord. in units 2 pi/alat)
               b(1) = (  1.000000  0.000000  0.000000 )  
               b(2) = (  0.000000  0.945037  0.000000 )  
               b(3) = (  0.000000  0.000000  1.000000 )  


     PseudoPot. # 1 for W  read from file:
     /cluster/scratch/mnoe/QE/pps/W_ONCV_LDA-4.0.upf
     MD5 check sum: ba0307d5d4cd419d6f1d13dc49d7c13a
     Pseudo is Norm-conserving + core correction, Zval = 28.0
     Generated using ONCVPSP code by D. R. Hamann
     Using radial grid of 1380 points,  8 beta functions with: 
                l(1) =   0
                l(2) =   0
                l(3) =   1
                l(4) =   1
                l(5) =   2
                l(6) =   2
                l(7) =   3
                l(8) =   3

     PseudoPot. # 2 for O  read from file:
     /cluster/scratch/mnoe/QE/pps/O_ONCV_LDA-3.0.upf
     MD5 check sum: a1bd6164e7280c17a38c229939bfbd54
     Pseudo is Norm-conserving + core correction, Zval =  6.0
     Generated using ONCVPSP code by D. R. Hamann
     Using radial grid of  926 points,  5 beta functions with: 
                l(1) =   0
                l(2) =   0
                l(3) =   1
                l(4) =   1
                l(5) =   2

     atomic species   valence    mass     pseudopotential
        W             28.00   183.84000     W ( 1.00)
        O              6.00    15.99940     O ( 1.00)

      8 Sym. Ops., with inversion, found ( 6 have fractional translation)



   Cartesian axes

     site n.     atom                  positions (alat units)
         1           W   tau(   1) = (   0.2402900   0.3021825   0.0091700  )
         2           W   tau(   2) = (   0.7597100   0.7559776   0.9908300  )
         3           W   tau(   3) = (   0.2597100   0.2268976   0.5091700  )
         4           W   tau(   4) = (   0.7402900   0.8312625   0.4908300  )
         5           W   tau(   5) = (   0.7597100   0.3021825   0.4908300  )
         6           W   tau(   6) = (   0.2402900   0.7559776   0.5091700  )
         7           W   tau(   7) = (   0.7402900   0.2268976   0.9908300  )
         8           W   tau(   8) = (   0.2597100   0.8312625   0.0091700  )
         9           O   tau(   9) = (   0.2320800   0.0162393   0.0028500  )
        10           O   tau(  10) = (   0.7679200   1.0419208   0.9971500  )
        11           O   tau(  11) = (   0.2679200   0.5128407   0.5028500  )
        12           O   tau(  12) = (   0.7320800   0.5453194   0.4971500  )
        13           O   tau(  13) = (   0.7679200   0.0162393   0.4971500  )
        14           O   tau(  14) = (   0.2320800   1.0419208   0.5028500  )
        15           O   tau(  15) = (   0.7320800   0.5128407   0.9971500  )
        16           O   tau(  16) = (   0.2679200   0.5453194   0.0028500  )
        17           O   tau(  17) = (   0.5026500   0.2450910   0.4687340  )
        18           O   tau(  18) = (   0.4973500   0.8130691   0.5312660  )
        19           O   tau(  19) = (   0.9973499   0.2839890   0.9687340  )
        20           O   tau(  20) = (   0.0026500   0.7741711   0.0312660  )
        21           O   tau(  21) = (   0.4973500   0.2450910   0.0312660  )
        22           O   tau(  22) = (   0.5026500   0.8130691   0.9687340  )
        23           O   tau(  23) = (   0.0026500   0.2839890   0.5312660  )
        24           O   tau(  24) = (   0.9973499   0.7741711   0.4687340  )
        25           O   tau(  25) = (   0.7187341   0.2602968   0.7459700  )
        26           O   tau(  26) = (   0.2812660   0.7978633   0.2540300  )
        27           O   tau(  27) = (   0.7812660   0.2687833   0.2459700  )
        28           O   tau(  28) = (   0.2187340   0.7893768   0.7540300  )
        29           O   tau(  29) = (   0.2812660   0.2602968   0.7540300  )
        30           O   tau(  30) = (   0.7187341   0.7978633   0.2459700  )
        31           O   tau(  31) = (   0.2187340   0.2687833   0.2540300  )
        32           O   tau(  32) = (   0.7812660   0.7893768   0.7459700  )

     number of k points=    64  gaussian smearing, width (Ry)=  0.0007
                       cart. coord. in units 2pi/alat
        k(    1) = (   0.0000000   0.0000000   0.0000000), wk =   0.0092593
        k(    2) = (   0.0000000   0.0000000   0.1666667), wk =   0.0185185
        k(    3) = (   0.0000000   0.0000000   0.3333333), wk =   0.0185185
        k(    4) = (   0.0000000   0.0000000  -0.5000000), wk =   0.0092593
        k(    5) = (   0.0000000   0.1575061   0.0000000), wk =   0.0185185
        k(    6) = (   0.0000000   0.1575061   0.1666667), wk =   0.0370370
        k(    7) = (   0.0000000   0.1575061   0.3333333), wk =   0.0370370
        k(    8) = (   0.0000000   0.1575061  -0.5000000), wk =   0.0185185
        k(    9) = (   0.0000000   0.3150122   0.0000000), wk =   0.0185185
        k(   10) = (   0.0000000   0.3150122   0.1666667), wk =   0.0370370
        k(   11) = (   0.0000000   0.3150122   0.3333333), wk =   0.0370370
        k(   12) = (   0.0000000   0.3150122  -0.5000000), wk =   0.0185185
        k(   13) = (   0.0000000  -0.4725183   0.0000000), wk =   0.0092593
        k(   14) = (   0.0000000  -0.4725183   0.1666667), wk =   0.0185185
        k(   15) = (   0.0000000  -0.4725183   0.3333333), wk =   0.0185185
        k(   16) = (   0.0000000  -0.4725183  -0.5000000), wk =   0.0092593
        k(   17) = (   0.1666667   0.0000000   0.1666667), wk =   0.0370370
        k(   18) = (   0.1666667   0.0000000   0.3333333), wk =   0.0370370
        k(   19) = (   0.1666667   0.0000000  -0.5000000), wk =   0.0185185
        k(   20) = (   0.1666667   0.1575061   0.1666667), wk =   0.0740741
        k(   21) = (   0.1666667   0.1575061   0.3333333), wk =   0.0740741
        k(   22) = (   0.1666667   0.1575061  -0.5000000), wk =   0.0370370
        k(   23) = (   0.1666667   0.3150122   0.1666667), wk =   0.0740741
        k(   24) = (   0.1666667   0.3150122   0.3333333), wk =   0.0740741
        k(   25) = (   0.1666667   0.3150122  -0.5000000), wk =   0.0370370
        k(   26) = (   0.1666667  -0.4725183   0.1666667), wk =   0.0370370
        k(   27) = (   0.1666667  -0.4725183   0.3333333), wk =   0.0370370
        k(   28) = (   0.1666667  -0.4725183  -0.5000000), wk =   0.0185185
        k(   29) = (   0.3333333   0.0000000   0.3333333), wk =   0.0370370
        k(   30) = (   0.3333333   0.0000000  -0.5000000), wk =   0.0185185
        k(   31) = (   0.3333333   0.1575061   0.3333333), wk =   0.0740741
        k(   32) = (   0.3333333   0.1575061  -0.5000000), wk =   0.0370370
        k(   33) = (   0.3333333   0.3150122   0.3333333), wk =   0.0740741
        k(   34) = (   0.3333333   0.3150122  -0.5000000), wk =   0.0370370
        k(   35) = (   0.3333333  -0.4725183   0.3333333), wk =   0.0370370
        k(   36) = (   0.3333333  -0.4725183  -0.5000000), wk =   0.0185185
        k(   37) = (  -0.5000000   0.0000000  -0.5000000), wk =   0.0092593
        k(   38) = (  -0.5000000   0.1575061  -0.5000000), wk =   0.0185185
        k(   39) = (  -0.5000000   0.3150122  -0.5000000), wk =   0.0185185
        k(   40) = (  -0.5000000  -0.4725183  -0.5000000), wk =   0.0092593
        k(   41) = (   0.1666667   0.0000000   0.0000000), wk =   0.0185185
        k(   42) = (   0.3333333   0.0000000   0.0000000), wk =   0.0185185
        k(   43) = (  -0.5000000   0.0000000   0.0000000), wk =   0.0092593
        k(   44) = (   0.1666667  -0.1575061   0.0000000), wk =   0.0370370
        k(   45) = (   0.3333333  -0.1575061   0.0000000), wk =   0.0370370
        k(   46) = (  -0.5000000  -0.1575061   0.0000000), wk =   0.0185185
        k(   47) = (   0.1666667  -0.3150122   0.0000000), wk =   0.0370370
        k(   48) = (   0.3333333  -0.3150122   0.0000000), wk =   0.0370370
        k(   49) = (  -0.5000000  -0.3150122   0.0000000), wk =   0.0185185
        k(   50) = (   0.1666667   0.4725183   0.0000000), wk =   0.0185185
        k(   51) = (   0.3333333   0.4725183   0.0000000), wk =   0.0185185
        k(   52) = (  -0.5000000   0.4725183   0.0000000), wk =   0.0092593
        k(   53) = (   0.3333333   0.0000000   0.1666667), wk =   0.0370370
        k(   54) = (  -0.5000000   0.0000000   0.1666667), wk =   0.0185185
        k(   55) = (   0.3333333  -0.1575061   0.1666667), wk =   0.0740741
        k(   56) = (  -0.5000000  -0.1575061   0.1666667), wk =   0.0370370
        k(   57) = (   0.3333333  -0.3150122   0.1666667), wk =   0.0740741
        k(   58) = (  -0.5000000  -0.3150122   0.1666667), wk =   0.0370370
        k(   59) = (   0.3333333   0.4725183   0.1666667), wk =   0.0370370
        k(   60) = (  -0.5000000   0.4725183   0.1666667), wk =   0.0185185
        k(   61) = (  -0.5000000   0.0000000   0.3333333), wk =   0.0185185
        k(   62) = (  -0.5000000  -0.1575061   0.3333333), wk =   0.0370370
        k(   63) = (  -0.5000000  -0.3150122   0.3333333), wk =   0.0370370
        k(   64) = (  -0.5000000   0.4725183   0.3333333), wk =   0.0185185

     Dense  grid:   498127 G-vectors     FFT dimensions: ( 100, 108, 100)

     Estimated max dynamical RAM per process >       2.74 GB

     Estimated total dynamical RAM >     175.05 GB

     Initial potential from superposition of free atoms

     starting charge  367.99656, renormalised to  368.00000
     Starting wfc are  232 randomized atomic wfcs

     total cpu time spent up to now is       44.1 secs

     Self-consistent Calculation

     iteration #  1     ecut=   120.00 Ry     beta= 0.70
     Davidson diagonalization with overlap
     ethr =  1.00E-02,  avg # of iterations =  5.1

     total cpu time spent up to now is      137.7 secs

     total energy              =   -6253.99555757 Ry
     Harris-Foulkes estimate   =   -6264.55906705 Ry
     estimated scf accuracy    <      13.39011125 Ry

     iteration #  2     ecut=   120.00 Ry     beta= 0.70
     Davidson diagonalization with overlap
     ethr =  3.64E-03,  avg # of iterations =  3.6

     total cpu time spent up to now is      229.0 secs

     total energy              =   -6250.92438743 Ry
     Harris-Foulkes estimate   =   -6270.60515647 Ry
     estimated scf accuracy    <      52.72172747 Ry

     iteration #  3     ecut=   120.00 Ry     beta= 0.70
     Davidson diagonalization with overlap
     ethr =  3.64E-03,  avg # of iterations =  3.6

     total cpu time spent up to now is      313.8 secs

     total energy              =   -6261.03011828 Ry
     Harris-Foulkes estimate   =   -6261.39503671 Ry
     estimated scf accuracy    <       1.15661981 Ry

     iteration #  4     ecut=   120.00 Ry     beta= 0.70
     Davidson diagonalization with overlap
     ethr =  3.14E-04,  avg # of iterations =  2.7

     total cpu time spent up to now is      384.2 secs

     total energy              =   -6261.06833731 Ry
     Harris-Foulkes estimate   =   -6261.15287885 Ry
     estimated scf accuracy    <       0.29125435 Ry

     iteration #  5     ecut=   120.00 Ry     beta= 0.70
     Davidson diagonalization with overlap
     ethr =  7.91E-05,  avg # of iterations =  4.2

     total cpu time spent up to now is      457.6 secs

     total energy              =   -6261.05568483 Ry
     Harris-Foulkes estimate   =   -6261.09631693 Ry
     estimated scf accuracy    <       0.08777458 Ry

     iteration #  6     ecut=   120.00 Ry     beta= 0.70
     Davidson diagonalization with overlap
     ethr =  2.39E-05,  avg # of iterations =  5.8

     total cpu time spent up to now is      538.0 secs

     total energy              =   -6261.07566996 Ry
     Harris-Foulkes estimate   =   -6261.07732980 Ry
     estimated scf accuracy    <       0.00494934 Ry

     iteration #  7     ecut=   120.00 Ry     beta= 0.70
     Davidson diagonalization with overlap
     ethr =  1.34E-06,  avg # of iterations =  5.1

     total cpu time spent up to now is      615.3 secs

     total energy              =   -6261.07612626 Ry
     Harris-Foulkes estimate   =   -6261.07626750 Ry
     estimated scf accuracy    <       0.00039827 Ry

     iteration #  8     ecut=   120.00 Ry     beta= 0.70
     Davidson diagonalization with overlap
     ethr =  1.08E-07,  avg # of iterations =  3.0

     total cpu time spent up to now is      687.6 secs

     total energy              =   -6261.07617433 Ry
     Harris-Foulkes estimate   =   -6261.07620066 Ry
     estimated scf accuracy    <       0.00005568 Ry

     iteration #  9     ecut=   120.00 Ry     beta= 0.70
     Davidson diagonalization with overlap
     ethr =  1.51E-08,  avg # of iterations =  3.0

     total cpu time spent up to now is      763.9 secs

     total energy              =   -6261.07618857 Ry
     Harris-Foulkes estimate   =   -6261.07619035 Ry
     estimated scf accuracy    <       0.00000595 Ry

     iteration # 10     ecut=   120.00 Ry     beta= 0.70
     Davidson diagonalization with overlap
     ethr =  1.62E-09,  avg # of iterations =  2.0

     total cpu time spent up to now is      834.4 secs

     total energy              =   -6261.07618839 Ry
     Harris-Foulkes estimate   =   -6261.07618932 Ry
     estimated scf accuracy    <       0.00000198 Ry

     iteration # 11     ecut=   120.00 Ry     beta= 0.70
     Davidson diagonalization with overlap
     ethr =  5.38E-10,  avg # of iterations =  2.8

     total cpu time spent up to now is      908.3 secs

     total energy              =   -6261.07618881 Ry
     Harris-Foulkes estimate   =   -6261.07618883 Ry
     estimated scf accuracy    <       0.00000004 Ry

     iteration # 12     ecut=   120.00 Ry     beta= 0.70
     Davidson diagonalization with overlap
     ethr =  1.17E-11,  avg # of iterations =  2.0

     total cpu time spent up to now is      989.4 secs

     End of self-consistent calculation

          k = 0.0000 0.0000 0.0000 ( 62239 PWs)   bands (ev):

   -66.1378 -66.1374 -66.1369 -66.1368 -66.1365 -66.1365 -66.1360 -66.1356
   -30.5487 -30.5477 -30.5410 -30.5404 -30.5390 -30.5384 -30.5382 -30.5356
   -30.4604 -30.4598 -30.4593 -30.4536 -30.4467 -30.4437 -30.4432 -30.4428
   -30.4373 -30.4345 -30.4339 -30.4239 -30.3963 -30.3922 -30.3921 -30.3882
   -20.2914 -20.2914 -20.2912 -20.2911 -20.2908 -20.2908 -20.2906 -20.2905
   -20.2744 -20.2742 -20.2731 -20.2730 -20.2729 -20.2727 -20.2719 -20.2716
   -20.2703 -20.2701 -20.2686 -20.2685 -20.2684 -20.2682 -20.2669 -20.2666
   -20.2632 -20.2630 -20.2623 -20.2622 -20.2615 -20.2610 -20.2608 -20.2603
   -20.2592 -20.2587 -20.2587 -20.2579 -20.2571 -20.2570 -20.2564 -20.2563
   -20.2546 -20.2544 -20.2543 -20.2539 -20.2538 -20.2535 -20.2532 -20.2527
   -20.2477 -20.2476 -20.2475 -20.2473 -20.2461 -20.2460 -20.2457 -20.2456
   -10.0377  -9.8002  -9.6097  -9.5892  -9.4285  -9.3935  -9.1592  -9.1402
    -8.8748  -8.7316  -8.7297  -8.7153  -7.8698  -7.8420  -7.8085  -7.8081
    -7.7665  -7.7491  -7.7368  -7.7251  -7.6695  -7.6114  -7.6089  -7.5617
     0.9575   0.9591   1.0936   1.0993   1.1502   1.1531   1.3285   1.4079
     1.7482   1.7661   1.7899   1.7922   2.2457   2.3341   2.5592   2.5604
     2.6521   2.6627   4.0102   4.0651   4.1620   4.2443   4.5309   4.5566
     4.5703   4.5831   4.8840   5.0765   5.1381   5.1511   5.1663   5.5379
     5.5444   5.5463   5.5927   5.6045   5.6154   5.6457   5.7045   5.8388
     5.9072   5.9652   5.9660   5.9888   6.0188   6.0361   6.0411   6.0528
     6.1708   6.2621   6.3529   6.4247   6.4910   6.7584   6.8348   6.8702
     6.8982   6.9133   6.9683   7.0519   7.0661   7.0681   7.1198   7.1522
     7.1581   7.1844   8.0829   8.0899   8.1435   8.1733   8.2260   8.2529
     9.2790   9.2870   9.9280   9.9325   9.9988  10.0018  12.3107  12.4085
    12.4359  12.5020  12.5964  12.6044  12.6195  12.6370  13.0359  13.2984
    13.3830  13.4953  13.5114  13.6317  13.7162  13.8105  14.2199  14.2221
    14.2337  14.3656  14.5595  14.7803  15.1862  15.2059  15.4179  15.9634
    15.9922  16.7641  17.0838  17.1353  17.3927

          k = 0.0000 0.0000 0.1667 ( 62262 PWs)   bands (ev):

   -66.1377 -66.1373 -66.1369 -66.1368 -66.1365 -66.1364 -66.1360 -66.1356
   -30.5457 -30.5445 -30.5394 -30.5360 -30.5359 -30.5357 -30.5342 -30.5319
   -30.4631 -30.4610 -30.4600 -30.4535 -30.4530 -30.4498 -30.4467 -30.4429
   -30.4383 -30.4373 -30.4341 -30.4258 -30.3960 -30.3924 -30.3918 -30.3883
   -20.2914 -20.2914 -20.2911 -20.2911 -20.2908 -20.2908 -20.2906 -20.2906
   -20.2743 -20.2741 -20.2732 -20.2731 -20.2728 -20.2726 -20.2719 -20.2717
   -20.2701 -20.2700 -20.2686 -20.2684 -20.2683 -20.2683 -20.2670 -20.2667
   -20.2632 -20.2630 -20.2623 -20.2622 -20.2614 -20.2609 -20.2609 -20.2604
   -20.2591 -20.2586 -20.2583 -20.2576 -20.2571 -20.2570 -20.2566 -20.2561
   -20.2547 -20.2546 -20.2544 -20.2541 -20.2541 -20.2535 -20.2534 -20.2528
   -20.2476 -20.2475 -20.2474 -20.2472 -20.2462 -20.2461 -20.2459 -20.2458
    -9.9861  -9.7443  -9.6037  -9.5287  -9.4040  -9.3363  -9.1197  -9.1008
    -8.8870  -8.7350  -8.7187  -8.7090  -7.9663  -7.9607  -7.8866  -7.8833
    -7.8366  -7.8038  -7.7723  -7.7308  -7.6656  -7.6155  -7.6089  -7.5653
     1.0661   1.0683   1.1500   1.1543   1.3576   1.3643   1.4463   1.5742
     1.7532   1.7615   1.7797   1.8457   2.3343   2.4218   2.5655   2.6462
     2.6538   2.7498   4.0042   4.0179   4.1818   4.2118   4.2222   4.2490
     4.6297   4.6363   4.7627   4.8095   4.8686   5.1394   5.1769   5.3245
     5.4152   5.4899   5.5573   5.6003   5.6414   5.6486   5.6660   5.6839
     5.7213   5.8957   5.9784   5.9916   6.0023   6.0196   6.1505   6.1771
     6.2458   6.3840   6.4814   6.5011   6.6889   6.7702   6.7745   6.8062
     6.8683   6.9067   6.9247   6.9308   6.9619   6.9852   6.9884   7.0501
     7.0684   7.0766   8.0416   8.0427   8.1561   8.1747   8.1803   8.2104
     9.6253   9.6266   9.9329  10.0080  10.2314  10.2856  12.3659  12.3878
    12.4830  12.4990  12.4997  12.5033  12.6478  12.6821  13.0699  13.1256
    13.2358  13.3854  13.5271  13.6785  13.7573  13.8102  14.0568  14.0981
    14.3620  14.3929  14.5556  14.9020  15.2734  15.3168  15.3856  15.9719
    16.3295  16.8463  16.9431  17.2900  17.4412

          k = 0.0000 0.0000 0.3333 ( 62268 PWs)   bands (ev):

   -66.1375 -66.1371 -66.1371 -66.1367 -66.1366 -66.1362 -66.1362 -66.1358
   -30.5436 -30.5406 -30.5405 -30.5371 -30.5208 -30.5195 -30.5166 -30.5149
   -30.4754 -30.4720 -30.4711 -30.4678 -30.4587 -30.4535 -30.4514 -30.4439
   -30.4420 -30.4395 -30.4329 -30.4289 -30.3952 -30.3930 -30.3910 -30.3890
   -20.2913 -20.2913 -20.2910 -20.2910 -20.2909 -20.2909 -20.2907 -20.2907
   -20.2741 -20.2739 -20.2735 -20.2733 -20.2727 -20.2725 -20.2722 -20.2719
   -20.2697 -20.2695 -20.2689 -20.2686 -20.2680 -20.2679 -20.2673 -20.2670
   -20.2632 -20.2631 -20.2624 -20.2623 -20.2613 -20.2609 -20.2608 -20.2605
   -20.2586 -20.2582 -20.2575 -20.2574 -20.2570 -20.2569 -20.2566 -20.2557
   -20.2553 -20.2552 -20.2549 -20.2546 -20.2543 -20.2538 -20.2533 -20.2530
   -20.2473 -20.2471 -20.2471 -20.2469 -20.2465 -20.2464 -20.2462 -20.2461
    -9.8624  -9.6500  -9.6171  -9.4378  -9.3128  -9.0736  -8.9926  -8.9561
    -8.9350  -8.7548  -8.6830  -8.6663  -8.2898  -8.2710  -8.2415  -8.2010
    -7.8303  -7.7890  -7.7881  -7.7464  -7.6558  -7.6265  -7.6008  -7.5750
     1.1363   1.1470   1.1499   1.1575   1.6514   1.7096   1.7275   1.7589
     2.0873   2.1269   2.2327   2.3029   2.5694   2.5900   2.6367   2.6907
     2.8965   2.9671   3.5788   3.6732   3.8067   3.9372   4.0554   4.1552
     4.2393   4.3699   4.5363   4.7263   4.8022   4.8215   4.9372   4.9596
     5.1394   5.1438   5.2117   5.3570   5.4065   5.4724   5.7272   5.7832
     5.8003   5.8696   5.9909   6.0208   6.0279   6.1356   6.1936   6.2789
     6.3139   6.3624   6.4137   6.4467   6.4825   6.5710   6.6332   6.6944
     6.8040   6.8914   6.9062   6.9314   7.0438   7.0606   7.0676   7.0947
     7.3171   7.3723   7.8666   7.8870   8.0322   8.0698   8.1732   8.1773
     9.9449   9.9619  10.3635  10.4260  10.9296  10.9780  11.9463  11.9982
    12.3264  12.5092  12.6137  12.6221  12.6815  12.7154  12.8120  12.8927
    13.0687  13.3869  13.4006  13.4333  13.6756  13.7693  13.8107  13.8355
    14.4401  14.5417  14.7505  15.2242  15.2808  15.5362  15.8526  15.9053
    16.2792  17.2721  17.4162  17.5325  17.5788

          k = 0.0000 0.0000-0.5000 ( 62264 PWs)   bands (ev):

   -66.1373 -66.1373 -66.1369 -66.1369 -66.1364 -66.1364 -66.1360 -66.1360
   -30.5420 -30.5420 -30.5386 -30.5386 -30.4967 -30.4967 -30.4967 -30.4967
   -30.4923 -30.4923 -30.4921 -30.4921 -30.4568 -30.4568 -30.4486 -30.4485
   -30.4408 -30.4408 -30.4312 -30.4312 -30.3940 -30.3940 -30.3899 -30.3899
   -20.2911 -20.2911 -20.2911 -20.2911 -20.2909 -20.2909 -20.2908 -20.2908
   -20.2738 -20.2738 -20.2736 -20.2736 -20.2724 -20.2724 -20.2722 -20.2722
   -20.2693 -20.2693 -20.2690 -20.2690 -20.2676 -20.2676 -20.2674 -20.2674
   -20.2632 -20.2631 -20.2624 -20.2624 -20.2611 -20.2611 -20.2606 -20.2606
   -20.2581 -20.2581 -20.2577 -20.2577 -20.2563 -20.2563 -20.2560 -20.2560
   -20.2559 -20.2559 -20.2551 -20.2551 -20.2541 -20.2541 -20.2532 -20.2532
   -20.2469 -20.2469 -20.2468 -20.2468 -20.2467 -20.2467 -20.2465 -20.2465
    -9.7362  -9.7362  -9.5044  -9.5044  -9.0687  -9.0687  -8.8229  -8.8229
    -8.6871  -8.6871  -8.6627  -8.6627  -8.5704  -8.5704  -8.5125  -8.5125
    -7.8095  -7.8095  -7.7677  -7.7677  -7.6414  -7.6414  -7.5881  -7.5881
     1.1486   1.1486   1.1595   1.1595   1.7003   1.7003   1.7389   1.7389
     2.5878   2.5878   2.8591   2.8591   2.9630   2.9630   3.0060   3.0060
     3.0808   3.0808   3.1343   3.1343   3.3295   3.3295   3.7953   3.7953
     3.9476   3.9476   4.2624   4.2624   4.7709   4.7709   4.9839   4.9839
     5.1921   5.1921   5.2191   5.2191   5.2487   5.2487   5.8338   5.8338
     5.8499   5.8499   6.0140   6.0140   6.1167   6.1167   6.1757   6.1757
     6.2535   6.2535   6.3609   6.3609   6.4956   6.4956   6.5314   6.5314
     6.8209   6.8209   6.8989   6.8989   7.0591   7.0592   7.5272   7.5272
     7.5624   7.5624   7.7479   7.7479   7.7957   7.7957   8.1786   8.1786
     9.9584   9.9584  11.2002  11.2002  11.2588  11.2588  11.7295  11.7295
    11.8247  11.8247  12.5325  12.5325  12.9082  12.9082  13.0263  13.0263
    13.0896  13.0896  13.2578  13.2578  13.4790  13.4790  13.8177  13.8177
    14.5095  14.5095  15.0776  15.0776  15.7013  15.7013  15.7709  15.7709
    16.6896  16.6896  17.7656  17.7656  17.9917

          k = 0.0000 0.1575 0.0000 ( 62231 PWs)   bands (ev):

   -66.1377 -66.1374 -66.1368 -66.1368 -66.1365 -66.1365 -66.1359 -66.1356
   -30.5486 -30.5477 -30.5408 -30.5403 -30.5388 -30.5385 -30.5384 -30.5358
   -30.4579 -30.4572 -30.4565 -30.4498 -30.4468 -30.4436 -30.4436 -30.4428
   -30.4378 -30.4331 -30.4327 -30.4228 -30.4002 -30.3959 -30.3957 -30.3916
   -20.2914 -20.2914 -20.2912 -20.2911 -20.2908 -20.2908 -20.2906 -20.2905
   -20.2744 -20.2742 -20.2731 -20.2730 -20.2729 -20.2727 -20.2718 -20.2716
   -20.2703 -20.2701 -20.2685 -20.2685 -20.2684 -20.2683 -20.2669 -20.2667
   -20.2630 -20.2627 -20.2620 -20.2619 -20.2616 -20.2609 -20.2608 -20.2602
   -20.2592 -20.2587 -20.2587 -20.2579 -20.2574 -20.2574 -20.2567 -20.2566
   -20.2546 -20.2544 -20.2543 -20.2539 -20.2538 -20.2536 -20.2531 -20.2527
   -20.2477 -20.2476 -20.2475 -20.2474 -20.2461 -20.2460 -20.2458 -20.2457
   -10.0155  -9.8112  -9.5890  -9.5669  -9.4352  -9.4008  -9.1579  -9.1415
    -8.8030  -8.6792  -8.6780  -8.6634  -7.8820  -7.8409  -7.8098  -7.8094
    -7.7819  -7.7538  -7.7485  -7.7477  -7.7268  -7.6919  -7.6910  -7.6659
     0.9575   0.9589   1.0939   1.0985   1.1513   1.1531   1.3634   1.4074
     1.9188   1.9797   1.9993   2.0909   2.2530   2.3282   2.6286   2.6330
     2.7178   2.7327   3.8687   3.9278   3.9519   4.0244   4.5339   4.5502
     4.5637   4.5784   4.7299   5.1359   5.1396   5.1713   5.1734   5.2964
     5.3362   5.5499   5.5631   5.6379   5.6515   5.6652   5.6945   5.7534
     5.8459   5.9648   5.9702   6.0200   6.0218   6.0435   6.0595   6.0719
     6.1190   6.2348   6.3521   6.4483   6.5453   6.7854   6.8342   6.8456
     6.8784   6.9161   6.9247   6.9466   6.9684   6.9796   7.1245   7.1444
     7.1646   7.1787   8.0718   8.0886   8.0970   8.1203   8.1616   8.1668
     9.2831   9.2888  10.1094  10.1300  10.1851  10.2043  12.1698  12.2750
    12.2848  12.3437  12.6025  12.6113  12.6197  12.6377  13.0608  13.3072
    13.4006  13.5074  13.5302  13.7223  13.8642  13.8766  14.1382  14.1397
    14.3897  14.5097  14.6871  14.9208  15.1846  15.2003  15.8204  15.9295
    15.9538  16.4674  17.2181  17.2716  17.3864

          k = 0.0000 0.1575 0.1667 ( 62237 PWs)   bands (ev):

   -66.1377 -66.1373 -66.1369 -66.1368 -66.1366 -66.1364 -66.1360 -66.1356
   -30.5455 -30.5445 -30.5392 -30.5362 -30.5359 -30.5357 -30.5341 -30.5321
   -30.4612 -30.4585 -30.4574 -30.4536 -30.4498 -30.4493 -30.4465 -30.4433
   -30.4388 -30.4358 -30.4326 -30.4246 -30.3999 -30.3961 -30.3955 -30.3918
   -20.2914 -20.2914 -20.2911 -20.2911 -20.2908 -20.2908 -20.2906 -20.2906
   -20.2743 -20.2742 -20.2732 -20.2731 -20.2728 -20.2726 -20.2719 -20.2717
   -20.2701 -20.2700 -20.2686 -20.2684 -20.2684 -20.2683 -20.2670 -20.2668
   -20.2630 -20.2628 -20.2620 -20.2619 -20.2615 -20.2610 -20.2608 -20.2602
   -20.2591 -20.2586 -20.2583 -20.2576 -20.2575 -20.2573 -20.2569 -20.2564
   -20.2547 -20.2546 -20.2544 -20.2541 -20.2541 -20.2536 -20.2534 -20.2528
   -20.2476 -20.2475 -20.2474 -20.2472 -20.2462 -20.2461 -20.2459 -20.2458
    -9.9632  -9.7552  -9.5811  -9.5058  -9.4115  -9.3431  -9.1184  -9.1020
    -8.8154  -8.6841  -8.6680  -8.6579  -7.9672  -7.9645  -7.8977  -7.8816
    -7.8403  -7.8056  -7.7862  -7.7459  -7.7325  -7.7052  -7.6946  -7.6657
     1.0668   1.0681   1.1516   1.1543   1.3615   1.3644   1.5080   1.5736
     1.9278   1.9789   1.9919   2.0945   2.3416   2.4164   2.6337   2.7124
     2.7285   2.8204   3.8778   3.9058   3.9880   4.0044   4.2142   4.2443
     4.6154   4.6275   4.7142   4.7995   4.8546   5.1432   5.1713   5.2634
     5.2880   5.3294   5.4336   5.5415   5.5693   5.6053   5.6493   5.7294
     5.8136   5.8609   5.9351   6.0128   6.0407   6.0441   6.0540   6.1781
     6.1904   6.3520   6.4791   6.5365   6.7049   6.7853   6.7949   6.8252
     6.8399   6.8873   6.9054   6.9337   6.9473   6.9719   6.9824   6.9921
     7.0190   7.0923   8.0370   8.0422   8.0997   8.1173   8.1175   8.1324
     9.6293   9.6334  10.1362  10.2058  10.3735  10.4380  12.2514  12.2601
    12.3446  12.3585  12.4735  12.4843  12.6584  12.6754  13.0957  13.1565
    13.2592  13.4016  13.5320  13.6718  13.8785  13.9316  13.9685  14.0255
    14.4353  14.6498  14.7207  15.0302  15.2701  15.3169  15.7889  15.9332
    16.2933  16.6301  16.9669  17.3984  17.4420

          k = 0.0000 0.1575 0.3333 ( 62284 PWs)   bands (ev):

   -66.1375 -66.1372 -66.1371 -66.1367 -66.1366 -66.1363 -66.1361 -66.1358
   -30.5434 -30.5408 -30.5402 -30.5373 -30.5207 -30.5196 -30.5165 -30.5150
   -30.4745 -30.4719 -30.4702 -30.4677 -30.4563 -30.4520 -30.4477 -30.4424
   -30.4412 -30.4399 -30.4315 -30.4275 -30.3990 -30.3967 -30.3946 -30.3924
   -20.2913 -20.2913 -20.2910 -20.2910 -20.2909 -20.2909 -20.2907 -20.2907
   -20.2741 -20.2739 -20.2735 -20.2733 -20.2727 -20.2725 -20.2722 -20.2719
   -20.2697 -20.2696 -20.2688 -20.2686 -20.2680 -20.2679 -20.2672 -20.2670
   -20.2630 -20.2628 -20.2621 -20.2620 -20.2613 -20.2610 -20.2607 -20.2603
   -20.2587 -20.2583 -20.2578 -20.2574 -20.2573 -20.2569 -20.2568 -20.2559
   -20.2553 -20.2552 -20.2549 -20.2546 -20.2543 -20.2538 -20.2534 -20.2530
   -20.2473 -20.2472 -20.2471 -20.2470 -20.2465 -20.2464 -20.2462 -20.2461
    -9.8382  -9.6276  -9.6266  -9.4460  -9.2811  -9.0804  -8.9885  -8.9578
    -8.8660  -8.7072  -8.6362  -8.6245  -8.2944  -8.2668  -8.2488  -8.1966
    -7.8390  -7.8005  -7.7908  -7.7481  -7.7366  -7.7065  -7.6980  -7.6741
     1.1401   1.1467   1.1527   1.1574   1.8451   1.8832   1.9674   1.9860
     2.0865   2.1596   2.2321   2.3423   2.5979   2.6276   2.6829   2.7133
     2.9698   3.0311   3.5795   3.6677   3.7492   3.8780   3.9532   3.9908
     4.2778   4.3422   4.5487   4.6514   4.7084   4.7627   4.8176   4.9503
     5.0240   5.0550   5.1815   5.2415   5.4126   5.4195   5.4472   5.7576
     5.8207   5.9156   5.9207   5.9857   5.9970   6.0595   6.0984   6.1363
     6.3746   6.4089   6.4743   6.4960   6.5095   6.6716   6.6914   6.7725
     6.8182   6.8812   6.8821   6.9318   6.9551   7.0048   7.0838   7.1182
     7.3161   7.3666   7.8715   7.8828   7.9824   8.0098   8.1089   8.1167
    10.1397  10.1619  10.3688  10.4390  11.0227  11.0729  11.9453  11.9962
    12.2490  12.3534  12.5085  12.5759  12.6470  12.6913  12.8285  12.8587
    13.0870  13.3849  13.4012  13.4127  13.5815  13.7271  13.8816  13.9252
    14.5636  14.6607  15.1050  15.3357  15.5208  15.6843  15.8684  15.8816
    16.3955  17.1102  17.2257  17.4757  17.7288

          k = 0.0000 0.1575-0.5000 ( 62234 PWs)   bands (ev):

   -66.1373 -66.1373 -66.1369 -66.1369 -66.1364 -66.1364 -66.1360 -66.1360
   -30.5417 -30.5417 -30.5388 -30.5388 -30.4966 -30.4966 -30.4965 -30.4965
   -30.4922 -30.4922 -30.4919 -30.4919 -30.4546 -30.4546 -30.4451 -30.4451
   -30.4412 -30.4412 -30.4298 -30.4298 -30.3978 -30.3978 -30.3935 -30.3935
   -20.2911 -20.2911 -20.2911 -20.2911 -20.2909 -20.2909 -20.2908 -20.2908
   -20.2738 -20.2738 -20.2736 -20.2736 -20.2724 -20.2724 -20.2722 -20.2722
   -20.2692 -20.2692 -20.2691 -20.2691 -20.2676 -20.2676 -20.2674 -20.2674
   -20.2629 -20.2629 -20.2621 -20.2621 -20.2612 -20.2612 -20.2605 -20.2605
   -20.2583 -20.2582 -20.2578 -20.2578 -20.2563 -20.2563 -20.2561 -20.2561
   -20.2559 -20.2559 -20.2553 -20.2553 -20.2541 -20.2541 -20.2532 -20.2532
   -20.2469 -20.2469 -20.2467 -20.2467 -20.2467 -20.2467 -20.2465 -20.2465
    -9.7118  -9.7118  -9.5137  -9.5137  -9.0155  -9.0154  -8.7958  -8.7958
    -8.6935  -8.6935  -8.6664  -8.6664  -8.5467  -8.5467  -8.4924  -8.4924
    -7.8201  -7.8201  -7.7695  -7.7695  -7.7216  -7.7216  -7.6864  -7.6864
     1.1526   1.1526   1.1592   1.1592   1.8994   1.8994   1.9860   1.9860
     2.6511   2.6511   2.8757   2.8757   2.9826   2.9826   3.0008   3.0008
     3.0760   3.0760   3.1575   3.1575   3.3194   3.3194   3.7914   3.7915
     3.9993   3.9993   4.1371   4.1371   4.5894   4.5894   4.8347   4.8347
     5.1419   5.1419   5.1763   5.1763   5.2420   5.2420   5.5755   5.5755
     5.8420   5.8420   5.9691   5.9691   6.0809   6.0809   6.1583   6.1583
     6.2598   6.2598   6.4106   6.4106   6.5018   6.5019   6.7314   6.7314
     6.8657   6.8657   6.9040   6.9040   6.9450   6.9450   7.5414   7.5415
     7.5570   7.5570   7.7218   7.7218   7.7605   7.7605   8.1149   8.1149
    10.1621  10.1621  11.2033  11.2033  11.2581  11.2582  11.7875  11.7875
    11.8804  11.8804  12.3842  12.3842  12.8759  12.8759  12.9295  12.9295
    13.1031  13.1031  13.1862  13.1862  13.4759  13.4759  13.8913  13.8913
    14.6329  14.6329  15.4552  15.4552  15.7405  15.7405  15.8262  15.8262
    16.7415  16.7415  17.5676  17.5676  18.0140

          k = 0.0000 0.3150 0.0000 ( 62175 PWs)   bands (ev):

   -66.1377 -66.1375 -66.1368 -66.1367 -66.1366 -66.1366 -66.1359 -66.1357
   -30.5483 -30.5477 -30.5402 -30.5400 -30.5390 -30.5389 -30.5381 -30.5364
   -30.4526 -30.4517 -30.4500 -30.4471 -30.4449 -30.4435 -30.4430 -30.4396
   -30.4393 -30.4283 -30.4277 -30.4191 -30.4108 -30.4057 -30.4054 -30.4005
   -20.2914 -20.2914 -20.2912 -20.2911 -20.2908 -20.2907 -20.2905 -20.2905
   -20.2743 -20.2742 -20.2731 -20.2730 -20.2728 -20.2727 -20.2718 -20.2717
   -20.2702 -20.2702 -20.2685 -20.2685 -20.2684 -20.2683 -20.2669 -20.2667
   -20.2625 -20.2622 -20.2617 -20.2612 -20.2610 -20.2609 -20.2603 -20.2596
   -20.2591 -20.2589 -20.2588 -20.2584 -20.2583 -20.2579 -20.2576 -20.2572
   -20.2545 -20.2544 -20.2542 -20.2539 -20.2538 -20.2538 -20.2531 -20.2529
   -20.2477 -20.2476 -20.2474 -20.2474 -20.2460 -20.2459 -20.2458 -20.2457
    -9.9602  -9.8439  -9.5411  -9.5152  -9.4560  -9.4232  -9.1545  -9.1450
    -8.6015  -8.5214  -8.5183  -8.5068  -8.0336  -7.9766  -7.9663  -7.9312
    -7.8385  -7.8299  -7.8126  -7.8118  -7.7437  -7.7393  -7.7314  -7.7305
     0.9575   0.9583   1.0946   1.0970   1.1524   1.1530   1.3918   1.4056
     2.2661   2.3118   2.4632   2.5949   2.6362   2.7545   2.8308   2.8805
     2.9076   2.9572   3.5344   3.5362   3.6062   3.6066   4.1625   4.4800
     4.5219   4.5424   4.5492   4.5945   4.6400   4.8595   5.2692   5.2777
     5.3034   5.3035   5.4883   5.4899   5.6822   5.6958   5.7091   5.7626
     5.9122   5.9324   5.9781   5.9991   6.0238   6.0270   6.0352   6.0888
     6.1080   6.1441   6.2823   6.5151   6.5431   6.5720   6.7608   6.8063
     6.8314   6.9263   7.0951   7.1065   7.1312   7.1339   7.1373   7.1407
     7.1889   7.1922   7.8819   7.9092   7.9109   7.9398   8.0918   8.0937
     9.2887   9.2911  10.5828  10.6414  10.6691  10.7105  11.7688  11.8680
    11.8701  11.9251  12.6159  12.6216  12.6247  12.6368  13.1330  13.3010
    13.4743  13.5713  13.5806  13.7379  13.8028  13.9435  13.9526  13.9531
    14.7896  15.0850  15.1331  15.1818  15.1922  15.4685  15.8102  15.8278
    15.9156  16.8114  17.0521  17.6723  17.7292

          k = 0.0000 0.3150 0.1667 ( 62260 PWs)   bands (ev):

   -66.1376 -66.1374 -66.1368 -66.1367 -66.1366 -66.1365 -66.1359 -66.1357
   -30.5452 -30.5446 -30.5385 -30.5368 -30.5359 -30.5358 -30.5336 -30.5325
   -30.4572 -30.4538 -30.4533 -30.4518 -30.4497 -30.4458 -30.4446 -30.4403
   -30.4389 -30.4298 -30.4274 -30.4203 -30.4104 -30.4060 -30.4051 -30.4008
   -20.2914 -20.2914 -20.2911 -20.2911 -20.2908 -20.2908 -20.2906 -20.2906
   -20.2743 -20.2742 -20.2732 -20.2731 -20.2728 -20.2727 -20.2719 -20.2718
   -20.2701 -20.2700 -20.2685 -20.2684 -20.2684 -20.2683 -20.2669 -20.2668
   -20.2625 -20.2622 -20.2617 -20.2612 -20.2611 -20.2610 -20.2603 -20.2597
   -20.2592 -20.2589 -20.2584 -20.2584 -20.2581 -20.2577 -20.2576 -20.2570
   -20.2547 -20.2546 -20.2542 -20.2542 -20.2541 -20.2537 -20.2533 -20.2530
   -20.2476 -20.2475 -20.2474 -20.2473 -20.2461 -20.2460 -20.2460 -20.2459
    -9.9065  -9.7881  -9.5286  -9.4536  -9.4346  -9.3641  -9.1149  -9.1055
    -8.6141  -8.5288  -8.5119  -8.5037  -8.0520  -8.0079  -7.9717  -7.9593
    -7.9472  -7.9129  -7.8768  -7.8415  -7.8181  -7.8104  -7.7448  -7.7371
     1.0673   1.0678   1.1532   1.1541   1.3644   1.3647   1.5536   1.5717
     2.3535   2.4003   2.4684   2.5755   2.6262   2.7400   2.8336   2.9029
     2.9738   3.0559   3.5554   3.5941   3.5990   3.6084   4.1402   4.2112
     4.2404   4.5167   4.5326   4.6107   4.6737   4.8595   4.9311   5.0229
     5.2293   5.3181   5.3253   5.3473   5.4977   5.5096   5.6356   5.6619
     5.7775   5.7914   5.8520   5.9791   5.9995   6.0194   6.0473   6.0720
     6.2827   6.3698   6.4008   6.5510   6.6037   6.7546   6.8323   6.8857
     6.8941   6.9289   6.9619   6.9644   6.9825   6.9967   7.1234   7.1587
     7.1665   7.1809   7.8860   7.8877   7.8999   7.9130   8.0477   8.0547
     9.6358   9.6390  10.6475  10.7099  10.7751  10.8551  11.8673  11.8679
    11.9248  11.9632  12.4707  12.4817  12.6710  12.6735  13.1685  13.2221
    13.3456  13.4735  13.5122  13.6257  13.7582  13.8029  13.8924  13.9485
    14.8942  15.1161  15.2593  15.3357  15.3454  15.5489  15.8056  16.0845
    16.1661  16.7773  17.1325  17.3438  17.6221

          k = 0.0000 0.3150 0.3333 ( 62269 PWs)   bands (ev):

   -66.1374 -66.1372 -66.1370 -66.1368 -66.1365 -66.1363 -66.1361 -66.1359
   -30.5428 -30.5413 -30.5396 -30.5379 -30.5204 -30.5197 -30.5161 -30.5152
   -30.4730 -30.4719 -30.4686 -30.4676 -30.4509 -30.4481 -30.4437 -30.4413
   -30.4376 -30.4329 -30.4263 -30.4226 -30.4095 -30.4068 -30.4042 -30.4017
   -20.2913 -20.2913 -20.2910 -20.2910 -20.2909 -20.2909 -20.2907 -20.2907
   -20.2741 -20.2740 -20.2734 -20.2734 -20.2726 -20.2725 -20.2721 -20.2720
   -20.2697 -20.2696 -20.2688 -20.2687 -20.2680 -20.2679 -20.2672 -20.2671
   -20.2624 -20.2623 -20.2615 -20.2613 -20.2612 -20.2611 -20.2602 -20.2599
   -20.2591 -20.2587 -20.2586 -20.2580 -20.2575 -20.2573 -20.2569 -20.2564
   -20.2553 -20.2553 -20.2549 -20.2548 -20.2541 -20.2537 -20.2536 -20.2532
   -20.2473 -20.2472 -20.2471 -20.2470 -20.2465 -20.2463 -20.2463 -20.2462
    -9.7790  -9.6597  -9.5715  -9.4709  -9.2102  -9.1025  -8.9795  -8.9627
    -8.6756  -8.5663  -8.4912  -8.4873  -8.3147  -8.2821  -8.2498  -8.1797
    -7.9942  -7.9732  -7.9428  -7.9161  -7.8033  -7.7957  -7.7605  -7.7528
     1.1436   1.1461   1.1553   1.1570   2.0566   2.0838   2.1677   2.2285
     2.4819   2.5515   2.6064   2.6301   2.6528   2.7478   2.8437   2.8963
     3.1971   3.2384   3.5283   3.5603   3.5995   3.6476   3.6777   3.6918
     4.1182   4.3816   4.4072   4.4756   4.4933   4.6106   4.6126   4.7250
     4.8067   4.9474   4.9630   5.0247   5.2362   5.3371   5.3455   5.3629
     5.4442   5.5382   5.8334   5.9528   6.0505   6.0834   6.1143   6.1643
     6.4306   6.4458   6.4781   6.5575   6.5992   6.6809   6.7113   6.7424
     6.8697   7.0170   7.0496   7.0813   7.0903   7.1406   7.2001   7.2456
     7.3011   7.3481   7.8058   7.8184   7.8358   7.8922   7.8981   7.9474
    10.3744  10.3792  10.6642  10.7195  11.2955  11.3598  11.8397  11.9195
    11.9884  12.0198  12.1767  12.2455  12.7416  12.7799  12.8367  12.8470
    13.0983  13.2206  13.3826  13.3928  13.4797  13.6914  13.8042  13.8674
    15.0070  15.1012  15.4640  15.7479  15.7898  15.9085  16.0161  16.6090
    16.6574  16.7644  17.0581  17.4248  17.6836

          k = 0.0000 0.3150-0.5000 ( 62306 PWs)   bands (ev):

   -66.1372 -66.1372 -66.1370 -66.1370 -66.1363 -66.1363 -66.1361 -66.1361
   -30.5411 -30.5411 -30.5394 -30.5394 -30.4964 -30.4964 -30.4962 -30.4962
   -30.4919 -30.4919 -30.4917 -30.4917 -30.4496 -30.4496 -30.4425 -30.4425
   -30.4356 -30.4356 -30.4246 -30.4246 -30.4081 -30.4081 -30.4029 -30.4029
   -20.2911 -20.2911 -20.2911 -20.2911 -20.2909 -20.2909 -20.2908 -20.2908
   -20.2738 -20.2738 -20.2737 -20.2737 -20.2724 -20.2724 -20.2723 -20.2723
   -20.2692 -20.2692 -20.2691 -20.2691 -20.2676 -20.2676 -20.2675 -20.2674
   -20.2624 -20.2623 -20.2614 -20.2614 -20.2612 -20.2612 -20.2600 -20.2600
   -20.2589 -20.2589 -20.2584 -20.2584 -20.2563 -20.2563 -20.2563 -20.2563
   -20.2559 -20.2559 -20.2556 -20.2556 -20.2539 -20.2539 -20.2535 -20.2535
   -20.2469 -20.2469 -20.2468 -20.2468 -20.2467 -20.2467 -20.2466 -20.2466
    -9.6534  -9.6534  -9.5421  -9.5421  -8.8882  -8.8881  -8.7396  -8.7395
    -8.7169  -8.7169  -8.6778  -8.6778  -8.4492  -8.4492  -8.4110  -8.4110
    -7.9864  -7.9864  -7.9330  -7.9330  -7.7819  -7.7819  -7.7743  -7.7743
     1.1562   1.1562   1.1587   1.1587   2.4626   2.4626   2.5993   2.5993
     2.8170   2.8170   2.9298   2.9298   2.9945   2.9945   3.0392   3.0392
     3.0657   3.0657   3.2328   3.2328   3.2862   3.2862   3.5874   3.5874
     4.0978   4.0978   4.1157   4.1157   4.1833   4.1833   4.3708   4.3708
     4.9242   4.9242   5.0769   5.0769   5.1444   5.1444   5.2090   5.2090
     5.3964   5.3964   5.8979   5.8979   6.1263   6.1263   6.1645   6.1645
     6.3744   6.3744   6.4433   6.4433   6.5207   6.5207   6.7223   6.7223
     7.0539   7.0539   7.1049   7.1049   7.1565   7.1565   7.5369   7.5369
     7.5631   7.5631   7.6250   7.6250   7.6524   7.6524   7.9105   7.9105
    10.6661  10.6661  11.2084  11.2084  11.2597  11.2597  11.8408  11.8408
    12.0525  12.0525  12.1089  12.1089  12.6554  12.6554  12.6873  12.6873
    13.1084  13.1084  13.1115  13.1115  13.5180  13.5180  13.8159  13.8159
    15.0675  15.0675  15.6388  15.6388  16.2059  16.2059  16.4048  16.4048
    16.9370  16.9370  17.1810  17.1811  17.9879

          k = 0.0000-0.4725 0.0000 ( 62212 PWs)   bands (ev):

   -66.1376 -66.1376 -66.1367 -66.1367 -66.1367 -66.1366 -66.1358 -66.1357
   -30.5479 -30.5479 -30.5395 -30.5395 -30.5395 -30.5395 -30.5373 -30.5373
   -30.4485 -30.4485 -30.4474 -30.4474 -30.4440 -30.4439 -30.4427 -30.4427
   -30.4251 -30.4251 -30.4182 -30.4182 -30.4176 -30.4176 -30.4111 -30.4111
   -20.2914 -20.2914 -20.2912 -20.2911 -20.2908 -20.2907 -20.2905 -20.2905
   -20.2743 -20.2743 -20.2731 -20.2731 -20.2728 -20.2728 -20.2717 -20.2717
   -20.2702 -20.2702 -20.2685 -20.2685 -20.2684 -20.2684 -20.2668 -20.2668
   -20.2620 -20.2620 -20.2616 -20.2616 -20.2597 -20.2597 -20.2596 -20.2596
   -20.2595 -20.2595 -20.2589 -20.2589 -20.2587 -20.2587 -20.2578 -20.2578
   -20.2544 -20.2544 -20.2540 -20.2540 -20.2539 -20.2539 -20.2530 -20.2530
   -20.2477 -20.2477 -20.2474 -20.2474 -20.2459 -20.2459 -20.2459 -20.2458
    -9.8964  -9.8964  -9.4920  -9.4920  -9.4622  -9.4622  -9.1497  -9.1497
    -8.3189  -8.3189  -8.2691  -8.2691  -8.2628  -8.2627  -8.2487  -8.2487
    -7.8366  -7.8366  -7.8139  -7.8139  -7.7379  -7.7379  -7.7370  -7.7370
     0.9578   0.9578   1.0957   1.0957   1.1529   1.1529   1.4017   1.4017
     2.2892   2.2892   3.0681   3.0681   3.1526   3.1526   3.1542   3.1542
     3.1735   3.1735   3.3806   3.3806   3.6034   3.6034   3.6186   3.6187
     3.8033   3.8033   4.5551   4.5551   4.5602   4.5602   5.3836   5.3836
     5.4214   5.4215   5.5147   5.5147   5.5496   5.5496   5.8064   5.8064
     5.8242   5.8242   5.9613   5.9613   6.0053   6.0053   6.0795   6.0795
     6.1345   6.1345   6.2864   6.2864   6.6165   6.6165   6.6559   6.6559
     6.8795   6.8795   7.1353   7.1353   7.1581   7.1581   7.5240   7.5240
     7.5367   7.5367   7.5576   7.5577   7.5748   7.5748   8.0918   8.0918
     9.2914   9.2914  11.1923  11.1923  11.2582  11.2582  11.2775  11.2775
    11.3658  11.3658  12.6221  12.6221  12.6328  12.6328  13.2321  13.2321
    13.6214  13.6214  13.6844  13.6844  13.7336  13.7336  13.8673  13.8673
    15.1749  15.1749  15.3482  15.3482  15.5505  15.5505  15.5724  15.5724
    16.3293  16.3293  17.8777  17.8777  17.9901

          k = 0.0000-0.4725 0.1667 ( 62246 PWs)   bands (ev):

   -66.1375 -66.1375 -66.1367 -66.1367 -66.1366 -66.1366 -66.1358 -66.1358
   -30.5448 -30.5448 -30.5377 -30.5377 -30.5359 -30.5359 -30.5331 -30.5330
   -30.4547 -30.4547 -30.4503 -30.4502 -30.4472 -30.4472 -30.4431 -30.4431
   -30.4247 -30.4247 -30.4188 -30.4188 -30.4173 -30.4173 -30.4118 -30.4118
   -20.2914 -20.2914 -20.2911 -20.2911 -20.2908 -20.2908 -20.2906 -20.2906
   -20.2742 -20.2742 -20.2732 -20.2731 -20.2727 -20.2727 -20.2718 -20.2718
   -20.2700 -20.2700 -20.2685 -20.2685 -20.2683 -20.2683 -20.2669 -20.2669
   -20.2620 -20.2620 -20.2616 -20.2616 -20.2599 -20.2599 -20.2597 -20.2597
   -20.2595 -20.2595 -20.2588 -20.2588 -20.2584 -20.2584 -20.2575 -20.2575
   -20.2546 -20.2546 -20.2542 -20.2542 -20.2540 -20.2540 -20.2532 -20.2532
   -20.2476 -20.2475 -20.2473 -20.2473 -20.2461 -20.2461 -20.2460 -20.2460
    -9.8413  -9.8413  -9.4744  -9.4744  -9.4014  -9.4014  -9.1102  -9.1102
    -8.3296  -8.3296  -8.2804  -8.2804  -8.2602  -8.2601  -8.2515  -8.2515
    -7.9499  -7.9499  -7.8681  -7.8681  -7.8161  -7.8161  -7.7427  -7.7427
     1.0675   1.0675   1.1538   1.1538   1.3649   1.3649   1.5669   1.5669
     2.3777   2.3777   3.0838   3.0838   3.1306   3.1306   3.1802   3.1802
     3.2343   3.2343   3.3696   3.3696   3.6088   3.6088   3.6418   3.6418
     3.8213   3.8213   4.2255   4.2255   4.6202   4.6202   5.1222   5.1222
     5.2785   5.2786   5.3616   5.3616   5.5368   5.5368   5.5515   5.5515
     5.7078   5.7078   5.7847   5.7847   6.0340   6.0340   6.0735   6.0735
     6.3593   6.3593   6.4185   6.4185   6.6197   6.6197   6.8756   6.8756
     6.9215   6.9215   6.9678   6.9678   7.0251   7.0251   7.5228   7.5228
     7.5383   7.5383   7.5508   7.5508   7.5659   7.5660   8.0495   8.0495
     9.6394   9.6394  11.2764  11.2764  11.3101  11.3101  11.3464  11.3464
    11.4263  11.4263  12.4765  12.4766  12.6746  12.6746  13.2470  13.2470
    13.4974  13.4974  13.5502  13.5502  13.6209  13.6209  13.8685  13.8685
    15.2148  15.2148  15.5428  15.5428  15.5679  15.5679  15.8786  15.8786
    16.4072  16.4072  17.8073  17.8075  17.9748

          k = 0.0000-0.4725 0.3333 ( 62268 PWs)   bands (ev):

   -66.1374 -66.1373 -66.1369 -66.1369 -66.1364 -66.1364 -66.1360 -66.1360
   -30.5421 -30.5420 -30.5387 -30.5387 -30.5200 -30.5200 -30.5156 -30.5156
   -30.4721 -30.4721 -30.4678 -30.4677 -30.4463 -30.4463 -30.4439 -30.4439
   -30.4236 -30.4236 -30.4203 -30.4202 -30.4163 -30.4163 -30.4133 -30.4132
   -20.2913 -20.2913 -20.2910 -20.2910 -20.2909 -20.2909 -20.2907 -20.2907
   -20.2740 -20.2740 -20.2734 -20.2734 -20.2726 -20.2726 -20.2721 -20.2720
   -20.2696 -20.2696 -20.2687 -20.2687 -20.2680 -20.2679 -20.2671 -20.2671
   -20.2619 -20.2619 -20.2617 -20.2617 -20.2601 -20.2601 -20.2599 -20.2599
   -20.2594 -20.2594 -20.2590 -20.2590 -20.2575 -20.2575 -20.2568 -20.2568
   -20.2553 -20.2553 -20.2549 -20.2549 -20.2539 -20.2539 -20.2535 -20.2535
   -20.2473 -20.2472 -20.2471 -20.2470 -20.2464 -20.2464 -20.2463 -20.2463
    -9.7125  -9.7125  -9.5139  -9.5139  -9.1446  -9.1446  -8.9702  -8.9702
    -8.4321  -8.4321  -8.3820  -8.3819  -8.2571  -8.2570  -8.2481  -8.2481
    -8.1777  -8.1777  -8.1211  -8.1210  -7.8017  -7.8016  -7.7585  -7.7585
     1.1451   1.1452   1.1565   1.1565   2.0776   2.0776   2.2168   2.2168
     2.6328   2.6328   3.0866   3.0866   3.1403   3.1403   3.2126   3.2126
     3.3186   3.3186   3.3667   3.3667   3.5758   3.5758   3.6557   3.6557
     3.7238   3.7239   3.8348   3.8348   4.5670   4.5670   4.6688   4.6688
     4.8064   4.8064   4.8931   4.8931   5.0489   5.0489   5.3346   5.3346
     5.5892   5.5892   5.7128   5.7128   6.0800   6.0800   6.1654   6.1654
     6.4473   6.4473   6.5342   6.5343   6.6129   6.6129   6.6783   6.6783
     6.9934   6.9934   7.2212   7.2213   7.2358   7.2358   7.4957   7.4957
     7.5195   7.5195   7.5418   7.5418   7.5659   7.5659   7.8978   7.8978
    10.3859  10.3859  11.2868  11.2868  11.3298  11.3298  11.7249  11.7249
    11.7907  11.7907  11.9929  11.9929  12.8337  12.8337  12.9313  12.9313
    12.9969  12.9969  13.3495  13.3495  13.6214  13.6214  13.7410  13.7410
    15.3214  15.3214  15.5093  15.5093  16.1850  16.1850  16.6523  16.6523
    16.7141  16.7141  17.2717  17.2717  17.8279

          k = 0.0000-0.4725-0.5000 ( 62284 PWs)   bands (ev):

   -66.1371 -66.1371 -66.1371 -66.1371 -66.1362 -66.1362 -66.1362 -66.1362
   -30.5403 -30.5403 -30.5403 -30.5403 -30.4962 -30.4962 -30.4962 -30.4962
   -30.4917 -30.4917 -30.4917 -30.4917 -30.4451 -30.4451 -30.4451 -30.4451
   -30.4220 -30.4220 -30.4220 -30.4220 -30.4149 -30.4149 -30.4149 -30.4149
   -20.2911 -20.2911 -20.2911 -20.2911 -20.2909 -20.2909 -20.2908 -20.2908
   -20.2737 -20.2737 -20.2737 -20.2737 -20.2723 -20.2723 -20.2723 -20.2723
   -20.2692 -20.2692 -20.2691 -20.2691 -20.2675 -20.2675 -20.2675 -20.2675
   -20.2618 -20.2618 -20.2618 -20.2618 -20.2600 -20.2600 -20.2600 -20.2600
   -20.2593 -20.2593 -20.2592 -20.2592 -20.2563 -20.2563 -20.2563 -20.2563
   -20.2558 -20.2558 -20.2558 -20.2558 -20.2537 -20.2537 -20.2537 -20.2537
   -20.2468 -20.2468 -20.2468 -20.2468 -20.2467 -20.2467 -20.2467 -20.2467
    -9.5904  -9.5904  -9.5904  -9.5904  -8.7742  -8.7742  -8.7742  -8.7742
    -8.6992  -8.6992  -8.6992  -8.6992  -8.2477  -8.2477  -8.2476  -8.2476
    -8.2147  -8.2147  -8.2146  -8.2146  -7.7801  -7.7801  -7.7801  -7.7801
     1.1578   1.1578   1.1578   1.1578   2.8795   2.8795   2.8795   2.8795
     2.9865   2.9865   2.9865   2.9865   3.1354   3.1354   3.1354   3.1354
     3.2338   3.2338   3.2338   3.2338   3.4349   3.4349   3.4349   3.4349
     3.6381   3.6381   3.6381   3.6381   4.4118   4.4118   4.4118   4.4118
     4.5131   4.5131   4.5131   4.5131   5.1429   5.1429   5.1429   5.1429
     5.6359   5.6359   5.6360   5.6360   6.1621   6.1621   6.1621   6.1621
     6.4275   6.4275   6.4275   6.4275   6.5840   6.5840   6.5840   6.5840
     7.3594   7.3594   7.3594   7.3594   7.4278   7.4279   7.4279   7.4279
     7.4723   7.4723   7.4723   7.4723   7.6573   7.6573   7.6573   7.6573
    11.1680  11.1680  11.1680  11.1680  11.3753  11.3754  11.3754  11.3754
    12.3148  12.3148  12.3148  12.3148  12.3621  12.3621  12.3621  12.3621
    13.1056  13.1056  13.1056  13.1056  13.6426  13.6426  13.6427  13.6427
    15.4331  15.4331  15.4331  15.4331  16.7541  16.7542  16.7542  16.7542
    17.3986  17.3986  17.3986  17.3986  17.4599

          k = 0.1667 0.0000 0.1667 ( 62234 PWs)   bands (ev):

   -66.1377 -66.1373 -66.1369 -66.1369 -66.1365 -66.1365 -66.1361 -66.1357
   -30.5419 -30.5409 -30.5351 -30.5339 -30.5331 -30.5323 -30.5314 -30.5297
   -30.4634 -30.4631 -30.4619 -30.4532 -30.4524 -30.4511 -30.4504 -30.4493
   -30.4449 -30.4370 -30.4369 -30.4280 -30.3957 -30.3921 -30.3920 -30.3886
   -20.2914 -20.2914 -20.2911 -20.2911 -20.2908 -20.2908 -20.2906 -20.2906
   -20.2742 -20.2740 -20.2732 -20.2730 -20.2729 -20.2727 -20.2720 -20.2718
   -20.2700 -20.2698 -20.2685 -20.2685 -20.2684 -20.2682 -20.2671 -20.2668
   -20.2631 -20.2629 -20.2624 -20.2623 -20.2613 -20.2609 -20.2604 -20.2600
   -20.2591 -20.2585 -20.2584 -20.2575 -20.2573 -20.2572 -20.2565 -20.2560
   -20.2551 -20.2550 -20.2546 -20.2540 -20.2540 -20.2539 -20.2534 -20.2530
   -20.2476 -20.2474 -20.2473 -20.2472 -20.2462 -20.2461 -20.2458 -20.2457
    -9.9340  -9.6880  -9.5435  -9.5252  -9.3468  -9.3135  -9.0821  -9.0630
    -8.9003  -8.7243  -8.7205  -8.7021  -7.9871  -7.9650  -7.9374  -7.9373
    -7.9062  -7.9040  -7.8713  -7.8464  -7.6645  -7.6172  -7.6133  -7.5694
     1.2266   1.2281   1.3570   1.3650   1.3971   1.4169   1.4971   1.6852
     1.7505   1.7681   1.7732   1.9043   2.4211   2.5116   2.6549   2.6590
     2.7332   2.7513   3.9815   3.9873   4.1348   4.1655   4.3105   4.3166
     4.3409   4.3534   4.7061   4.7184   4.7720   4.8713   5.0555   5.2651
     5.3154   5.3497   5.4453   5.5040   5.5991   5.6445   5.6491   5.6883
     5.6927   5.8056   5.8166   5.9400   6.0162   6.1482   6.1882   6.2503
     6.3714   6.4544   6.5548   6.6085   6.6118   6.7104   6.7447   6.7593
     6.7755   6.8080   6.8215   6.8460   6.9457   6.9574   6.9782   7.0659
     7.0703   7.1434   8.0006   8.0067   8.1240   8.1394   8.1946   8.2111
     9.8581   9.8978  10.1891  10.2435  10.2776  10.3356  12.3663  12.4369
    12.4698  12.4878  12.5073  12.5535  12.5665  12.6121  12.9840  13.1357
    13.1792  13.2496  13.5641  13.5944  13.7611  13.8471  14.0532  14.0901
    14.2676  14.3806  14.5442  15.0307  15.3523  15.4216  15.4254  16.3071
    16.3203  16.9771  17.0004  17.0887  17.4929

          k = 0.1667 0.0000 0.3333 ( 62265 PWs)   bands (ev):

   -66.1375 -66.1371 -66.1370 -66.1367 -66.1366 -66.1363 -66.1362 -66.1358
   -30.5374 -30.5347 -30.5342 -30.5308 -30.5201 -30.5191 -30.5170 -30.5153
   -30.4751 -30.4716 -30.4714 -30.4682 -30.4620 -30.4574 -30.4508 -30.4486
   -30.4466 -30.4435 -30.4360 -30.4318 -30.3949 -30.3927 -30.3912 -30.3892
   -20.2913 -20.2912 -20.2910 -20.2910 -20.2909 -20.2909 -20.2907 -20.2907
   -20.2740 -20.2738 -20.2734 -20.2732 -20.2728 -20.2726 -20.2723 -20.2720
   -20.2696 -20.2694 -20.2687 -20.2685 -20.2681 -20.2680 -20.2674 -20.2671
   -20.2631 -20.2630 -20.2625 -20.2624 -20.2611 -20.2609 -20.2603 -20.2601
   -20.2587 -20.2582 -20.2577 -20.2575 -20.2570 -20.2568 -20.2568 -20.2556
   -20.2555 -20.2555 -20.2548 -20.2545 -20.2545 -20.2540 -20.2536 -20.2532
   -20.2473 -20.2471 -20.2471 -20.2469 -20.2465 -20.2464 -20.2462 -20.2461
    -9.8009  -9.5735  -9.5451  -9.3482  -9.3289  -9.0845  -8.9629  -8.9516
    -8.9320  -8.7386  -8.6780  -8.6705  -8.2862  -8.2659  -8.2529  -8.2077
    -7.9473  -7.9230  -7.9049  -7.8796  -7.6555  -7.6277  -7.6051  -7.5792
     1.3768   1.3850   1.4119   1.4217   1.6628   1.6980   1.7443   1.7519
     2.0903   2.1287   2.2304   2.3056   2.6580   2.6805   2.7297   2.7934
     2.8992   2.9671   3.6209   3.7489   3.7950   3.9484   4.0838   4.1108
     4.2304   4.3522   4.4733   4.5239   4.6412   4.6910   4.7509   4.7769
     5.0189   5.0204   5.1159   5.1420   5.3007   5.3400   5.6489   5.6781
     5.6903   5.8766   5.8853   5.9262   5.9517   5.9870   6.0503   6.1696
     6.4072   6.4719   6.5115   6.5386   6.6124   6.6785   6.7147   6.7692
     6.7763   6.8809   6.8863   6.9073   6.9645   7.0562   7.1143   7.1592
     7.3291   7.3872   7.8559   7.8665   8.0386   8.0686   8.1419   8.1437
    10.2090  10.2412  10.5240  10.5758  10.9370  10.9909  12.0130  12.0555
    12.3745  12.5790  12.5845  12.6044  12.6493  12.6623  12.7572  12.8178
    12.9870  13.1685  13.3392  13.4204  13.6595  13.6863  13.8211  13.8626
    14.3798  14.5235  14.7364  15.2511  15.3697  15.7986  15.9717  16.2580
    16.4245  17.2537  17.4159  17.5303  17.5559

          k = 0.1667 0.0000-0.5000 ( 62322 PWs)   bands (ev):

   -66.1373 -66.1373 -66.1369 -66.1369 -66.1365 -66.1365 -66.1361 -66.1361
   -30.5356 -30.5356 -30.5324 -30.5324 -30.4964 -30.4964 -30.4963 -30.4963
   -30.4927 -30.4927 -30.4924 -30.4924 -30.4603 -30.4603 -30.4481 -30.4481
   -30.4476 -30.4476 -30.4343 -30.4343 -30.3937 -30.3937 -30.3901 -30.3901
   -20.2911 -20.2911 -20.2911 -20.2911 -20.2909 -20.2909 -20.2909 -20.2909
   -20.2737 -20.2737 -20.2735 -20.2735 -20.2725 -20.2725 -20.2723 -20.2723
   -20.2691 -20.2691 -20.2689 -20.2689 -20.2677 -20.2677 -20.2675 -20.2675
   -20.2631 -20.2631 -20.2625 -20.2625 -20.2610 -20.2610 -20.2602 -20.2602
   -20.2581 -20.2581 -20.2576 -20.2576 -20.2565 -20.2565 -20.2562 -20.2562
   -20.2559 -20.2559 -20.2551 -20.2551 -20.2544 -20.2544 -20.2534 -20.2534
   -20.2469 -20.2469 -20.2467 -20.2467 -20.2467 -20.2467 -20.2465 -20.2465
    -9.6648  -9.6648  -9.4191  -9.4191  -9.0858  -9.0858  -8.8014  -8.8014
    -8.6965  -8.6965  -8.6562  -8.6562  -8.5656  -8.5656  -8.5158  -8.5157
    -7.9277  -7.9277  -7.9010  -7.9010  -7.6419  -7.6419  -7.5923  -7.5923
     1.3894   1.3894   1.4269   1.4269   1.7201   1.7201   1.7298   1.7298
     2.6676   2.6676   2.8720   2.8720   2.9430   2.9430   3.0418   3.0418
     3.0705   3.0705   3.2372   3.2372   3.3862   3.3862   3.8054   3.8054
     3.9383   3.9383   4.2324   4.2324   4.6347   4.6347   4.8165   4.8165
     4.9202   4.9202   4.9995   4.9995   5.1679   5.1679   5.7131   5.7131
     5.7605   5.7605   5.7907   5.7907   5.9615   5.9615   6.1299   6.1299
     6.3480   6.3480   6.5116   6.5116   6.6300   6.6300   6.7703   6.7703
     6.7928   6.7928   6.9185   6.9185   6.9699   6.9699   7.5537   7.5537
     7.5666   7.5666   7.7569   7.7569   7.7952   7.7952   8.1442   8.1442
    10.2376  10.2376  11.2915  11.2915  11.3451  11.3451  11.7442  11.7442
    11.8324  11.8324  12.5992  12.5992  12.8027  12.8027  12.9330  12.9330
    13.0592  13.0592  13.2209  13.2209  13.3432  13.3432  13.8326  13.8326
    14.4765  14.4765  15.0544  15.0544  15.8490  15.8490  16.0894  16.0894
    16.8252  16.8252  17.7484  17.7486  17.9145

          k = 0.1667 0.1575 0.1667 ( 62255 PWs)   bands (ev):

   -66.1376 -66.1373 -66.1368 -66.1368 -66.1365 -66.1365 -66.1360 -66.1357
   -30.5417 -30.5409 -30.5349 -30.5338 -30.5329 -30.5324 -30.5315 -30.5299
   -30.4614 -30.4610 -30.4596 -30.4532 -30.4511 -30.4504 -30.4497 -30.4486
   -30.4451 -30.4354 -30.4351 -30.4266 -30.3996 -30.3958 -30.3957 -30.3920
   -20.2914 -20.2914 -20.2911 -20.2911 -20.2908 -20.2908 -20.2906 -20.2906
   -20.2742 -20.2740 -20.2731 -20.2730 -20.2729 -20.2727 -20.2720 -20.2718
   -20.2700 -20.2698 -20.2685 -20.2685 -20.2684 -20.2682 -20.2671 -20.2669
   -20.2629 -20.2627 -20.2621 -20.2620 -20.2613 -20.2609 -20.2604 -20.2599
   -20.2591 -20.2586 -20.2584 -20.2576 -20.2575 -20.2575 -20.2568 -20.2563
   -20.2551 -20.2550 -20.2545 -20.2541 -20.2541 -20.2540 -20.2534 -20.2530
   -20.2476 -20.2474 -20.2473 -20.2472 -20.2462 -20.2461 -20.2459 -20.2458
    -9.9104  -9.6990  -9.5203  -9.5004  -9.3538  -9.3210  -9.0808  -9.0642
    -8.8289  -8.6743  -8.6717  -8.6519  -7.9928  -7.9641  -7.9411  -7.9401
    -7.9129  -7.9056  -7.8708  -7.8486  -7.7507  -7.7089  -7.7068  -7.6670
     1.2265   1.2278   1.3619   1.3654   1.4063   1.4179   1.5876   1.6847
     1.9356   1.9731   1.9917   2.1032   2.4283   2.5068   2.7290   2.7299
     2.8048   2.8173   3.8637   3.8806   3.9953   4.0154   4.2787   4.3021
     4.3111   4.3205   4.6471   4.7482   4.8201   4.9027   4.9627   5.2233
     5.2497   5.2642   5.3225   5.3585   5.4239   5.6006   5.6182   5.6206
     5.6655   5.8016   5.9372   5.9574   5.9914   6.0700   6.1492   6.2275
     6.3648   6.3920   6.4987   6.5826   6.6293   6.7029   6.7076   6.7720
     6.8016   6.8548   6.8653   6.9070   6.9497   6.9651   6.9748   7.0491
     7.0928   7.1554   7.9995   8.0014   8.0711   8.0863   8.1247   8.1339
     9.8719   9.8992  10.3464  10.3874  10.4454  10.4838  12.2379  12.3292
    12.3658  12.4009  12.4970  12.5262  12.5305  12.5586  13.0172  13.1459
    13.2072  13.2694  13.5563  13.5865  13.8393  13.8638  13.9658  14.0210
    14.4333  14.6821  14.7589  15.1506  15.4220  15.4229  15.7551  16.2706
    16.2818  16.7450  17.0859  17.1129  17.5033

          k = 0.1667 0.1575 0.3333 ( 62260 PWs)   bands (ev):

   -66.1375 -66.1371 -66.1370 -66.1367 -66.1367 -66.1363 -66.1362 -66.1359
   -30.5372 -30.5348 -30.5339 -30.5310 -30.5200 -30.5191 -30.5168 -30.5153
   -30.4743 -30.4716 -30.4705 -30.4682 -30.4600 -30.4563 -30.4490 -30.4472
   -30.4469 -30.4408 -30.4342 -30.4300 -30.3987 -30.3964 -30.3948 -30.3927
   -20.2912 -20.2912 -20.2910 -20.2910 -20.2909 -20.2909 -20.2907 -20.2907
   -20.2740 -20.2738 -20.2734 -20.2732 -20.2728 -20.2726 -20.2722 -20.2720
   -20.2696 -20.2694 -20.2687 -20.2685 -20.2681 -20.2680 -20.2673 -20.2671
   -20.2629 -20.2628 -20.2621 -20.2621 -20.2612 -20.2609 -20.2603 -20.2600
   -20.2588 -20.2583 -20.2579 -20.2575 -20.2572 -20.2570 -20.2568 -20.2558
   -20.2556 -20.2555 -20.2548 -20.2546 -20.2545 -20.2540 -20.2537 -20.2533
   -20.2473 -20.2471 -20.2471 -20.2469 -20.2465 -20.2464 -20.2462 -20.2461
    -9.7753  -9.5564  -9.5474  -9.3564  -9.2970  -9.0916  -8.9599  -8.9358
    -8.8807  -8.6932  -8.6319  -8.6288  -8.2914  -8.2618  -8.2603  -8.2031
    -7.9474  -7.9282  -7.9050  -7.8841  -7.7438  -7.7180  -7.7003  -7.6757
     1.3895   1.3950   1.4142   1.4213   1.8484   1.8801   1.9607   1.9793
     2.0898   2.1604   2.2300   2.3414   2.6923   2.7183   2.7859   2.8067
     2.9712   3.0297   3.6147   3.7374   3.7449   3.9004   3.9630   4.0162
     4.2737   4.3310   4.4493   4.5094   4.6154   4.6328   4.7546   4.7702
     4.8971   4.9479   4.9662   5.1132   5.1602   5.2247   5.4049   5.6367
     5.6460   5.7685   5.8281   5.9198   5.9262   5.9832   6.0069   6.0302
     6.3065   6.5094   6.5668   6.6662   6.6778   6.7006   6.7312   6.7427
     6.8294   6.8973   6.9284   6.9568   6.9763   7.0831   7.1110   7.1715
     7.3242   7.3815   7.8575   7.8618   7.9843   8.0067   8.0819   8.0893
    10.3547  10.3977  10.5396  10.5975  11.0308  11.0832  12.0117  12.0516
    12.3095  12.4297  12.4981  12.5490  12.6497  12.6713  12.7156  12.7524
    13.0174  13.1652  13.3149  13.4278  13.5638  13.6173  13.8466  13.8645
    14.6014  14.7356  15.0925  15.4617  15.6619  15.7883  15.9848  16.2235
    16.5226  17.1598  17.2091  17.4930  17.5895

          k = 0.1667 0.1575-0.5000 ( 62292 PWs)   bands (ev):

   -66.1372 -66.1372 -66.1369 -66.1369 -66.1364 -66.1364 -66.1361 -66.1361
   -30.5354 -30.5354 -30.5326 -30.5326 -30.4962 -30.4962 -30.4962 -30.4962
   -30.4926 -30.4926 -30.4923 -30.4923 -30.4585 -30.4585 -30.4480 -30.4480
   -30.4447 -30.4447 -30.4325 -30.4325 -30.3975 -30.3975 -30.3937 -30.3937
   -20.2911 -20.2911 -20.2911 -20.2911 -20.2909 -20.2909 -20.2909 -20.2909
   -20.2737 -20.2737 -20.2736 -20.2736 -20.2725 -20.2725 -20.2723 -20.2723
   -20.2691 -20.2691 -20.2689 -20.2689 -20.2677 -20.2677 -20.2675 -20.2675
   -20.2628 -20.2628 -20.2621 -20.2621 -20.2610 -20.2610 -20.2601 -20.2601
   -20.2583 -20.2583 -20.2578 -20.2578 -20.2565 -20.2565 -20.2563 -20.2563
   -20.2559 -20.2559 -20.2552 -20.2552 -20.2543 -20.2543 -20.2535 -20.2535
   -20.2469 -20.2469 -20.2467 -20.2467 -20.2467 -20.2467 -20.2465 -20.2465
    -9.6384  -9.6384  -9.4286  -9.4286  -9.0329  -9.0329  -8.7768  -8.7768
    -8.7028  -8.7028  -8.6590  -8.6589  -8.5423  -8.5423  -8.4957  -8.4957
    -7.9288  -7.9288  -7.9051  -7.9051  -7.7312  -7.7312  -7.6881  -7.6881
     1.4058   1.4058   1.4258   1.4258   1.9049   1.9049   1.9762   1.9762
     2.7289   2.7289   2.8907   2.8907   2.9611   2.9611   3.0411   3.0411
     3.0710   3.0710   3.2528   3.2528   3.3773   3.3774   3.8043   3.8043
     3.9908   3.9908   4.1338   4.1338   4.5498   4.5498   4.7386   4.7386
     4.8593   4.8593   4.9381   4.9381   5.0223   5.0223   5.5350   5.5350
     5.7052   5.7052   5.7357   5.7357   5.8807   5.8807   6.0106   6.0106
     6.4418   6.4418   6.6207   6.6207   6.6968   6.6968   6.7554   6.7554
     6.8050   6.8050   6.9377   6.9377   7.0220   7.0220   7.5571   7.5571
     7.5620   7.5620   7.7273   7.7273   7.7598   7.7598   8.0859   8.0859
    10.4033  10.4033  11.2939  11.2939  11.3454  11.3454  11.8025  11.8025
    11.8882  11.8882  12.4514  12.4514  12.7941  12.7941  12.8844  12.8844
    13.0276  13.0276  13.1333  13.1333  13.3238  13.3238  13.8412  13.8412
    14.6958  14.6958  15.4350  15.4350  15.9548  15.9548  16.0608  16.0608
    16.8645  16.8645  17.5875  17.5876  17.9009

          k = 0.1667 0.3150 0.1667 ( 62249 PWs)   bands (ev):

   -66.1376 -66.1374 -66.1368 -66.1368 -66.1366 -66.1366 -66.1360 -66.1358
   -30.5415 -30.5409 -30.5344 -30.5337 -30.5326 -30.5325 -30.5316 -30.5304
   -30.4573 -30.4566 -30.4546 -30.4534 -30.4509 -30.4506 -30.4504 -30.4463
   -30.4385 -30.4295 -30.4290 -30.4218 -30.4101 -30.4057 -30.4054 -30.4012
   -20.2914 -20.2914 -20.2911 -20.2911 -20.2908 -20.2908 -20.2906 -20.2906
   -20.2742 -20.2741 -20.2731 -20.2730 -20.2729 -20.2728 -20.2720 -20.2719
   -20.2699 -20.2699 -20.2685 -20.2684 -20.2684 -20.2683 -20.2670 -20.2669
   -20.2623 -20.2621 -20.2615 -20.2612 -20.2611 -20.2609 -20.2601 -20.2595
   -20.2592 -20.2588 -20.2586 -20.2584 -20.2582 -20.2576 -20.2575 -20.2569
   -20.2550 -20.2550 -20.2545 -20.2541 -20.2541 -20.2541 -20.2533 -20.2531
   -20.2475 -20.2475 -20.2473 -20.2473 -20.2461 -20.2460 -20.2459 -20.2458
    -9.8521  -9.7319  -9.4672  -9.4433  -9.3754  -9.3444  -9.0773  -9.0677
    -8.6280  -8.5216  -8.5196  -8.5000  -8.0729  -8.0098  -8.0063  -7.9695
    -7.9561  -7.9296  -7.9187  -7.9064  -7.8838  -7.8545  -7.8480  -7.8432
     1.2264   1.2274   1.3650   1.3660   1.4137   1.4176   1.6572   1.6821
     2.4408   2.4676   2.4933   2.5685   2.5972   2.7061   2.9441   2.9766
     3.0049   3.0595   3.5465   3.5689   3.6458   3.6638   4.1334   4.2629
     4.2809   4.2868   4.3139   4.5355   4.5656   4.8467   4.8963   4.9881
     5.0433   5.0567   5.2198   5.2313   5.3639   5.3890   5.5157   5.5268
     5.6648   5.6730   5.7586   5.7869   5.8400   5.8611   6.1778   6.1884
     6.4080   6.4359   6.4789   6.5905   6.6427   6.7271   6.7964   6.8398
     6.8929   6.9157   6.9968   7.0196   7.0314   7.0378   7.1337   7.1380
     7.2109   7.2309   7.8637   7.8791   7.8908   7.9132   8.0102   8.0217
     9.8887   9.8998  10.7674  10.8050  10.8821  10.8944  11.8622  11.9382
    11.9899  12.0104  12.4989  12.5216  12.5267  12.5441  13.1102  13.1916
    13.2960  13.3537  13.5217  13.5396  13.6795  13.7529  13.8106  13.8761
    15.0519  15.2899  15.3392  15.4174  15.4522  15.6251  16.1382  16.1500
    16.1996  16.7435  17.1956  17.4099  17.4308

          k = 0.1667 0.3150 0.3333 ( 62265 PWs)   bands (ev):

   -66.1374 -66.1372 -66.1369 -66.1367 -66.1366 -66.1364 -66.1361 -66.1359
   -30.5367 -30.5353 -30.5333 -30.5316 -30.5197 -30.5191 -30.5164 -30.5155
   -30.4727 -30.4716 -30.4689 -30.4680 -30.4558 -30.4534 -30.4500 -30.4479
   -30.4371 -30.4325 -30.4280 -30.4242 -30.4091 -30.4065 -30.4046 -30.4021
   -20.2912 -20.2912 -20.2910 -20.2910 -20.2909 -20.2909 -20.2907 -20.2907
   -20.2740 -20.2739 -20.2733 -20.2733 -20.2727 -20.2726 -20.2722 -20.2721
   -20.2695 -20.2695 -20.2687 -20.2686 -20.2681 -20.2680 -20.2673 -20.2672
   -20.2623 -20.2621 -20.2614 -20.2613 -20.2612 -20.2610 -20.2600 -20.2596
   -20.2592 -20.2588 -20.2586 -20.2579 -20.2576 -20.2574 -20.2568 -20.2563
   -20.2556 -20.2555 -20.2548 -20.2547 -20.2544 -20.2540 -20.2538 -20.2535
   -20.2473 -20.2472 -20.2471 -20.2470 -20.2464 -20.2463 -20.2463 -20.2462
    -9.7130  -9.5889  -9.4880  -9.3819  -9.2251  -9.1144  -8.9532  -8.9396
    -8.6921  -8.5567  -8.4942  -8.4873  -8.3171  -8.2909  -8.2450  -8.1852
    -8.0041  -7.9952  -7.9595  -7.9400  -7.9156  -7.8946  -7.8745  -7.8582
     1.3971   1.3993   1.4183   1.4212   2.0589   2.0863   2.1656   2.2270
     2.4829   2.5537   2.5930   2.6618   2.7206   2.7829   2.9548   3.0044
     3.1952   3.2350   3.5326   3.5546   3.6257   3.6830   3.7329   3.8066
     4.1100   4.3634   4.3957   4.4107   4.4674   4.4919   4.5770   4.6608
     4.6721   4.8198   4.9114   4.9569   5.0077   5.0624   5.1509   5.1920
     5.3573   5.4282   5.5534   5.6937   5.7293   5.8353   5.9585   5.9730
     6.4579   6.5647   6.6425   6.7628   6.7860   6.8106   6.8602   6.8882
     6.9481   7.0420   7.0644   7.0813   7.1167   7.1587   7.2385   7.2586
     7.3127   7.3613   7.8053   7.8079   7.8212   7.8736   7.8861   7.9315
    10.5125  10.5294  10.8473  10.8879  11.3058  11.3662  11.9222  11.9760
    12.0487  12.1127  12.1834  12.2455  12.6568  12.7097  12.7538  12.8003
    13.0677  13.1938  13.2013  13.3446  13.4409  13.5053  13.7100  13.7418
    15.2139  15.3103  15.7446  15.8731  15.9030  16.0128  16.1503  16.6271
    16.6698  16.8359  17.0549  17.4531  17.6526

          k = 0.1667 0.3150-0.5000 ( 62264 PWs)   bands (ev):

   -66.1372 -66.1372 -66.1370 -66.1370 -66.1364 -66.1364 -66.1362 -66.1362
   -30.5348 -30.5348 -30.5332 -30.5332 -30.4960 -30.4960 -30.4959 -30.4959
   -30.4923 -30.4923 -30.4920 -30.4920 -30.4546 -30.4546 -30.4491 -30.4491
   -30.4351 -30.4351 -30.4264 -30.4264 -30.4078 -30.4078 -30.4033 -30.4033
   -20.2911 -20.2911 -20.2911 -20.2911 -20.2909 -20.2909 -20.2909 -20.2909
   -20.2737 -20.2737 -20.2736 -20.2736 -20.2725 -20.2725 -20.2724 -20.2724
   -20.2691 -20.2691 -20.2690 -20.2690 -20.2677 -20.2677 -20.2675 -20.2675
   -20.2622 -20.2622 -20.2613 -20.2613 -20.2611 -20.2611 -20.2598 -20.2598
   -20.2590 -20.2590 -20.2583 -20.2583 -20.2565 -20.2565 -20.2564 -20.2564
   -20.2558 -20.2558 -20.2555 -20.2555 -20.2542 -20.2542 -20.2537 -20.2537
   -20.2468 -20.2468 -20.2467 -20.2467 -20.2467 -20.2467 -20.2466 -20.2466
    -9.5755  -9.5755  -9.4580  -9.4579  -8.9059  -8.9059  -8.7386  -8.7386
    -8.7145  -8.7144  -8.6680  -8.6679  -8.4454  -8.4454  -8.4154  -8.4154
    -7.9993  -7.9993  -7.9573  -7.9573  -7.8977  -7.8977  -7.8748  -7.8748
     1.4174   1.4174   1.4240   1.4240   2.4656   2.4656   2.5677   2.5677
     2.8702   2.8702   2.9505   2.9505   3.0086   3.0086   3.0492   3.0492
     3.1037   3.1037   3.3031   3.3031   3.3481   3.3481   3.6252   3.6252
     4.0910   4.0910   4.1218   4.1218   4.1727   4.1728   4.3790   4.3790
     4.7684   4.7684   4.8485   4.8485   5.0161   5.0161   5.0841   5.0841
     5.1373   5.1373   5.6167   5.6167   5.7620   5.7620   5.8515   5.8515
     6.5977   6.5977   6.7187   6.7187   6.7618   6.7618   6.8405   6.8405
     7.0528   7.0528   7.1166   7.1166   7.2039   7.2039   7.5396   7.5396
     7.5679   7.5679   7.6292   7.6292   7.6520   7.6520   7.8961   7.8961
    10.8331  10.8331  11.2976  11.2976  11.3511  11.3511  11.9049  11.9049
    12.0630  12.0630  12.1350  12.1350  12.6479  12.6479  12.6747  12.6747
    12.9613  12.9613  13.0324  13.0324  13.3574  13.3574  13.6966  13.6966
    15.2810  15.2810  15.9546  15.9546  16.2804  16.2804  16.3963  16.3963
    17.0161  17.0161  17.2342  17.2342  17.8671

          k = 0.1667-0.4725 0.1667 ( 62220 PWs)   bands (ev):

   -66.1375 -66.1374 -66.1367 -66.1367 -66.1367 -66.1366 -66.1359 -66.1359
   -30.5411 -30.5411 -30.5339 -30.5339 -30.5325 -30.5325 -30.5312 -30.5311
   -30.4548 -30.4544 -30.4534 -30.4529 -30.4508 -30.4507 -30.4490 -30.4489
   -30.4244 -30.4243 -30.4185 -30.4184 -30.4180 -30.4180 -30.4126 -30.4126
   -20.2914 -20.2914 -20.2911 -20.2911 -20.2908 -20.2908 -20.2906 -20.2906
   -20.2741 -20.2741 -20.2731 -20.2731 -20.2728 -20.2728 -20.2719 -20.2719
   -20.2699 -20.2699 -20.2685 -20.2684 -20.2683 -20.2683 -20.2670 -20.2670
   -20.2618 -20.2618 -20.2614 -20.2614 -20.2600 -20.2600 -20.2598 -20.2598
   -20.2595 -20.2594 -20.2586 -20.2586 -20.2585 -20.2585 -20.2574 -20.2573
   -20.2550 -20.2550 -20.2543 -20.2543 -20.2541 -20.2541 -20.2533 -20.2533
   -20.2475 -20.2475 -20.2473 -20.2473 -20.2460 -20.2460 -20.2459 -20.2459
    -9.7857  -9.7857  -9.4138  -9.4137  -9.3857  -9.3857  -9.0725  -9.0725
    -8.3437  -8.3431  -8.2778  -8.2756  -8.2733  -8.2720  -8.2529  -8.2521
    -7.9526  -7.9507  -7.9316  -7.9311  -7.8814  -7.8812  -7.8556  -7.8552
     1.2263   1.2273   1.3654   1.3665   1.4162   1.4166   1.6753   1.6762
     2.4660   2.4673   3.0896   3.0917   3.1323   3.1469   3.1781   3.1854
     3.2852   3.2879   3.3716   3.3750   3.6324   3.6348   3.6455   3.6492
     3.8315   3.8330   4.2689   4.2939   4.2989   4.3114   5.0583   5.0801
     5.1500   5.1579   5.2612   5.2953   5.3004   5.3178   5.4612   5.4748
     5.5162   5.5240   5.6720   5.6964   5.7221   5.7323   6.1991   6.2002
     6.4420   6.4529   6.5630   6.5754   6.6513   6.6533   6.8545   6.8584
     6.8783   6.8923   7.0311   7.0322   7.0857   7.0961   7.5117   7.5154
     7.5315   7.5395   7.5475   7.5639   7.5706   7.5767   8.0128   8.0129
     9.8962   9.8979  11.3064  11.3321  11.3502  11.3788  11.4258  11.4311
    11.4932  11.4944  12.5001  12.5237  12.5276  12.5412  13.2140  13.2141
    13.4463  13.4573  13.4841  13.4842  13.5180  13.5336  13.7820  13.7865
    15.4016  15.4073  15.6234  15.6318  15.8487  15.8646  15.8660  15.8747
    16.4705  16.4722  17.7918  17.7988  17.8491

          k = 0.1667-0.4725 0.3333 ( 62252 PWs)   bands (ev):

   -66.1373 -66.1373 -66.1368 -66.1368 -66.1365 -66.1365 -66.1360 -66.1360
   -30.5360 -30.5360 -30.5325 -30.5324 -30.5194 -30.5194 -30.5159 -30.5159
   -30.4718 -30.4718 -30.4681 -30.4681 -30.4524 -30.4523 -30.4500 -30.4500
   -30.4232 -30.4232 -30.4199 -30.4199 -30.4171 -30.4171 -30.4140 -30.4140
   -20.2912 -20.2912 -20.2910 -20.2910 -20.2909 -20.2909 -20.2907 -20.2907
   -20.2739 -20.2739 -20.2733 -20.2733 -20.2727 -20.2727 -20.2721 -20.2721
   -20.2695 -20.2695 -20.2686 -20.2686 -20.2681 -20.2680 -20.2672 -20.2672
   -20.2617 -20.2617 -20.2615 -20.2615 -20.2601 -20.2601 -20.2599 -20.2599
   -20.2593 -20.2593 -20.2589 -20.2588 -20.2576 -20.2576 -20.2567 -20.2567
   -20.2556 -20.2555 -20.2548 -20.2548 -20.2542 -20.2542 -20.2537 -20.2537
   -20.2472 -20.2472 -20.2470 -20.2470 -20.2464 -20.2464 -20.2462 -20.2462
    -9.6435  -9.6435  -9.4266  -9.4265  -9.1580  -9.1577  -8.9460  -8.9458
    -8.4515  -8.4503  -8.3773  -8.3740  -8.2646  -8.2610  -8.2522  -8.2492
    -8.1760  -8.1734  -8.1265  -8.1245  -7.9219  -7.9210  -7.8803  -7.8803
     1.3991   1.3993   1.4198   1.4210   2.0792   2.0811   2.2160   2.2160
     2.7248   2.7320   3.0889   3.1177   3.1502   3.1603   3.1974   3.2205
     3.3293   3.3388   3.3958   3.3982   3.6063   3.6134   3.6599   3.7013
     3.7560   3.7665   3.8611   3.8628   4.4450   4.4539   4.5919   4.6262
     4.6934   4.7636   4.8601   4.8744   4.9784   4.9874   5.0515   5.1482
     5.2864   5.3368   5.3519   5.4596   5.7098   5.7250   5.9590   5.9687
     6.5349   6.5404   6.7132   6.7403   6.8351   6.8403   6.8885   6.9042
     7.0053   7.0583   7.2114   7.2180   7.2522   7.2645   7.4957   7.4999
     7.5069   7.5209   7.5447   7.5454   7.5630   7.5817   7.8770   7.8798
    10.5307  10.5325  11.3969  11.4007  11.4508  11.4524  11.7288  11.7374
    11.7827  11.8038  12.0427  12.0761  12.6581  12.7094  12.9202  12.9520
    12.9856  13.0182  13.2044  13.2876  13.4568  13.4739  13.5878  13.6398
    15.5965  15.6075  15.7970  15.8040  16.2456  16.2705  16.6299  16.6619
    16.7391  16.7419  17.3110  17.3319  17.7579

          k = 0.1667-0.4725-0.5000 ( 62232 PWs)   bands (ev):

   -66.1371 -66.1371 -66.1371 -66.1371 -66.1363 -66.1363 -66.1363 -66.1363
   -30.5340 -30.5340 -30.5340 -30.5340 -30.4958 -30.4958 -30.4958 -30.4958
   -30.4921 -30.4921 -30.4920 -30.4920 -30.4512 -30.4512 -30.4512 -30.4512
   -30.4217 -30.4216 -30.4216 -30.4216 -30.4156 -30.4156 -30.4156 -30.4156
   -20.2911 -20.2911 -20.2911 -20.2911 -20.2909 -20.2909 -20.2909 -20.2909
   -20.2736 -20.2736 -20.2736 -20.2736 -20.2724 -20.2724 -20.2724 -20.2724
   -20.2690 -20.2690 -20.2690 -20.2690 -20.2676 -20.2676 -20.2676 -20.2676
   -20.2616 -20.2616 -20.2616 -20.2616 -20.2601 -20.2601 -20.2601 -20.2601
   -20.2591 -20.2591 -20.2591 -20.2591 -20.2565 -20.2565 -20.2565 -20.2565
   -20.2558 -20.2558 -20.2558 -20.2557 -20.2540 -20.2540 -20.2540 -20.2540
   -20.2468 -20.2468 -20.2468 -20.2468 -20.2466 -20.2466 -20.2466 -20.2466
    -9.5084  -9.5084  -9.5084  -9.5084  -8.7915  -8.7915  -8.7902  -8.7902
    -8.6867  -8.6867  -8.6849  -8.6849  -8.2486  -8.2486  -8.2457  -8.2457
    -8.2226  -8.2225  -8.2196  -8.2196  -7.9013  -7.9013  -7.9009  -7.9009
     1.4213   1.4213   1.4221   1.4221   2.8816   2.8816   2.8858   2.8858
     2.9755   2.9755   3.0003   3.0003   3.1635   3.1635   3.1898   3.1898
     3.2742   3.2742   3.2924   3.2924   3.4448   3.4448   3.4650   3.4650
     3.6578   3.6578   3.6779   3.6779   4.4074   4.4074   4.4120   4.4120
     4.4947   4.4947   4.5073   4.5073   4.8231   4.8231   4.9124   4.9124
     5.2848   5.2848   5.3833   5.3833   5.7670   5.7670   5.7838   5.7838
     6.6718   6.6718   6.6833   6.6833   6.8251   6.8251   6.8346   6.8346
     7.3407   7.3407   7.3912   7.3912   7.4182   7.4182   7.4359   7.4359
     7.4635   7.4635   7.4967   7.4967   7.6460   7.6460   7.6694   7.6694
    11.2369  11.2369  11.2769  11.2769  11.4633  11.4633  11.5247  11.5247
    12.3080  12.3080  12.3254  12.3254  12.3568  12.3568  12.3722  12.3722
    12.9472  12.9472  13.0188  13.0188  13.4696  13.4696  13.5193  13.5193
    15.7217  15.7217  15.7348  15.7348  16.8168  16.8168  16.8268  16.8268
    17.3993  17.3994  17.4161  17.4161  17.4459

          k = 0.3333 0.0000 0.3333 ( 62316 PWs)   bands (ev):

   -66.1373 -66.1369 -66.1369 -66.1369 -66.1365 -66.1365 -66.1364 -66.1360
   -30.5232 -30.5223 -30.5188 -30.5169 -30.5165 -30.5157 -30.5133 -30.5129
   -30.4756 -30.4746 -30.4725 -30.4710 -30.4703 -30.4700 -30.4661 -30.4632
   -30.4493 -30.4422 -30.4421 -30.4366 -30.3940 -30.3919 -30.3919 -30.3898
   -20.2912 -20.2912 -20.2911 -20.2911 -20.2909 -20.2909 -20.2908 -20.2908
   -20.2737 -20.2736 -20.2732 -20.2730 -20.2730 -20.2728 -20.2725 -20.2723
   -20.2693 -20.2691 -20.2685 -20.2685 -20.2682 -20.2681 -20.2676 -20.2674
   -20.2630 -20.2629 -20.2626 -20.2625 -20.2605 -20.2603 -20.2594 -20.2592
   -20.2588 -20.2583 -20.2581 -20.2578 -20.2574 -20.2568 -20.2566 -20.2564
   -20.2561 -20.2553 -20.2552 -20.2547 -20.2544 -20.2543 -20.2541 -20.2536
   -20.2472 -20.2471 -20.2470 -20.2469 -20.2464 -20.2464 -20.2461 -20.2461
    -9.6481  -9.3823  -9.3745  -9.3650  -9.1213  -9.0937  -9.0062  -8.8630
    -8.8420  -8.6861  -8.6769  -8.6554  -8.3636  -8.2691  -8.2633  -8.2472
    -8.2389  -8.2365  -8.1682  -8.1458  -7.6472  -7.6199  -7.6168  -7.5904
     1.6313   1.6731   1.6749   1.7257   1.9513   1.9623   2.0876   2.1192
     2.1459   2.1676   2.3605   2.4355   2.8808   2.8813   2.9099   2.9257
     3.0600   3.0847   3.6482   3.7422   3.7429   3.9032   3.9664   3.9726
     4.1623   4.1692   4.1943   4.2497   4.2756   4.3385   4.4993   4.5334
     4.7185   4.7640   4.9189   4.9417   5.0119   5.0400   5.2145   5.3276
     5.3331   5.4548   5.5038   5.7850   6.0428   6.0489   6.0846   6.1811
     6.4510   6.5087   6.5278   6.5509   6.5838   6.6108   6.6116   6.6791
     7.0468   7.1013   7.1086   7.1171   7.1664   7.1903   7.2818   7.3298
     7.3507   7.4981   7.7639   7.7646   7.9850   8.0198   8.0665   8.0896
    10.7885  10.8666  10.8995  10.9539  11.0095  11.1848  12.1594  12.2103
    12.2272  12.2626  12.3503  12.4811  12.5860  12.6524  12.7647  12.8179
    12.8371  12.9163  13.0030  13.1479  13.5668  13.6195  13.6561  13.7295
    14.4438  14.6893  14.7051  15.1552  15.7519  16.4442  16.4552  16.7900
    16.7941  17.2012  17.2209  17.6877  17.7325

          k = 0.3333 0.0000-0.5000 ( 62288 PWs)   bands (ev):

   -66.1371 -66.1371 -66.1367 -66.1367 -66.1366 -66.1366 -66.1362 -66.1362
   -30.5184 -30.5184 -30.5156 -30.5156 -30.4955 -30.4955 -30.4952 -30.4952
   -30.4937 -30.4937 -30.4932 -30.4932 -30.4730 -30.4730 -30.4656 -30.4656
   -30.4466 -30.4466 -30.4400 -30.4400 -30.3929 -30.3929 -30.3908 -30.3908
   -20.2910 -20.2910 -20.2910 -20.2910 -20.2909 -20.2909 -20.2909 -20.2909
   -20.2735 -20.2735 -20.2733 -20.2733 -20.2728 -20.2728 -20.2726 -20.2726
   -20.2688 -20.2688 -20.2686 -20.2686 -20.2680 -20.2680 -20.2678 -20.2678
   -20.2629 -20.2629 -20.2626 -20.2626 -20.2604 -20.2604 -20.2592 -20.2592
   -20.2585 -20.2585 -20.2575 -20.2575 -20.2570 -20.2570 -20.2568 -20.2568
   -20.2557 -20.2557 -20.2549 -20.2549 -20.2548 -20.2548 -20.2540 -20.2540
   -20.2468 -20.2468 -20.2467 -20.2467 -20.2466 -20.2466 -20.2465 -20.2465
    -9.4802  -9.4802  -9.1843  -9.1843  -9.1457  -9.1456  -8.7493  -8.7493
    -8.7127  -8.7127  -8.6246  -8.6245  -8.5541  -8.5541  -8.5243  -8.5243
    -8.2222  -8.2222  -8.2189  -8.2189  -7.6337  -7.6337  -7.6038  -7.6038
     1.6530   1.6530   1.7032   1.7032   2.1322   2.1322   2.1470   2.1470
     2.8295   2.8296   2.9016   2.9016   2.9410   2.9410   3.0521   3.0521
     3.1268   3.1268   3.4622   3.4622   3.5991   3.5991   3.7884   3.7884
     3.9075   3.9075   4.0217   4.0217   4.1773   4.1773   4.3050   4.3050
     4.5681   4.5681   4.8811   4.8811   4.8825   4.8825   5.0617   5.0617
     5.2885   5.2885   5.6178   5.6178   6.0849   6.0849   6.1615   6.1615
     6.4462   6.4462   6.4615   6.4615   6.5888   6.5888   6.6104   6.6104
     7.1425   7.1425   7.1925   7.1925   7.3044   7.3044   7.5399   7.5399
     7.5579   7.5580   7.7541   7.7542   7.8031   7.8031   8.0305   8.0305
    10.8949  10.8949  11.5523  11.5523  11.6095  11.6095  11.7725  11.7725
[...]
   -20.4498 -20.4498 -20.4497 -20.4497 -20.4473 -20.4473 -20.4471 -20.4471
   -20.4461 -20.4461 -20.4459 -20.4459 -20.4446 -20.4446 -20.4441 -20.4441
   -20.4424 -20.4424 -20.4422 -20.4421 -20.4404 -20.4404 -20.4402 -20.4402
   -20.4341 -20.4341 -20.4340 -20.4340 -20.4328 -20.4328 -20.4326 -20.4326
    -9.6319  -9.6319  -9.4584  -9.4584  -9.1188  -9.1188  -8.8458  -8.8458
    -8.7498  -8.7497  -8.6727  -8.6727  -8.6047  -8.6047  -8.5625  -8.5624
    -8.2471  -8.2471  -8.2173  -8.2173  -7.9865  -7.9865  -7.9697  -7.9697
     1.4080   1.4080   1.4171   1.4171   2.1718   2.1718   2.2835   2.2835
     2.8130   2.8130   2.8787   2.8787   2.9306   2.9306   3.0208   3.0208
     3.0758   3.0758   3.3196   3.3196   3.3437   3.3437   3.5276   3.5276
     3.8981   3.8981   3.9438   3.9438   4.0769   4.0769   4.2680   4.2680
     4.6162   4.6162   4.7053   4.7053   4.8644   4.8644   4.9024   4.9024
     4.9687   4.9687   5.4122   5.4122   5.6556   5.6556   5.7114   5.7114
     6.5272   6.5272   6.6579   6.6579   6.6912   6.6912   6.7262   6.7263
     6.8589   6.8589   6.9346   6.9346   7.0460   7.0460   7.4164   7.4164
     7.4413   7.4413   7.5150   7.5150   7.5380   7.5380   7.7644   7.7644
    10.6436  10.6436  11.0742  11.0742  11.1140  11.1140  11.6436  11.6436
    11.8438  11.8438  12.0158  12.0159  12.5039  12.5039  12.5701  12.5701
    12.7285  12.7285  12.8308  12.8308  13.1021  13.1021  13.5386  13.5386
    15.0485  15.0486  15.5456  15.5456  16.2201  16.2201  16.3595  16.3595
    16.6129  16.6129  17.0414  17.0414  17.6522

          k = 0.3300 0.4780 0.1649 ( 62864 PWs)   bands (ev):

   -66.3158 -66.3158 -66.3155 -66.3154 -66.3152 -66.3152 -66.3148 -66.3148
   -30.6670 -30.6669 -30.6643 -30.6641 -30.6600 -30.6598 -30.6577 -30.6577
   -30.6490 -30.6489 -30.6446 -30.6446 -30.6314 -30.6313 -30.6269 -30.6268
   -30.5987 -30.5986 -30.5959 -30.5959 -30.5809 -30.5808 -30.5774 -30.5774
   -20.4805 -20.4805 -20.4804 -20.4804 -20.4799 -20.4799 -20.4798 -20.4798
   -20.4641 -20.4640 -20.4633 -20.4633 -20.4632 -20.4631 -20.4625 -20.4624
   -20.4582 -20.4582 -20.4575 -20.4575 -20.4568 -20.4568 -20.4561 -20.4561
   -20.4488 -20.4487 -20.4486 -20.4486 -20.4482 -20.4482 -20.4481 -20.4481
   -20.4466 -20.4466 -20.4457 -20.4456 -20.4454 -20.4454 -20.4434 -20.4434
   -20.4430 -20.4430 -20.4415 -20.4415 -20.4406 -20.4406 -20.4400 -20.4400
   -20.4341 -20.4341 -20.4340 -20.4340 -20.4327 -20.4327 -20.4327 -20.4327
    -9.6529  -9.6529  -9.4476  -9.4474  -9.1751  -9.1750  -8.9271  -8.9270
    -8.7059  -8.7049  -8.5911  -8.5901  -8.5419  -8.5400  -8.5367  -8.5359
    -8.2858  -8.2857  -8.2360  -8.2345  -7.9987  -7.9983  -7.9593  -7.9591
     1.4017   1.4054   1.4096   1.4129   2.0906   2.0917   2.2166   2.2198
     2.7969   2.8055   2.9258   2.9262   2.9871   2.9910   3.0579   3.0601
     3.1614   3.1645   3.2433   3.2724   3.3931   3.3991   3.5300   3.5345
     3.6043   3.6237   3.7780   3.8134   4.2997   4.3158   4.4760   4.4921
     4.5575   4.5814   4.7186   4.7456   4.8034   4.8312   4.8676   4.9373
     5.0145   5.0675   5.2261   5.2890   5.5879   5.6006   5.8945   5.8964
     6.5117   6.5238   6.5916   6.6036   6.7371   6.7421   6.8144   6.8271
     6.9410   6.9752   7.0111   7.0526   7.1044   7.1155   7.3280   7.3321
     7.3736   7.3888   7.3982   7.4227   7.4330   7.4337   7.7895   7.7937
    10.3410  10.3454  11.2139  11.2312  11.2496  11.2548  11.6470  11.6593
    11.6640  11.6869  11.7764  11.8263  12.4110  12.4537  12.6530  12.6753
    12.7748  12.7885  13.0335  13.1350  13.2484  13.2828  13.2872  13.3674
    15.2268  15.2455  15.4795  15.4961  15.9251  15.9403  16.3545  16.3802
    16.7144  16.7175  17.1939  17.2410  17.6764

          k =-0.4951 0.4780 0.1649 ( 62864 PWs)   bands (ev):

   -66.3157 -66.3157 -66.3156 -66.3156 -66.3150 -66.3150 -66.3150 -66.3150
   -30.6654 -30.6654 -30.6651 -30.6651 -30.6533 -30.6533 -30.6519 -30.6519
   -30.6499 -30.6499 -30.6488 -30.6487 -30.6173 -30.6173 -30.6159 -30.6159
   -30.6143 -30.6143 -30.6126 -30.6126 -30.5796 -30.5796 -30.5794 -30.5794
   -20.4804 -20.4804 -20.4804 -20.4804 -20.4798 -20.4798 -20.4798 -20.4798
   -20.4637 -20.4637 -20.4637 -20.4637 -20.4628 -20.4628 -20.4628 -20.4628
   -20.4579 -20.4578 -20.4578 -20.4578 -20.4564 -20.4564 -20.4564 -20.4564
   -20.4486 -20.4486 -20.4485 -20.4485 -20.4483 -20.4483 -20.4482 -20.4482
   -20.4461 -20.4461 -20.4461 -20.4461 -20.4445 -20.4445 -20.4443 -20.4443
   -20.4424 -20.4424 -20.4422 -20.4422 -20.4403 -20.4403 -20.4403 -20.4403
   -20.4340 -20.4340 -20.4340 -20.4340 -20.4327 -20.4327 -20.4327 -20.4327
    -9.5319  -9.5319  -9.5246  -9.5246  -8.9014  -8.9014  -8.8705  -8.8705
    -8.7308  -8.7308  -8.7057  -8.7056  -8.5170  -8.5170  -8.4839  -8.4838
    -8.4701  -8.4701  -8.4394  -8.4394  -7.9793  -7.9793  -7.9792  -7.9792
     1.4119   1.4119   1.4178   1.4178   2.7772   2.7772   2.8620   2.8620
     2.8983   2.8983   2.9110   2.9110   3.0374   3.0374   3.0736   3.0736
     3.2181   3.2181   3.2284   3.2284   3.3244   3.3244   3.3676   3.3676
     3.3942   3.3942   3.6322   3.6322   4.1810   4.1810   4.2346   4.2346
     4.2547   4.2547   4.3338   4.3338   4.7476   4.7476   4.8744   4.8744
     5.0403   5.0403   5.1599   5.1599   5.6603   5.6603   5.6746   5.6746
     6.6081   6.6081   6.6660   6.6660   6.7069   6.7069   6.7471   6.7471
     7.1267   7.1267   7.1679   7.1679   7.2598   7.2598   7.2970   7.2971
     7.3654   7.3654   7.4337   7.4337   7.5285   7.5285   7.5647   7.5647
    11.0405  11.0405  11.0881  11.0881  11.2323  11.2323  11.3030  11.3030
    12.0676  12.0676  12.1388  12.1388  12.2436  12.2436  12.2693  12.2693
    12.7103  12.7103  12.7806  12.7806  13.2558  13.2558  13.3083  13.3083
    15.3784  15.3784  15.4001  15.4001  16.5822  16.5822  16.7113  16.7113
    17.1839  17.1840  17.2715  17.2738  17.2985

          k =-0.4951 0.0000 0.3297 ( 62876 PWs)   bands (ev):

   -66.3158 -66.3158 -66.3154 -66.3154 -66.3153 -66.3153 -66.3149 -66.3149
   -30.6852 -30.6852 -30.6826 -30.6826 -30.6485 -30.6485 -30.6413 -30.6413
   -30.6335 -30.6335 -30.6330 -30.6330 -30.6215 -30.6215 -30.6177 -30.6177
   -30.6123 -30.6122 -30.5970 -30.5970 -30.5937 -30.5937 -30.5872 -30.5872
   -20.4803 -20.4803 -20.4803 -20.4803 -20.4800 -20.4800 -20.4800 -20.4800
   -20.4636 -20.4636 -20.4634 -20.4634 -20.4631 -20.4631 -20.4629 -20.4629
   -20.4576 -20.4576 -20.4574 -20.4574 -20.4568 -20.4568 -20.4566 -20.4566
   -20.4512 -20.4512 -20.4511 -20.4511 -20.4466 -20.4466 -20.4464 -20.4464
   -20.4455 -20.4455 -20.4452 -20.4452 -20.4446 -20.4446 -20.4440 -20.4440
   -20.4421 -20.4421 -20.4416 -20.4416 -20.4409 -20.4409 -20.4406 -20.4406
   -20.4339 -20.4339 -20.4336 -20.4336 -20.4332 -20.4332 -20.4328 -20.4328
    -9.6437  -9.6437  -9.4256  -9.4256  -9.1867  -9.1867  -8.8716  -8.8716
    -8.7456  -8.7455  -8.6443  -8.6443  -8.6159  -8.6159  -8.5996  -8.5995
    -8.2772  -8.2772  -8.2698  -8.2698  -7.8810  -7.8810  -7.8584  -7.8584
     1.2975   1.2975   1.3359   1.3359   2.0985   2.0985   2.1195   2.1195
     2.7260   2.7261   2.8194   2.8194   2.8405   2.8405   3.0211   3.0212
     3.0938   3.0938   3.5068   3.5068   3.5815   3.5815   3.6912   3.6912
     3.7298   3.7299   3.9057   3.9057   4.0023   4.0023   4.2952   4.2952
     4.5546   4.5546   4.7784   4.7784   4.9315   4.9315   5.0059   5.0059
     5.2634   5.2635   5.5083   5.5083   5.8367   5.8367   5.9330   5.9330
     6.2154   6.2154   6.2158   6.2158   6.3176   6.3176   6.4593   6.4593
     7.0389   7.0389   7.1107   7.1107   7.1984   7.1984   7.4328   7.4328
     7.4611   7.4612   7.5784   7.5784   7.6058   7.6058   7.9082   7.9082
    10.7163  10.7163  11.2781  11.2781  11.3593  11.3593  11.4893  11.4893
    11.6440  11.6440  12.2077  12.2077  12.3312  12.3312  12.4891  12.4891
    12.7108  12.7108  13.0929  13.0929  13.1162  13.1162  13.5161  13.5161
    14.5938  14.5938  15.0055  15.0055  16.0270  16.0270  16.4820  16.4820
    16.7920  16.7920  17.1418  17.1418  17.6740

          k =-0.4951-0.1593 0.3297 ( 62868 PWs)   bands (ev):

   -66.3157 -66.3157 -66.3153 -66.3153 -66.3153 -66.3153 -66.3149 -66.3149
   -30.6813 -30.6813 -30.6785 -30.6785 -30.6488 -30.6488 -30.6415 -30.6415
   -30.6348 -30.6348 -30.6347 -30.6347 -30.6213 -30.6212 -30.6173 -30.6173
   -30.6133 -30.6133 -30.5997 -30.5997 -30.5938 -30.5938 -30.5886 -30.5886
   -20.4803 -20.4803 -20.4803 -20.4803 -20.4800 -20.4800 -20.4800 -20.4800
   -20.4636 -20.4636 -20.4634 -20.4634 -20.4631 -20.4631 -20.4629 -20.4629
   -20.4576 -20.4576 -20.4574 -20.4574 -20.4568 -20.4568 -20.4566 -20.4566
   -20.4508 -20.4508 -20.4508 -20.4508 -20.4468 -20.4468 -20.4465 -20.4465
   -20.4456 -20.4456 -20.4452 -20.4452 -20.4447 -20.4447 -20.4441 -20.4441
   -20.4421 -20.4421 -20.4417 -20.4417 -20.4409 -20.4409 -20.4406 -20.4406
   -20.4339 -20.4338 -20.4337 -20.4337 -20.4331 -20.4331 -20.4328 -20.4328
    -9.5913  -9.5913  -9.3561  -9.3561  -9.1991  -9.1990  -8.8479  -8.8479
    -8.7572  -8.7572  -8.6412  -8.6412  -8.6116  -8.6116  -8.5960  -8.5960
    -8.2752  -8.2751  -8.2748  -8.2748  -7.9817  -7.9817  -7.9601  -7.9601
     1.5319   1.5319   1.5728   1.5728   2.0976   2.0976   2.1285   2.1285
     2.7772   2.7772   2.8518   2.8518   2.8722   2.8722   3.0194   3.0194
     3.0923   3.0923   3.5207   3.5207   3.5809   3.5809   3.6781   3.6781
     3.7723   3.7723   3.9211   3.9211   4.0282   4.0282   4.3012   4.3012
     4.4589   4.4589   4.6127   4.6127   4.8411   4.8411   4.8730   4.8731
     5.0063   5.0063   5.2380   5.2380   5.6184   5.6184   5.7386   5.7386
     6.3870   6.3870   6.4173   6.4173   6.4788   6.4788   6.6217   6.6217
     7.0458   7.0458   7.1065   7.1065   7.2011   7.2011   7.4309   7.4309
     7.4553   7.4553   7.5634   7.5634   7.5905   7.5905   7.8521   7.8521
    10.8148  10.8148  11.2958  11.2958  11.3735  11.3735  11.5471  11.5471
    11.6983  11.6983  12.2228  12.2228  12.3290  12.3291  12.5125  12.5125
    12.5686  12.5686  12.9685  12.9685  12.9907  12.9907  13.4054  13.4054
    14.9470  14.9470  15.3818  15.3818  16.1204  16.1205  16.4776  16.4776
    16.8006  16.8006  17.1752  17.1752  17.5137

          k =-0.4951-0.3186 0.3297 ( 62826 PWs)   bands (ev):

   -66.3156 -66.3156 -66.3154 -66.3154 -66.3153 -66.3153 -66.3150 -66.3150
   -30.6710 -30.6710 -30.6676 -30.6676 -30.6509 -30.6509 -30.6422 -30.6422
   -30.6408 -30.6407 -30.6382 -30.6382 -30.6204 -30.6204 -30.6165 -30.6165
   -30.6152 -30.6151 -30.6061 -30.6061 -30.5937 -30.5937 -30.5914 -30.5914
   -20.4803 -20.4803 -20.4803 -20.4803 -20.4800 -20.4800 -20.4800 -20.4800
   -20.4636 -20.4635 -20.4635 -20.4634 -20.4630 -20.4630 -20.4629 -20.4629
   -20.4576 -20.4576 -20.4575 -20.4575 -20.4568 -20.4568 -20.4566 -20.4566
   -20.4498 -20.4498 -20.4498 -20.4498 -20.4473 -20.4473 -20.4472 -20.4472
   -20.4457 -20.4457 -20.4455 -20.4454 -20.4448 -20.4448 -20.4444 -20.4444
   -20.4421 -20.4421 -20.4418 -20.4418 -20.4409 -20.4409 -20.4407 -20.4407
   -20.4338 -20.4338 -20.4337 -20.4337 -20.4331 -20.4331 -20.4329 -20.4329
    -9.4619  -9.4619  -9.2416  -9.2416  -9.1683  -9.1683  -8.8124  -8.8124
    -8.7618  -8.7618  -8.6404  -8.6404  -8.5922  -8.5922  -8.5702  -8.5702
    -8.3112  -8.3112  -8.2690  -8.2690  -8.2261  -8.2261  -8.1782  -8.1782
     2.0163   2.0163   2.0942   2.0942   2.1876   2.1876   2.3036   2.3037
     2.8530   2.8530   2.9092   2.9092   2.9975   2.9975   3.0415   3.0415
     3.1087   3.1087   3.4698   3.4698   3.5677   3.5677   3.6293   3.6293
     3.8687   3.8687   3.9681   3.9681   4.0571   4.0571   4.1408   4.1408
     4.2155   4.2155   4.3789   4.3789   4.5099   4.5099   4.7410   4.7410
     4.7839   4.7839   4.8555   4.8555   4.9290   4.9290   5.2050   5.2050
     6.7407   6.7407   6.7932   6.7932   6.8449   6.8449   6.8969   6.8969
     7.0553   7.0553   7.1021   7.1021   7.2207   7.2207   7.4011   7.4011
     7.4305   7.4305   7.5183   7.5183   7.5298   7.5299   7.6897   7.6897
    11.0996  11.0996  11.3251  11.3251  11.3999  11.3999  11.7203  11.7203
    11.8821  11.8821  12.1836  12.1836  12.2668  12.2668  12.3155  12.3155
    12.5940  12.5940  12.6730  12.6730  12.6868  12.6868  13.1359  13.1359
    15.7140  15.7140  16.2597  16.2597  16.4211  16.4211  16.4799  16.4799
    16.8521  16.8521  17.1397  17.1397  17.3329

          k =-0.4951 0.4780 0.3297 ( 62816 PWs)   bands (ev):

   -66.3155 -66.3155 -66.3155 -66.3155 -66.3151 -66.3151 -66.3151 -66.3151
   -30.6591 -30.6591 -30.6583 -30.6583 -30.6543 -30.6543 -30.6528 -30.6528
   -30.6412 -30.6412 -30.6407 -30.6407 -30.6192 -30.6192 -30.6181 -30.6181
   -30.6129 -30.6129 -30.6112 -30.6112 -30.5933 -30.5933 -30.5929 -30.5929
   -20.4803 -20.4803 -20.4803 -20.4803 -20.4800 -20.4800 -20.4800 -20.4800
   -20.4635 -20.4635 -20.4635 -20.4635 -20.4630 -20.4630 -20.4630 -20.4630
   -20.4575 -20.4575 -20.4575 -20.4575 -20.4567 -20.4567 -20.4567 -20.4567
   -20.4486 -20.4486 -20.4486 -20.4486 -20.4483 -20.4483 -20.4483 -20.4483
   -20.4457 -20.4457 -20.4456 -20.4456 -20.4448 -20.4448 -20.4446 -20.4446
   -20.4420 -20.4420 -20.4419 -20.4419 -20.4409 -20.4409 -20.4408 -20.4408
   -20.4338 -20.4338 -20.4338 -20.4338 -20.4330 -20.4330 -20.4330 -20.4330
    -9.3332  -9.3332  -9.3223  -9.3223  -8.9592  -8.9592  -8.9308  -8.9308
    -8.6788  -8.6788  -8.6552  -8.6552  -8.5108  -8.5108  -8.4928  -8.4928
    -8.4613  -8.4613  -8.4487  -8.4487  -8.2549  -8.2549  -8.2540  -8.2540
     2.0781   2.0781   2.0899   2.0899   2.7976   2.7976   2.8451   2.8451
     2.8944   2.8944   2.9122   2.9122   3.0613   3.0613   3.0770   3.0770
     3.2508   3.2508   3.2957   3.2957   3.4339   3.4339   3.4609   3.4609
     3.6340   3.6340   3.7500   3.7500   4.1661   4.1661   4.1804   4.1804
     4.2239   4.2239   4.2718   4.2718   4.3694   4.3694   4.4561   4.4561
     4.5708   4.5708   4.6916   4.6916   4.8815   4.8815   4.8980   4.8980
     6.8799   6.8799   6.9717   6.9717   7.0252   7.0252   7.0316   7.0316
     7.1276   7.1276   7.1906   7.1906   7.2592   7.2592   7.3095   7.3096
     7.3647   7.3647   7.4495   7.4495   7.5042   7.5042   7.5548   7.5549
    11.3078  11.3078  11.3392  11.3392  11.5718  11.5718  11.6553  11.6553
    12.0591  12.0591  12.1415  12.1415  12.1823  12.1823  12.2633  12.2633
    12.3650  12.3650  12.5040  12.5040  12.8005  12.8005  12.8737  12.8737
    16.2061  16.2061  16.2621  16.2621  16.7931  16.7931  16.8900  16.8900
    17.1587  17.1587  17.2894  17.2896  17.3019

     the Fermi energy is     8.7771 ev

!    total energy              =   -6261.09682537 Ry
     Harris-Foulkes estimate   =   -6261.09682537 Ry
     estimated scf accuracy    <          2.2E-11 Ry

     The total energy is the sum of the following terms:

     one-electron contribution =   -4756.82367135 Ry
     hartree contribution      =    2613.23477221 Ry
     xc contribution           =    -965.68929335 Ry
     ewald contribution        =   -3151.81863288 Ry
     smearing contrib. (-TS)   =      -0.00000000 Ry

     convergence has been achieved in  15 iterations

     Forces acting on atoms (cartesian axes, Ry/au):

     atom    1 type  1   force =    -0.00169172    0.00293029    0.00301952
     atom    2 type  1   force =     0.00169172   -0.00293029   -0.00301952
     atom    3 type  1   force =     0.00169172   -0.00293029    0.00301952
     atom    4 type  1   force =    -0.00169172    0.00293029   -0.00301952
     atom    5 type  1   force =     0.00169172    0.00293029   -0.00301952
     atom    6 type  1   force =    -0.00169172   -0.00293029    0.00301952
     atom    7 type  1   force =    -0.00169172   -0.00293029   -0.00301952
     atom    8 type  1   force =     0.00169172    0.00293029    0.00301952
     atom    9 type  2   force =     0.00130812   -0.03046777    0.00071897
     atom   10 type  2   force =    -0.00130812    0.03046777   -0.00071897
     atom   11 type  2   force =    -0.00130812    0.03046777    0.00071897
     atom   12 type  2   force =     0.00130812   -0.03046777   -0.00071897
     atom   13 type  2   force =    -0.00130812   -0.03046777   -0.00071897
     atom   14 type  2   force =     0.00130812    0.03046777    0.00071897
     atom   15 type  2   force =     0.00130812    0.03046777   -0.00071897
     atom   16 type  2   force =    -0.00130812   -0.03046777    0.00071897
     atom   17 type  2   force =     0.00011061   -0.00225943   -0.00124330
     atom   18 type  2   force =    -0.00011061    0.00225943    0.00124330
     atom   19 type  2   force =    -0.00011061    0.00225943   -0.00124330
     atom   20 type  2   force =     0.00011061   -0.00225943    0.00124330
     atom   21 type  2   force =    -0.00011061   -0.00225943    0.00124330
     atom   22 type  2   force =     0.00011061    0.00225943   -0.00124330
     atom   23 type  2   force =     0.00011061    0.00225943    0.00124330
     atom   24 type  2   force =    -0.00011061   -0.00225943   -0.00124330
     atom   25 type  2   force =    -0.00221904   -0.00051153    0.00257757
     atom   26 type  2   force =     0.00221904    0.00051153   -0.00257757
     atom   27 type  2   force =     0.00221904    0.00051153    0.00257757
     atom   28 type  2   force =    -0.00221904   -0.00051153   -0.00257757
     atom   29 type  2   force =     0.00221904   -0.00051153   -0.00257757
     atom   30 type  2   force =    -0.00221904    0.00051153    0.00257757
     atom   31 type  2   force =    -0.00221904    0.00051153   -0.00257757
     atom   32 type  2   force =     0.00221904   -0.00051153    0.00257757

     Total force =     0.000000     Total SCF correction =     0.000000


     Computing stress (Cartesian axis) and pressure

          total   stress  (Ry/bohr**3)                   (kbar)     P=    0.38
   0.00000395   0.00000000   0.00000000          0.58      0.00      0.00
   0.00000000  -0.00000053   0.00000000          0.00     -0.08      0.00
   0.00000000   0.00000000   0.00000429          0.00      0.00      0.63


     Writing output data file Landau_21.save
 
     init_run     :     63.25s CPU     65.27s WALL (       2 calls)
     electrons    :   6594.97s CPU   6729.77s WALL (       6 calls)
     update_pot   :     92.90s CPU     93.12s WALL (       4 calls)
     forces       :    146.09s CPU    148.29s WALL (       6 calls)
     stress       :    947.85s CPU    964.90s WALL (       6 calls)

     Called by init_run:
     wfcinit      :     42.35s CPU     44.08s WALL (       2 calls)
     potinit      :      9.24s CPU      9.31s WALL (       2 calls)

     Called by electrons:
     c_bands      :   5888.39s CPU   6013.96s WALL (      83 calls)
     sum_band     :    644.24s CPU    648.56s WALL (      83 calls)
     v_of_rho     :      9.21s CPU      9.38s WALL (      88 calls)
     mix_rho      :     16.81s CPU     20.52s WALL (      83 calls)

     Called by c_bands:
     init_us_2    :     32.38s CPU     34.82s WALL (     168 calls)
     cegterg      :   4586.45s CPU   4708.34s WALL (      83 calls)

     Called by sum_band:

     Called by *egterg:
     h_psi        :   3263.89s CPU   3289.73s WALL (     339 calls)
     g_psi        :      5.43s CPU      5.45s WALL (     254 calls)
     cdiaghg      :     57.13s CPU     57.28s WALL (     332 calls)

     Called by h_psi:
     h_psi:pot    :   3250.25s CPU   3275.61s WALL (     339 calls)
     h_psi:calbec :    521.98s CPU    534.02s WALL (     339 calls)
     vloc_psi     :   2190.96s CPU   2201.78s WALL (     339 calls)
     add_vuspsi   :    537.31s CPU    539.79s WALL (     339 calls)

     General routines
     calbec       :    597.47s CPU    610.56s WALL (     369 calls)
     fft          :      8.67s CPU      8.68s WALL (     400 calls)
     fftw         :   2333.09s CPU   2343.29s WALL (  108369 calls)
 
     Parallel routines
 
     PWSCF        :     2h10m CPU        2h13m WALL

 
   This run was terminated on:  20: 4:27   5Mar2020            

=------------------------------------------------------------------------------=
   JOB DONE.
=------------------------------------------------------------------------------=
