
     Program PWSCF v.6.2 (svn rev. 14038) starts on 28Aug2019 at 20:54:20 

     This program is part of the open-source Quantum ESPRESSO suite
     for quantum simulation of materials; please cite
         "P. Giannozzi et al., J. Phys.:Condens. Matter 21 395502 (2009);
         "P. Giannozzi et al., J. Phys.:Condens. Matter 29 465901 (2017);
          URL http://www.quantum-espresso.org", 
     in publications or presentations arising from this work. More details at
     http://www.quantum-espresso.org/quote

     Parallel version (MPI), running on    64 processors

     MPI processes distributed on    16 nodes
     K-points division:     npool     =      64
     Reading input from scf.in

     Current dimensions of program PWSCF are:
     Max number of different atomic species (ntypx) = 10
     Max number of k-points (npk) =  40000
     Max angular momentum in pseudopotentials (lmaxx) =  3

     Subspace diagonalization in iterative solution of the eigenvalue problem:
     a serial algorithm will be used

 
     G-vector sticks info
     --------------------
     sticks:   dense  smooth     PW     G-vecs:    dense   smooth      PW
     Sum        7717    7717   2073               496833   496833   68871
 


     bravais-lattice index     =            0
     lattice parameter (alat)  =      13.8354  a.u.
     unit-cell volume          =    2797.5237 (a.u.)^3
     number of atoms/cell      =           32
     number of atomic types    =            2
     number of electrons       =       368.84
     number of Kohn-Sham states=          221
     kinetic-energy cutoff     =     120.0000  Ry
     charge density cutoff     =     480.0000  Ry
     convergence threshold     =      1.0E-08
     mixing beta               =       0.7000
     number of iterations used =            8  plain     mixing
     Exchange-correlation      = SLA PW NOGX NOGC ( 1  4  0  0 0 0)

     celldm(1)=  13.835360  celldm(2)=   0.000000  celldm(3)=   0.000000
     celldm(4)=   0.000000  celldm(5)=   0.000000  celldm(6)=   0.000000

     crystal axes: (cart. coord. in units of alat)
               a(1) = (   1.000000   0.000000   0.000000 )  
               a(2) = (   0.000000   1.054784   0.000000 )  
               a(3) = (   0.000000   0.000000   1.001473 )  

     reciprocal axes: (cart. coord. in units 2 pi/alat)
               b(1) = (  1.000000  0.000000  0.000000 )  
               b(2) = (  0.000000  0.948062  0.000000 )  
               b(3) = (  0.000000  0.000000  0.998530 )  


     PseudoPot. # 1 for W  read from file:
     /cluster/scratch/mnoe/QE/pps/W_ONCV_LDA-4.0.upf
     MD5 check sum: ba0307d5d4cd419d6f1d13dc49d7c13a
     Pseudo is Norm-conserving + core correction, Zval = 28.0
     Generated using ONCVPSP code by D. R. Hamann
     Using radial grid of 1380 points,  8 beta functions with: 
                l(1) =   0
                l(2) =   0
                l(3) =   1
                l(4) =   1
                l(5) =   2
                l(6) =   2
                l(7) =   3
                l(8) =   3

     PseudoPot. # 2 for O  read from file:
     /cluster/scratch/mnoe/QE/pps/O_ONCV_LDA-3.0.upf
     MD5 check sum: b55cdb4f45ae2203d24ad12cf8d61a31
     Pseudo is Norm-conserving + core correction, Zval =  6.0
     Generated using ONCVPSP code by D. R. Hamann
     Using radial grid of  926 points,  5 beta functions with: 
                l(1) =   0
                l(2) =   0
                l(3) =   1
                l(4) =   1
                l(5) =   2

     atomic species   valence    mass     pseudopotential
        W             28.00   183.84000     W ( 1.00)
        O              6.00    15.99940     O ( 1.00)

      8 Sym. Ops., with inversion, found ( 6 have fractional translation)



   Cartesian axes

     site n.     atom                  positions (alat units)
         1           W   tau(   1) = (   0.2421400   0.2973013   0.0074409  )
         2           W   tau(   2) = (   0.7578600   0.7574823   0.9940316  )
         3           W   tau(   3) = (   0.2578600   0.2300905   0.5081772  )
         4           W   tau(   4) = (   0.7421400   0.8246931   0.4932954  )
         5           W   tau(   5) = (   0.7578600   0.2973013   0.4932954  )
         6           W   tau(   6) = (   0.2421400   0.7574823   0.5081772  )
         7           W   tau(   7) = (   0.7421400   0.2300905   0.9940316  )
         8           W   tau(   8) = (   0.2578600   0.8246931   0.0074409  )
         9           O   tau(   9) = (   0.2355000   0.0087758   0.0023134  )
        10           O   tau(  10) = (   0.7645000   1.0460078   0.9991592  )
        11           O   tau(  11) = (   0.2645000   0.5186160   0.5030497  )
        12           O   tau(  12) = (   0.7355000   0.5361676   0.4984229  )
        13           O   tau(  13) = (   0.7645000   0.0087758   0.4984229  )
        14           O   tau(  14) = (   0.2355000   1.0460078   0.5030497  )
        15           O   tau(  15) = (   0.7355000   0.5186160   0.9991592  )
        16           O   tau(  16) = (   0.2645000   0.5361676   0.0023134  )
        17           O   tau(  17) = (   0.5021500   0.2480007   0.4502020  )
        18           O   tau(  18) = (   0.4978500   0.8067829   0.5512706  )
        19           O   tau(  19) = (   0.9978500   0.2793911   0.9509383  )
        20           O   tau(  20) = (   0.0021501   0.7753925   0.0505343  )
        21           O   tau(  21) = (   0.4978500   0.2480007   0.0505343  )
        22           O   tau(  22) = (   0.5021500   0.8067829   0.9509383  )
        23           O   tau(  23) = (   0.0021501   0.2793911   0.5512706  )
        24           O   tau(  24) = (   0.9978500   0.7753925   0.4502020  )
        25           O   tau(  25) = (   0.6995400   0.2602678   0.7478396  )
        26           O   tau(  26) = (   0.3004600   0.7945157   0.2536330  )
        27           O   tau(  27) = (   0.8004600   0.2671239   0.2471033  )
        28           O   tau(  28) = (   0.1995400   0.7876596   0.7543692  )
        29           O   tau(  29) = (   0.3004600   0.2602678   0.7543692  )
        30           O   tau(  30) = (   0.6995400   0.7945157   0.2471033  )
        31           O   tau(  31) = (   0.1995400   0.2671239   0.2536330  )
        32           O   tau(  32) = (   0.8004600   0.7876596   0.7478396  )

     number of k points=    64  gaussian smearing, width (Ry)=  0.0007
                       cart. coord. in units 2pi/alat
        k(    1) = (   0.0000000   0.0000000   0.0000000), wk =   0.0092593
        k(    2) = (   0.0000000   0.0000000   0.1664216), wk =   0.0185185
        k(    3) = (   0.0000000   0.0000000   0.3328432), wk =   0.0185185
        k(    4) = (   0.0000000   0.0000000  -0.4992648), wk =   0.0092593
        k(    5) = (   0.0000000   0.1580103   0.0000000), wk =   0.0185185
        k(    6) = (   0.0000000   0.1580103   0.1664216), wk =   0.0370370
        k(    7) = (   0.0000000   0.1580103   0.3328432), wk =   0.0370370
        k(    8) = (   0.0000000   0.1580103  -0.4992648), wk =   0.0185185
        k(    9) = (   0.0000000   0.3160206   0.0000000), wk =   0.0185185
        k(   10) = (   0.0000000   0.3160206   0.1664216), wk =   0.0370370
        k(   11) = (   0.0000000   0.3160206   0.3328432), wk =   0.0370370
        k(   12) = (   0.0000000   0.3160206  -0.4992648), wk =   0.0185185
        k(   13) = (   0.0000000  -0.4740309   0.0000000), wk =   0.0092593
        k(   14) = (   0.0000000  -0.4740309   0.1664216), wk =   0.0185185
        k(   15) = (   0.0000000  -0.4740309   0.3328432), wk =   0.0185185
        k(   16) = (   0.0000000  -0.4740309  -0.4992648), wk =   0.0092593
        k(   17) = (   0.1666667   0.0000000   0.0000000), wk =   0.0185185
        k(   18) = (   0.1666667   0.0000000   0.1664216), wk =   0.0370370
        k(   19) = (   0.1666667   0.0000000   0.3328432), wk =   0.0370370
        k(   20) = (   0.1666667   0.0000000  -0.4992648), wk =   0.0185185
        k(   21) = (   0.1666667   0.1580103   0.0000000), wk =   0.0370370
        k(   22) = (   0.1666667   0.1580103   0.1664216), wk =   0.0740741
        k(   23) = (   0.1666667   0.1580103   0.3328432), wk =   0.0740741
        k(   24) = (   0.1666667   0.1580103  -0.4992648), wk =   0.0370370
        k(   25) = (   0.1666667   0.3160206   0.0000000), wk =   0.0370370
        k(   26) = (   0.1666667   0.3160206   0.1664216), wk =   0.0740741
        k(   27) = (   0.1666667   0.3160206   0.3328432), wk =   0.0740741
        k(   28) = (   0.1666667   0.3160206  -0.4992648), wk =   0.0370370
        k(   29) = (   0.1666667  -0.4740309   0.0000000), wk =   0.0185185
        k(   30) = (   0.1666667  -0.4740309   0.1664216), wk =   0.0370370
        k(   31) = (   0.1666667  -0.4740309   0.3328432), wk =   0.0370370
        k(   32) = (   0.1666667  -0.4740309  -0.4992648), wk =   0.0185185
        k(   33) = (   0.3333333   0.0000000   0.0000000), wk =   0.0185185
        k(   34) = (   0.3333333   0.0000000   0.1664216), wk =   0.0370370
        k(   35) = (   0.3333333   0.0000000   0.3328432), wk =   0.0370370
        k(   36) = (   0.3333333   0.0000000  -0.4992648), wk =   0.0185185
        k(   37) = (   0.3333333   0.1580103   0.0000000), wk =   0.0370370
        k(   38) = (   0.3333333   0.1580103   0.1664216), wk =   0.0740741
        k(   39) = (   0.3333333   0.1580103   0.3328432), wk =   0.0740741
        k(   40) = (   0.3333333   0.1580103  -0.4992648), wk =   0.0370370
        k(   41) = (   0.3333333   0.3160206   0.0000000), wk =   0.0370370
        k(   42) = (   0.3333333   0.3160206   0.1664216), wk =   0.0740741
        k(   43) = (   0.3333333   0.3160206   0.3328432), wk =   0.0740741
        k(   44) = (   0.3333333   0.3160206  -0.4992648), wk =   0.0370370
        k(   45) = (   0.3333333  -0.4740309   0.0000000), wk =   0.0185185
        k(   46) = (   0.3333333  -0.4740309   0.1664216), wk =   0.0370370
        k(   47) = (   0.3333333  -0.4740309   0.3328432), wk =   0.0370370
        k(   48) = (   0.3333333  -0.4740309  -0.4992648), wk =   0.0185185
        k(   49) = (  -0.5000000   0.0000000   0.0000000), wk =   0.0092593
        k(   50) = (  -0.5000000   0.0000000   0.1664216), wk =   0.0185185
        k(   51) = (  -0.5000000   0.0000000   0.3328432), wk =   0.0185185
        k(   52) = (  -0.5000000   0.0000000  -0.4992648), wk =   0.0092593
        k(   53) = (  -0.5000000   0.1580103   0.0000000), wk =   0.0185185
        k(   54) = (  -0.5000000   0.1580103   0.1664216), wk =   0.0370370
        k(   55) = (  -0.5000000   0.1580103   0.3328432), wk =   0.0370370
        k(   56) = (  -0.5000000   0.1580103  -0.4992648), wk =   0.0185185
        k(   57) = (  -0.5000000   0.3160206   0.0000000), wk =   0.0185185
        k(   58) = (  -0.5000000   0.3160206   0.1664216), wk =   0.0370370
        k(   59) = (  -0.5000000   0.3160206   0.3328432), wk =   0.0370370
        k(   60) = (  -0.5000000   0.3160206  -0.4992648), wk =   0.0185185
        k(   61) = (  -0.5000000  -0.4740309   0.0000000), wk =   0.0092593
        k(   62) = (  -0.5000000  -0.4740309   0.1664216), wk =   0.0185185
        k(   63) = (  -0.5000000  -0.4740309   0.3328432), wk =   0.0185185
        k(   64) = (  -0.5000000  -0.4740309  -0.4992648), wk =   0.0092593

     Dense  grid:   496833 G-vectors     FFT dimensions: ( 100, 108, 100)

     Estimated max dynamical RAM per process >       2.71 GB

     Estimated total dynamical RAM >     173.44 GB

     Initial potential from superposition of free atoms

     starting charge  367.99656, renormalised to  368.84000
     Starting wfc are  232 randomized atomic wfcs

     total cpu time spent up to now is       23.2 secs

     Self-consistent Calculation

     iteration #  1     ecut=   120.00 Ry     beta= 0.70
     Davidson diagonalization with overlap
     ethr =  1.00E-02,  avg # of iterations =  5.4

     total cpu time spent up to now is       92.6 secs

     total energy              =   -6253.22543819 Ry
     Harris-Foulkes estimate   =   -6264.12146348 Ry
     estimated scf accuracy    <      13.69886227 Ry

     iteration #  2     ecut=   120.00 Ry     beta= 0.70
     Davidson diagonalization with overlap
     ethr =  3.71E-03,  avg # of iterations =  3.6

     total cpu time spent up to now is      162.0 secs

     total energy              =   -6250.25836585 Ry
     Harris-Foulkes estimate   =   -6270.05477922 Ry
     estimated scf accuracy    <      52.42873121 Ry

     iteration #  3     ecut=   120.00 Ry     beta= 0.70
     Davidson diagonalization with overlap
     ethr =  3.71E-03,  avg # of iterations =  3.3

     total cpu time spent up to now is      226.0 secs

     total energy              =   -6260.49273280 Ry
     Harris-Foulkes estimate   =   -6260.75843161 Ry
     estimated scf accuracy    <       0.89491395 Ry

     iteration #  4     ecut=   120.00 Ry     beta= 0.70
     Davidson diagonalization with overlap
     ethr =  2.43E-04,  avg # of iterations =  3.0

     total cpu time spent up to now is      279.3 secs

     total energy              =   -6260.48683655 Ry
     Harris-Foulkes estimate   =   -6260.55965756 Ry
     estimated scf accuracy    <       0.23051566 Ry

     iteration #  5     ecut=   120.00 Ry     beta= 0.70
     Davidson diagonalization with overlap
     ethr =  6.25E-05,  avg # of iterations =  5.0

     total cpu time spent up to now is      336.3 secs

     total energy              =   -6260.48718167 Ry
     Harris-Foulkes estimate   =   -6260.51911959 Ry
     estimated scf accuracy    <       0.07091555 Ry

     iteration #  6     ecut=   120.00 Ry     beta= 0.70
     Davidson diagonalization with overlap
     ethr =  1.92E-05,  avg # of iterations =  5.2

     total cpu time spent up to now is      397.2 secs

     total energy              =   -6260.50269415 Ry
     Harris-Foulkes estimate   =   -6260.50541206 Ry
     estimated scf accuracy    <       0.00704409 Ry

     iteration #  7     ecut=   120.00 Ry     beta= 0.70
     Davidson diagonalization with overlap
     ethr =  1.91E-06,  avg # of iterations =  6.1

     total cpu time spent up to now is      454.7 secs

     total energy              =   -6260.50364694 Ry
     Harris-Foulkes estimate   =   -6260.50372709 Ry
     estimated scf accuracy    <       0.00014221 Ry

     iteration #  8     ecut=   120.00 Ry     beta= 0.70
     Davidson diagonalization with overlap
     ethr =  3.86E-08,  avg # of iterations =  3.2

     total cpu time spent up to now is      525.2 secs

     total energy              =   -6260.50371269 Ry
     Harris-Foulkes estimate   =   -6260.50372511 Ry
     estimated scf accuracy    <       0.00005298 Ry

     iteration #  9     ecut=   120.00 Ry     beta= 0.70
     Davidson diagonalization with overlap
     ethr =  1.44E-08,  avg # of iterations =  2.0

     total cpu time spent up to now is      575.4 secs

     total energy              =   -6260.50371222 Ry
     Harris-Foulkes estimate   =   -6260.50371721 Ry
     estimated scf accuracy    <       0.00002267 Ry

     iteration # 10     ecut=   120.00 Ry     beta= 0.70
     Davidson diagonalization with overlap
     ethr =  6.15E-09,  avg # of iterations =  1.3

     total cpu time spent up to now is      624.6 secs

     total energy              =   -6260.50371046 Ry
     Harris-Foulkes estimate   =   -6260.50371365 Ry
     estimated scf accuracy    <       0.00000748 Ry

     iteration # 11     ecut=   120.00 Ry     beta= 0.70
     Davidson diagonalization with overlap
     ethr =  2.03E-09,  avg # of iterations =  3.0

     total cpu time spent up to now is      678.5 secs

     total energy              =   -6260.50371204 Ry
     Harris-Foulkes estimate   =   -6260.50371210 Ry
     estimated scf accuracy    <       0.00000013 Ry

     iteration # 12     ecut=   120.00 Ry     beta= 0.70
     Davidson diagonalization with overlap
     ethr =  3.47E-11,  avg # of iterations =  2.0

     total cpu time spent up to now is      742.4 secs

     total energy              =   -6260.50371206 Ry
     Harris-Foulkes estimate   =   -6260.50371208 Ry
     estimated scf accuracy    <       0.00000003 Ry

     iteration # 13     ecut=   120.00 Ry     beta= 0.70
     Davidson diagonalization with overlap
     ethr =  8.32E-12,  avg # of iterations =  2.8

     total cpu time spent up to now is      805.5 secs

     End of self-consistent calculation

          k = 0.0000 0.0000 0.0000 ( 62119 PWs)   bands (ev):

   -65.9285 -65.9281 -65.9275 -65.9275 -65.9271 -65.9270 -65.9265 -65.9260
   -30.3898 -30.3856 -30.3851 -30.3812 -30.3319 -30.3268 -30.3259 -30.3211
   -30.2763 -30.2744 -30.2679 -30.2663 -30.2662 -30.2645 -30.2599 -30.2587
   -30.1743 -30.1721 -30.1718 -30.1698 -30.1690 -30.1656 -30.1632 -30.1603
   -20.0810 -20.0808 -20.0806 -20.0804 -20.0765 -20.0763 -20.0759 -20.0757
   -20.0713 -20.0711 -20.0709 -20.0709 -20.0706 -20.0706 -20.0705 -20.0701
   -20.0683 -20.0677 -20.0674 -20.0673 -20.0671 -20.0660 -20.0654 -20.0653
   -20.0653 -20.0649 -20.0644 -20.0634 -20.0633 -20.0628 -20.0626 -20.0625
   -20.0500 -20.0499 -20.0497 -20.0496 -20.0494 -20.0492 -20.0490 -20.0489
   -20.0140 -20.0140 -20.0125 -20.0124 -20.0119 -20.0119 -20.0106 -20.0106
   -20.0081 -20.0080 -20.0068 -20.0068 -20.0064 -20.0064 -20.0049 -20.0049
    -9.8609  -9.5572  -9.4218  -9.4213  -9.1231  -9.1110  -9.0203  -8.9222
    -8.9083  -8.8040  -8.7650  -8.7620  -7.8100  -7.7427  -7.7339  -7.6870
    -7.6809  -7.6755  -7.6554  -7.6523  -7.5307  -7.5229  -7.5067  -7.5013
     1.3651   1.3676   1.4245   1.4366   1.4434   1.4676   1.4780   1.7061
     1.7076   1.7253   1.7852   1.9773   2.4968   2.5781   2.6358   2.6450
     2.7870   2.8038   4.2152   4.2429   4.4470   4.4993   4.8367   4.8983
     4.9367   4.9617   4.9701   4.9751   5.1258   5.1281   5.1875   5.4751
     5.5136   5.5724   5.6193   5.6200   5.6384   5.6673   5.7214   5.8787
     5.9195   5.9516   5.9543   5.9634   6.0318   6.0967   6.1155   6.2225
     6.2281   6.3133   6.3314   6.6253   6.6352   6.8570   6.9022   6.9031
     6.9208   6.9304   7.0462   7.0723   7.1209   7.1451   7.4434   7.4767
     7.4879   7.5193   7.8621   7.8781   8.1012   8.1481   8.1640   8.2100
     9.5420   9.5447  10.1483  10.1639  10.1770  10.1951  12.3702  12.3775
    12.4661  12.4847  12.5004  12.5347  12.6520  12.6807  12.8797  12.9967
    13.3561  13.4127  13.4828  13.5193  13.8474  14.0971  14.2590  14.2638
    14.4015  14.5350  14.6814  14.9042  15.5986  15.6156  15.6188  16.1795
    16.2087  16.9056  17.1168  17.1567  17.5007

          k = 0.0000 0.0000 0.1664 ( 62082 PWs)   bands (ev):

   -65.9284 -65.9280 -65.9276 -65.9274 -65.9271 -65.9270 -65.9265 -65.9261
   -30.3895 -30.3859 -30.3849 -30.3815 -30.3315 -30.3272 -30.3256 -30.3214
   -30.2715 -30.2715 -30.2649 -30.2625 -30.2619 -30.2593 -30.2591 -30.2575
   -30.1811 -30.1788 -30.1778 -30.1754 -30.1687 -30.1653 -30.1643 -30.1610
   -20.0810 -20.0808 -20.0807 -20.0804 -20.0765 -20.0763 -20.0760 -20.0758
   -20.0713 -20.0711 -20.0709 -20.0709 -20.0706 -20.0706 -20.0705 -20.0701
   -20.0682 -20.0676 -20.0675 -20.0672 -20.0670 -20.0661 -20.0654 -20.0653
   -20.0652 -20.0651 -20.0645 -20.0635 -20.0634 -20.0628 -20.0626 -20.0626
   -20.0500 -20.0498 -20.0497 -20.0496 -20.0493 -20.0492 -20.0490 -20.0489
   -20.0136 -20.0136 -20.0121 -20.0121 -20.0117 -20.0117 -20.0108 -20.0107
   -20.0085 -20.0084 -20.0072 -20.0072 -20.0063 -20.0063 -20.0050 -20.0050
    -9.8148  -9.5028  -9.4384  -9.3646  -9.1261  -9.0344  -9.0288  -8.8843
    -8.8681  -8.7913  -8.7668  -8.7314  -7.8211  -7.8056  -7.7769  -7.7465
    -7.7276  -7.6843  -7.6616  -7.6605  -7.6394  -7.6355  -7.5326  -7.5110
     1.4338   1.4373   1.4592   1.4734   1.5487   1.5838   1.6985   1.6986
     1.7199   1.8051   1.9488   2.0999   2.5843   2.6452   2.6698   2.7335
     2.7785   2.8926   4.1658   4.2168   4.4703   4.4724   4.4868   4.5800
     4.7331   4.8265   4.8901   5.0038   5.0185   5.1325   5.1793   5.4019
     5.4131   5.4908   5.5635   5.6301   5.6324   5.6944   5.7156   5.7304
     5.8020   5.8337   5.8942   6.0069   6.0415   6.1230   6.2157   6.2256
     6.3087   6.4898   6.5620   6.6239   6.7240   6.7647   6.8609   6.8893
     6.9030   6.9221   7.0207   7.0680   7.0721   7.1518   7.2559   7.2664
     7.2949   7.3560   7.8829   7.8872   8.1054   8.1163   8.1667   8.1670
     9.8593   9.8709  10.1660  10.1741  10.4138  10.4685  12.3180  12.3978
    12.4336  12.4567  12.5137  12.5586  12.6841  12.7510  12.9400  12.9919
    13.1800  13.4081  13.4134  13.4855  13.9449  14.0955  14.1211  14.1436
    14.4224  14.6512  14.6758  15.0139  15.5850  15.6247  15.6628  16.1802
    16.4782  16.8676  17.0746  17.3008  17.5540

          k = 0.0000 0.0000 0.3328 ( 62100 PWs)   bands (ev):

   -65.9282 -65.9278 -65.9277 -65.9273 -65.9272 -65.9268 -65.9267 -65.9263
   -30.3889 -30.3867 -30.3843 -30.3823 -30.3305 -30.3280 -30.3247 -30.3223
   -30.2690 -30.2659 -30.2647 -30.2602 -30.2468 -30.2460 -30.2431 -30.2415
   -30.1992 -30.1970 -30.1953 -30.1929 -30.1679 -30.1655 -30.1645 -30.1621
   -20.0810 -20.0808 -20.0807 -20.0805 -20.0764 -20.0762 -20.0761 -20.0759
   -20.0712 -20.0710 -20.0709 -20.0708 -20.0707 -20.0706 -20.0704 -20.0702
   -20.0680 -20.0676 -20.0672 -20.0668 -20.0666 -20.0663 -20.0657 -20.0655
   -20.0652 -20.0649 -20.0647 -20.0639 -20.0633 -20.0628 -20.0628 -20.0627
   -20.0499 -20.0498 -20.0497 -20.0496 -20.0492 -20.0491 -20.0491 -20.0490
   -20.0127 -20.0127 -20.0115 -20.0115 -20.0111 -20.0111 -20.0110 -20.0110
   -20.0095 -20.0095 -20.0082 -20.0082 -20.0060 -20.0060 -20.0053 -20.0052
    -9.7025  -9.4909  -9.3754  -9.2336  -9.1718  -9.0577  -8.8227  -8.7825
    -8.7797  -8.7260  -8.6909  -8.6040  -8.0998  -8.0993  -7.9950  -7.9752
    -7.7806  -7.7568  -7.7166  -7.6933  -7.6335  -7.6127  -7.5592  -7.5376
     1.4394   1.4445   1.4892   1.5150   1.6503   1.6719   1.6825   1.7106
     2.3815   2.4165   2.5731   2.6569   2.6709   2.7736   2.8356   2.9369
     2.9756   3.1322   3.8419   3.9252   3.9595   4.0515   4.2439   4.3722
     4.4374   4.6431   4.6446   4.7931   4.8582   4.9206   5.0447   5.1282
     5.2420   5.3042   5.3219   5.4106   5.5466   5.5844   5.6704   5.7505
     5.7697   5.8169   5.8651   6.0600   6.0696   6.2598   6.2892   6.3603
     6.3869   6.4542   6.5832   6.6035   6.6432   6.6530   6.6687   6.8665
     6.9089   6.9280   6.9456   7.0654   7.0980   7.1480   7.1496   7.2307
     7.3758   7.4231   7.8339   7.8504   7.9707   8.0302   8.1499   8.1693
    10.1290  10.1649  10.5422  10.6375  11.0131  11.1232  11.9717  12.0381
    12.2355  12.5904  12.6088  12.6543  12.7136  12.7140  12.8601  12.9456
    13.0106  13.2437  13.2993  13.5031  13.7940  13.8403  14.0674  14.0920
    14.5215  14.6571  14.9590  15.3109  15.4762  15.7588  16.0227  16.0937
    16.3089  17.2984  17.4709  17.6089  17.8616

          k = 0.0000 0.0000-0.4993 ( 62064 PWs)   bands (ev):

   -65.9280 -65.9280 -65.9276 -65.9276 -65.9270 -65.9270 -65.9265 -65.9265
   -30.3878 -30.3878 -30.3834 -30.3834 -30.3293 -30.3293 -30.3235 -30.3235
   -30.2673 -30.2673 -30.2619 -30.2619 -30.2235 -30.2235 -30.2217 -30.2217
   -30.2194 -30.2194 -30.2172 -30.2172 -30.1667 -30.1667 -30.1633 -30.1633
   -20.0809 -20.0809 -20.0806 -20.0806 -20.0763 -20.0763 -20.0761 -20.0761
   -20.0711 -20.0711 -20.0708 -20.0708 -20.0707 -20.0707 -20.0703 -20.0703
   -20.0678 -20.0678 -20.0667 -20.0667 -20.0662 -20.0662 -20.0661 -20.0661
   -20.0650 -20.0650 -20.0644 -20.0644 -20.0631 -20.0631 -20.0627 -20.0627
   -20.0498 -20.0498 -20.0497 -20.0497 -20.0491 -20.0491 -20.0490 -20.0490
   -20.0117 -20.0117 -20.0117 -20.0117 -20.0108 -20.0108 -20.0108 -20.0107
   -20.0097 -20.0097 -20.0096 -20.0096 -20.0056 -20.0056 -20.0056 -20.0056
    -9.5814  -9.5814  -9.2531  -9.2531  -9.1198  -9.1198  -8.7977  -8.7977
    -8.4554  -8.4553  -8.4345  -8.4345  -8.4067  -8.4067  -8.3364  -8.3364
    -7.7704  -7.7704  -7.7055  -7.7055  -7.5960  -7.5960  -7.5747  -7.5747
     1.4425   1.4425   1.5085   1.5085   1.6666   1.6666   1.7015   1.7015
     2.7036   2.7036   3.0795   3.0795   3.2261   3.2262   3.2288   3.2288
     3.3889   3.3889   3.4214   3.4214   3.6027   3.6028   3.8706   3.8706
     3.9681   3.9682   4.5761   4.5761   4.7530   4.7530   5.0228   5.0228
     5.3073   5.3073   5.4411   5.4411   5.4472   5.4473   5.7123   5.7123
     5.8315   5.8315   6.0017   6.0017   6.2377   6.2377   6.3257   6.3257
     6.4011   6.4011   6.4930   6.4930   6.5520   6.5520   6.6428   6.6428
     6.8576   6.8576   6.9172   6.9172   7.1259   7.1259   7.5786   7.5786
     7.6349   7.6350   7.7356   7.7356   7.7850   7.7851   8.1663   8.1663
    10.1503  10.1503  11.3118  11.3118  11.4016  11.4016  11.7002  11.7002
    11.9022  11.9022  12.7226  12.7226  12.7878  12.7878  12.9564  12.9564
    13.0234  13.0234  13.3933  13.3933  13.5827  13.5827  14.0885  14.0885
    14.6150  14.6150  15.2707  15.2707  15.7535  15.7535  15.9474  15.9474
    16.7548  16.7549  17.8621  17.8621  18.1487

          k = 0.0000 0.1580 0.0000 ( 62077 PWs)   bands (ev):

   -65.9285 -65.9281 -65.9275 -65.9274 -65.9271 -65.9271 -65.9264 -65.9261
   -30.3858 -30.3816 -30.3811 -30.3772 -30.3356 -30.3307 -30.3298 -30.3251
   -30.2761 -30.2745 -30.2679 -30.2664 -30.2660 -30.2642 -30.2606 -30.2592
   -30.1742 -30.1722 -30.1717 -30.1699 -30.1688 -30.1658 -30.1630 -30.1605
   -20.0807 -20.0804 -20.0803 -20.0801 -20.0768 -20.0765 -20.0762 -20.0760
   -20.0713 -20.0711 -20.0710 -20.0709 -20.0706 -20.0706 -20.0706 -20.0702
   -20.0683 -20.0677 -20.0674 -20.0673 -20.0671 -20.0661 -20.0654 -20.0653
   -20.0652 -20.0649 -20.0643 -20.0634 -20.0634 -20.0629 -20.0627 -20.0625
   -20.0500 -20.0499 -20.0496 -20.0496 -20.0494 -20.0492 -20.0490 -20.0489
   -20.0140 -20.0140 -20.0124 -20.0124 -20.0119 -20.0119 -20.0106 -20.0106
   -20.0080 -20.0080 -20.0068 -20.0068 -20.0064 -20.0064 -20.0049 -20.0049
    -9.8300  -9.5695  -9.3825  -9.3809  -9.1310  -9.1193  -8.9461  -8.9212
    -8.9092  -8.7591  -8.7290  -8.7268  -7.8993  -7.8408  -7.8331  -7.7880
    -7.6854  -7.6795  -7.6570  -7.6541  -7.5292  -7.5228  -7.5089  -7.5030
     1.3652   1.3673   1.4356   1.4435   1.4529   1.4675   1.6194   1.7843
     1.8879   1.9348   1.9492   2.1304   2.5024   2.5725   2.7084   2.7192
     2.8555   2.8748   4.0795   4.1126   4.1715   4.2135   4.7801   4.9267
     4.9489   4.9593   4.9674   4.9713   5.0651   5.0674   5.0744   5.3567
     5.3822   5.5659   5.5754   5.6499   5.6926   5.7271   5.7408   5.7531
     5.8695   5.8879   5.9474   5.9686   6.0070   6.1049   6.1218   6.2228
     6.2283   6.3075   6.3399   6.6456   6.6644   6.8666   6.8939   6.9262
     6.9292   6.9562   6.9568   7.0553   7.0583   7.0665   7.4530   7.4790
     7.4939   7.5177   7.8655   7.8769   8.0672   8.0959   8.1055   8.1286
     9.5456   9.5457  10.3458  10.3513  10.3518  10.3529  12.2613  12.3184
    12.4552  12.4824  12.4855  12.4946  12.5198  12.5223  12.8935  12.9956
    13.3854  13.4385  13.4843  13.5147  14.0173  14.0782  14.1610  14.1713
    14.4464  14.8068  14.8777  15.0808  15.5981  15.6124  16.0172  16.1482
    16.1738  16.5867  17.2501  17.2891  17.5595

          k = 0.0000 0.1580 0.1664 ( 62081 PWs)   bands (ev):

   -65.9284 -65.9280 -65.9275 -65.9274 -65.9272 -65.9270 -65.9265 -65.9261
   -30.3856 -30.3819 -30.3809 -30.3775 -30.3352 -30.3310 -30.3295 -30.3255
   -30.2714 -30.2714 -30.2645 -30.2625 -30.2619 -30.2596 -30.2595 -30.2580
   -30.1810 -30.1790 -30.1777 -30.1756 -30.1685 -30.1655 -30.1641 -30.1612
   -20.0807 -20.0804 -20.0804 -20.0801 -20.0768 -20.0765 -20.0763 -20.0760
   -20.0713 -20.0710 -20.0710 -20.0709 -20.0706 -20.0706 -20.0706 -20.0702
   -20.0682 -20.0676 -20.0674 -20.0672 -20.0670 -20.0662 -20.0654 -20.0653
   -20.0652 -20.0651 -20.0644 -20.0635 -20.0634 -20.0629 -20.0627 -20.0626
   -20.0500 -20.0499 -20.0497 -20.0496 -20.0493 -20.0492 -20.0490 -20.0489
   -20.0136 -20.0136 -20.0121 -20.0121 -20.0117 -20.0117 -20.0108 -20.0107
   -20.0085 -20.0084 -20.0072 -20.0072 -20.0063 -20.0063 -20.0050 -20.0050
    -9.7827  -9.5150  -9.3983  -9.3207  -9.1346  -9.0424  -8.9547  -8.8826
    -8.8690  -8.7484  -8.7314  -8.6999  -7.9006  -7.8513  -7.8337  -7.8040
    -7.7947  -7.7747  -7.6636  -7.6594  -7.6408  -7.6357  -7.5325  -7.5127
     1.4526   1.4572   1.4591   1.4733   1.6583   1.6984   1.7074   1.8965
     1.9445   1.9480   1.9614   2.1985   2.5910   2.6636   2.7176   2.8096
     2.8476   2.9631   4.0730   4.0943   4.2032   4.2132   4.5021   4.5749
     4.7657   4.7682   4.8149   4.9888   5.0142   5.0594   5.0904   5.3092
     5.3274   5.4126   5.4377   5.5803   5.6508   5.6683   5.7290   5.7863
     5.7982   5.8256   5.8991   5.9168   5.9491   6.1497   6.2118   6.2470
     6.2737   6.4570   6.5491   6.6495   6.7737   6.8308   6.8665   6.8788
     6.9142   6.9505   7.0080   7.0268   7.0740   7.0807   7.2576   7.2675
     7.3119   7.3544   7.8845   7.8859   8.0655   8.0697   8.0910   8.0995
     9.8658   9.8821  10.3494  10.3563  10.5696  10.6012  12.2802  12.3341
    12.3986  12.4015  12.4979  12.5207  12.5321  12.6387  12.9549  12.9985
    13.2037  13.4073  13.4281  13.4845  14.0204  14.0513  14.0576  14.0775
    14.5272  14.8671  14.9503  15.1745  15.6226  15.6617  15.9837  16.1454
    16.4447  16.7421  16.9903  17.4149  17.6257

          k = 0.0000 0.1580 0.3328 ( 62113 PWs)   bands (ev):

   -65.9282 -65.9278 -65.9277 -65.9273 -65.9272 -65.9268 -65.9267 -65.9263
   -30.3849 -30.3828 -30.3803 -30.3783 -30.3343 -30.3319 -30.3287 -30.3263
   -30.2687 -30.2656 -30.2650 -30.2607 -30.2469 -30.2461 -30.2431 -30.2417
   -30.1991 -30.1972 -30.1951 -30.1930 -30.1677 -30.1653 -30.1647 -30.1624
   -20.0806 -20.0804 -20.0804 -20.0802 -20.0767 -20.0765 -20.0764 -20.0762
   -20.0712 -20.0710 -20.0709 -20.0709 -20.0707 -20.0707 -20.0705 -20.0703
   -20.0680 -20.0675 -20.0672 -20.0667 -20.0666 -20.0664 -20.0656 -20.0655
   -20.0652 -20.0649 -20.0647 -20.0639 -20.0633 -20.0628 -20.0628 -20.0627
   -20.0499 -20.0498 -20.0497 -20.0496 -20.0492 -20.0491 -20.0490 -20.0490
   -20.0127 -20.0127 -20.0115 -20.0115 -20.0111 -20.0111 -20.0110 -20.0110
   -20.0095 -20.0095 -20.0082 -20.0082 -20.0060 -20.0060 -20.0053 -20.0052
    -9.6674  -9.4515  -9.3872  -9.1811  -9.1762  -8.9841  -8.7996  -8.7910
    -8.7441  -8.7277  -8.6724  -8.5860  -8.1070  -8.0973  -8.0147  -7.9733
    -7.8669  -7.8484  -7.8153  -7.7876  -7.6347  -7.6145  -7.5593  -7.5394
     1.4674   1.4886   1.4891   1.5147   1.8315   1.8542   1.9302   1.9428
     2.3800   2.4256   2.5774   2.6727   2.7427   2.8334   2.8464   2.9338
     3.0532   3.1955   3.8444   3.9263   3.9504   3.9989   4.2193   4.2273
     4.3025   4.4608   4.6641   4.7144   4.8316   4.8845   4.9142   5.0048
     5.0998   5.2302   5.2766   5.2982   5.4717   5.5120   5.6011   5.6956
     5.7626   5.8239   5.8432   5.8929   6.0335   6.2200   6.2930   6.2965
     6.4207   6.6100   6.6240   6.6481   6.6635   6.7269   6.7997   6.8655
     6.9046   6.9116   7.0065   7.0205   7.0622   7.1061   7.1795   7.2208
     7.3728   7.4146   7.8357   7.8484   7.9371   7.9719   8.0883   8.1026
    10.3178  10.3482  10.5528  10.6455  11.1221  11.2082  11.9720  12.0355
    12.2131  12.5349  12.5501  12.6251  12.6489  12.6870  12.8035  12.9019
    12.9549  13.2393  13.2960  13.4926  13.6904  13.7606  14.0758  14.0836
    14.7125  14.8505  15.3008  15.4440  15.7456  15.8741  16.0402  16.0605
    16.4340  17.1961  17.2612  17.5223  17.8531

          k = 0.0000 0.1580-0.4993 ( 62054 PWs)   bands (ev):

   -65.9280 -65.9280 -65.9276 -65.9276 -65.9269 -65.9269 -65.9266 -65.9266
   -30.3839 -30.3839 -30.3794 -30.3794 -30.3331 -30.3331 -30.3275 -30.3275
   -30.2670 -30.2670 -30.2624 -30.2624 -30.2234 -30.2234 -30.2218 -30.2218
   -30.2192 -30.2192 -30.2173 -30.2173 -30.1665 -30.1665 -30.1636 -30.1636
   -20.0806 -20.0806 -20.0803 -20.0803 -20.0766 -20.0766 -20.0763 -20.0763
   -20.0711 -20.0711 -20.0708 -20.0708 -20.0708 -20.0708 -20.0703 -20.0703
   -20.0677 -20.0677 -20.0668 -20.0667 -20.0661 -20.0661 -20.0661 -20.0661
   -20.0650 -20.0650 -20.0644 -20.0644 -20.0631 -20.0631 -20.0628 -20.0628
   -20.0498 -20.0498 -20.0497 -20.0497 -20.0491 -20.0491 -20.0490 -20.0490
   -20.0117 -20.0117 -20.0117 -20.0117 -20.0108 -20.0108 -20.0107 -20.0107
   -20.0097 -20.0097 -20.0096 -20.0096 -20.0056 -20.0056 -20.0056 -20.0056
    -9.5435  -9.5435  -9.2636  -9.2636  -9.0501  -9.0501  -8.7633  -8.7633
    -8.4592  -8.4591  -8.4300  -8.4300  -8.4166  -8.4165  -8.3307  -8.3307
    -7.8619  -7.8619  -7.8044  -7.8044  -7.5966  -7.5966  -7.5765  -7.5765
     1.4813   1.4813   1.5083   1.5083   1.8530   1.8530   1.9427   1.9427
     2.7722   2.7722   3.0969   3.0969   3.2209   3.2210   3.2684   3.2684
     3.4030   3.4031   3.4179   3.4179   3.5914   3.5914   3.8719   3.8719
     4.0167   4.0167   4.3619   4.3619   4.6514   4.6515   4.8491   4.8491
     5.1470   5.1470   5.4111   5.4112   5.4205   5.4206   5.5874   5.5874
     5.7801   5.7801   5.8693   5.8693   6.2340   6.2340   6.3878   6.3878
     6.4317   6.4317   6.5201   6.5201   6.6312   6.6312   6.7268   6.7268
     6.9143   6.9143   6.9368   6.9368   7.0489   7.0489   7.5858   7.5858
     7.6297   7.6297   7.7121   7.7121   7.7547   7.7547   8.1002   8.1002
    10.3418  10.3418  11.3185  11.3185  11.3996  11.3996  11.7648  11.7648
    11.9589  11.9589  12.5870  12.5870  12.7751  12.7751  12.9599  12.9599
    12.9622  12.9622  13.2909  13.2909  13.5465  13.5465  14.0774  14.0774
    14.8116  14.8116  15.6351  15.6351  15.8969  15.8969  15.9204  15.9204
    16.7954  16.7955  17.6674  17.6674  18.1855

          k = 0.0000 0.3160 0.0000 ( 62053 PWs)   bands (ev):

   -65.9284 -65.9282 -65.9274 -65.9274 -65.9272 -65.9271 -65.9264 -65.9261
   -30.3750 -30.3707 -30.3702 -30.3662 -30.3459 -30.3413 -30.3405 -30.3362
   -30.2758 -30.2748 -30.2677 -30.2668 -30.2652 -30.2633 -30.2621 -30.2604
   -30.1738 -30.1727 -30.1713 -30.1702 -30.1682 -30.1665 -30.1625 -30.1611
   -20.0798 -20.0796 -20.0794 -20.0792 -20.0775 -20.0773 -20.0770 -20.0768
   -20.0713 -20.0711 -20.0710 -20.0709 -20.0708 -20.0707 -20.0706 -20.0704
   -20.0681 -20.0678 -20.0672 -20.0671 -20.0671 -20.0664 -20.0655 -20.0654
   -20.0651 -20.0649 -20.0641 -20.0636 -20.0633 -20.0630 -20.0627 -20.0626
   -20.0500 -20.0499 -20.0496 -20.0496 -20.0493 -20.0493 -20.0490 -20.0489
   -20.0140 -20.0140 -20.0124 -20.0124 -20.0119 -20.0119 -20.0106 -20.0106
   -20.0080 -20.0080 -20.0068 -20.0068 -20.0064 -20.0064 -20.0049 -20.0049
    -9.7545  -9.6071  -9.2927  -9.2881  -9.1571  -9.1466  -8.9187  -8.9117
    -8.7369  -8.6187  -8.6062  -8.6043  -8.1365  -8.0893  -8.0831  -8.0600
    -7.6815  -7.6794  -7.6607  -7.6586  -7.5251  -7.5197  -7.5136  -7.5077
     1.3653   1.3665   1.4421   1.4437   1.4632   1.4672   1.7441   1.7813
     2.4359   2.5174   2.5572   2.5764   2.5965   2.7541   2.9209   2.9467
     3.0543   3.0901   3.6904   3.7311   3.7332   3.7735   4.2064   4.5272
     4.5603   4.8146   4.9235   4.9566   4.9740   5.0041   5.1203   5.1289
     5.1429   5.1545   5.4658   5.4846   5.6557   5.6587   5.7796   5.8001
     5.9355   5.9452   5.9576   5.9809   6.0988   6.1083   6.1308   6.2339
     6.2442   6.2866   6.3351   6.5861   6.7059   6.7238   6.9219   6.9339
     6.9674   7.0364   7.1483   7.1498   7.1710   7.1814   7.4684   7.4775
     7.5069   7.5161   7.8432   7.8590   7.9023   7.9056   7.9100   7.9294
     9.5476   9.5492  10.7867  10.8133  10.8404  10.8500  11.9044  11.9655
    12.0649  12.0876  12.4627  12.4836  12.5038  12.5152  12.9272  12.9871
    13.4854  13.5244  13.5375  13.5648  13.9082  13.9209  13.9286  13.9515
    14.8887  15.3675  15.3844  15.5974  15.6059  15.7192  16.0197  16.0405
    16.0573  17.0018  17.3111  17.7098  17.7438

          k = 0.0000 0.3160 0.1664 ( 62071 PWs)   bands (ev):

   -65.9283 -65.9281 -65.9275 -65.9273 -65.9272 -65.9271 -65.9264 -65.9262
   -30.3747 -30.3710 -30.3700 -30.3665 -30.3456 -30.3416 -30.3403 -30.3365
   -30.2712 -30.2712 -30.2636 -30.2624 -30.2620 -30.2608 -30.2598 -30.2591
   -30.1806 -30.1794 -30.1772 -30.1760 -30.1679 -30.1662 -30.1635 -30.1619
   -20.0798 -20.0796 -20.0795 -20.0792 -20.0775 -20.0773 -20.0771 -20.0768
   -20.0713 -20.0711 -20.0710 -20.0709 -20.0708 -20.0707 -20.0706 -20.0704
   -20.0680 -20.0676 -20.0671 -20.0671 -20.0670 -20.0664 -20.0654 -20.0653
   -20.0652 -20.0650 -20.0642 -20.0637 -20.0633 -20.0630 -20.0627 -20.0627
   -20.0499 -20.0499 -20.0496 -20.0496 -20.0493 -20.0492 -20.0490 -20.0489
   -20.0136 -20.0136 -20.0121 -20.0121 -20.0117 -20.0117 -20.0108 -20.0107
   -20.0085 -20.0084 -20.0072 -20.0072 -20.0063 -20.0063 -20.0050 -20.0050
    -9.7043  -9.5530  -9.3056  -9.2192  -9.1625  -9.0695  -8.8792  -8.8716
    -8.7452  -8.6123  -8.6099  -8.5877  -8.1368  -8.0965  -8.0803  -8.0659
    -7.7996  -7.7866  -7.6623  -7.6574  -7.6438  -7.6396  -7.5294  -7.5174
     1.4579   1.4589   1.4686   1.4730   1.6909   1.6979   1.8962   1.9446
     2.4403   2.5611   2.5887   2.6096   2.6479   2.7482   2.9290   3.0452
     3.0471   3.1825   3.7271   3.7361   3.7630   3.7825   4.1938   4.5076
     4.5258   4.5460   4.6101   4.8199   4.8354   4.9436   5.0215   5.0350
     5.1185   5.1685   5.2704   5.3907   5.4883   5.5579   5.6645   5.7153
     5.7704   5.8668   5.8709   5.9213   6.1019   6.1776   6.1809   6.2360
     6.3305   6.4814   6.5172   6.6445   6.7014   6.9009   6.9446   6.9907
     7.0231   7.0435   7.1308   7.1398   7.1457   7.1760   7.2591   7.2801
     7.3472   7.3603   7.8499   7.8539   7.8837   7.8956   7.9158   7.9162
     9.8769   9.8876  10.8171  10.8535  10.9642  11.0097  11.9616  11.9991
    12.0893  12.1414  12.3814  12.3958  12.5510  12.5700  12.9885  13.0104
    13.3033  13.4412  13.4920  13.5345  13.7818  13.8398  13.9057  13.9258
    15.0188  15.3726  15.5719  15.6120  15.6656  15.7832  16.0294  16.1866
    16.3301  16.9652  17.3769  17.3877  17.7672

          k = 0.0000 0.3160 0.3328 ( 62108 PWs)   bands (ev):

   -65.9281 -65.9279 -65.9276 -65.9274 -65.9271 -65.9269 -65.9266 -65.9264
   -30.3740 -30.3719 -30.3694 -30.3673 -30.3448 -30.3425 -30.3395 -30.3373
   -30.2680 -30.2658 -30.2647 -30.2619 -30.2469 -30.2464 -30.2430 -30.2421
   -30.1987 -30.1976 -30.1947 -30.1935 -30.1671 -30.1654 -30.1647 -30.1630
   -20.0798 -20.0796 -20.0795 -20.0793 -20.0775 -20.0772 -20.0772 -20.0770
   -20.0712 -20.0710 -20.0710 -20.0709 -20.0708 -20.0707 -20.0706 -20.0704
   -20.0678 -20.0673 -20.0673 -20.0667 -20.0666 -20.0666 -20.0656 -20.0655
   -20.0652 -20.0650 -20.0646 -20.0641 -20.0632 -20.0630 -20.0629 -20.0628
   -20.0499 -20.0498 -20.0497 -20.0496 -20.0492 -20.0492 -20.0490 -20.0490
   -20.0127 -20.0127 -20.0115 -20.0115 -20.0111 -20.0111 -20.0110 -20.0110
   -20.0095 -20.0095 -20.0083 -20.0082 -20.0060 -20.0060 -20.0053 -20.0052
    -9.5823  -9.4247  -9.3594  -9.2112  -9.0338  -8.8216  -8.7774  -8.7599
    -8.7327  -8.6242  -8.5783  -8.5147  -8.1788  -8.1604  -8.0914  -8.0883
    -8.0709  -8.0246  -7.9673  -7.9249  -7.6320  -7.6194  -7.5563  -7.5441
     1.4829   1.4886   1.5081   1.5141   2.2888   2.3758   2.3869   2.4668
     2.5773   2.5939   2.5959   2.8252   2.8855   2.9056   2.9517   3.0371
     3.2873   3.3932   3.7175   3.7329   3.7763   3.8548   3.9439   3.9448
     4.1790   4.3700   4.4539   4.4836   4.5300   4.6751   4.7125   4.8783
     4.8806   4.9281   5.0865   5.1567   5.2774   5.2943   5.3049   5.4565
     5.4731   5.6881   5.7155   5.8764   6.2045   6.2791   6.2899   6.3158
     6.5024   6.6516   6.6876   6.7433   6.7439   6.8744   6.8939   6.9095
     7.0030   7.0393   7.1049   7.1261   7.1437   7.2042   7.2505   7.2666
     7.3538   7.3964   7.7808   7.8046   7.8277   7.8467   7.8861   7.9104
    10.5738  10.5805  10.8265  10.8757  11.4239  11.4741  11.9080  12.0277
    12.0403  12.1191  12.2909  12.3631  12.6997  12.7359  12.7544  12.8218
    12.9512  13.2345  13.2448  13.4539  13.5347  13.6445  13.9011  13.9177
    15.2043  15.3434  15.6927  15.9514  15.9761  16.0790  16.1328  16.6986
    16.8381  16.8403  17.1160  17.6007  17.7094

          k = 0.0000 0.3160-0.4993 ( 62136 PWs)   bands (ev):

   -65.9279 -65.9279 -65.9277 -65.9277 -65.9269 -65.9269 -65.9266 -65.9266
   -30.3730 -30.3730 -30.3684 -30.3684 -30.3436 -30.3436 -30.3385 -30.3385
   -30.2662 -30.2662 -30.2635 -30.2635 -30.2232 -30.2232 -30.2222 -30.2222
   -30.2189 -30.2189 -30.2178 -30.2178 -30.1659 -30.1659 -30.1642 -30.1642
   -20.0797 -20.0797 -20.0794 -20.0794 -20.0774 -20.0773 -20.0771 -20.0771
   -20.0711 -20.0711 -20.0709 -20.0709 -20.0708 -20.0708 -20.0705 -20.0705
   -20.0675 -20.0675 -20.0669 -20.0669 -20.0661 -20.0661 -20.0661 -20.0661
   -20.0649 -20.0649 -20.0646 -20.0646 -20.0631 -20.0631 -20.0629 -20.0629
   -20.0498 -20.0498 -20.0497 -20.0497 -20.0491 -20.0491 -20.0491 -20.0491
   -20.0117 -20.0117 -20.0117 -20.0117 -20.0108 -20.0108 -20.0108 -20.0107
   -20.0097 -20.0097 -20.0096 -20.0096 -20.0056 -20.0056 -20.0056 -20.0056
    -9.4532  -9.4532  -9.2976  -9.2975  -8.8583  -8.8583  -8.6559  -8.6558
    -8.4770  -8.4770  -8.4577  -8.4577  -8.4099  -8.4099  -8.3088  -8.3087
    -8.0880  -8.0880  -8.0408  -8.0408  -7.5937  -7.5937  -7.5813  -7.5813
     1.5009   1.5009   1.5076   1.5076   2.4442   2.4442   2.5846   2.5846
     2.9671   2.9671   3.1468   3.1469   3.1974   3.1974   3.3424   3.3424
     3.4050   3.4050   3.4702   3.4702   3.5464   3.5464   3.7362   3.7362
     4.1488   4.1488   4.1591   4.1591   4.2054   4.2054   4.4192   4.4192
     4.8942   4.8942   5.0188   5.0188   5.2022   5.2022   5.3834   5.3834
     5.5378   5.5379   5.7966   5.7966   6.3474   6.3475   6.4172   6.4172
     6.5504   6.5504   6.5824   6.5824   6.6421   6.6421   6.8235   6.8236
     7.1130   7.1130   7.1168   7.1168   7.1646   7.1647   7.5829   7.5829
     7.6149   7.6150   7.6199   7.6199   7.6716   7.6716   7.8953   7.8953
    10.8261  10.8261  11.3330  11.3330  11.3968  11.3968  11.8651  11.8651
    12.1346  12.1346  12.2824  12.2824  12.6774  12.6774  12.7417  12.7417
    12.9731  12.9731  13.0880  13.0880  13.5508  13.5508  13.9034  13.9034
    15.2913  15.2913  15.8282  15.8282  16.3346  16.3346  16.5680  16.5680
    16.9587  16.9587  17.2948  17.2948  18.0014

          k = 0.0000-0.4740 0.0000 ( 62030 PWs)   bands (ev):

   -65.9283 -65.9283 -65.9273 -65.9273 -65.9273 -65.9272 -65.9263 -65.9262
   -30.3603 -30.3603 -30.3560 -30.3559 -30.3553 -30.3553 -30.3512 -30.3512
   -30.2753 -30.2752 -30.2674 -30.2674 -30.2638 -30.2638 -30.2619 -30.2619
   -30.1732 -30.1732 -30.1707 -30.1707 -30.1673 -30.1673 -30.1619 -30.1618
   -20.0787 -20.0787 -20.0784 -20.0784 -20.0782 -20.0782 -20.0780 -20.0780
   -20.0713 -20.0712 -20.0710 -20.0709 -20.0708 -20.0708 -20.0705 -20.0705
   -20.0679 -20.0679 -20.0672 -20.0672 -20.0667 -20.0667 -20.0655 -20.0655
   -20.0650 -20.0649 -20.0638 -20.0638 -20.0632 -20.0632 -20.0627 -20.0627
   -20.0499 -20.0499 -20.0496 -20.0496 -20.0493 -20.0493 -20.0489 -20.0489
   -20.0140 -20.0140 -20.0124 -20.0124 -20.0119 -20.0119 -20.0106 -20.0106
   -20.0080 -20.0080 -20.0068 -20.0068 -20.0064 -20.0064 -20.0049 -20.0049
    -9.6713  -9.6713  -9.2090  -9.2090  -9.2009  -9.2009  -8.9152  -8.9152
    -8.4386  -8.4386  -8.3793  -8.3793  -8.3773  -8.3772  -8.3750  -8.3749
    -7.6782  -7.6782  -7.6623  -7.6623  -7.5195  -7.5195  -7.5139  -7.5139
     1.3658   1.3658   1.4436   1.4436   1.4662   1.4663   1.7727   1.7727
     2.5366   2.5366   3.1647   3.1647   3.2672   3.2672   3.3022   3.3022
     3.3271   3.3271   3.3919   3.3919   3.5801   3.5801   3.6181   3.6181
     3.7625   3.7625   4.9368   4.9368   4.9839   4.9839   5.2742   5.2742
     5.3323   5.3323   5.3728   5.3728   5.3982   5.3982   5.8388   5.8388
     5.8602   5.8602   6.0524   6.0524   6.1026   6.1026   6.2311   6.2311
     6.2683   6.2683   6.3605   6.3605   6.8005   6.8005   6.8162   6.8162
     7.0047   7.0047   7.4599   7.4599   7.4755   7.4755   7.5201   7.5201
     7.5254   7.5254   7.6096   7.6096   7.6148   7.6148   7.8780   7.8780
     9.5493   9.5493  11.3612  11.3612  11.4102  11.4102  11.4473  11.4473
    11.5045  11.5045  12.4764  12.4764  12.5131  12.5131  12.9636  12.9636
    13.6487  13.6487  13.6894  13.6894  13.7200  13.7200  13.7201  13.7201
    15.4293  15.4293  15.6047  15.6047  15.8069  15.8069  15.8159  15.8159
    16.6159  16.6159  17.9899  17.9899  18.1693

          k = 0.0000-0.4740 0.1664 ( 62086 PWs)   bands (ev):

   -65.9282 -65.9282 -65.9274 -65.9273 -65.9272 -65.9272 -65.9263 -65.9263
   -30.3601 -30.3600 -30.3563 -30.3563 -30.3551 -30.3551 -30.3515 -30.3515
   -30.2711 -30.2711 -30.2624 -30.2624 -30.2621 -30.2621 -30.2598 -30.2598
   -30.1800 -30.1800 -30.1766 -30.1766 -30.1670 -30.1670 -30.1627 -30.1627
   -20.0787 -20.0787 -20.0784 -20.0784 -20.0783 -20.0782 -20.0780 -20.0780
   -20.0712 -20.0712 -20.0709 -20.0709 -20.0708 -20.0708 -20.0705 -20.0705
   -20.0678 -20.0678 -20.0670 -20.0670 -20.0668 -20.0668 -20.0654 -20.0654
   -20.0651 -20.0651 -20.0640 -20.0640 -20.0632 -20.0632 -20.0628 -20.0628
   -20.0499 -20.0499 -20.0496 -20.0496 -20.0493 -20.0493 -20.0490 -20.0490
   -20.0136 -20.0136 -20.0121 -20.0121 -20.0117 -20.0117 -20.0108 -20.0107
   -20.0085 -20.0084 -20.0072 -20.0072 -20.0063 -20.0063 -20.0050 -20.0050
    -9.6184  -9.6184  -9.2178  -9.2178  -9.1254  -9.1254  -8.8753  -8.8753
    -8.4442  -8.4442  -8.3846  -8.3846  -8.3764  -8.3764  -8.3680  -8.3679
    -7.7935  -7.7935  -7.6584  -7.6584  -7.6436  -7.6436  -7.5236  -7.5236
     1.4587   1.4587   1.4719   1.4719   1.6966   1.6966   1.9344   1.9344
     2.6267   2.6267   3.1807   3.1807   3.2553   3.2553   3.3207   3.3208
     3.3589   3.3589   3.3957   3.3957   3.5975   3.5975   3.6429   3.6429
     3.7940   3.7940   4.5519   4.5519   4.9943   4.9943   5.0665   5.0665
     5.1987   5.1987   5.2838   5.2838   5.4027   5.4027   5.5812   5.5812
     5.8235   5.8235   5.8732   5.8732   6.1764   6.1764   6.2174   6.2174
     6.4522   6.4522   6.5094   6.5094   6.7905   6.7905   6.9793   6.9793
     7.0674   7.0674   7.2512   7.2512   7.2984   7.2984   7.5129   7.5130
     7.5339   7.5339   7.5803   7.5803   7.5919   7.5919   7.8930   7.8930
     9.8847   9.8847  11.4117  11.4117  11.4809  11.4809  11.4960  11.4960
    11.5821  11.5821  12.3887  12.3887  12.5613  12.5613  13.0130  13.0130
    13.4822  13.4823  13.5620  13.5620  13.6860  13.6860  13.7382  13.7382
    15.4945  15.4945  15.7228  15.7228  15.8007  15.8007  16.0703  16.0703
    16.6775  16.6775  17.9094  17.9095  18.0329

          k = 0.0000-0.4740 0.3328 ( 62120 PWs)   bands (ev):

   -65.9280 -65.9280 -65.9275 -65.9275 -65.9270 -65.9270 -65.9265 -65.9265
   -30.3593 -30.3593 -30.3571 -30.3571 -30.3544 -30.3544 -30.3523 -30.3523
   -30.2669 -30.2669 -30.2634 -30.2634 -30.2468 -30.2468 -30.2426 -30.2426
   -30.1982 -30.1982 -30.1941 -30.1941 -30.1662 -30.1662 -30.1639 -30.1639
   -20.0786 -20.0786 -20.0784 -20.0784 -20.0783 -20.0783 -20.0781 -20.0781
   -20.0711 -20.0711 -20.0709 -20.0709 -20.0708 -20.0708 -20.0706 -20.0706
   -20.0675 -20.0675 -20.0669 -20.0669 -20.0666 -20.0666 -20.0655 -20.0655
   -20.0652 -20.0652 -20.0644 -20.0643 -20.0631 -20.0631 -20.0629 -20.0629
   -20.0498 -20.0498 -20.0497 -20.0497 -20.0492 -20.0492 -20.0490 -20.0490
   -20.0127 -20.0127 -20.0115 -20.0115 -20.0111 -20.0111 -20.0110 -20.0110
   -20.0095 -20.0095 -20.0083 -20.0082 -20.0060 -20.0060 -20.0053 -20.0052
    -9.4914  -9.4914  -9.2696  -9.2696  -8.8954  -8.8954  -8.7420  -8.7420
    -8.4764  -8.4764  -8.4072  -8.4072  -8.3674  -8.3674  -8.3397  -8.3397
    -8.0791  -8.0791  -7.9560  -7.9560  -7.6260  -7.6260  -7.5504  -7.5504
     1.4872   1.4872   1.5125   1.5125   2.3653   2.3653   2.5566   2.5566
     2.8865   2.8865   3.2040   3.2040   3.2555   3.2555   3.3323   3.3323
     3.3506   3.3507   3.4779   3.4779   3.5826   3.5826   3.7783   3.7784
     3.8653   3.8653   3.9406   3.9406   4.5554   4.5554   4.7234   4.7235
     4.8671   4.8671   4.9499   4.9499   5.3135   5.3135   5.3418   5.3418
     5.4610   5.4610   5.7483   5.7483   6.2756   6.2756   6.3213   6.3213
     6.5950   6.5951   6.7210   6.7210   6.7874   6.7874   6.9336   6.9336
     7.1169   7.1169   7.2458   7.2458   7.2566   7.2566   7.4936   7.4936
     7.5332   7.5332   7.5562   7.5562   7.5722   7.5722   7.8508   7.8508
    10.5892  10.5892  11.4205  11.4205  11.4762  11.4762  11.8607  11.8607
    11.9226  11.9226  12.0271  12.0271  12.7188  12.7188  12.8607  12.8608
    13.0273  13.0273  13.2903  13.2903  13.6798  13.6798  13.7153  13.7153
    15.5412  15.5412  15.7332  15.7332  16.2951  16.2951  16.7703  16.7703
    16.8989  16.8989  17.4022  17.4022  17.9734

          k = 0.0000-0.4740-0.4993 ( 62128 PWs)   bands (ev):

   -65.9278 -65.9278 -65.9278 -65.9278 -65.9268 -65.9268 -65.9267 -65.9267
   -30.3582 -30.3582 -30.3582 -30.3582 -30.3534 -30.3534 -30.3534 -30.3534
   -30.2649 -30.2649 -30.2649 -30.2649 -30.2228 -30.2228 -30.2227 -30.2227
   -30.2184 -30.2184 -30.2184 -30.2184 -30.1651 -30.1651 -30.1651 -30.1651
   -20.0785 -20.0785 -20.0785 -20.0785 -20.0783 -20.0783 -20.0782 -20.0782
   -20.0710 -20.0710 -20.0710 -20.0710 -20.0707 -20.0707 -20.0707 -20.0707
   -20.0672 -20.0672 -20.0672 -20.0672 -20.0660 -20.0660 -20.0660 -20.0660
   -20.0648 -20.0648 -20.0648 -20.0648 -20.0630 -20.0630 -20.0630 -20.0630
   -20.0497 -20.0497 -20.0497 -20.0497 -20.0491 -20.0491 -20.0491 -20.0491
   -20.0117 -20.0117 -20.0117 -20.0117 -20.0108 -20.0108 -20.0108 -20.0108
   -20.0097 -20.0097 -20.0097 -20.0096 -20.0056 -20.0056 -20.0056 -20.0056
    -9.3610  -9.3610  -9.3610  -9.3610  -8.6148  -8.6148  -8.6148  -8.6147
    -8.5201  -8.5201  -8.5201  -8.5201  -8.3186  -8.3186  -8.3186  -8.3185
    -8.2395  -8.2395  -8.2395  -8.2395  -7.5878  -7.5878  -7.5878  -7.5878
     1.5059   1.5059   1.5059   1.5059   3.0883   3.0883   3.0883   3.0883
     3.2126   3.2126   3.2126   3.2126   3.3193   3.3194   3.3194   3.3194
     3.3672   3.3672   3.3672   3.3673   3.5754   3.5754   3.5754   3.5754
     3.7152   3.7152   3.7152   3.7152   4.3856   4.3856   4.3856   4.3856
     4.5004   4.5004   4.5004   4.5004   5.3111   5.3111   5.3111   5.3111
     5.6059   5.6060   5.6060   5.6060   6.4061   6.4062   6.4062   6.4062
     6.5973   6.5973   6.5973   6.5974   6.7176   6.7176   6.7176   6.7176
     7.3511   7.3511   7.3512   7.3512   7.4362   7.4362   7.4362   7.4362
     7.5339   7.5339   7.5339   7.5339   7.6652   7.6652   7.6652   7.6652
    11.3084  11.3084  11.3084  11.3084  11.5055  11.5055  11.5055  11.5055
    12.3944  12.3944  12.3944  12.3944  12.4341  12.4341  12.4341  12.4341
    12.9954  12.9954  12.9954  12.9954  13.6855  13.6855  13.6855  13.6855
    15.6375  15.6375  15.6375  15.6375  16.9022  16.9022  16.9022  16.9022
    17.4326  17.4327  17.4327  17.4327  17.5715

          k = 0.1667 0.0000 0.0000 ( 62098 PWs)   bands (ev):

   -65.9284 -65.9280 -65.9275 -65.9274 -65.9271 -65.9270 -65.9265 -65.9261
   -30.3895 -30.3855 -30.3853 -30.3815 -30.3314 -30.3264 -30.3263 -30.3214
   -30.2750 -30.2725 -30.2683 -30.2666 -30.2611 -30.2580 -30.2545 -30.2524
   -30.1761 -30.1740 -30.1737 -30.1732 -30.1720 -30.1718 -30.1664 -30.1654
   -20.0810 -20.0808 -20.0806 -20.0804 -20.0765 -20.0763 -20.0759 -20.0757
   -20.0713 -20.0711 -20.0709 -20.0709 -20.0707 -20.0706 -20.0706 -20.0702
   -20.0682 -20.0677 -20.0674 -20.0672 -20.0672 -20.0659 -20.0654 -20.0652
   -20.0652 -20.0649 -20.0643 -20.0636 -20.0633 -20.0630 -20.0628 -20.0626
   -20.0499 -20.0498 -20.0496 -20.0495 -20.0494 -20.0493 -20.0490 -20.0489
   -20.0139 -20.0139 -20.0126 -20.0125 -20.0116 -20.0115 -20.0103 -20.0103
   -20.0079 -20.0079 -20.0071 -20.0070 -20.0066 -20.0066 -20.0053 -20.0052
    -9.8153  -9.5045  -9.4392  -9.3649  -9.1382  -9.0293  -9.0226  -8.8860
    -8.8664  -8.7885  -8.7700  -8.7275  -7.8331  -7.7820  -7.7661  -7.7391
    -7.7379  -7.6846  -7.6778  -7.6509  -7.6418  -7.6293  -7.5406  -7.5165
     1.4260   1.4271   1.4447   1.4494   1.5450   1.5852   1.6989   1.7020
     1.7190   1.8284   1.9643   2.1097   2.5812   2.6549   2.6692   2.7251
     2.7944   2.8796   4.1499   4.2384   4.4434   4.4577   4.5183   4.5845
     4.7133   4.8601   4.8967   4.9833   4.9951   5.1100   5.1625   5.4384
     5.4780   5.4867   5.5795   5.5967   5.6435   5.6728   5.7174   5.7324
     5.8293   5.8448   5.8685   5.9981   6.0709   6.1471   6.1678   6.2164
     6.3625   6.4824   6.5200   6.6062   6.7676   6.7816   6.8246   6.8659
     6.8934   6.9549   7.0185   7.0543   7.0709   7.1209   7.2823   7.2899
     7.2917   7.3321   7.8828   7.8876   8.0641   8.1269   8.1615   8.2109
     9.8577   9.8942  10.1598  10.1932  10.3979  10.4610  12.3255  12.3873
    12.4383  12.4483  12.5082  12.5599  12.6572  12.7730  12.8937  13.0226
    13.2863  13.3001  13.4257  13.5198  13.9030  14.0375  14.2565  14.2623
    14.3290  14.5290  14.7274  15.0166  15.5829  15.6263  15.6486  16.1517
    16.5052  16.8393  17.0692  17.3419  17.5559

          k = 0.1667 0.0000 0.1664 ( 62075 PWs)   bands (ev):

   -65.9284 -65.9279 -65.9275 -65.9275 -65.9271 -65.9270 -65.9266 -65.9262
   -30.3893 -30.3856 -30.3853 -30.3818 -30.3310 -30.3267 -30.3260 -30.3218
   -30.2694 -30.2675 -30.2621 -30.2608 -30.2585 -30.2583 -30.2531 -30.2527
   -30.1809 -30.1789 -30.1787 -30.1767 -30.1751 -30.1718 -30.1699 -30.1670
   -20.0810 -20.0808 -20.0807 -20.0805 -20.0765 -20.0763 -20.0760 -20.0758
   -20.0713 -20.0711 -20.0709 -20.0709 -20.0707 -20.0706 -20.0705 -20.0702
   -20.0681 -20.0675 -20.0673 -20.0672 -20.0670 -20.0659 -20.0655 -20.0652
   -20.0651 -20.0651 -20.0644 -20.0635 -20.0634 -20.0630 -20.0628 -20.0627
   -20.0499 -20.0498 -20.0496 -20.0495 -20.0494 -20.0492 -20.0490 -20.0489
   -20.0135 -20.0135 -20.0122 -20.0122 -20.0114 -20.0114 -20.0104 -20.0104
   -20.0083 -20.0083 -20.0074 -20.0073 -20.0066 -20.0066 -20.0054 -20.0053
    -9.7673  -9.4452  -9.3818  -9.3818  -9.0498  -9.0381  -9.0379  -8.8454
    -8.8310  -8.7806  -8.7367  -8.7327  -7.8363  -7.7958  -7.7740  -7.7733
    -7.7604  -7.7413  -7.7299  -7.6881  -7.6801  -7.6655  -7.6381  -7.6187
     1.5286   1.5756   1.5772   1.6224   1.6224   1.6910   1.7054   1.7256
     1.8082   1.8309   2.0403   2.1835   2.6707   2.7339   2.7419   2.7657
     2.8607   2.8985   4.1525   4.1659   4.4221   4.4356   4.5617   4.5640
     4.6385   4.6407   4.7424   4.7527   4.8429   4.9146   5.1516   5.3529
     5.3605   5.4209   5.4538   5.5569   5.5807   5.7005   5.7163   5.7590
     5.7732   5.8015   5.8397   5.8499   5.8633   6.0776   6.3573   6.4792
     6.4830   6.5426   6.6291   6.7067   6.7482   6.7558   6.7570   6.7998
     6.8393   6.9143   6.9525   6.9591   6.9933   7.0455   7.0510   7.1691
     7.3803   7.4403   7.8865   7.8872   8.0746   8.1296   8.1361   8.1680
    10.0660  10.1348  10.3952  10.4117  10.4336  10.5276  12.3767  12.3825
    12.4304  12.4368  12.4854  12.5227  12.7419  12.7669  12.9281  13.0344
    13.1619  13.2927  13.3179  13.4742  13.9548  14.0216  14.1178  14.1519
    14.3713  14.6432  14.7194  15.1342  15.5507  15.6993  15.7136  16.4439
    16.4706  17.0051  17.0246  17.2158  17.5979

          k = 0.1667 0.0000 0.3328 ( 62092 PWs)   bands (ev):

   -65.9282 -65.9277 -65.9277 -65.9273 -65.9272 -65.9269 -65.9268 -65.9264
   -30.3886 -30.3865 -30.3847 -30.3826 -30.3300 -30.3276 -30.3251 -30.3226
   -30.2626 -30.2597 -30.2591 -30.2541 -30.2460 -30.2454 -30.2428 -30.2418
   -30.1989 -30.1968 -30.1957 -30.1933 -30.1745 -30.1721 -30.1710 -30.1686
   -20.0810 -20.0808 -20.0807 -20.0805 -20.0764 -20.0762 -20.0761 -20.0759
   -20.0712 -20.0710 -20.0710 -20.0708 -20.0707 -20.0706 -20.0704 -20.0702
   -20.0679 -20.0674 -20.0671 -20.0668 -20.0667 -20.0662 -20.0658 -20.0656
   -20.0651 -20.0648 -20.0646 -20.0638 -20.0634 -20.0630 -20.0629 -20.0628
   -20.0498 -20.0497 -20.0497 -20.0496 -20.0493 -20.0492 -20.0491 -20.0490
   -20.0126 -20.0126 -20.0114 -20.0114 -20.0110 -20.0110 -20.0107 -20.0107
   -20.0094 -20.0094 -20.0084 -20.0084 -20.0064 -20.0064 -20.0056 -20.0056
    -9.6506  -9.4340  -9.3046  -9.2494  -9.0848  -9.0683  -8.7988  -8.7852
    -8.7466  -8.7023  -8.6837  -8.6117  -8.0890  -8.0885  -8.0116  -7.9879
    -7.7933  -7.7668  -7.7371  -7.7297  -7.7202  -7.6974  -7.6717  -7.6598
     1.5405   1.5632   1.6407   1.6744   1.7420   1.7629   1.8188   1.8394
     2.3885   2.4237   2.5568   2.6441   2.7577   2.8500   2.9410   2.9859
     3.0510   3.1403   3.8696   3.9545   4.0233   4.0262   4.2347   4.4004
     4.4067   4.5667   4.6103   4.6509   4.6904   4.8504   4.8715   4.9991
     5.1109   5.1253   5.1875   5.3107   5.3784   5.4394   5.6286   5.7376
     5.7520   5.8284   5.8545   5.8719   5.9005   6.0849   6.2177   6.2757
     6.4899   6.5023   6.5546   6.6287   6.6306   6.7370   6.7430   6.7876
     6.8390   6.9481   6.9647   6.9700   7.1940   7.2059   7.2767   7.3172
     7.3993   7.4399   7.8423   7.8565   7.9868   8.0322   8.1230   8.1324
    10.3842  10.3859  10.6962  10.7774  11.0222  11.1455  12.0318  12.0889
    12.2775  12.5312  12.5904  12.6128  12.6606  12.7670  12.9126  12.9222
    12.9905  13.1921  13.2077  13.4093  13.7783  13.7968  14.0116  14.0472
    14.5163  14.6930  14.9452  15.4460  15.4486  15.9383  16.0983  16.3766
    16.4462  17.2679  17.4530  17.5709  17.6606

          k = 0.1667 0.0000-0.4993 ( 62142 PWs)   bands (ev):

   -65.9279 -65.9279 -65.9275 -65.9275 -65.9270 -65.9270 -65.9266 -65.9266
   -30.3876 -30.3876 -30.3837 -30.3837 -30.3288 -30.3288 -30.3238 -30.3238
   -30.2607 -30.2607 -30.2558 -30.2558 -30.2231 -30.2231 -30.2213 -30.2213
   -30.2197 -30.2197 -30.2175 -30.2175 -30.1734 -30.1734 -30.1699 -30.1699
   -20.0809 -20.0809 -20.0807 -20.0807 -20.0763 -20.0763 -20.0761 -20.0761
   -20.0711 -20.0711 -20.0708 -20.0708 -20.0707 -20.0707 -20.0703 -20.0703
   -20.0676 -20.0676 -20.0666 -20.0666 -20.0662 -20.0662 -20.0662 -20.0662
   -20.0649 -20.0649 -20.0643 -20.0643 -20.0632 -20.0632 -20.0629 -20.0629
   -20.0497 -20.0497 -20.0496 -20.0496 -20.0492 -20.0492 -20.0491 -20.0491
   -20.0115 -20.0115 -20.0115 -20.0115 -20.0105 -20.0105 -20.0105 -20.0105
   -20.0097 -20.0097 -20.0097 -20.0097 -20.0060 -20.0060 -20.0060 -20.0060
    -9.5256  -9.5256  -9.1704  -9.1704  -9.1327  -9.1327  -8.7649  -8.7649
    -8.4567  -8.4567  -8.4463  -8.4463  -8.3938  -8.3937  -8.3386  -8.3386
    -7.7788  -7.7788  -7.7120  -7.7120  -7.7069  -7.7069  -7.6925  -7.6925
     1.5498   1.5498   1.6577   1.6577   1.7627   1.7627   1.8478   1.8478
     2.7838   2.7838   3.0945   3.0946   3.1786   3.1786   3.2962   3.2962
     3.3996   3.3996   3.4968   3.4968   3.6534   3.6534   3.8918   3.8918
     3.9607   3.9607   4.5161   4.5161   4.6041   4.6041   4.9774   4.9774
     5.1153   5.1153   5.1599   5.1599   5.3243   5.3243   5.6865   5.6865
     5.8616   5.8616   5.8714   5.8714   5.9805   5.9806   6.0486   6.0486
     6.4150   6.4150   6.5079   6.5079   6.7308   6.7308   6.7697   6.7697
     6.9145   6.9145   7.0337   7.0337   7.0974   7.0974   7.6180   7.6180
     7.6615   7.6615   7.7515   7.7515   7.7900   7.7900   8.1315   8.1315
    10.4003  10.4003  11.3912  11.3912  11.4798  11.4798  11.7205  11.7205
    11.9165  11.9165  12.7177  12.7177  12.7830  12.7830  12.8606  12.8606
    13.0350  13.0350  13.3737  13.3737  13.4829  13.4829  14.0276  14.0276
    14.6359  14.6359  15.2476  15.2476  15.8954  15.8954  16.1965  16.1965
    16.8488  16.8488  17.8570  17.8573  17.9423

          k = 0.1667 0.1580 0.0000 ( 62072 PWs)   bands (ev):

   -65.9284 -65.9280 -65.9275 -65.9274 -65.9271 -65.9270 -65.9265 -65.9261
   -30.3855 -30.3815 -30.3813 -30.3775 -30.3351 -30.3303 -30.3301 -30.3255
   -30.2748 -30.2727 -30.2683 -30.2668 -30.2608 -30.2577 -30.2550 -30.2528
   -30.1759 -30.1739 -30.1738 -30.1731 -30.1721 -30.1719 -30.1664 -30.1656
   -20.0807 -20.0805 -20.0803 -20.0801 -20.0768 -20.0766 -20.0762 -20.0760
   -20.0713 -20.0711 -20.0710 -20.0709 -20.0707 -20.0706 -20.0706 -20.0702
   -20.0681 -20.0677 -20.0673 -20.0672 -20.0671 -20.0660 -20.0653 -20.0653
   -20.0652 -20.0649 -20.0642 -20.0636 -20.0633 -20.0631 -20.0628 -20.0626
   -20.0499 -20.0498 -20.0496 -20.0495 -20.0494 -20.0493 -20.0490 -20.0489
   -20.0139 -20.0139 -20.0126 -20.0125 -20.0116 -20.0115 -20.0103 -20.0103
   -20.0079 -20.0079 -20.0071 -20.0070 -20.0066 -20.0066 -20.0053 -20.0052
    -9.7833  -9.5167  -9.4001  -9.3200  -9.1463  -9.0311  -8.9551  -8.8833
    -8.8674  -8.7466  -8.7338  -8.6969  -7.9028  -7.8474  -7.8377  -7.7952
    -7.7880  -7.7683  -7.6772  -7.6539  -7.6449  -7.6278  -7.5391  -7.5187
     1.4393   1.4420   1.4455   1.4496   1.6677   1.7055   1.7223   1.8988
     1.9273   1.9655   1.9796   2.2043   2.5884   2.6631   2.7287   2.7996
     2.8661   2.9475   4.0459   4.1138   4.1794   4.2495   4.4919   4.5814
     4.7095   4.7863   4.9404   4.9589   4.9824   4.9996   5.0679   5.3216
     5.3779   5.4068   5.4529   5.5866   5.6473   5.6662   5.7148   5.7497
     5.8293   5.8538   5.8932   5.9367   5.9527   6.1640   6.1767   6.2215
     6.3130   6.4860   6.4949   6.6350   6.7771   6.8197   6.8622   6.8716
     6.9122   6.9613   7.0027   7.0353   7.0589   7.0936   7.2839   7.2897
     7.3015   7.3311   7.8833   7.8868   8.0322   8.0646   8.1064   8.1297
     9.8664   9.8950  10.3461  10.3532  10.5659  10.6027  12.2365  12.3916
    12.3969  12.4302  12.4832  12.4901  12.5162  12.6422  12.9170  13.0175
    13.3040  13.3195  13.4375  13.5131  13.9559  13.9828  14.1603  14.1690
    14.4930  14.8033  14.9772  15.1768  15.6271  15.6463  15.9763  16.1257
    16.4687  16.7359  16.9680  17.4460  17.6296

          k = 0.1667 0.1580 0.1664 ( 62085 PWs)   bands (ev):

   -65.9283 -65.9280 -65.9275 -65.9274 -65.9271 -65.9271 -65.9266 -65.9262
   -30.3853 -30.3817 -30.3813 -30.3778 -30.3348 -30.3306 -30.3298 -30.3258
   -30.2693 -30.2676 -30.2621 -30.2609 -30.2584 -30.2580 -30.2536 -30.2531
   -30.1808 -30.1789 -30.1788 -30.1769 -30.1749 -30.1720 -30.1697 -30.1672
   -20.0807 -20.0805 -20.0803 -20.0801 -20.0768 -20.0765 -20.0763 -20.0761
   -20.0713 -20.0711 -20.0710 -20.0709 -20.0707 -20.0706 -20.0706 -20.0703
   -20.0680 -20.0675 -20.0672 -20.0672 -20.0670 -20.0660 -20.0654 -20.0652
   -20.0651 -20.0651 -20.0644 -20.0635 -20.0635 -20.0630 -20.0628 -20.0627
   -20.0499 -20.0498 -20.0496 -20.0495 -20.0494 -20.0492 -20.0490 -20.0489
   -20.0135 -20.0135 -20.0122 -20.0122 -20.0114 -20.0114 -20.0104 -20.0104
   -20.0083 -20.0083 -20.0074 -20.0073 -20.0066 -20.0066 -20.0054 -20.0053
    -9.7338  -9.4576  -9.3382  -9.3372  -9.0580  -9.0466  -8.9641  -8.8443
    -8.8318  -8.7385  -8.7051  -8.7018  -7.9047  -7.8501  -7.8437  -7.8030
    -7.7938  -7.7792  -7.7637  -7.7592  -7.6823  -7.6623  -7.6394  -7.6209
     1.6170   1.6214   1.6620   1.6712   1.7053   1.7135   1.7332   1.8971
     1.9590   1.9763   2.0401   2.2571   2.6798   2.7595   2.8084   2.8177
     2.9336   2.9640   4.0591   4.0822   4.2066   4.2315   4.5328   4.5561
     4.6302   4.6454   4.7222   4.7690   4.7803   4.8628   4.9771   5.2631
     5.3141   5.3281   5.3774   5.4577   5.4781   5.6386   5.6592   5.7018
     5.8182   5.8348   5.8513   5.8686   5.8785   5.9264   6.3610   6.4448
     6.4593   6.4884   6.6244   6.7114   6.7599   6.7847   6.8441   6.8475
     6.8816   6.8935   6.9671   6.9865   7.0173   7.0297   7.0652   7.1774
     7.3854   7.4381   7.8858   7.8872   8.0288   8.0682   8.0839   8.0922
    10.0883  10.1399  10.5440  10.5665  10.5867  10.6576  12.3029  12.3546
    12.4200  12.4423  12.4471  12.4557  12.6067  12.6223  12.9542  13.0317
    13.1817  13.3036  13.3131  13.4731  13.9538  13.9664  14.0190  14.0698
    14.5871  14.9390  14.9725  15.2779  15.7004  15.7111  15.9489  16.4130
    16.4361  16.8612  17.1125  17.1319  17.6698

          k = 0.1667 0.1580 0.3328 ( 62111 PWs)   bands (ev):

   -65.9281 -65.9278 -65.9276 -65.9273 -65.9273 -65.9269 -65.9268 -65.9264
   -30.3846 -30.3825 -30.3807 -30.3786 -30.3338 -30.3314 -30.3290 -30.3267
   -30.2624 -30.2597 -30.2589 -30.2545 -30.2461 -30.2455 -30.2429 -30.2419
   -30.1988 -30.1969 -30.1956 -30.1935 -30.1743 -30.1718 -30.1713 -30.1688
   -20.0806 -20.0804 -20.0804 -20.0802 -20.0767 -20.0765 -20.0764 -20.0762
   -20.0712 -20.0710 -20.0710 -20.0709 -20.0707 -20.0707 -20.0705 -20.0703
   -20.0678 -20.0673 -20.0671 -20.0667 -20.0666 -20.0663 -20.0657 -20.0655
   -20.0651 -20.0648 -20.0646 -20.0639 -20.0634 -20.0630 -20.0629 -20.0629
   -20.0498 -20.0497 -20.0497 -20.0496 -20.0493 -20.0492 -20.0491 -20.0490
   -20.0126 -20.0126 -20.0114 -20.0114 -20.0110 -20.0110 -20.0107 -20.0107
   -20.0094 -20.0094 -20.0084 -20.0084 -20.0064 -20.0064 -20.0056 -20.0056
    -9.6131  -9.3905  -9.3168  -9.1926  -9.0942  -8.9949  -8.8075  -8.7624
    -8.7154  -8.7034  -8.6671  -8.5933  -8.0964  -8.0866  -8.0316  -7.9858
    -7.8668  -7.8495  -7.8221  -7.7930  -7.7503  -7.7317  -7.6772  -7.6599
     1.6744   1.6888   1.7407   1.7611   1.8502   1.8610   1.9397   1.9759
     2.3873   2.4328   2.5595   2.6574   2.8308   2.9117   2.9622   3.0477
     3.0616   3.1983   3.8722   3.9530   3.9795   4.0185   4.2135   4.2616
     4.3171   4.4714   4.5603   4.6595   4.6987   4.7901   4.8290   4.8934
     4.9453   5.0333   5.0787   5.2188   5.2940   5.3439   5.4204   5.6778
     5.7036   5.7188   5.8361   5.8752   5.8863   5.9015   6.2198   6.2721
     6.4418   6.5824   6.6079   6.6918   6.7529   6.7556   6.7800   6.8564
     6.9004   6.9479   6.9840   7.0240   7.1945   7.1997   7.2751   7.3197
     7.3941   7.4328   7.8434   7.8536   7.9418   7.9735   8.0648   8.0719
    10.5193  10.5430  10.7248  10.7917  11.1308  11.2270  12.0321  12.0849
    12.2632  12.5068  12.5774  12.5970  12.6177  12.6679  12.8337  12.8723
    12.9433  13.1778  13.1967  13.4047  13.6717  13.7030  13.9721  13.9951
    14.7859  14.9484  15.2897  15.5598  15.8472  15.9320  16.1070  16.3456
    16.5525  17.2290  17.2585  17.5163  17.6152

          k = 0.1667 0.1580-0.4993 ( 62114 PWs)   bands (ev):

   -65.9279 -65.9279 -65.9275 -65.9275 -65.9270 -65.9270 -65.9266 -65.9266
   -30.3836 -30.3836 -30.3797 -30.3797 -30.3326 -30.3326 -30.3278 -30.3278
   -30.2605 -30.2605 -30.2562 -30.2562 -30.2231 -30.2231 -30.2215 -30.2215
   -30.2196 -30.2196 -30.2177 -30.2177 -30.1732 -30.1732 -30.1701 -30.1701
   -20.0805 -20.0805 -20.0803 -20.0803 -20.0765 -20.0765 -20.0764 -20.0764
   -20.0711 -20.0711 -20.0708 -20.0708 -20.0708 -20.0708 -20.0704 -20.0704
   -20.0675 -20.0675 -20.0667 -20.0667 -20.0662 -20.0662 -20.0661 -20.0661
   -20.0649 -20.0649 -20.0644 -20.0644 -20.0632 -20.0632 -20.0629 -20.0629
   -20.0497 -20.0497 -20.0496 -20.0496 -20.0492 -20.0492 -20.0491 -20.0491
   -20.0115 -20.0115 -20.0115 -20.0115 -20.0105 -20.0105 -20.0105 -20.0105
   -20.0097 -20.0097 -20.0097 -20.0097 -20.0060 -20.0060 -20.0060 -20.0060
    -9.4843  -9.4843  -9.1813  -9.1813  -9.0634  -9.0634  -8.7337  -8.7337
    -8.4609  -8.4609  -8.4479  -8.4479  -8.3965  -8.3965  -8.3335  -8.3334
    -7.8619  -7.8619  -7.8110  -7.8110  -7.7141  -7.7141  -7.6954  -7.6954
     1.6826   1.6826   1.7610   1.7610   1.8630   1.8630   1.9748   1.9748
     2.8522   2.8522   3.1137   3.1138   3.1969   3.1969   3.3101   3.3101
     3.4027   3.4027   3.5062   3.5062   3.6433   3.6434   3.8954   3.8955
     4.0090   4.0090   4.3667   4.3667   4.5648   4.5648   4.7776   4.7776
     4.9989   4.9989   5.1220   5.1221   5.1990   5.1990   5.5260   5.5260
     5.7615   5.7615   5.8237   5.8237   5.9257   5.9257   5.9928   5.9928
     6.5381   6.5381   6.6681   6.6681   6.7153   6.7153   6.8278   6.8279
     6.9773   6.9773   7.0055   7.0055   7.1219   7.1219   7.6171   7.6171
     7.6566   7.6566   7.7238   7.7238   7.7591   7.7591   8.0702   8.0702
    10.5608  10.5608  11.3985  11.3985  11.4791  11.4791  11.7864  11.7864
    11.9725  11.9725  12.6483  12.6483  12.7182  12.7182  12.8346  12.8346
    13.0128  13.0128  13.2670  13.2670  13.4238  13.4238  13.9763  13.9763
    14.9001  14.9001  15.6184  15.6184  16.0133  16.0133  16.1746  16.1746
    16.8800  16.8800  17.6803  17.6803  17.9538

          k = 0.1667 0.3160 0.0000 ( 62081 PWs)   bands (ev):

   -65.9283 -65.9281 -65.9274 -65.9273 -65.9272 -65.9271 -65.9264 -65.9262
   -30.3747 -30.3706 -30.3704 -30.3665 -30.3455 -30.3410 -30.3408 -30.3365
   -30.2745 -30.2732 -30.2681 -30.2672 -30.2599 -30.2574 -30.2559 -30.2539
   -30.1754 -30.1740 -30.1735 -30.1729 -30.1724 -30.1724 -30.1664 -30.1659
   -20.0798 -20.0796 -20.0794 -20.0792 -20.0775 -20.0773 -20.0770 -20.0768
   -20.0713 -20.0711 -20.0711 -20.0709 -20.0708 -20.0707 -20.0706 -20.0704
   -20.0680 -20.0677 -20.0673 -20.0672 -20.0669 -20.0662 -20.0653 -20.0653
   -20.0652 -20.0649 -20.0641 -20.0635 -20.0635 -20.0632 -20.0629 -20.0627
   -20.0499 -20.0499 -20.0496 -20.0495 -20.0494 -20.0493 -20.0490 -20.0489
   -20.0139 -20.0139 -20.0126 -20.0125 -20.0116 -20.0115 -20.0103 -20.0103
   -20.0079 -20.0079 -20.0071 -20.0070 -20.0066 -20.0066 -20.0053 -20.0052
    -9.7052  -9.5545  -9.3104  -9.2154  -9.1730  -9.0593  -8.8787  -8.8702
    -8.7456  -8.6114  -8.6100  -8.5873  -8.1366  -8.0916  -8.0849  -8.0664
    -7.7902  -7.7772  -7.6731  -7.6598  -7.6428  -7.6314  -7.5351  -7.5235
     1.4443   1.4452   1.4486   1.4500   1.7072   1.7170   1.9084   1.9589
     2.4402   2.5594   2.5912   2.6053   2.6476   2.7419   2.9560   3.0207
     3.0856   3.1524   3.6892   3.7180   3.7839   3.8208   4.1961   4.4779
     4.5406   4.5671   4.6349   4.8092   4.8422   4.9343   4.9873   5.0101
     5.1267   5.1374   5.3043   5.4155   5.4919   5.5723   5.6635   5.7129
     5.7733   5.8705   5.8734   5.9152   6.1283   6.1610   6.1850   6.2274
     6.3251   6.4630   6.4945   6.6439   6.7095   6.9138   6.9368   6.9814
     7.0257   7.0381   7.1252   7.1512   7.1625   7.1718   7.2904   7.2926
     7.3385   7.3402   7.8346   7.8616   7.8869   7.9075   7.9125   7.9182
     9.8800   9.8940  10.7907  10.8318  11.0000  11.0085  11.9011  12.0444
    12.0827  12.1596  12.4082  12.4217  12.5132  12.5451  12.9674  13.0119
    13.3717  13.3909  13.5128  13.5604  13.7795  13.7881  13.9308  13.9478
    15.0278  15.3596  15.5355  15.6410  15.6563  15.7824  16.0133  16.1751
    16.3448  16.9649  17.3358  17.4162  17.8520

          k = 0.1667 0.3160 0.1664 ( 62082 PWs)   bands (ev):

   -65.9283 -65.9280 -65.9274 -65.9274 -65.9272 -65.9271 -65.9265 -65.9263
   -30.3744 -30.3708 -30.3703 -30.3668 -30.3452 -30.3412 -30.3406 -30.3368
   -30.2689 -30.2679 -30.2619 -30.2612 -30.2579 -30.2573 -30.2548 -30.2542
   -30.1804 -30.1793 -30.1784 -30.1772 -30.1743 -30.1726 -30.1693 -30.1678
   -20.0798 -20.0796 -20.0795 -20.0792 -20.0775 -20.0773 -20.0771 -20.0769
   -20.0713 -20.0711 -20.0710 -20.0709 -20.0708 -20.0707 -20.0706 -20.0704
   -20.0679 -20.0676 -20.0671 -20.0670 -20.0670 -20.0663 -20.0653 -20.0653
   -20.0652 -20.0651 -20.0642 -20.0637 -20.0635 -20.0632 -20.0629 -20.0628
   -20.0499 -20.0498 -20.0496 -20.0495 -20.0493 -20.0493 -20.0490 -20.0490
   -20.0135 -20.0135 -20.0122 -20.0122 -20.0114 -20.0114 -20.0104 -20.0104
   -20.0083 -20.0083 -20.0074 -20.0073 -20.0066 -20.0066 -20.0054 -20.0053
    -9.6520  -9.4960  -9.2371  -9.2330  -9.0858  -9.0755  -8.8416  -8.8347
    -8.7542  -8.6052  -8.5932  -8.5914  -8.1382  -8.0928  -8.0876  -8.0719
    -7.7901  -7.7857  -7.7696  -7.7664  -7.6795  -7.6675  -7.6367  -7.6255
     1.6185   1.6206   1.6969   1.7040   1.7141   1.7238   1.9716   2.0350
     2.4435   2.5579   2.5744   2.6976   2.7103   2.7682   3.0306   3.0533
     3.1463   3.1765   3.7231   3.7510   3.7872   3.8273   4.1849   4.5025
     4.5281   4.5662   4.5902   4.6586   4.6938   4.8108   4.8261   4.9072
     4.9577   4.9883   5.2143   5.2352   5.4665   5.4802   5.4902   5.5182
     5.7095   5.7288   5.8407   5.8574   5.8984   5.9072   6.4057   6.4557
     6.4880   6.5201   6.6072   6.6954   6.8447   6.8747   6.9175   6.9436
     6.9847   6.9995   7.0600   7.0852   7.1453   7.1622   7.1844   7.2246
     7.4088   7.4383   7.8375   7.8530   7.8672   7.8927   7.9060   7.9178
    10.1177  10.1403  10.9486  10.9788  11.0160  11.0477  11.9880  12.0575
    12.1456  12.1586  12.4297  12.4520  12.4641  12.4850  13.0094  13.0310
    13.2827  13.3587  13.3600  13.5040  13.7332  13.7780  13.7856  13.8695
    15.1715  15.5451  15.5634  15.7036  15.7164  15.8437  16.2885  16.3056
    16.3241  16.9306  17.4020  17.4712  17.4940

          k = 0.1667 0.3160 0.3328 ( 62104 PWs)   bands (ev):

   -65.9281 -65.9279 -65.9276 -65.9274 -65.9272 -65.9270 -65.9267 -65.9265
   -30.3738 -30.3716 -30.3697 -30.3677 -30.3444 -30.3421 -30.3399 -30.3377
   -30.2617 -30.2601 -30.2582 -30.2556 -30.2461 -30.2458 -30.2430 -30.2423
   -30.1984 -30.1974 -30.1952 -30.1939 -30.1737 -30.1720 -30.1712 -30.1695
   -20.0798 -20.0796 -20.0795 -20.0793 -20.0775 -20.0773 -20.0772 -20.0770
   -20.0712 -20.0710 -20.0709 -20.0709 -20.0708 -20.0707 -20.0707 -20.0705
   -20.0676 -20.0672 -20.0671 -20.0667 -20.0666 -20.0665 -20.0656 -20.0655
   -20.0651 -20.0649 -20.0645 -20.0641 -20.0634 -20.0631 -20.0630 -20.0630
   -20.0498 -20.0497 -20.0496 -20.0496 -20.0492 -20.0492 -20.0491 -20.0490
   -20.0126 -20.0126 -20.0114 -20.0114 -20.0110 -20.0110 -20.0107 -20.0107
   -20.0094 -20.0094 -20.0084 -20.0084 -20.0064 -20.0064 -20.0056 -20.0056
    -9.5223  -9.3555  -9.2879  -9.1256  -9.0517  -8.8391  -8.7882  -8.7290
    -8.7070  -8.6055  -8.5736  -8.5207  -8.1861  -8.1565  -8.0891  -8.0836
    -8.0732  -8.0190  -7.9792  -7.9324  -7.7502  -7.7379  -7.6759  -7.6644
     1.7277   1.7399   1.7513   1.7611   2.2938   2.3764   2.3848   2.4624
     2.5597   2.5746   2.5988   2.7977   2.9744   3.0326   3.0580   3.1369
     3.2929   3.3904   3.7394   3.7630   3.7768   3.8657   3.9834   4.0530
     4.1757   4.3736   4.4500   4.4864   4.5158   4.6533   4.6725   4.7651
     4.8043   4.8942   4.9044   4.9460   5.0211   5.1021   5.2340   5.2391
     5.4039   5.4313   5.5268   5.6845   5.8815   5.9140   6.2550   6.2725
     6.6113   6.6840   6.7040   6.7996   6.8773   6.8992   6.9905   7.0364
     7.0694   7.0857   7.1188   7.1438   7.2154   7.2577   7.2861   7.3379
     7.3799   7.4200   7.7858   7.7915   7.8282   7.8517   7.8723   7.9034
    10.6896  10.7242  11.0055  11.0366  11.4350  11.4887  11.9872  12.0513
    12.1024  12.2263  12.2939  12.3558  12.6019  12.6896  12.7545  12.8230
    12.9551  13.1621  13.1980  13.4262  13.4395  13.5149  13.7698  13.8043
    15.3903  15.5328  15.8962  16.0419  16.0717  16.1429  16.2604  16.7542
    16.8066  16.8915  17.1172  17.6139  17.7081

          k = 0.1667 0.3160-0.4993 ( 62120 PWs)   bands (ev):

   -65.9278 -65.9278 -65.9276 -65.9276 -65.9269 -65.9269 -65.9267 -65.9267
   -30.3727 -30.3727 -30.3687 -30.3687 -30.3432 -30.3432 -30.3388 -30.3388
   -30.2597 -30.2597 -30.2572 -30.2572 -30.2228 -30.2228 -30.2219 -30.2219
   -30.2192 -30.2192 -30.2181 -30.2181 -30.1726 -30.1726 -30.1708 -30.1708
   -20.0797 -20.0797 -20.0795 -20.0795 -20.0773 -20.0773 -20.0771 -20.0771
   -20.0710 -20.0710 -20.0709 -20.0709 -20.0708 -20.0708 -20.0706 -20.0706
   -20.0673 -20.0673 -20.0668 -20.0668 -20.0661 -20.0661 -20.0661 -20.0661
   -20.0649 -20.0649 -20.0645 -20.0645 -20.0632 -20.0632 -20.0630 -20.0630
   -20.0497 -20.0497 -20.0497 -20.0497 -20.0491 -20.0491 -20.0491 -20.0491
   -20.0115 -20.0115 -20.0115 -20.0115 -20.0105 -20.0105 -20.0105 -20.0105
   -20.0097 -20.0097 -20.0097 -20.0097 -20.0060 -20.0060 -20.0060 -20.0060
    -9.3854  -9.3854  -9.2167  -9.2167  -8.8732  -8.8732  -8.6342  -8.6342
    -8.4908  -8.4908  -8.4583  -8.4583  -8.3936  -8.3936  -8.3129  -8.3128
    -8.0847  -8.0846  -8.0460  -8.0460  -7.7130  -7.7129  -7.7009  -7.7009
     1.7475   1.7475   1.7605   1.7605   2.4471   2.4471   2.5655   2.5655
     3.0405   3.0405   3.1712   3.1712   3.2072   3.2072   3.3590   3.3590
     3.4074   3.4074   3.5479   3.5479   3.6001   3.6001   3.7859   3.7859
     4.1428   4.1428   4.1657   4.1657   4.1973   4.1973   4.4319   4.4319
     4.8181   4.8182   4.9034   4.9034   5.0679   5.0679   5.1332   5.1332
     5.2401   5.2401   5.5954   5.5954   5.9815   5.9815   5.9956   5.9956
     6.7309   6.7309   6.8345   6.8345   6.9024   6.9024   6.9407   6.9407
     7.0920   7.0920   7.1362   7.1362   7.2443   7.2443   7.5909   7.5909
     7.6221   7.6221   7.6460   7.6460   7.6865   7.6865   7.8797   7.8797
    10.9803  10.9803  11.4135  11.4135  11.4817  11.4817  11.9195  11.9195
    12.1475  12.1475  12.3205  12.3205  12.6621  12.6621  12.7107  12.7107
    12.9305  12.9305  13.0482  13.0482  13.4010  13.4010  13.7741  13.7741
    15.4857  15.4857  16.0814  16.0814  16.4035  16.4035  16.5546  16.5546
    17.0101  17.0101  17.3319  17.3319  17.9093

          k = 0.1667-0.4740 0.0000 ( 62084 PWs)   bands (ev):

   -65.9282 -65.9282 -65.9273 -65.9273 -65.9272 -65.9272 -65.9263 -65.9263
   -30.3600 -30.3600 -30.3557 -30.3557 -30.3556 -30.3556 -30.3515 -30.3515
   -30.2739 -30.2738 -30.2677 -30.2677 -30.2585 -30.2585 -30.2552 -30.2552
   -30.1746 -30.1746 -30.1729 -30.1729 -30.1727 -30.1727 -30.1663 -30.1663
   -20.0787 -20.0787 -20.0784 -20.0784 -20.0782 -20.0782 -20.0780 -20.0780
   -20.0712 -20.0712 -20.0710 -20.0710 -20.0708 -20.0708 -20.0705 -20.0705
   -20.0678 -20.0678 -20.0672 -20.0672 -20.0666 -20.0666 -20.0654 -20.0653
   -20.0650 -20.0650 -20.0638 -20.0638 -20.0634 -20.0634 -20.0628 -20.0628
   -20.0499 -20.0499 -20.0496 -20.0495 -20.0493 -20.0493 -20.0490 -20.0490
   -20.0139 -20.0139 -20.0126 -20.0125 -20.0116 -20.0115 -20.0103 -20.0103
   -20.0079 -20.0079 -20.0071 -20.0070 -20.0066 -20.0066 -20.0053 -20.0052
    -9.6196  -9.6196  -9.2260  -9.2260  -9.1177  -9.1177  -8.8742  -8.8742
    -8.4448  -8.4448  -8.3851  -8.3850  -8.3736  -8.3735  -8.3696  -8.3696
    -7.7844  -7.7844  -7.6667  -7.6667  -7.6373  -7.6373  -7.5294  -7.5294
     1.4450   1.4450   1.4500   1.4500   1.7149   1.7149   1.9482   1.9482
     2.6261   2.6261   3.1687   3.1687   3.2542   3.2542   3.3221   3.3221
     3.3742   3.3742   3.3982   3.3982   3.5848   3.5848   3.6567   3.6567
     3.7902   3.7902   4.5680   4.5680   4.9166   4.9166   5.1151   5.1151
     5.2087   5.2088   5.2832   5.2832   5.3969   5.3969   5.6012   5.6013
     5.8137   5.8137   5.8764   5.8764   6.1777   6.1777   6.2153   6.2153
     6.4597   6.4597   6.4813   6.4813   6.8002   6.8002   6.9776   6.9776
     7.0696   7.0696   7.2748   7.2748   7.2833   7.2833   7.5120   7.5120
     7.5335   7.5335   7.5767   7.5767   7.6015   7.6016   7.8928   7.8928
     9.8892   9.8893  11.3655  11.3655  11.4367  11.4367  11.5431  11.5431
    11.6162  11.6162  12.4169  12.4169  12.5290  12.5290  13.0041  13.0041
    13.4984  13.4984  13.5916  13.5916  13.6847  13.6847  13.7176  13.7176
    15.5329  15.5329  15.6782  15.6782  15.7880  15.7880  16.0744  16.0744
    16.6777  16.6777  17.9047  17.9048  18.0331

          k = 0.1667-0.4740 0.1664 ( 62086 PWs)   bands (ev):

   -65.9281 -65.9281 -65.9273 -65.9273 -65.9273 -65.9272 -65.9264 -65.9264
   -30.3597 -30.3597 -30.3560 -30.3560 -30.3554 -30.3554 -30.3518 -30.3518
   -30.2684 -30.2683 -30.2616 -30.2616 -30.2571 -30.2570 -30.2553 -30.2553
   -30.1799 -30.1798 -30.1778 -30.1778 -30.1735 -30.1735 -30.1686 -30.1686
   -20.0787 -20.0786 -20.0784 -20.0784 -20.0783 -20.0782 -20.0780 -20.0780
   -20.0712 -20.0712 -20.0709 -20.0709 -20.0708 -20.0708 -20.0705 -20.0705
   -20.0677 -20.0677 -20.0670 -20.0670 -20.0666 -20.0666 -20.0653 -20.0653
   -20.0652 -20.0651 -20.0639 -20.0639 -20.0633 -20.0633 -20.0629 -20.0629
   -20.0499 -20.0498 -20.0496 -20.0496 -20.0493 -20.0493 -20.0490 -20.0490
   -20.0135 -20.0135 -20.0122 -20.0122 -20.0114 -20.0114 -20.0104 -20.0104
   -20.0083 -20.0083 -20.0074 -20.0073 -20.0066 -20.0066 -20.0054 -20.0053
    -9.5630  -9.5630  -9.1428  -9.1426  -9.1350  -9.1349  -8.8381  -8.8381
    -8.4519  -8.4517  -8.3812  -8.3805  -8.3750  -8.3746  -8.3691  -8.3683
    -7.7865  -7.7859  -7.7708  -7.7706  -7.6738  -7.6737  -7.6314  -7.6312
     1.6186   1.6203   1.7021   1.7037   1.7212   1.7222   2.0221   2.0231
     2.7191   2.7201   3.1846   3.1853   3.2483   3.2665   3.3190   3.3311
     3.3708   3.3827   3.4225   3.4510   3.6243   3.6307   3.6566   3.6596
     3.8119   3.8153   4.5760   4.6060   4.6235   4.6573   4.9984   5.0149
     5.0825   5.0847   5.1692   5.1951   5.2232   5.2493   5.5325   5.5343
     5.5712   5.5745   5.8405   5.8674   5.8774   5.8964   6.4472   6.4582
[...]
    11.7109  11.7109  11.7109  11.7109  11.8360  11.8360  11.8360  11.8360
    12.1505  12.1505  12.1505  12.1505  12.3670  12.3670  12.3670  12.3670
    13.1248  13.1248  13.1248  13.1248  13.3088  13.3088  13.3088  13.3088
    15.4073  15.4073  15.4073  15.4073  16.8114  16.8115  16.8115  16.8115
    17.7288  17.7288  17.7288  17.7288  17.9758

          k =-0.5000 0.3160 0.0000 ( 62136 PWs)   bands (ev):

   -65.9279 -65.9279 -65.9277 -65.9277 -65.9269 -65.9269 -65.9267 -65.9267
   -30.3727 -30.3726 -30.3686 -30.3686 -30.3431 -30.3431 -30.3387 -30.3387
   -30.2707 -30.2707 -30.2697 -30.2697 -30.2182 -30.2182 -30.2162 -30.2162
   -30.2138 -30.2138 -30.2121 -30.2120 -30.1714 -30.1714 -30.1703 -30.1703
   -20.0797 -20.0797 -20.0793 -20.0793 -20.0775 -20.0774 -20.0770 -20.0769
   -20.0712 -20.0712 -20.0710 -20.0710 -20.0708 -20.0707 -20.0706 -20.0706
   -20.0675 -20.0675 -20.0674 -20.0674 -20.0659 -20.0659 -20.0654 -20.0654
   -20.0644 -20.0644 -20.0643 -20.0643 -20.0636 -20.0636 -20.0632 -20.0632
   -20.0496 -20.0496 -20.0495 -20.0495 -20.0493 -20.0493 -20.0492 -20.0492
   -20.0132 -20.0132 -20.0132 -20.0132 -20.0094 -20.0093 -20.0093 -20.0093
   -20.0081 -20.0081 -20.0081 -20.0080 -20.0071 -20.0071 -20.0071 -20.0071
    -9.4579  -9.4579  -9.3066  -9.3066  -8.8603  -8.8603  -8.6588  -8.6588
    -8.4640  -8.4640  -8.4570  -8.4570  -8.3985  -8.3985  -8.3029  -8.3029
    -8.0826  -8.0826  -8.0408  -8.0408  -7.6006  -7.6006  -7.5885  -7.5885
     1.4796   1.4796   1.4854   1.4854   2.4383   2.4383   2.5811   2.5811
     2.9989   2.9989   3.1218   3.1218   3.1845   3.1846   3.3503   3.3503
     3.3911   3.3911   3.4992   3.4993   3.5696   3.5696   3.7334   3.7334
     4.1115   4.1116   4.1526   4.1526   4.2671   4.2671   4.4517   4.4517
     4.8905   4.8905   4.9752   4.9752   5.1998   5.1998   5.3906   5.3906
     5.5404   5.5404   5.7963   5.7963   6.3437   6.3437   6.4021   6.4021
     6.5565   6.5565   6.6192   6.6192   6.6253   6.6253   6.8283   6.8283
     7.0975   7.0975   7.1303   7.1303   7.1469   7.1469   7.5687   7.5687
     7.5898   7.5898   7.6602   7.6602   7.6914   7.6914   7.9053   7.9053
    10.8143  10.8143  11.3487  11.3487  11.3985  11.3985  11.7829  11.7829
    12.1455  12.1455  12.2926  12.2926  12.6751  12.6751  12.7952  12.7952
    12.9656  12.9656  13.1183  13.1183  13.5444  13.5444  13.9321  13.9321
    15.2836  15.2836  15.8056  15.8056  16.3333  16.3333  16.5639  16.5639
    16.9036  16.9036  17.2954  17.2954  17.9868

          k =-0.5000 0.3160 0.1664 ( 62106 PWs)   bands (ev):

   -65.9278 -65.9278 -65.9276 -65.9276 -65.9269 -65.9269 -65.9267 -65.9267
   -30.3724 -30.3724 -30.3689 -30.3689 -30.3428 -30.3428 -30.3390 -30.3390
   -30.2643 -30.2643 -30.2632 -30.2632 -30.2179 -30.2179 -30.2160 -30.2159
   -30.2141 -30.2141 -30.2125 -30.2125 -30.1779 -30.1779 -30.1769 -30.1769
   -20.0797 -20.0797 -20.0794 -20.0794 -20.0774 -20.0774 -20.0770 -20.0770
   -20.0712 -20.0712 -20.0710 -20.0710 -20.0708 -20.0708 -20.0706 -20.0706
   -20.0673 -20.0673 -20.0673 -20.0673 -20.0660 -20.0660 -20.0655 -20.0655
   -20.0644 -20.0644 -20.0643 -20.0643 -20.0637 -20.0637 -20.0633 -20.0633
   -20.0496 -20.0496 -20.0495 -20.0495 -20.0493 -20.0493 -20.0492 -20.0492
   -20.0129 -20.0129 -20.0129 -20.0129 -20.0093 -20.0093 -20.0093 -20.0093
   -20.0083 -20.0083 -20.0082 -20.0082 -20.0074 -20.0074 -20.0074 -20.0074
    -9.3895  -9.3895  -9.2253  -9.2253  -8.8746  -8.8746  -8.6379  -8.6379
    -8.4821  -8.4821  -8.4522  -8.4522  -8.3841  -8.3841  -8.3069  -8.3069
    -8.0795  -8.0795  -8.0457  -8.0457  -7.7206  -7.7206  -7.7085  -7.7085
     1.7291   1.7291   1.7403   1.7403   2.4424   2.4424   2.5635   2.5635
     3.0673   3.0673   3.1541   3.1541   3.1896   3.1896   3.3651   3.3651
     3.4112   3.4112   3.5664   3.5664   3.6142   3.6142   3.7842   3.7842
     4.1040   4.1040   4.1604   4.1604   4.2626   4.2626   4.4557   4.4557
     4.8059   4.8059   4.8803   4.8803   5.0671   5.0671   5.1348   5.1348
     5.2485   5.2485   5.5925   5.5925   5.9722   5.9722   5.9893   5.9893
     6.7306   6.7306   6.8513   6.8513   6.9124   6.9124   6.9440   6.9440
     7.0751   7.0751   7.1445   7.1445   7.2297   7.2298   7.5761   7.5761
     7.6044   7.6044   7.6729   7.6729   7.7036   7.7036   7.8857   7.8857
    10.9761  10.9761  11.4228  11.4229  11.4782  11.4782  11.8433  11.8433
    12.1590  12.1590  12.3305  12.3305  12.6616  12.6616  12.7607  12.7608
    12.9348  12.9348  13.0750  13.0750  13.3863  13.3863  13.7896  13.7896
    15.4876  15.4876  16.0604  16.0604  16.4007  16.4008  16.5568  16.5568
    16.9632  16.9632  17.3341  17.3341  17.8909

          k =-0.5000 0.3160 0.3328 ( 62104 PWs)   bands (ev):

   -65.9276 -65.9276 -65.9274 -65.9274 -65.9271 -65.9271 -65.9269 -65.9269
   -30.3718 -30.3718 -30.3697 -30.3697 -30.3421 -30.3421 -30.3398 -30.3398
   -30.2468 -30.2468 -30.2456 -30.2456 -30.2171 -30.2170 -30.2162 -30.2162
   -30.2141 -30.2141 -30.2137 -30.2137 -30.1951 -30.1951 -30.1944 -30.1944
   -20.0797 -20.0797 -20.0795 -20.0795 -20.0774 -20.0774 -20.0771 -20.0771
   -20.0711 -20.0711 -20.0709 -20.0709 -20.0708 -20.0708 -20.0707 -20.0707
   -20.0670 -20.0670 -20.0669 -20.0669 -20.0662 -20.0662 -20.0658 -20.0658
   -20.0643 -20.0643 -20.0642 -20.0642 -20.0639 -20.0638 -20.0636 -20.0636
   -20.0495 -20.0495 -20.0494 -20.0494 -20.0493 -20.0493 -20.0493 -20.0493
   -20.0119 -20.0119 -20.0119 -20.0119 -20.0094 -20.0094 -20.0094 -20.0094
   -20.0086 -20.0086 -20.0086 -20.0086 -20.0079 -20.0079 -20.0079 -20.0079
    -9.2158  -9.2158  -9.0028  -9.0028  -8.9241  -8.9241  -8.5746  -8.5745
    -8.5352  -8.5352  -8.4212  -8.4212  -8.3570  -8.3570  -8.3148  -8.3148
    -8.0850  -8.0850  -8.0648  -8.0648  -8.0089  -8.0089  -7.9736  -7.9735
     2.3223   2.3223   2.4158   2.4158   2.4575   2.4575   2.5972   2.5972
     3.1392   3.1392   3.1909   3.1909   3.2896   3.2896   3.3785   3.3786
     3.4605   3.4605   3.7139   3.7139   3.8114   3.8114   3.9133   3.9133
     4.0749   4.0749   4.1813   4.1813   4.2579   4.2579   4.3169   4.3169
     4.4315   4.4315   4.5653   4.5653   4.7205   4.7205   4.9273   4.9273
     5.0306   5.0306   5.1225   5.1225   5.1747   5.1747   5.3810   5.3810
     6.9042   6.9042   6.9610   6.9610   7.0368   7.0368   7.0920   7.0920
     7.2442   7.2442   7.3753   7.3753   7.4642   7.4642   7.5703   7.5703
     7.6211   7.6211   7.6972   7.6972   7.7176   7.7176   7.8341   7.8341
    11.3940  11.3940  11.6552  11.6552  11.7414  11.7414  11.9468  11.9468
    12.2130  12.2130  12.4608  12.4608  12.4982  12.4983  12.5329  12.5329
    12.8598  12.8598  12.9485  12.9485  13.0123  13.0123  13.4163  13.4163
    15.9895  15.9895  16.4529  16.4529  16.6361  16.6361  16.8111  16.8111
    17.1892  17.1892  17.3993  17.3993  17.6710

          k =-0.5000 0.3160-0.4993 ( 62052 PWs)   bands (ev):

   -65.9274 -65.9274 -65.9274 -65.9274 -65.9272 -65.9272 -65.9272 -65.9272
   -30.3708 -30.3708 -30.3708 -30.3708 -30.3410 -30.3410 -30.3410 -30.3410
   -30.2251 -30.2251 -30.2251 -30.2251 -30.2227 -30.2227 -30.2227 -30.2227
   -30.2133 -30.2133 -30.2133 -30.2133 -30.2105 -30.2105 -30.2105 -30.2105
   -20.0796 -20.0796 -20.0796 -20.0796 -20.0773 -20.0773 -20.0773 -20.0773
   -20.0710 -20.0709 -20.0709 -20.0709 -20.0708 -20.0707 -20.0707 -20.0707
   -20.0666 -20.0666 -20.0666 -20.0666 -20.0663 -20.0663 -20.0663 -20.0663
   -20.0641 -20.0641 -20.0641 -20.0641 -20.0639 -20.0639 -20.0639 -20.0639
   -20.0494 -20.0494 -20.0494 -20.0494 -20.0493 -20.0493 -20.0493 -20.0493
   -20.0107 -20.0107 -20.0107 -20.0107 -20.0105 -20.0105 -20.0105 -20.0105
   -20.0085 -20.0085 -20.0085 -20.0084 -20.0083 -20.0083 -20.0083 -20.0083
    -9.0337  -9.0337  -9.0337  -9.0337  -8.7260  -8.7259  -8.7259  -8.7259
    -8.4176  -8.4176  -8.4176  -8.4176  -8.2872  -8.2871  -8.2871  -8.2871
    -8.2651  -8.2651  -8.2651  -8.2651  -8.0506  -8.0506  -8.0506  -8.0506
     2.4569   2.4569   2.4569   2.4569   3.0974   3.0974   3.0974   3.0974
     3.2077   3.2077   3.2077   3.2077   3.3413   3.3413   3.3413   3.3413
     3.4453   3.4453   3.4453   3.4453   4.0040   4.0040   4.0040   4.0040
     4.0864   4.0864   4.0864   4.0864   4.1739   4.1739   4.1739   4.1739
     4.4284   4.4284   4.4284   4.4284   4.4850   4.4850   4.4850   4.4850
     4.8013   4.8013   4.8013   4.8013   5.1197   5.1197   5.1197   5.1197
     6.9630   6.9630   6.9631   6.9631   7.0744   7.0744   7.0744   7.0744
     7.4685   7.4685   7.4685   7.4685   7.5576   7.5577   7.5577   7.5577
     7.6697   7.6697   7.6697   7.6697   7.7650   7.7650   7.7651   7.7651
    11.8606  11.8606  11.8606  11.8606  11.9713  11.9713  11.9713  11.9713
    12.1794  12.1794  12.1794  12.1794  12.4480  12.4480  12.4480  12.4480
    12.8076  12.8076  12.8076  12.8076  13.0138  13.0138  13.0138  13.0138
    16.3344  16.3344  16.3344  16.3344  16.9903  16.9903  16.9903  16.9903
    17.5128  17.5128  17.5128  17.5128  17.9578

          k =-0.5000-0.4740 0.0000 ( 62116 PWs)   bands (ev):

   -65.9278 -65.9278 -65.9278 -65.9278 -65.9268 -65.9268 -65.9268 -65.9268
   -30.3580 -30.3580 -30.3576 -30.3576 -30.3538 -30.3538 -30.3535 -30.3535
   -30.2703 -30.2703 -30.2703 -30.2703 -30.2174 -30.2174 -30.2170 -30.2170
   -30.2132 -30.2132 -30.2128 -30.2128 -30.1709 -30.1709 -30.1709 -30.1709
   -20.0786 -20.0786 -20.0785 -20.0785 -20.0782 -20.0782 -20.0781 -20.0781
   -20.0712 -20.0712 -20.0711 -20.0711 -20.0707 -20.0707 -20.0707 -20.0707
   -20.0674 -20.0674 -20.0674 -20.0674 -20.0657 -20.0657 -20.0656 -20.0656
   -20.0644 -20.0644 -20.0644 -20.0644 -20.0635 -20.0634 -20.0634 -20.0634
   -20.0496 -20.0496 -20.0496 -20.0496 -20.0492 -20.0492 -20.0492 -20.0492
   -20.0132 -20.0132 -20.0132 -20.0132 -20.0094 -20.0093 -20.0093 -20.0093
   -20.0081 -20.0081 -20.0081 -20.0081 -20.0071 -20.0071 -20.0071 -20.0071
    -9.3704  -9.3704  -9.3659  -9.3659  -8.6224  -8.6223  -8.6051  -8.6050
    -8.5238  -8.5238  -8.5095  -8.5095  -8.3290  -8.3289  -8.2948  -8.2948
    -8.2499  -8.2499  -8.2198  -8.2198  -7.5947  -7.5947  -7.5945  -7.5945
     1.4814   1.4814   1.4861   1.4861   3.0364   3.0364   3.1215   3.1215
     3.1946   3.1946   3.2162   3.2162   3.2972   3.2972   3.3001   3.3001
     3.4291   3.4291   3.4423   3.4423   3.5374   3.5374   3.5909   3.5909
     3.6097   3.6097   3.8574   3.8574   4.3547   4.3547   4.4093   4.4093
     4.4428   4.4428   4.5312   4.5312   5.2904   5.2904   5.3245   5.3245
     5.5859   5.5859   5.6248   5.6248   6.3848   6.3848   6.3989   6.3989
     6.6227   6.6227   6.6263   6.6263   6.6873   6.6873   6.7362   6.7362
     7.3237   7.3237   7.3495   7.3495   7.3656   7.3656   7.5032   7.5033
     7.5289   7.5289   7.5926   7.5926   7.6539   7.6539   7.6721   7.6721
    11.3405  11.3405  11.3503  11.3503  11.4227  11.4227  11.4377  11.4377
    12.3519  12.3519  12.4029  12.4029  12.4546  12.4546  12.5080  12.5080
    13.0036  13.0036  13.0121  13.0121  13.6811  13.6811  13.7097  13.7097
    15.6306  15.6306  15.6360  15.6360  16.8495  16.8496  16.9190  16.9190
    17.3845  17.3846  17.4458  17.4458  17.5385

          k =-0.5000-0.4740 0.1664 ( 62060 PWs)   bands (ev):

   -65.9277 -65.9277 -65.9277 -65.9277 -65.9268 -65.9268 -65.9268 -65.9268
   -30.3577 -30.3577 -30.3574 -30.3574 -30.3541 -30.3541 -30.3538 -30.3538
   -30.2638 -30.2638 -30.2638 -30.2638 -30.2171 -30.2171 -30.2167 -30.2166
   -30.2136 -30.2136 -30.2131 -30.2131 -30.1774 -30.1774 -30.1774 -30.1774
   -20.0786 -20.0786 -20.0785 -20.0785 -20.0782 -20.0782 -20.0781 -20.0781
   -20.0711 -20.0711 -20.0711 -20.0711 -20.0707 -20.0707 -20.0707 -20.0707
   -20.0673 -20.0673 -20.0673 -20.0673 -20.0658 -20.0658 -20.0657 -20.0657
   -20.0644 -20.0644 -20.0644 -20.0644 -20.0636 -20.0635 -20.0635 -20.0635
   -20.0496 -20.0496 -20.0495 -20.0495 -20.0493 -20.0493 -20.0492 -20.0492
   -20.0129 -20.0129 -20.0129 -20.0129 -20.0093 -20.0093 -20.0093 -20.0093
   -20.0083 -20.0083 -20.0082 -20.0082 -20.0074 -20.0074 -20.0074 -20.0074
    -9.2938  -9.2938  -9.2886  -9.2886  -8.6418  -8.6418  -8.6245  -8.6244
    -8.5066  -8.5066  -8.4905  -8.4905  -8.3258  -8.3258  -8.2939  -8.2939
    -8.2504  -8.2504  -8.2227  -8.2227  -7.7150  -7.7149  -7.7146  -7.7146
     1.7348   1.7348   1.7406   1.7406   3.0466   3.0466   3.1337   3.1337
     3.1909   3.1909   3.2146   3.2146   3.2860   3.2861   3.3492   3.3492
     3.4269   3.4269   3.5446   3.5446   3.5756   3.5756   3.6265   3.6265
     3.6589   3.6589   3.8823   3.8823   4.3597   4.3597   4.4029   4.4029
     4.4391   4.4391   4.5230   4.5230   4.9699   4.9699   5.1408   5.1408
     5.2416   5.2416   5.3878   5.3878   5.9738   5.9738   5.9918   5.9918
     6.8027   6.8027   6.8625   6.8625   6.9537   6.9537   6.9892   6.9892
     7.3169   7.3169   7.3393   7.3393   7.4115   7.4115   7.4854   7.4854
     7.5260   7.5260   7.5932   7.5932   7.6710   7.6710   7.6944   7.6944
    11.3907  11.3908  11.4379  11.4379  11.5167  11.5167  11.5983  11.5983
    12.3569  12.3569  12.4085  12.4085  12.4514  12.4514  12.5176  12.5176
    12.9112  12.9112  12.9830  12.9830  13.5156  13.5156  13.5690  13.5690
    15.8742  15.8742  15.8992  15.8992  16.9087  16.9087  16.9733  16.9733
    17.3906  17.3906  17.4571  17.4571  17.5329

          k =-0.5000-0.4740 0.3328 ( 62020 PWs)   bands (ev):

   -65.9275 -65.9275 -65.9275 -65.9275 -65.9270 -65.9270 -65.9270 -65.9270
   -30.3571 -30.3571 -30.3567 -30.3567 -30.3549 -30.3549 -30.3546 -30.3546
   -30.2463 -30.2463 -30.2462 -30.2462 -30.2165 -30.2165 -30.2161 -30.2161
   -30.2146 -30.2146 -30.2141 -30.2141 -30.1948 -30.1948 -30.1948 -30.1948
   -20.0785 -20.0785 -20.0785 -20.0785 -20.0783 -20.0783 -20.0782 -20.0782
   -20.0710 -20.0710 -20.0710 -20.0710 -20.0708 -20.0708 -20.0708 -20.0708
   -20.0669 -20.0669 -20.0669 -20.0669 -20.0660 -20.0660 -20.0660 -20.0660
   -20.0643 -20.0643 -20.0643 -20.0643 -20.0638 -20.0638 -20.0638 -20.0638
   -20.0495 -20.0495 -20.0495 -20.0495 -20.0493 -20.0493 -20.0493 -20.0493
   -20.0119 -20.0119 -20.0119 -20.0119 -20.0094 -20.0094 -20.0094 -20.0094
   -20.0086 -20.0086 -20.0086 -20.0086 -20.0079 -20.0079 -20.0079 -20.0079
    -9.0895  -9.0895  -9.0819  -9.0819  -8.7057  -8.7057  -8.6884  -8.6884
    -8.4476  -8.4476  -8.4309  -8.4309  -8.3179  -8.3179  -8.2945  -8.2945
    -8.2489  -8.2489  -8.2305  -8.2305  -8.0021  -8.0021  -8.0010  -8.0010
     2.4008   2.4008   2.4125   2.4125   3.0702   3.0702   3.1234   3.1234
     3.1967   3.1967   3.2239   3.2239   3.3203   3.3203   3.3529   3.3529
     3.5124   3.5124   3.5646   3.5646   3.7073   3.7073   3.7437   3.7437
     3.8926   3.8926   3.9970   3.9970   4.3359   4.3359   4.3513   4.3513
     4.4070   4.4070   4.4765   4.4766   4.5609   4.5609   4.6831   4.6831
     4.7502   4.7502   4.9027   4.9027   5.1749   5.1749   5.2029   5.2029
     7.0507   7.0508   7.1399   7.1399   7.2366   7.2366   7.2745   7.2745
     7.3400   7.3400   7.3773   7.3773   7.4361   7.4361   7.4692   7.4692
     7.5538   7.5538   7.6313   7.6313   7.6901   7.6901   7.7223   7.7223
    11.6184  11.6184  11.6557  11.6557  11.8631  11.8631  11.9556  11.9556
    12.3293  12.3293  12.3805  12.3805  12.4421  12.4421  12.5186  12.5186
    12.6610  12.6610  12.7768  12.7768  13.0980  13.0980  13.1798  13.1798
    16.5635  16.5635  16.6261  16.6261  17.0835  17.0835  17.1251  17.1252
    17.3723  17.3724  17.4698  17.4705  17.5155

          k =-0.5000-0.4740-0.4993 ( 62088 PWs)   bands (ev):

   -65.9273 -65.9273 -65.9273 -65.9273 -65.9273 -65.9273 -65.9273 -65.9273
   -30.3561 -30.3560 -30.3560 -30.3560 -30.3557 -30.3557 -30.3557 -30.3557
   -30.2250 -30.2250 -30.2250 -30.2250 -30.2228 -30.2228 -30.2228 -30.2228
   -30.2131 -30.2131 -30.2131 -30.2131 -30.2109 -30.2109 -30.2109 -30.2109
   -20.0784 -20.0784 -20.0784 -20.0784 -20.0784 -20.0784 -20.0784 -20.0784
   -20.0709 -20.0709 -20.0709 -20.0709 -20.0709 -20.0708 -20.0708 -20.0708
   -20.0665 -20.0665 -20.0665 -20.0665 -20.0664 -20.0663 -20.0663 -20.0663
   -20.0642 -20.0642 -20.0641 -20.0641 -20.0640 -20.0640 -20.0639 -20.0639
   -20.0494 -20.0494 -20.0494 -20.0494 -20.0494 -20.0493 -20.0493 -20.0493
   -20.0107 -20.0107 -20.0107 -20.0107 -20.0105 -20.0105 -20.0105 -20.0105
   -20.0085 -20.0085 -20.0085 -20.0085 -20.0083 -20.0083 -20.0083 -20.0083
    -8.8529  -8.8528  -8.8528  -8.8528  -8.8388  -8.8388  -8.8387  -8.8387
    -8.3282  -8.3282  -8.3282  -8.3282  -8.3015  -8.3015  -8.3014  -8.3014
    -8.2519  -8.2519  -8.2518  -8.2518  -8.2376  -8.2376  -8.2376  -8.2376
     3.0486   3.0486   3.0486   3.0486   3.1058   3.1058   3.1058   3.1058
     3.2489   3.2489   3.2490   3.2490   3.3253   3.3253   3.3253   3.3253
     3.4794   3.4794   3.4794   3.4794   3.5978   3.5978   3.5978   3.5978
     4.2430   4.2430   4.2430   4.2430   4.2529   4.2529   4.2529   4.2529
     4.4461   4.4461   4.4461   4.4461   4.4808   4.4808   4.4808   4.4808
     4.5597   4.5597   4.5597   4.5597   4.5967   4.5967   4.5967   4.5968
     7.1859   7.1859   7.1859   7.1859   7.3267   7.3267   7.3267   7.3267
     7.3982   7.3982   7.3982   7.3983   7.4336   7.4336   7.4336   7.4336
     7.6646   7.6646   7.6646   7.6646   7.7062   7.7062   7.7063   7.7063
    11.9835  11.9835  11.9835  11.9835  11.9973  11.9973  11.9973  11.9973
    12.3429  12.3429  12.3429  12.3429  12.4722  12.4722  12.4722  12.4722
    12.6574  12.6574  12.6574  12.6574  12.7190  12.7190  12.7190  12.7190
    17.1620  17.1620  17.1620  17.1620  17.2323  17.2323  17.2323  17.2323
    17.4617  17.4619  17.4619  17.4620  17.4900

     the Fermi energy is    10.1340 ev

!    total energy              =   -6260.50371207 Ry
     Harris-Foulkes estimate   =   -6260.50371207 Ry
     estimated scf accuracy    <          7.3E-10 Ry

     The total energy is the sum of the following terms:

     one-electron contribution =   -4709.80953930 Ry
     hartree contribution      =    2594.78421985 Ry
     xc contribution           =    -966.59877340 Ry
     ewald contribution        =   -3178.87957045 Ry
     smearing contrib. (-TS)   =      -0.00004876 Ry

     convergence has been achieved in  13 iterations

     Writing output data file Landau_17.save
 
     init_run     :     20.37s CPU     21.35s WALL (       1 calls)
     electrons    :    763.40s CPU    782.42s WALL (       1 calls)

     Called by init_run:
     wfcinit      :     17.01s CPU     17.84s WALL (       1 calls)
     potinit      :      1.37s CPU      1.40s WALL (       1 calls)

     Called by electrons:
     c_bands      :    670.39s CPU    688.45s WALL (      13 calls)
     sum_band     :     84.55s CPU     84.92s WALL (      13 calls)
     v_of_rho     :      1.77s CPU      1.78s WALL (      14 calls)
     mix_rho      :      2.51s CPU      2.85s WALL (      13 calls)

     Called by c_bands:
     init_us_2    :      5.30s CPU      5.81s WALL (      27 calls)
     cegterg      :    562.24s CPU    580.07s WALL (      13 calls)

     Called by sum_band:

     Called by *egterg:
     h_psi        :    431.82s CPU    433.76s WALL (      53 calls)
     g_psi        :      1.99s CPU      2.01s WALL (      39 calls)
     cdiaghg      :      6.29s CPU      6.31s WALL (      52 calls)

     Called by h_psi:
     h_psi:pot    :    428.68s CPU    430.46s WALL (      53 calls)
     h_psi:calbec :     54.69s CPU     55.79s WALL (      53 calls)
     vloc_psi     :    316.02s CPU    316.51s WALL (      53 calls)
     add_vuspsi   :     57.97s CPU     58.15s WALL (      53 calls)

     General routines
     calbec       :     54.69s CPU     55.79s WALL (      53 calls)
     fft          :      1.05s CPU      1.07s WALL (      56 calls)
     fftw         :    325.64s CPU    325.81s WALL (   17017 calls)
 
     Parallel routines
 
     PWSCF        : 13m 5.77s CPU    13m28.85s WALL

 
   This run was terminated on:  21: 7:48  28Aug2019            

=------------------------------------------------------------------------------=
   JOB DONE.
=------------------------------------------------------------------------------=
