
     Program PWSCF v.6.4.1 starts on  2Dec2019 at 20:18:19 

     This program is part of the open-source Quantum ESPRESSO suite
     for quantum simulation of materials; please cite
         "P. Giannozzi et al., J. Phys.:Condens. Matter 21 395502 (2009);
         "P. Giannozzi et al., J. Phys.:Condens. Matter 29 465901 (2017);
          URL http://www.quantum-espresso.org", 
     in publications or presentations arising from this work. More details at
     http://www.quantum-espresso.org/quote

     Parallel version (MPI), running on    40 processors

     MPI processes distributed on     4 nodes
     K-points division:     npool     =      40
     Reading input from scf.in

     Current dimensions of program PWSCF are:
     Max number of different atomic species (ntypx) = 10
     Max number of k-points (npk) =  40000
     Max angular momentum in pseudopotentials (lmaxx) =  3

     Subspace diagonalization in iterative solution of the eigenvalue problem:
     a serial algorithm will be used

     Message from routine setup:
     using ibrav=0 with symmetry is DISCOURAGED, use correct ibrav instead
 
     G-vector sticks info
     --------------------
     sticks:   dense  smooth     PW     G-vecs:    dense   smooth      PW
     Sum        7721    7721   2075               497537   497537   68973
 


     bravais-lattice index     =            0
     lattice parameter (alat)  =      13.8641  a.u.
     unit-cell volume          =    2801.2530 (a.u.)^3
     number of atoms/cell      =           32
     number of atomic types    =            2
     number of electrons       =       368.36
     number of Kohn-Sham states=          221
     kinetic-energy cutoff     =     120.0000  Ry
     charge density cutoff     =     480.0000  Ry
     convergence threshold     =      1.0E-08
     mixing beta               =       0.7000
     number of iterations used =            8  plain     mixing
     Exchange-correlation      = SLA PW NOGX NOGC ( 1  4  0  0 0 0)

     celldm(1)=  13.864121  celldm(2)=   0.000000  celldm(3)=   0.000000
     celldm(4)=   0.000000  celldm(5)=   0.000000  celldm(6)=   0.000000

     crystal axes: (cart. coord. in units of alat)
               a(1) = (   1.000000   0.000000   0.000000 )  
               a(2) = (   0.000000   1.050261   0.000000 )  
               a(3) = (   0.000000   0.000000   1.000871 )  

     reciprocal axes: (cart. coord. in units 2 pi/alat)
               b(1) = (  1.000000  0.000000  0.000000 )  
               b(2) = (  0.000000  0.952145  0.000000 )  
               b(3) = (  0.000000  0.000000  0.999130 )  


     PseudoPot. # 1 for W  read from file:
     /cluster/scratch/mnoe/QE/pps/W_ONCV_LDA-4.0.upf
     MD5 check sum: ba0307d5d4cd419d6f1d13dc49d7c13a
     Pseudo is Norm-conserving + core correction, Zval = 28.0
     Generated using ONCVPSP code by D. R. Hamann
     Using radial grid of 1380 points,  8 beta functions with: 
                l(1) =   0
                l(2) =   0
                l(3) =   1
                l(4) =   1
                l(5) =   2
                l(6) =   2
                l(7) =   3
                l(8) =   3

     PseudoPot. # 2 for O  read from file:
     /cluster/scratch/mnoe/QE/pps/O_ONCV_LDA-3.0.upf
     MD5 check sum: b55cdb4f45ae2203d24ad12cf8d61a31
     Pseudo is Norm-conserving + core correction, Zval =  6.0
     Generated using ONCVPSP code by D. R. Hamann
     Using radial grid of  926 points,  5 beta functions with: 
                l(1) =   0
                l(2) =   0
                l(3) =   1
                l(4) =   1
                l(5) =   2

     atomic species   valence    mass     pseudopotential
        W             28.00   183.84000     W ( 1.00)
        O              6.00    15.99940     O ( 1.00)

      8 Sym. Ops., with inversion, found ( 6 have fractional translation)



   Cartesian axes

     site n.     atom                  positions (alat units)
         1           W   tau(   1) = (   0.2398300   0.2960265   0.0096184  )
         2           W   tau(   2) = (   0.7601700   0.7542342   0.9912528  )
         3           W   tau(   3) = (   0.2601700   0.2291039   0.5100540  )
         4           W   tau(   4) = (   0.7398300   0.8211568   0.4908172  )
         5           W   tau(   5) = (   0.7601700   0.2960265   0.4908172  )
         6           W   tau(   6) = (   0.2398300   0.7542342   0.5100540  )
         7           W   tau(   7) = (   0.7398300   0.2291039   0.9912528  )
         8           W   tau(   8) = (   0.2601700   0.8211568   0.0096184  )
         9           O   tau(   9) = (   0.2312300   0.0087382   0.0029926  )
        10           O   tau(  10) = (   0.7687700   1.0415225   0.9978786  )
        11           O   tau(  11) = (   0.2687700   0.5163921   0.5034282  )
        12           O   tau(  12) = (   0.7312300   0.5338685   0.4974430  )
        13           O   tau(  13) = (   0.7687700   0.0087382   0.4974430  )
        14           O   tau(  14) = (   0.2312300   1.0415225   0.5034282  )
        15           O   tau(  15) = (   0.7312300   0.5163921   0.9978786  )
        16           O   tau(  16) = (   0.2687700   0.5338685   0.0029926  )
        17           O   tau(  17) = (   0.5027800   0.2423476   0.4499316  )
        18           O   tau(  18) = (   0.4972200   0.8079130   0.5509395  )
        19           O   tau(  19) = (   0.9972200   0.2827827   0.9503673  )
        20           O   tau(  20) = (   0.0027800   0.7674779   0.0505040  )
        21           O   tau(  21) = (   0.4972200   0.2423476   0.0505040  )
        22           O   tau(  22) = (   0.5027800   0.8079130   0.9503673  )
        23           O   tau(  23) = (   0.0027800   0.2827827   0.5509395  )
        24           O   tau(  24) = (   0.9972200   0.7674779   0.4499316  )
        25           O   tau(  25) = (   0.6995400   0.2581541   0.7464297  )
        26           O   tau(  26) = (   0.3004600   0.7921066   0.2544415  )
        27           O   tau(  27) = (   0.8004600   0.2669762   0.2459941  )
        28           O   tau(  28) = (   0.1995400   0.7832844   0.7548771  )
        29           O   tau(  29) = (   0.3004600   0.2581541   0.7548771  )
        30           O   tau(  30) = (   0.6995400   0.7921066   0.2459941  )
        31           O   tau(  31) = (   0.1995400   0.2669762   0.2544415  )
        32           O   tau(  32) = (   0.8004600   0.7832844   0.7464297  )

     number of k points=    64  gaussian smearing, width (Ry)=  0.0007
                       cart. coord. in units 2pi/alat
        k(    1) = (   0.0000000   0.0000000   0.0000000), wk =   0.0092593
        k(    2) = (   0.0000000   0.0000000   0.1665216), wk =   0.0185185
        k(    3) = (   0.0000000   0.0000000   0.3330432), wk =   0.0185185
        k(    4) = (   0.0000000   0.0000000  -0.4995648), wk =   0.0092593
        k(    5) = (   0.0000000   0.1586908   0.0000000), wk =   0.0185185
        k(    6) = (   0.0000000   0.1586908   0.1665216), wk =   0.0370370
        k(    7) = (   0.0000000   0.1586908   0.3330432), wk =   0.0370370
        k(    8) = (   0.0000000   0.1586908  -0.4995648), wk =   0.0185185
        k(    9) = (   0.0000000   0.3173815   0.0000000), wk =   0.0185185
        k(   10) = (   0.0000000   0.3173815   0.1665216), wk =   0.0370370
        k(   11) = (   0.0000000   0.3173815   0.3330432), wk =   0.0370370
        k(   12) = (   0.0000000   0.3173815  -0.4995648), wk =   0.0185185
        k(   13) = (   0.0000000  -0.4760723   0.0000000), wk =   0.0092593
        k(   14) = (   0.0000000  -0.4760723   0.1665216), wk =   0.0185185
        k(   15) = (   0.0000000  -0.4760723   0.3330432), wk =   0.0185185
        k(   16) = (   0.0000000  -0.4760723  -0.4995648), wk =   0.0092593
        k(   17) = (   0.1666667   0.0000000   0.0000000), wk =   0.0185185
        k(   18) = (   0.1666667   0.0000000   0.1665216), wk =   0.0370370
        k(   19) = (   0.1666667   0.0000000   0.3330432), wk =   0.0370370
        k(   20) = (   0.1666667   0.0000000  -0.4995648), wk =   0.0185185
        k(   21) = (   0.1666667   0.1586908   0.0000000), wk =   0.0370370
        k(   22) = (   0.1666667   0.1586908   0.1665216), wk =   0.0740741
        k(   23) = (   0.1666667   0.1586908   0.3330432), wk =   0.0740741
        k(   24) = (   0.1666667   0.1586908  -0.4995648), wk =   0.0370370
        k(   25) = (   0.1666667   0.3173815   0.0000000), wk =   0.0370370
        k(   26) = (   0.1666667   0.3173815   0.1665216), wk =   0.0740741
        k(   27) = (   0.1666667   0.3173815   0.3330432), wk =   0.0740741
        k(   28) = (   0.1666667   0.3173815  -0.4995648), wk =   0.0370370
        k(   29) = (   0.1666667  -0.4760723   0.0000000), wk =   0.0185185
        k(   30) = (   0.1666667  -0.4760723   0.1665216), wk =   0.0370370
        k(   31) = (   0.1666667  -0.4760723   0.3330432), wk =   0.0370370
        k(   32) = (   0.1666667  -0.4760723  -0.4995648), wk =   0.0185185
        k(   33) = (   0.3333333   0.0000000   0.0000000), wk =   0.0185185
        k(   34) = (   0.3333333   0.0000000   0.1665216), wk =   0.0370370
        k(   35) = (   0.3333333   0.0000000   0.3330432), wk =   0.0370370
        k(   36) = (   0.3333333   0.0000000  -0.4995648), wk =   0.0185185
        k(   37) = (   0.3333333   0.1586908   0.0000000), wk =   0.0370370
        k(   38) = (   0.3333333   0.1586908   0.1665216), wk =   0.0740741
        k(   39) = (   0.3333333   0.1586908   0.3330432), wk =   0.0740741
        k(   40) = (   0.3333333   0.1586908  -0.4995648), wk =   0.0370370
        k(   41) = (   0.3333333   0.3173815   0.0000000), wk =   0.0370370
        k(   42) = (   0.3333333   0.3173815   0.1665216), wk =   0.0740741
        k(   43) = (   0.3333333   0.3173815   0.3330432), wk =   0.0740741
        k(   44) = (   0.3333333   0.3173815  -0.4995648), wk =   0.0370370
        k(   45) = (   0.3333333  -0.4760723   0.0000000), wk =   0.0185185
        k(   46) = (   0.3333333  -0.4760723   0.1665216), wk =   0.0370370
        k(   47) = (   0.3333333  -0.4760723   0.3330432), wk =   0.0370370
        k(   48) = (   0.3333333  -0.4760723  -0.4995648), wk =   0.0185185
        k(   49) = (  -0.5000000   0.0000000   0.0000000), wk =   0.0092593
        k(   50) = (  -0.5000000   0.0000000   0.1665216), wk =   0.0185185
        k(   51) = (  -0.5000000   0.0000000   0.3330432), wk =   0.0185185
        k(   52) = (  -0.5000000   0.0000000  -0.4995648), wk =   0.0092593
        k(   53) = (  -0.5000000   0.1586908   0.0000000), wk =   0.0185185
        k(   54) = (  -0.5000000   0.1586908   0.1665216), wk =   0.0370370
        k(   55) = (  -0.5000000   0.1586908   0.3330432), wk =   0.0370370
        k(   56) = (  -0.5000000   0.1586908  -0.4995648), wk =   0.0185185
        k(   57) = (  -0.5000000   0.3173815   0.0000000), wk =   0.0185185
        k(   58) = (  -0.5000000   0.3173815   0.1665216), wk =   0.0370370
        k(   59) = (  -0.5000000   0.3173815   0.3330432), wk =   0.0370370
        k(   60) = (  -0.5000000   0.3173815  -0.4995648), wk =   0.0185185
        k(   61) = (  -0.5000000  -0.4760723   0.0000000), wk =   0.0092593
        k(   62) = (  -0.5000000  -0.4760723   0.1665216), wk =   0.0185185
        k(   63) = (  -0.5000000  -0.4760723   0.3330432), wk =   0.0185185
        k(   64) = (  -0.5000000  -0.4760723  -0.4995648), wk =   0.0092593

     Dense  grid:   497537 G-vectors     FFT dimensions: ( 100, 108, 100)

     Estimated max dynamical RAM per process >       3.12 GB

     Estimated total dynamical RAM >     124.92 GB

     Initial potential from superposition of free atoms

     starting charge  367.99656, renormalised to  368.36000
     Starting wfcs are  232 randomized atomic wfcs

     total cpu time spent up to now is       51.5 secs

     Self-consistent Calculation

     iteration #  1     ecut=   120.00 Ry     beta= 0.70
     Davidson diagonalization with overlap
     ethr =  1.00E-02,  avg # of iterations =  5.0

     total cpu time spent up to now is      231.9 secs

     total energy              =   -6253.65078280 Ry
     Harris-Foulkes estimate   =   -6264.37930092 Ry
     estimated scf accuracy    <      13.53960128 Ry

     iteration #  2     ecut=   120.00 Ry     beta= 0.70
     Davidson diagonalization with overlap
     ethr =  3.68E-03,  avg # of iterations =  3.5

     total cpu time spent up to now is      404.0 secs

     total energy              =   -6250.47669597 Ry
     Harris-Foulkes estimate   =   -6270.55858392 Ry
     estimated scf accuracy    <      53.81673341 Ry

     iteration #  3     ecut=   120.00 Ry     beta= 0.70
     Davidson diagonalization with overlap
     ethr =  3.68E-03,  avg # of iterations =  3.4

     total cpu time spent up to now is      561.6 secs

     total energy              =   -6260.83942050 Ry
     Harris-Foulkes estimate   =   -6261.11705664 Ry
     estimated scf accuracy    <       0.91994341 Ry

     iteration #  4     ecut=   120.00 Ry     beta= 0.70
     Davidson diagonalization with overlap
     ethr =  2.50E-04,  avg # of iterations =  2.8

     total cpu time spent up to now is      689.2 secs

     total energy              =   -6260.83826133 Ry
     Harris-Foulkes estimate   =   -6260.90964695 Ry
     estimated scf accuracy    <       0.22830828 Ry

     iteration #  5     ecut=   120.00 Ry     beta= 0.70
     Davidson diagonalization with overlap
     ethr =  6.20E-05,  avg # of iterations =  4.8

     total cpu time spent up to now is      827.3 secs

     total energy              =   -6260.83894940 Ry
     Harris-Foulkes estimate   =   -6260.87043988 Ry
     estimated scf accuracy    <       0.06968404 Ry

     iteration #  6     ecut=   120.00 Ry     beta= 0.70
     Davidson diagonalization with overlap
     ethr =  1.89E-05,  avg # of iterations =  5.3

     total cpu time spent up to now is      979.8 secs

     total energy              =   -6260.85417968 Ry
     Harris-Foulkes estimate   =   -6260.85660640 Ry
     estimated scf accuracy    <       0.00647543 Ry

     iteration #  7     ecut=   120.00 Ry     beta= 0.70
     Davidson diagonalization with overlap
     c_bands:  1 eigenvalues not converged
     ethr =  1.76E-06,  avg # of iterations =  5.3

     total cpu time spent up to now is     1121.8 secs

     total energy              =   -6260.85499309 Ry
     Harris-Foulkes estimate   =   -6260.85509067 Ry
     estimated scf accuracy    <       0.00018659 Ry

     iteration #  8     ecut=   120.00 Ry     beta= 0.70
     Davidson diagonalization with overlap
     ethr =  5.07E-08,  avg # of iterations =  3.1

     total cpu time spent up to now is     1291.1 secs

     total energy              =   -6260.85506199 Ry
     Harris-Foulkes estimate   =   -6260.85507401 Ry
     estimated scf accuracy    <       0.00004500 Ry

     iteration #  9     ecut=   120.00 Ry     beta= 0.70
     Davidson diagonalization with overlap
     ethr =  1.22E-08,  avg # of iterations =  2.0

     total cpu time spent up to now is     1418.7 secs

     total energy              =   -6260.85506378 Ry
     Harris-Foulkes estimate   =   -6260.85506872 Ry
     estimated scf accuracy    <       0.00002282 Ry

     iteration # 10     ecut=   120.00 Ry     beta= 0.70
     Davidson diagonalization with overlap
     ethr =  6.20E-09,  avg # of iterations =  1.6

     total cpu time spent up to now is     1537.3 secs

     total energy              =   -6260.85506188 Ry
     Harris-Foulkes estimate   =   -6260.85506517 Ry
     estimated scf accuracy    <       0.00000766 Ry

     iteration # 11     ecut=   120.00 Ry     beta= 0.70
     Davidson diagonalization with overlap
     ethr =  2.08E-09,  avg # of iterations =  2.9

     total cpu time spent up to now is     1665.2 secs

     total energy              =   -6260.85506348 Ry
     Harris-Foulkes estimate   =   -6260.85506353 Ry
     estimated scf accuracy    <       0.00000013 Ry

     iteration # 12     ecut=   120.00 Ry     beta= 0.70
     Davidson diagonalization with overlap
     ethr =  3.55E-11,  avg # of iterations =  2.0

     total cpu time spent up to now is     1822.6 secs

     total energy              =   -6260.85506351 Ry
     Harris-Foulkes estimate   =   -6260.85506352 Ry
     estimated scf accuracy    <       0.00000003 Ry

     iteration # 13     ecut=   120.00 Ry     beta= 0.70
     Davidson diagonalization with overlap
     ethr =  8.04E-12,  avg # of iterations =  2.4

     total cpu time spent up to now is     1969.8 secs

     End of self-consistent calculation

          k = 0.0000 0.0000 0.0000 ( 62143 PWs)   bands (ev):

   -66.0621 -66.0616 -66.0611 -66.0611 -66.0607 -66.0606 -66.0601 -66.0597
   -30.4850 -30.4800 -30.4794 -30.4747 -30.4345 -30.4264 -30.4256 -30.4150
   -30.4096 -30.4085 -30.4010 -30.3966 -30.3940 -30.3924 -30.3824 -30.3805
   -30.3118 -30.3102 -30.3102 -30.3080 -30.3017 -30.2977 -30.2966 -30.2927
   -20.2175 -20.2174 -20.2172 -20.2172 -20.2171 -20.2170 -20.2168 -20.2167
   -20.2073 -20.2071 -20.2069 -20.2067 -20.2033 -20.2030 -20.2027 -20.2023
   -20.2010 -20.2005 -20.2001 -20.1994 -20.1992 -20.1989 -20.1989 -20.1987
   -20.1982 -20.1980 -20.1978 -20.1977 -20.1974 -20.1973 -20.1967 -20.1965
   -20.1876 -20.1874 -20.1872 -20.1871 -20.1850 -20.1848 -20.1846 -20.1844
   -20.1756 -20.1756 -20.1744 -20.1744 -20.1709 -20.1708 -20.1696 -20.1696
   -20.1692 -20.1690 -20.1681 -20.1680 -20.1660 -20.1659 -20.1647 -20.1646
    -9.8910  -9.5881  -9.4604  -9.4440  -9.1727  -9.1264  -9.0472  -8.9536
    -8.9370  -8.8338  -8.8027  -8.7867  -7.8484  -7.7726  -7.7594  -7.7585
    -7.7320  -7.7178  -7.7093  -7.7047  -7.6059  -7.5834  -7.5797  -7.5624
     1.3271   1.3317   1.3756   1.3890   1.4187   1.4460   1.4542   1.6653
     1.6675   1.6994   1.7428   1.9400   2.4669   2.5509   2.6200   2.6227
     2.7673   2.7793   4.1640   4.2243   4.4018   4.5078   4.7667   4.8606
     4.8775   4.8860   4.8961   4.9120   5.0919   5.1077   5.1906   5.4482
     5.5122   5.5252   5.5851   5.5862   5.6123   5.6424   5.7271   5.8389
     5.8867   5.8966   5.8996   5.9084   5.9950   6.0240   6.0736   6.1448
     6.1584   6.2747   6.2978   6.5756   6.6042   6.8171   6.8630   6.8653
     6.8938   6.9120   6.9775   7.0304   7.0513   7.1042   7.3424   7.3862
     7.4088   7.4511   7.7959   7.8129   8.0414   8.1045   8.1131   8.1767
     9.5012   9.5109  10.0929  10.1201  10.1231  10.1535  12.2678  12.2748
    12.3784  12.3840  12.4535  12.4599  12.6025  12.6463  12.6748  12.8399
    13.2656  13.3108  13.3467  13.4238  13.7213  13.9092  14.1523  14.1578
    14.3689  14.4712  14.6524  14.9215  15.4401  15.4625  15.5531  16.0324
    16.0439  16.7832  16.9900  17.0426  17.5448

          k = 0.0000 0.0000 0.1665 ( 62189 PWs)   bands (ev):

   -66.0620 -66.0616 -66.0612 -66.0610 -66.0607 -66.0606 -66.0602 -66.0597
   -30.4847 -30.4803 -30.4791 -30.4750 -30.4332 -30.4259 -30.4246 -30.4154
   -30.4052 -30.4038 -30.3953 -30.3928 -30.3921 -30.3914 -30.3829 -30.3791
   -30.3184 -30.3168 -30.3159 -30.3138 -30.3014 -30.2974 -30.2972 -30.2932
   -20.2175 -20.2174 -20.2172 -20.2171 -20.2171 -20.2170 -20.2168 -20.2167
   -20.2073 -20.2071 -20.2069 -20.2067 -20.2033 -20.2030 -20.2027 -20.2024
   -20.2010 -20.2006 -20.2000 -20.1994 -20.1993 -20.1990 -20.1988 -20.1985
   -20.1981 -20.1980 -20.1979 -20.1976 -20.1973 -20.1973 -20.1968 -20.1966
   -20.1876 -20.1874 -20.1872 -20.1871 -20.1850 -20.1848 -20.1846 -20.1844
   -20.1752 -20.1752 -20.1740 -20.1740 -20.1708 -20.1707 -20.1698 -20.1698
   -20.1695 -20.1694 -20.1685 -20.1685 -20.1659 -20.1658 -20.1648 -20.1647
    -9.8442  -9.5321  -9.4612  -9.4023  -9.1416  -9.0853  -9.0559  -8.9148
    -8.8996  -8.8241  -8.7915  -8.7712  -7.8799  -7.8750  -7.8197  -7.7764
    -7.7593  -7.7327  -7.7146  -7.7080  -7.6994  -7.6975  -7.5927  -7.5718
     1.4106   1.4185   1.4323   1.4593   1.5112   1.5413   1.6422   1.6583
     1.6946   1.7569   1.8921   2.0521   2.5546   2.6290   2.6423   2.7098
     2.7590   2.8666   4.1395   4.1635   4.4279   4.4341   4.4919   4.5332
     4.6885   4.7557   4.8768   4.9212   4.9409   5.0991   5.1865   5.3571
     5.3608   5.4720   5.5236   5.5927   5.6092   5.6547   5.6727   5.7309
     5.7538   5.7743   5.8733   5.9445   6.0027   6.0563   6.1591   6.1900
     6.2311   6.4424   6.5126   6.5926   6.6892   6.7351   6.8314   6.8337
     6.8567   6.9041   6.9602   7.0231   7.0253   7.1085   7.1771   7.1901
     7.2320   7.2934   7.8178   7.8227   8.0576   8.0694   8.1080   8.1331
     9.8083   9.8130  10.1165  10.1195  10.3651  10.4211  12.2159  12.2977
    12.3234  12.4139  12.4303  12.4844  12.6498  12.6935  12.7394  12.8507
    13.0992  13.3082  13.3144  13.3516  13.8038  13.9079  14.0183  14.0428
    14.3966  14.5874  14.6474  15.0289  15.4630  15.5140  15.5199  16.0155
    16.3261  16.7896  16.9535  17.1698  17.5961

          k = 0.0000 0.0000 0.3330 ( 62180 PWs)   bands (ev):

   -66.0618 -66.0614 -66.0613 -66.0609 -66.0608 -66.0604 -66.0604 -66.0599
   -30.4838 -30.4813 -30.4784 -30.4760 -30.4307 -30.4270 -30.4213 -30.4166
   -30.3980 -30.3949 -30.3939 -30.3845 -30.3806 -30.3782 -30.3768 -30.3721
   -30.3355 -30.3343 -30.3322 -30.3306 -30.3006 -30.2983 -30.2966 -30.2943
   -20.2174 -20.2173 -20.2173 -20.2172 -20.2171 -20.2169 -20.2169 -20.2168
   -20.2073 -20.2072 -20.2069 -20.2068 -20.2032 -20.2031 -20.2026 -20.2024
   -20.2009 -20.2007 -20.1999 -20.1996 -20.1994 -20.1990 -20.1990 -20.1984
   -20.1981 -20.1977 -20.1976 -20.1974 -20.1973 -20.1973 -20.1970 -20.1967
   -20.1875 -20.1873 -20.1873 -20.1872 -20.1849 -20.1847 -20.1847 -20.1845
   -20.1741 -20.1740 -20.1729 -20.1729 -20.1709 -20.1708 -20.1706 -20.1705
   -20.1699 -20.1698 -20.1697 -20.1697 -20.1656 -20.1656 -20.1650 -20.1650
    -9.7300  -9.5143  -9.3999  -9.2679  -9.1881  -9.0854  -8.8465  -8.8373
    -8.8042  -8.7662  -8.7367  -8.6510  -8.1627  -8.1619  -8.0605  -8.0414
    -7.8128  -7.7870  -7.7394  -7.7169  -7.6885  -7.6710  -7.6181  -7.5978
     1.4188   1.4215   1.4737   1.4963   1.6124   1.6432   1.6461   1.6863
     2.3204   2.3596   2.5050   2.5904   2.6536   2.7507   2.8046   2.9070
     2.9480   3.1015   3.7991   3.9039   3.9239   3.9910   4.2039   4.3124
     4.4276   4.5748   4.6428   4.7215   4.7882   4.8617   4.9868   5.1337
     5.1991   5.2456   5.2741   5.3759   5.4987   5.5304   5.6491   5.7275
     5.7668   5.7997   5.8513   5.9915   6.0347   6.1883   6.2157   6.3039
     6.3497   6.4252   6.5459   6.5498   6.5807   6.6076   6.6123   6.8201
     6.8715   6.8960   6.9137   7.0116   7.0520   7.1074   7.1167   7.1942
     7.3200   7.3827   7.7741   7.7885   7.9292   7.9949   8.0911   8.1111
    10.0582  10.1052  10.4777  10.5829  10.9535  11.0611  11.8761  11.9506
    12.1777  12.4660  12.5123  12.5752  12.6364  12.6703  12.7666  12.8027
    12.9421  13.1348  13.1959  13.3781  13.6990  13.7500  13.9000  13.9061
    14.5027  14.6305  14.8964  15.3065  15.4127  15.5932  15.8967  15.9289
    16.2668  17.1440  17.3869  17.4906  17.7223

          k = 0.0000 0.0000-0.4996 ( 62196 PWs)   bands (ev):

   -66.0616 -66.0616 -66.0611 -66.0611 -66.0606 -66.0606 -66.0602 -66.0602
   -30.4825 -30.4825 -30.4772 -30.4772 -30.4286 -30.4286 -30.4185 -30.4185
   -30.3955 -30.3955 -30.3876 -30.3876 -30.3578 -30.3578 -30.3577 -30.3577
   -30.3541 -30.3541 -30.3538 -30.3538 -30.2995 -30.2995 -30.2955 -30.2955
   -20.2173 -20.2173 -20.2172 -20.2172 -20.2170 -20.2170 -20.2169 -20.2169
   -20.2072 -20.2072 -20.2069 -20.2069 -20.2032 -20.2032 -20.2025 -20.2025
   -20.2008 -20.2008 -20.1998 -20.1998 -20.1993 -20.1993 -20.1988 -20.1988
   -20.1977 -20.1977 -20.1974 -20.1974 -20.1973 -20.1973 -20.1970 -20.1970
   -20.1874 -20.1874 -20.1872 -20.1872 -20.1848 -20.1848 -20.1846 -20.1846
   -20.1725 -20.1725 -20.1725 -20.1724 -20.1713 -20.1713 -20.1713 -20.1713
   -20.1702 -20.1702 -20.1701 -20.1701 -20.1653 -20.1653 -20.1653 -20.1653
    -9.6064  -9.6064  -9.2720  -9.2720  -9.1496  -9.1496  -8.8218  -8.8218
    -8.5091  -8.5091  -8.4887  -8.4887  -8.4655  -8.4655  -8.3936  -8.3936
    -7.8011  -7.8011  -7.7287  -7.7287  -7.6532  -7.6531  -7.6339  -7.6339
     1.4203   1.4203   1.4915   1.4915   1.6283   1.6283   1.6778   1.6778
     2.6841   2.6841   3.0354   3.0354   3.1748   3.1748   3.1777   3.1778
     3.3489   3.3489   3.3537   3.3537   3.5554   3.5554   3.8191   3.8191
     3.9198   3.9198   4.5770   4.5770   4.6821   4.6821   5.0073   5.0073
     5.2665   5.2665   5.3868   5.3869   5.3930   5.3930   5.6904   5.6904
     5.8207   5.8207   5.9806   5.9806   6.1543   6.1543   6.2880   6.2880
     6.3117   6.3117   6.4453   6.4453   6.5225   6.5225   6.6159   6.6159
     6.8151   6.8151   6.8973   6.8973   7.0831   7.0831   7.5317   7.5317
     7.5807   7.5807   7.6825   7.6825   7.7473   7.7473   8.1077   8.1077
    10.0868  10.0868  11.2309  11.2309  11.3281  11.3281  11.6343  11.6343
    11.8248  11.8248  12.6448  12.6448  12.6812  12.6812  12.8619  12.8619
    12.9244  12.9244  13.3114  13.3114  13.4787  13.4787  13.9078  13.9078
    14.5917  14.5917  15.2086  15.2086  15.7307  15.7307  15.7819  15.7819
    16.6501  16.6501  17.8715  17.8715  18.1735

          k = 0.0000 0.1587 0.0000 ( 62171 PWs)   bands (ev):

   -66.0620 -66.0617 -66.0611 -66.0610 -66.0607 -66.0607 -66.0601 -66.0597
   -30.4812 -30.4761 -30.4755 -30.4707 -30.4371 -30.4291 -30.4287 -30.4190
   -30.4097 -30.4086 -30.4011 -30.3977 -30.3935 -30.3920 -30.3835 -30.3821
   -30.3118 -30.3103 -30.3101 -30.3082 -30.3014 -30.2980 -30.2963 -30.2930
   -20.2175 -20.2174 -20.2172 -20.2171 -20.2170 -20.2170 -20.2168 -20.2167
   -20.2070 -20.2068 -20.2066 -20.2064 -20.2035 -20.2033 -20.2029 -20.2026
   -20.2009 -20.2004 -20.2000 -20.1993 -20.1991 -20.1991 -20.1989 -20.1988
   -20.1983 -20.1981 -20.1979 -20.1978 -20.1974 -20.1973 -20.1968 -20.1965
   -20.1876 -20.1874 -20.1872 -20.1871 -20.1850 -20.1848 -20.1846 -20.1844
   -20.1756 -20.1756 -20.1744 -20.1744 -20.1709 -20.1708 -20.1696 -20.1696
   -20.1691 -20.1690 -20.1681 -20.1680 -20.1660 -20.1659 -20.1647 -20.1646
    -9.8602  -9.6003  -9.4224  -9.4028  -9.1804  -9.1349  -8.9730  -8.9521
    -8.9380  -8.7889  -8.7651  -8.7520  -7.9305  -7.8693  -7.8572  -7.8121
    -7.7581  -7.7438  -7.7191  -7.7110  -7.6044  -7.5848  -7.5828  -7.5643
     1.3272   1.3312   1.3847   1.3892   1.4381   1.4541   1.5826   1.7420
     1.8494   1.8948   1.9189   2.0926   2.4730   2.5450   2.6930   2.6982
     2.8360   2.8521   4.0297   4.1003   4.1323   4.2186   4.7075   4.8625
     4.8747   4.8950   4.9091   4.9215   5.0322   5.0391   5.0844   5.3255
     5.3673   5.5385   5.5445   5.6118   5.6619   5.6839   5.7024   5.7420
     5.8086   5.8397   5.9199   5.9481   5.9519   6.0341   6.0742   6.1437
     6.1541   6.2588   6.3109   6.5969   6.6368   6.8094   6.8543   6.8761
     6.9107   6.9249   6.9327   7.0061   7.0070   7.0233   7.3525   7.3824
     7.4218   7.4490   7.7987   7.8115   8.0142   8.0453   8.0721   8.0963
     9.5080   9.5121  10.2913  10.2986  10.3047  10.3054  12.1733  12.2511
    12.3804  12.3829  12.4002  12.4326  12.4425  12.4825  12.6941  12.8382
    13.2918  13.3348  13.3429  13.4110  13.8665  13.9042  14.0557  14.0646
    14.4391  14.7355  14.8243  15.0906  15.4388  15.4586  15.9505  16.0039
    16.0105  16.5089  17.1258  17.1806  17.5579

          k = 0.0000 0.1587 0.1665 ( 62159 PWs)   bands (ev):

   -66.0620 -66.0616 -66.0611 -66.0610 -66.0608 -66.0606 -66.0602 -66.0598
   -30.4808 -30.4764 -30.4752 -30.4710 -30.4360 -30.4291 -30.4276 -30.4194
   -30.4052 -30.4039 -30.3954 -30.3929 -30.3924 -30.3910 -30.3840 -30.3805
   -30.3183 -30.3169 -30.3158 -30.3139 -30.3011 -30.2977 -30.2970 -30.2935
   -20.2175 -20.2173 -20.2171 -20.2171 -20.2170 -20.2170 -20.2168 -20.2167
   -20.2070 -20.2068 -20.2066 -20.2065 -20.2035 -20.2033 -20.2029 -20.2026
   -20.2009 -20.2005 -20.2000 -20.1994 -20.1993 -20.1991 -20.1989 -20.1986
   -20.1981 -20.1981 -20.1980 -20.1977 -20.1974 -20.1973 -20.1969 -20.1966
   -20.1876 -20.1874 -20.1872 -20.1871 -20.1850 -20.1848 -20.1846 -20.1845
   -20.1752 -20.1752 -20.1740 -20.1740 -20.1708 -20.1707 -20.1698 -20.1698
   -20.1695 -20.1694 -20.1685 -20.1685 -20.1659 -20.1658 -20.1648 -20.1647
    -9.8122  -9.5444  -9.4203  -9.3598  -9.1503  -9.0932  -8.9816  -8.9137
    -8.9006  -8.7802  -8.7566  -8.7381  -7.9365  -7.8842  -7.8734  -7.8619
    -7.8307  -7.8197  -7.7314  -7.7210  -7.7037  -7.6993  -7.5941  -7.5737
     1.4283   1.4323   1.4415   1.4593   1.6081   1.6422   1.6642   1.8564
     1.8913   1.9142   1.9193   2.1546   2.5617   2.6358   2.7018   2.7869
     2.8283   2.9386   4.0415   4.0556   4.1754   4.2063   4.4629   4.5261
     4.6941   4.7270   4.7911   4.9087   4.9368   5.0406   5.0823   5.2649
     5.2934   5.3640   5.4364   5.5358   5.5901   5.6250   5.6839   5.7456
     5.7758   5.7762   5.8773   5.8840   5.8961   6.0807   6.1377   6.2044
     6.2236   6.3962   6.5050   6.6219   6.7371   6.7911   6.8390   6.8416
     6.8582   6.9256   6.9587   6.9797   7.0330   7.0370   7.1794   7.1928
     7.2512   7.2915   7.8189   7.8212   8.0185   8.0312   8.0500   8.0584
     9.8194   9.8273  10.2961  10.3059  10.5149  10.5506  12.1988  12.2386
    12.3047  12.3431  12.4253  12.4443  12.4866  12.5672  12.7598  12.8559
    13.1167  13.2999  13.3252  13.3450  13.9018  13.9055  13.9185  13.9503
    14.5144  14.8090  14.8843  15.1819  15.4598  15.5141  15.9179  15.9819
    16.2961  16.6711  16.9195  17.2858  17.6189

          k = 0.0000 0.1587 0.3330 ( 62209 PWs)   bands (ev):

   -66.0618 -66.0614 -66.0613 -66.0609 -66.0608 -66.0604 -66.0603 -66.0599
   -30.4799 -30.4774 -30.4744 -30.4720 -30.4338 -30.4302 -30.4248 -30.4205
   -30.3977 -30.3950 -30.3934 -30.3855 -30.3806 -30.3786 -30.3769 -30.3730
   -30.3355 -30.3344 -30.3322 -30.3307 -30.3004 -30.2981 -30.2969 -30.2946
   -20.2174 -20.2173 -20.2172 -20.2171 -20.2171 -20.2170 -20.2169 -20.2168
   -20.2070 -20.2069 -20.2066 -20.2065 -20.2035 -20.2033 -20.2029 -20.2027
   -20.2008 -20.2006 -20.1999 -20.1995 -20.1994 -20.1991 -20.1990 -20.1985
   -20.1981 -20.1978 -20.1977 -20.1975 -20.1974 -20.1973 -20.1971 -20.1968
   -20.1875 -20.1873 -20.1873 -20.1872 -20.1849 -20.1847 -20.1847 -20.1845
   -20.1741 -20.1740 -20.1729 -20.1729 -20.1709 -20.1708 -20.1705 -20.1705
   -20.1699 -20.1698 -20.1697 -20.1697 -20.1656 -20.1656 -20.1650 -20.1650
    -9.6947  -9.4741  -9.4119  -9.2118  -9.1976  -9.0118  -8.8455  -8.8254
    -8.7691  -8.7677  -8.7159  -8.6316  -8.1691  -8.1599  -8.0764  -8.0393
    -7.8978  -7.8775  -7.8389  -7.8137  -7.6928  -7.6730  -7.6201  -7.5997
     1.4502   1.4690   1.4736   1.4961   1.7972   1.8181   1.8913   1.9111
     2.3192   2.3691   2.5073   2.6072   2.7255   2.8127   2.8155   2.9040
     3.0261   3.1657   3.8041   3.9090   3.9092   3.9445   4.1782   4.2136
     4.2654   4.4536   4.5949   4.6418   4.7508   4.8156   4.8535   5.0027
     5.0664   5.1975   5.2352   5.2389   5.4593   5.4616   5.5507   5.6748
     5.7320   5.8059   5.8204   5.8713   5.9658   6.1653   6.2193   6.2213
     6.3886   6.5392   6.5798   6.6037   6.6090   6.6883   6.7597   6.8130
     6.8632   6.8861   6.9690   6.9751   7.0217   7.0610   7.1486   7.1856
     7.3199   7.3744   7.7750   7.7867   7.8981   7.9377   8.0375   8.0534
    10.2468  10.2926  10.4881  10.5954  11.0589  11.1442  11.8771  11.9481
    12.1659  12.4367  12.4950  12.5511  12.5537  12.5956  12.7368  12.7838
    12.8269  13.1237  13.1876  13.3609  13.5931  13.6705  13.9036  13.9240
    14.6777  14.7967  15.2349  15.4352  15.5799  15.8049  15.8970  15.9244
    16.3973  17.1037  17.1617  17.4396  17.8177

          k = 0.0000 0.1587-0.4996 ( 62170 PWs)   bands (ev):

   -66.0616 -66.0616 -66.0612 -66.0612 -66.0606 -66.0606 -66.0602 -66.0602
   -30.4787 -30.4787 -30.4732 -30.4732 -30.4318 -30.4318 -30.4224 -30.4224
   -30.3951 -30.3951 -30.3884 -30.3884 -30.3579 -30.3579 -30.3579 -30.3579
   -30.3542 -30.3542 -30.3539 -30.3539 -30.2992 -30.2992 -30.2958 -30.2958
   -20.2173 -20.2173 -20.2172 -20.2172 -20.2170 -20.2170 -20.2169 -20.2169
   -20.2069 -20.2069 -20.2066 -20.2066 -20.2034 -20.2034 -20.2028 -20.2028
   -20.2007 -20.2007 -20.1997 -20.1997 -20.1993 -20.1993 -20.1988 -20.1988
   -20.1977 -20.1977 -20.1974 -20.1974 -20.1974 -20.1974 -20.1971 -20.1971
   -20.1874 -20.1874 -20.1873 -20.1873 -20.1848 -20.1848 -20.1846 -20.1846
   -20.1725 -20.1725 -20.1725 -20.1725 -20.1713 -20.1713 -20.1713 -20.1713
   -20.1702 -20.1702 -20.1701 -20.1701 -20.1653 -20.1653 -20.1653 -20.1653
    -9.5679  -9.5679  -9.2828  -9.2828  -9.0803  -9.0803  -8.7879  -8.7879
    -8.5128  -8.5128  -8.4839  -8.4839  -8.4744  -8.4744  -8.3873  -8.3873
    -7.8907  -7.8907  -7.8284  -7.8284  -7.6561  -7.6561  -7.6359  -7.6359
     1.4626   1.4626   1.4913   1.4913   1.8188   1.8188   1.9086   1.9086
     2.7525   2.7525   3.0523   3.0523   3.1704   3.1704   3.2117   3.2117
     3.3452   3.3452   3.3716   3.3716   3.5450   3.5450   3.8272   3.8272
     3.9705   3.9705   4.3560   4.3560   4.5814   4.5814   4.8216   4.8216
     5.1180   5.1180   5.3547   5.3547   5.3769   5.3769   5.5668   5.5668
     5.7538   5.7538   5.8476   5.8476   6.1502   6.1502   6.3134   6.3134
     6.3748   6.3748   6.4761   6.4761   6.6028   6.6028   6.6974   6.6974
     6.8729   6.8729   6.9133   6.9133   7.0118   7.0118   7.5382   7.5382
     7.5761   7.5762   7.6625   7.6625   7.7169   7.7169   8.0501   8.0501
    10.2820  10.2820  11.2377  11.2377  11.3267  11.3267  11.6990  11.6990
    11.8799  11.8799  12.5448  12.5448  12.6431  12.6431  12.8594  12.8594
    12.8655  12.8655  13.2031  13.2031  13.4359  13.4359  13.9092  13.9092
    14.7628  14.7628  15.5731  15.5731  15.7561  15.7561  15.8741  15.8741
    16.6948  16.6948  17.6748  17.6748  18.1410

          k = 0.0000 0.3174 0.0000 ( 62191 PWs)   bands (ev):

   -66.0620 -66.0617 -66.0610 -66.0610 -66.0608 -66.0607 -66.0600 -66.0598
   -30.4709 -30.4656 -30.4649 -30.4598 -30.4451 -30.4380 -30.4375 -30.4299
   -30.4097 -30.4090 -30.4012 -30.3998 -30.3919 -30.3907 -30.3861 -30.3856
   -30.3116 -30.3107 -30.3097 -30.3086 -30.3008 -30.2988 -30.2957 -30.2938
   -20.2174 -20.2173 -20.2172 -20.2171 -20.2170 -20.2169 -20.2168 -20.2167
   -20.2063 -20.2060 -20.2058 -20.2056 -20.2042 -20.2040 -20.2037 -20.2034
   -20.2006 -20.2001 -20.1997 -20.1995 -20.1992 -20.1991 -20.1990 -20.1989
   -20.1984 -20.1982 -20.1982 -20.1979 -20.1974 -20.1972 -20.1970 -20.1967
   -20.1875 -20.1874 -20.1872 -20.1871 -20.1850 -20.1849 -20.1845 -20.1845
   -20.1756 -20.1756 -20.1744 -20.1744 -20.1708 -20.1708 -20.1696 -20.1696
   -20.1691 -20.1691 -20.1681 -20.1680 -20.1660 -20.1659 -20.1647 -20.1646
    -9.7850  -9.6379  -9.3361  -9.3078  -9.2058  -9.1629  -8.9488  -8.9409
    -8.7634  -8.6479  -8.6376  -8.6313  -8.1644  -8.1171  -8.1079  -8.0850
    -7.7547  -7.7495  -7.7206  -7.7154  -7.6003  -7.5884  -7.5823  -7.5694
     1.3276   1.3299   1.3896   1.3897   1.4499   1.4539   1.7027   1.7390
     2.3942   2.4890   2.5277   2.5292   2.5596   2.7086   2.9052   2.9337
     3.0344   3.0763   3.6529   3.6818   3.7378   3.7684   4.1704   4.4873
     4.5399   4.7819   4.8548   4.8934   4.9004   4.9359   5.0922   5.0927
     5.1261   5.1324   5.4372   5.4623   5.6156   5.6243   5.7290   5.7575
     5.8980   5.9019   5.9141   5.9316   6.0277   6.0500   6.0866   6.1573
     6.1764   6.2227   6.3049   6.5470   6.6594   6.6907   6.8812   6.8882
     6.9196   6.9895   7.1182   7.1248   7.1407   7.1630   7.3706   7.3782
     7.4393   7.4473   7.7822   7.7992   7.8615   7.8703   7.8720   7.8987
     9.5146   9.5147  10.7289  10.7692  10.7866  10.7994  11.8329  11.9309
    12.0112  12.0474  12.3619  12.3801  12.4176  12.4207  12.7393  12.8252
    13.3851  13.3887  13.4140  13.4532  13.7533  13.7934  13.8267  13.8426
    14.8656  15.2683  15.2849  15.4355  15.4514  15.7047  15.8975  15.9074
    15.9769  16.9263  17.2753  17.5943  17.6499

          k = 0.0000 0.3174 0.1665 ( 62149 PWs)   bands (ev):

   -66.0619 -66.0617 -66.0611 -66.0609 -66.0608 -66.0607 -66.0601 -66.0599
   -30.4706 -30.4659 -30.4646 -30.4601 -30.4443 -30.4384 -30.4367 -30.4303
   -30.4049 -30.4042 -30.3954 -30.3944 -30.3911 -30.3897 -30.3865 -30.3839
   -30.3181 -30.3173 -30.3154 -30.3144 -30.3005 -30.2985 -30.2963 -30.2943
   -20.2174 -20.2173 -20.2172 -20.2171 -20.2170 -20.2170 -20.2169 -20.2168
   -20.2063 -20.2061 -20.2058 -20.2056 -20.2042 -20.2040 -20.2037 -20.2034
   -20.2006 -20.2002 -20.1997 -20.1996 -20.1993 -20.1992 -20.1991 -20.1986
   -20.1983 -20.1983 -20.1981 -20.1978 -20.1974 -20.1972 -20.1970 -20.1968
   -20.1875 -20.1874 -20.1872 -20.1871 -20.1850 -20.1848 -20.1846 -20.1845
   -20.1752 -20.1752 -20.1740 -20.1740 -20.1708 -20.1707 -20.1698 -20.1698
   -20.1695 -20.1694 -20.1685 -20.1685 -20.1659 -20.1658 -20.1647 -20.1647
    -9.7339  -9.5826  -9.3256  -9.2625  -9.1790  -9.1194  -8.9109  -8.9033
    -8.7719  -8.6422  -8.6363  -8.6211  -8.1652  -8.1244  -8.1059  -8.0912
    -7.8690  -7.8550  -7.7280  -7.7234  -7.7083  -7.7038  -7.5918  -7.5789
     1.4322   1.4322   1.4546   1.4590   1.6369   1.6422   1.8412   1.8881
     2.4000   2.5164   2.5512   2.5794   2.6194   2.7054   2.9128   3.0274
     3.0274   3.1645   3.6818   3.7395   3.7402   3.7576   4.1546   4.4773
     4.4781   4.5018   4.5743   4.7876   4.8016   4.9041   4.9497   4.9660
     5.0911   5.1471   5.2448   5.3481   5.4434   5.5125   5.6240   5.6756
     5.7233   5.7913   5.8190   5.8896   6.0460   6.1099   6.1141   6.1607
     6.3041   6.4224   6.4754   6.6059   6.6680   6.8589   6.8935   6.9464
     6.9786   7.0018   7.0963   7.0966   7.1144   7.1405   7.1820   7.2215
     7.2971   7.3020   7.7969   7.7995   7.8476   7.8593   7.8746   7.8767
     9.8306   9.8388  10.7722  10.8049  10.9013  10.9545  11.9244  11.9247
    12.0491  12.0845  12.2881  12.2985  12.4629  12.4738  12.8083  12.8630
    13.2063  13.3241  13.3771  13.3871  13.6808  13.7406  13.7514  13.8005
    14.9785  15.2634  15.4472  15.4823  15.5232  15.7696  15.8712  16.1436
    16.1966  16.8904  17.3375  17.3439  17.6951

          k = 0.0000 0.3174 0.3330 ( 62188 PWs)   bands (ev):

   -66.0617 -66.0615 -66.0612 -66.0610 -66.0607 -66.0605 -66.0602 -66.0600
   -30.4695 -30.4669 -30.4636 -30.4611 -30.4426 -30.4394 -30.4349 -30.4313
   -30.3970 -30.3954 -30.3922 -30.3878 -30.3805 -30.3794 -30.3769 -30.3750
   -30.3354 -30.3347 -30.3320 -30.3311 -30.2997 -30.2977 -30.2974 -30.2954
   -20.2173 -20.2172 -20.2171 -20.2171 -20.2170 -20.2170 -20.2169 -20.2168
   -20.2062 -20.2061 -20.2058 -20.2057 -20.2042 -20.2040 -20.2036 -20.2035
   -20.2005 -20.2003 -20.1997 -20.1997 -20.1994 -20.1993 -20.1991 -20.1986
   -20.1982 -20.1979 -20.1978 -20.1975 -20.1975 -20.1973 -20.1972 -20.1970
   -20.1875 -20.1874 -20.1873 -20.1872 -20.1849 -20.1848 -20.1847 -20.1846
   -20.1741 -20.1741 -20.1729 -20.1729 -20.1709 -20.1708 -20.1705 -20.1705
   -20.1699 -20.1698 -20.1697 -20.1697 -20.1656 -20.1656 -20.1650 -20.1650
    -9.6091  -9.4499  -9.3802  -9.2285  -9.0745  -8.8748  -8.8054  -8.7932
    -8.7722  -8.6503  -8.6132  -8.5547  -8.2245  -8.1980  -8.1536  -8.1181
    -8.0981  -8.0659  -8.0328  -7.9778  -7.6915  -7.6783  -7.6179  -7.6049
     1.4673   1.4731   1.4895   1.4954   2.2348   2.3155   2.3325   2.4252
     2.5058   2.5476   2.5578   2.7748   2.8525   2.8752   2.9348   3.0172
     3.2615   3.3661   3.7073   3.7176   3.7318   3.8182   3.9038   3.9157
     4.1437   4.3391   4.4003   4.4490   4.4715   4.6397   4.6465   4.8111
     4.8259   4.9021   5.0622   5.1400   5.2440   5.2465   5.2567   5.4105
     5.4329   5.6342   5.6808   5.8442   6.1351   6.2039   6.2281   6.2475
     6.4720   6.6002   6.6025   6.6818   6.6938   6.8326   6.8448   6.8563
     6.9769   7.0037   7.0730   7.0929   7.1175   7.1642   7.2212   7.2371
     7.3088   7.3596   7.7404   7.7702   7.7719   7.7927   7.8521   7.8724
    10.5075  10.5090  10.7780  10.8370  11.3550  11.4104  11.8335  11.9406
    11.9956  12.0744  12.2099  12.2951  12.6030  12.6323  12.6533  12.7354
    12.8095  13.1184  13.1191  13.3423  13.3937  13.5501  13.7491  13.7835
    15.1172  15.2348  15.5307  15.7935  15.9746  15.9946  16.0183  16.6711
    16.7653  16.8242  16.9802  17.5455  17.6257

          k = 0.0000 0.3174-0.4996 ( 62198 PWs)   bands (ev):

   -66.0615 -66.0615 -66.0613 -66.0613 -66.0605 -66.0605 -66.0603 -66.0603
   -30.4682 -30.4682 -30.4624 -30.4623 -30.4409 -30.4409 -30.4329 -30.4329
   -30.3940 -30.3940 -30.3902 -30.3902 -30.3582 -30.3582 -30.3581 -30.3581
   -30.3545 -30.3545 -30.3542 -30.3542 -30.2986 -30.2986 -30.2966 -30.2966
   -20.2172 -20.2172 -20.2171 -20.2171 -20.2170 -20.2170 -20.2169 -20.2169
   -20.2062 -20.2062 -20.2058 -20.2058 -20.2041 -20.2041 -20.2036 -20.2036
   -20.2004 -20.2004 -20.1996 -20.1996 -20.1995 -20.1995 -20.1989 -20.1989
   -20.1978 -20.1978 -20.1975 -20.1975 -20.1975 -20.1975 -20.1972 -20.1972
   -20.1874 -20.1874 -20.1873 -20.1873 -20.1848 -20.1848 -20.1847 -20.1847
   -20.1725 -20.1725 -20.1725 -20.1725 -20.1713 -20.1713 -20.1713 -20.1713
   -20.1702 -20.1702 -20.1702 -20.1702 -20.1653 -20.1653 -20.1653 -20.1653
    -9.4763  -9.4763  -9.3176  -9.3176  -8.8908  -8.8908  -8.6828  -8.6828
    -8.5317  -8.5317  -8.5089  -8.5089  -8.4616  -8.4616  -8.3627  -8.3627
    -8.1178  -8.1178  -8.0690  -8.0690  -7.6543  -7.6543  -7.6412  -7.6412
     1.4839   1.4839   1.4906   1.4906   2.4045   2.4045   2.5426   2.5426
     2.9429   2.9429   3.1016   3.1016   3.1502   3.1502   3.2786   3.2786
     3.3318   3.3318   3.4426   3.4426   3.5043   3.5043   3.7240   3.7240
     4.1093   4.1093   4.1103   4.1103   4.1690   4.1690   4.3728   4.3728
     4.8699   4.8699   5.0036   5.0036   5.1762   5.1762   5.3294   5.3294
     5.4817   5.4817   5.7636   5.7636   6.2582   6.2582   6.3213   6.3213
     6.5092   6.5092   6.5414   6.5414   6.6108   6.6108   6.7850   6.7850
     7.0780   7.0780   7.0969   7.0969   7.1353   7.1353   7.5382   7.5382
     7.5637   7.5637   7.5786   7.5786   7.6297   7.6297   7.8602   7.8602
    10.7715  10.7715  11.2519  11.2519  11.3277  11.3277  11.8210  11.8210
    12.0524  12.0524  12.2146  12.2146  12.5821  12.5821  12.6479  12.6479
    12.8659  12.8659  12.9783  12.9783  13.4249  13.4249  13.7565  13.7565
    15.1867  15.1867  15.6701  15.6701  16.3243  16.3243  16.4987  16.4987
    16.8599  16.8599  17.3002  17.3002  17.9234

          k = 0.0000-0.4761 0.0000 ( 62178 PWs)   bands (ev):

   -66.0619 -66.0618 -66.0609 -66.0609 -66.0609 -66.0609 -66.0599 -66.0599
   -30.4575 -30.4575 -30.4515 -30.4515 -30.4507 -30.4507 -30.4448 -30.4448
   -30.4094 -30.4094 -30.4010 -30.4009 -30.3892 -30.3892 -30.3887 -30.3887
   -30.3112 -30.3112 -30.3091 -30.3091 -30.2998 -30.2998 -30.2948 -30.2948
   -20.2173 -20.2173 -20.2172 -20.2172 -20.2169 -20.2169 -20.2168 -20.2168
   -20.2052 -20.2052 -20.2050 -20.2050 -20.2047 -20.2047 -20.2045 -20.2045
   -20.2001 -20.2001 -20.1997 -20.1997 -20.1994 -20.1994 -20.1987 -20.1987
   -20.1986 -20.1986 -20.1981 -20.1981 -20.1972 -20.1972 -20.1970 -20.1969
   -20.1875 -20.1875 -20.1871 -20.1871 -20.1849 -20.1849 -20.1845 -20.1845
   -20.1756 -20.1756 -20.1744 -20.1744 -20.1708 -20.1708 -20.1696 -20.1696
   -20.1691 -20.1691 -20.1681 -20.1680 -20.1659 -20.1659 -20.1647 -20.1646
    -9.7020  -9.7019  -9.2559  -9.2559  -9.2185  -9.2185  -8.9448  -8.9448
    -8.4654  -8.4654  -8.4073  -8.4073  -8.4045  -8.4045  -8.4019  -8.4019
    -7.7513  -7.7513  -7.7196  -7.7196  -7.5945  -7.5945  -7.5762  -7.5762
     1.3285   1.3285   1.3902   1.3902   1.4531   1.4531   1.7306   1.7306
     2.5078   2.5078   3.1037   3.1037   3.2381   3.2381   3.2534   3.2534
     3.2829   3.2829   3.3803   3.3803   3.5712   3.5712   3.6241   3.6241
     3.7446   3.7446   4.8682   4.8682   4.9102   4.9102   5.2391   5.2391
     5.3247   5.3247   5.3308   5.3308   5.3737   5.3737   5.7891   5.7891
     5.8211   5.8211   5.9772   5.9772   6.0558   6.0558   6.1568   6.1568
     6.2083   6.2083   6.3297   6.3297   6.7566   6.7566   6.7772   6.7772
     6.9587   6.9587   7.3669   7.3669   7.4126   7.4126   7.4923   7.4923
     7.4966   7.4966   7.5788   7.5788   7.5813   7.5813   7.8152   7.8152
     9.5162   9.5162  11.2966  11.2966  11.3743  11.3743  11.3790  11.3790
    11.4726  11.4726  12.3735  12.3735  12.4224  12.4224  12.7906  12.7906
    13.5272  13.5272  13.5381  13.5381  13.6086  13.6086  13.6232  13.6232
    15.3669  15.3669  15.4792  15.4792  15.6709  15.6710  15.6917  15.6917
    16.5797  16.5797  18.0441  18.0443  18.0880

          k = 0.0000-0.4761 0.1665 ( 62174 PWs)   bands (ev):

   -66.0618 -66.0618 -66.0610 -66.0609 -66.0608 -66.0608 -66.0600 -66.0600
   -30.4570 -30.4570 -30.4518 -30.4518 -30.4503 -30.4503 -30.4452 -30.4452
   -30.4046 -30.4046 -30.3953 -30.3952 -30.3891 -30.3891 -30.3873 -30.3873
   -30.3177 -30.3177 -30.3149 -30.3149 -30.2995 -30.2995 -30.2954 -30.2954
   -20.2173 -20.2173 -20.2172 -20.2172 -20.2170 -20.2169 -20.2169 -20.2168
   -20.2052 -20.2052 -20.2050 -20.2050 -20.2047 -20.2047 -20.2045 -20.2045
   -20.2001 -20.2001 -20.1997 -20.1997 -20.1994 -20.1994 -20.1987 -20.1987
   -20.1985 -20.1985 -20.1980 -20.1980 -20.1972 -20.1972 -20.1970 -20.1970
   -20.1875 -20.1875 -20.1872 -20.1872 -20.1849 -20.1849 -20.1845 -20.1845
   -20.1752 -20.1752 -20.1740 -20.1740 -20.1707 -20.1707 -20.1698 -20.1698
   -20.1695 -20.1694 -20.1685 -20.1685 -20.1659 -20.1658 -20.1647 -20.1647
    -9.6480  -9.6480  -9.2356  -9.2356  -9.1730  -9.1730  -8.9071  -8.9071
    -8.4711  -8.4711  -8.4121  -8.4121  -8.4042  -8.4042  -8.3960  -8.3960
    -7.8628  -7.8628  -7.7244  -7.7244  -7.7083  -7.7082  -7.5857  -7.5857
     1.4323   1.4323   1.4581   1.4581   1.6415   1.6415   1.8782   1.8782
     2.5974   2.5974   3.1216   3.1216   3.2169   3.2169   3.2723   3.2723
     3.3291   3.3291   3.3766   3.3766   3.5896   3.5896   3.6437   3.6437
     3.7767   3.7767   4.5026   4.5026   4.9225   4.9225   5.0295   5.0295
     5.1614   5.1615   5.2595   5.2595   5.3709   5.3710   5.5340   5.5340
     5.7758   5.7758   5.8034   5.8034   6.1135   6.1135   6.1441   6.1441
     6.4121   6.4121   6.4672   6.4673   6.7525   6.7526   6.9316   6.9316
     7.0210   7.0210   7.1714   7.1714   7.2362   7.2362   7.4847   7.4847
     7.5086   7.5086   7.5530   7.5530   7.5669   7.5670   7.8312   7.8312
     9.8380   9.8380  11.3713  11.3713  11.4225  11.4225  11.4430  11.4430
    11.5280  11.5280  12.2917  12.2917  12.4686  12.4686  12.8525  12.8525
    13.3703  13.3703  13.4451  13.4451  13.5359  13.5360  13.6377  13.6377
    15.3717  15.3718  15.6318  15.6318  15.6816  15.6816  15.9525  15.9526
    16.6392  16.6392  17.9107  17.9107  18.0447

          k = 0.0000-0.4761 0.3330 ( 62216 PWs)   bands (ev):

   -66.0616 -66.0616 -66.0611 -66.0611 -66.0606 -66.0606 -66.0601 -66.0601
   -30.4557 -30.4557 -30.4528 -30.4528 -30.4491 -30.4491 -30.4462 -30.4462
   -30.3962 -30.3961 -30.3903 -30.3903 -30.3801 -30.3801 -30.3764 -30.3764
   -30.3351 -30.3351 -30.3316 -30.3316 -30.2987 -30.2987 -30.2964 -30.2964
   -20.2172 -20.2172 -20.2171 -20.2171 -20.2170 -20.2170 -20.2169 -20.2169
   -20.2052 -20.2052 -20.2051 -20.2051 -20.2047 -20.2047 -20.2046 -20.2046
   -20.2001 -20.2001 -20.1999 -20.1999 -20.1994 -20.1994 -20.1990 -20.1989
   -20.1981 -20.1981 -20.1977 -20.1977 -20.1974 -20.1974 -20.1972 -20.1972
   -20.1874 -20.1874 -20.1872 -20.1872 -20.1848 -20.1848 -20.1846 -20.1846
   -20.1741 -20.1741 -20.1729 -20.1729 -20.1709 -20.1708 -20.1705 -20.1705
   -20.1698 -20.1698 -20.1697 -20.1697 -20.1656 -20.1656 -20.1650 -20.1650
    -9.5174  -9.5174  -9.2883  -9.2883  -8.9442  -8.9441  -8.7801  -8.7801
    -8.5056  -8.5056  -8.4356  -8.4355  -8.3969  -8.3968  -8.3708  -8.3708
    -8.1396  -8.1396  -8.0197  -8.0197  -7.6854  -7.6854  -7.6118  -7.6118
     1.4717   1.4718   1.4940   1.4940   2.3058   2.3058   2.4856   2.4856
     2.8547   2.8547   3.1507   3.1507   3.2084   3.2084   3.2910   3.2910
     3.3284   3.3284   3.4544   3.4544   3.5705   3.5705   3.7592   3.7592
     3.8448   3.8448   3.9059   3.9059   4.5129   4.5129   4.6749   4.6749
     4.8179   4.8179   4.9013   4.9013   5.2630   5.2630   5.3068   5.3068
     5.4250   5.4250   5.7013   5.7013   6.1951   6.1951   6.2600   6.2600
     6.5521   6.5521   6.6493   6.6493   6.7389   6.7390   6.8794   6.8794
     7.0836   7.0836   7.2048   7.2048   7.2173   7.2173   7.4632   7.4632
     7.5021   7.5021   7.5308   7.5309   7.5518   7.5518   7.7921   7.7921
    10.5232  10.5233  11.3773  11.3773  11.4408  11.4408  11.7842  11.7842
    11.8528  11.8528  11.9466  11.9466  12.6185  12.6185  12.7496  12.7496
    12.9302  12.9302  13.1555  13.1555  13.5333  13.5333  13.5996  13.5996
    15.4035  15.4035  15.5902  15.5902  16.2558  16.2558  16.6566  16.6566
    16.8443  16.8443  17.4109  17.4109  17.8847

          k = 0.0000-0.4761-0.4996 ( 62224 PWs)   bands (ev):

   -66.0614 -66.0614 -66.0614 -66.0614 -66.0604 -66.0604 -66.0604 -66.0604
   -30.4542 -30.4542 -30.4542 -30.4542 -30.4476 -30.4476 -30.4476 -30.4476
   -30.3923 -30.3923 -30.3923 -30.3923 -30.3583 -30.3583 -30.3583 -30.3583
   -30.3545 -30.3545 -30.3545 -30.3545 -30.2976 -30.2976 -30.2976 -30.2976
   -20.2171 -20.2171 -20.2171 -20.2171 -20.2170 -20.2170 -20.2170 -20.2170
   -20.2051 -20.2051 -20.2051 -20.2051 -20.2047 -20.2047 -20.2046 -20.2046
   -20.2000 -20.2000 -20.2000 -20.2000 -20.1992 -20.1992 -20.1992 -20.1992
   -20.1977 -20.1977 -20.1977 -20.1977 -20.1974 -20.1974 -20.1974 -20.1974
   -20.1873 -20.1873 -20.1873 -20.1873 -20.1847 -20.1847 -20.1847 -20.1847
   -20.1725 -20.1725 -20.1725 -20.1725 -20.1713 -20.1713 -20.1713 -20.1713
   -20.1702 -20.1702 -20.1702 -20.1702 -20.1653 -20.1653 -20.1653 -20.1653
    -9.3824  -9.3824  -9.3824  -9.3824  -8.6568  -8.6568  -8.6568  -8.6568
    -8.5606  -8.5606  -8.5606  -8.5605  -8.3568  -8.3568  -8.3568  -8.3568
    -8.2833  -8.2833  -8.2833  -8.2832  -7.6482  -7.6482  -7.6482  -7.6482
     1.4890   1.4890   1.4890   1.4890   3.0288   3.0288   3.0288   3.0288
     3.1597   3.1597   3.1597   3.1597   3.2802   3.2802   3.2802   3.2802
     3.3276   3.3276   3.3276   3.3276   3.5491   3.5491   3.5491   3.5491
     3.6812   3.6812   3.6812   3.6812   4.3546   4.3546   4.3546   4.3546
     4.4697   4.4697   4.4698   4.4698   5.2708   5.2708   5.2708   5.2708
     5.5600   5.5600   5.5600   5.5600   6.3110   6.3110   6.3110   6.3110
     6.5548   6.5549   6.5549   6.5549   6.6831   6.6831   6.6831   6.6831
     7.3153   7.3153   7.3153   7.3153   7.4017   7.4017   7.4017   7.4017
     7.5055   7.5055   7.5055   7.5056   7.6209   7.6209   7.6209   7.6209
    11.2269  11.2269  11.2269  11.2269  11.4730  11.4730  11.4730  11.4730
    12.3068  12.3068  12.3068  12.3068  12.3533  12.3533  12.3533  12.3533
    12.8788  12.8788  12.8789  12.8789  13.5479  13.5479  13.5479  13.5479
    15.4971  15.4971  15.4971  15.4972  16.9100  16.9100  16.9100  16.9100
    17.3357  17.3361  17.3361  17.3361  17.4701

          k = 0.1667 0.0000 0.0000 ( 62195 PWs)   bands (ev):

   -66.0620 -66.0616 -66.0611 -66.0610 -66.0607 -66.0606 -66.0602 -66.0597
   -30.4846 -30.4798 -30.4796 -30.4751 -30.4335 -30.4267 -30.4242 -30.4154
   -30.4078 -30.4073 -30.4014 -30.3971 -30.3885 -30.3862 -30.3773 -30.3764
   -30.3118 -30.3115 -30.3099 -30.3099 -30.3076 -30.3038 -30.3014 -30.2980
   -20.2175 -20.2174 -20.2172 -20.2171 -20.2171 -20.2170 -20.2168 -20.2167
   -20.2073 -20.2071 -20.2070 -20.2068 -20.2033 -20.2030 -20.2027 -20.2024
   -20.2009 -20.2004 -20.2001 -20.1995 -20.1991 -20.1989 -20.1988 -20.1987
   -20.1982 -20.1981 -20.1979 -20.1977 -20.1974 -20.1973 -20.1967 -20.1965
   -20.1874 -20.1872 -20.1870 -20.1869 -20.1852 -20.1849 -20.1847 -20.1846
   -20.1756 -20.1755 -20.1745 -20.1745 -20.1706 -20.1705 -20.1693 -20.1693
   -20.1690 -20.1689 -20.1682 -20.1681 -20.1663 -20.1663 -20.1650 -20.1650
    -9.8470  -9.5384  -9.4779  -9.3894  -9.1876  -9.0565  -9.0404  -8.9203
    -8.8943  -8.8159  -8.8076  -8.7526  -7.8876  -7.8332  -7.7974  -7.7801
    -7.7626  -7.7469  -7.7180  -7.7086  -7.6912  -7.6858  -7.6156  -7.5892
     1.3771   1.3797   1.3937   1.3943   1.5156   1.5550   1.6590   1.6622
     1.6992   1.8076   1.9305   2.0759   2.5494   2.6321   2.6404   2.7078
     2.7697   2.8594   4.1017   4.2104   4.4020   4.4046   4.5225   4.5232
     4.6516   4.8218   4.8622   4.9133   4.9219   5.0853   5.1675   5.4121
     5.4531   5.4733   5.5409   5.5636   5.6278   5.6430   5.6537   5.7326
     5.7566   5.8357   5.8361   5.9341   6.0485   6.0821   6.1016   6.1375
     6.3149   6.4364   6.4508   6.5547   6.7602   6.7655   6.7842   6.8113
     6.8532   6.9308   6.9617   6.9876   7.0304   7.0435   7.2015   7.2410
     7.2413   7.2431   7.8154   7.8212   8.0069   8.0700   8.1270   8.1774
     9.8093   9.8430  10.1154  10.1517  10.3340  10.4033  12.2177  12.2968
    12.3330  12.3678  12.4064  12.5164  12.6086  12.7054  12.7296  12.8892
    13.1836  13.1924  13.3206  13.4249  13.7592  13.8688  14.1494  14.1560
    14.3127  14.4659  14.6851  15.0365  15.4715  15.4869  15.5158  16.0052
    16.3348  16.7504  16.9388  17.2233  17.5914

          k = 0.1667 0.0000 0.1665 ( 62187 PWs)   bands (ev):

   -66.0619 -66.0615 -66.0611 -66.0611 -66.0607 -66.0606 -66.0602 -66.0598
   -30.4843 -30.4800 -30.4795 -30.4754 -30.4321 -30.4250 -30.4246 -30.4158
   -30.4032 -30.4019 -30.3954 -30.3925 -30.3871 -30.3866 -30.3778 -30.3753
   -30.3183 -30.3166 -30.3166 -30.3146 -30.3076 -30.3035 -30.3029 -30.2989
   -20.2175 -20.2174 -20.2172 -20.2171 -20.2171 -20.2170 -20.2168 -20.2167
   -20.2073 -20.2071 -20.2070 -20.2068 -20.2033 -20.2030 -20.2027 -20.2024
   -20.2009 -20.2005 -20.2001 -20.1995 -20.1992 -20.1990 -20.1988 -20.1985
   -20.1981 -20.1980 -20.1980 -20.1977 -20.1973 -20.1973 -20.1968 -20.1966
   -20.1874 -20.1872 -20.1870 -20.1869 -20.1852 -20.1849 -20.1848 -20.1846
   -20.1751 -20.1751 -20.1741 -20.1741 -20.1705 -20.1705 -20.1696 -20.1696
   -20.1693 -20.1692 -20.1686 -20.1686 -20.1662 -20.1662 -20.1651 -20.1651
    -9.7985  -9.4779  -9.4197  -9.4063  -9.1005  -9.0656  -9.0557  -8.8797
    -8.8615  -8.8101  -8.7764  -8.7578  -7.8963  -7.8660  -7.8318  -7.8238
    -7.7944  -7.7846  -7.7629  -7.7426  -7.7211  -7.7120  -7.6927  -7.6796
     1.4961   1.5354   1.5429   1.5818   1.5829   1.6481   1.6523   1.7052
     1.7597   1.8100   1.9951   2.1417   2.6388   2.7154   2.7173   2.7369
     2.8386   2.8748   4.1020   4.1339   4.3856   4.3993   4.5206   4.5396
     4.5759   4.5857   4.6862   4.7023   4.8164   4.8922   5.1555   5.3103
     5.3124   5.3703   5.4103   5.5324   5.5703   5.6381   5.6596   5.7317
     5.7542   5.7752   5.7798   5.7825   5.8458   6.0550   6.2778   6.3643
     6.4183   6.5033   6.5943   6.6780   6.7087   6.7142   6.7316   6.7714
     6.7935   6.8584   6.9162   6.9227   6.9553   6.9979   7.0081   7.1237
     7.3065   7.3641   7.8209   7.8219   8.0209   8.0734   8.0963   8.1340
    10.0107  10.0707  10.3362  10.3544  10.3857  10.4773  12.2678  12.2757
    12.3322  12.3445  12.4085  12.4739  12.6876  12.7254  12.7472  12.9044
    13.0712  13.1993  13.2253  13.3622  13.8030  13.8591  14.0152  14.0452
    14.3561  14.5801  14.6779  15.1536  15.4848  15.5386  15.5520  16.2929
    16.3020  16.9176  16.9389  17.0985  17.6392

          k = 0.1667 0.0000 0.3330 ( 62188 PWs)   bands (ev):

   -66.0618 -66.0613 -66.0613 -66.0609 -66.0608 -66.0605 -66.0604 -66.0600
   -30.4834 -30.4809 -30.4787 -30.4763 -30.4295 -30.4257 -30.4217 -30.4170
   -30.3926 -30.3918 -30.3876 -30.3808 -30.3787 -30.3784 -30.3765 -30.3699
   -30.3353 -30.3340 -30.3325 -30.3310 -30.3069 -30.3045 -30.3027 -30.3003
   -20.2174 -20.2173 -20.2172 -20.2172 -20.2171 -20.2170 -20.2169 -20.2168
   -20.2073 -20.2072 -20.2069 -20.2068 -20.2032 -20.2031 -20.2027 -20.2025
   -20.2008 -20.2006 -20.2000 -20.1997 -20.1993 -20.1990 -20.1990 -20.1984
   -20.1981 -20.1977 -20.1977 -20.1975 -20.1973 -20.1972 -20.1970 -20.1968
   -20.1873 -20.1871 -20.1871 -20.1870 -20.1851 -20.1849 -20.1848 -20.1847
   -20.1740 -20.1740 -20.1730 -20.1730 -20.1708 -20.1708 -20.1702 -20.1701
   -20.1698 -20.1698 -20.1696 -20.1695 -20.1660 -20.1660 -20.1654 -20.1653
    -9.6798  -9.4591  -9.3325  -9.2840  -9.1034  -9.0964  -8.8532  -8.8092
    -8.7718  -8.7414  -8.7297  -8.6583  -8.1525  -8.1515  -8.0764  -8.0535
    -7.8417  -7.8080  -7.7813  -7.7716  -7.7434  -7.7220  -7.7161  -7.7147
     1.5106   1.5328   1.6036   1.6360   1.7202   1.7382   1.7928   1.8177
     2.3272   2.3664   2.4911   2.5816   2.7385   2.8261   2.9052   2.9598
     3.0168   3.1096   3.8232   3.9327   3.9662   3.9871   4.1941   4.3420
     4.3781   4.5109   4.5735   4.5910   4.6561   4.8063   4.8312   4.9385
     5.0582   5.1235   5.1416   5.2576   5.3328   5.4030   5.6200   5.6814
     5.7267   5.7827   5.8195   5.8563   5.8813   6.0532   6.1384   6.1850
     6.4544   6.4570   6.5275   6.5809   6.5912   6.7090   6.7271   6.7601
     6.7913   6.9171   6.9240   6.9317   7.1378   7.1394   7.2335   7.2594
     7.3472   7.3960   7.7818   7.7954   7.9444   7.9965   8.0669   8.0764
    10.3065  10.3155  10.6354  10.7216  10.9628  11.0824  11.9382  12.0017
    12.2136  12.4089  12.4875  12.5194  12.5724  12.7228  12.7687  12.8548
    12.9248  13.0981  13.1077  13.3018  13.6846  13.7002  13.8525  13.8892
    14.4937  14.6546  14.8832  15.3824  15.4493  15.7679  15.9525  16.2109
    16.4068  17.1091  17.3920  17.4691  17.5630

          k = 0.1667 0.0000-0.4996 ( 62210 PWs)   bands (ev):

   -66.0615 -66.0615 -66.0611 -66.0611 -66.0607 -66.0607 -66.0602 -66.0602
   -30.4822 -30.4822 -30.4775 -30.4775 -30.4273 -30.4273 -30.4190 -30.4190
   -30.3894 -30.3894 -30.3830 -30.3830 -30.3576 -30.3576 -30.3574 -30.3574
   -30.3541 -30.3541 -30.3539 -30.3538 -30.3058 -30.3058 -30.3016 -30.3016
   -20.2173 -20.2173 -20.2172 -20.2172 -20.2170 -20.2170 -20.2169 -20.2169
   -20.2072 -20.2072 -20.2069 -20.2069 -20.2031 -20.2031 -20.2026 -20.2026
   -20.2007 -20.2007 -20.1999 -20.1999 -20.1992 -20.1992 -20.1988 -20.1988
   -20.1977 -20.1977 -20.1975 -20.1975 -20.1973 -20.1973 -20.1970 -20.1970
   -20.1872 -20.1872 -20.1870 -20.1870 -20.1850 -20.1850 -20.1848 -20.1848
   -20.1724 -20.1724 -20.1724 -20.1724 -20.1714 -20.1714 -20.1714 -20.1714
   -20.1699 -20.1699 -20.1698 -20.1698 -20.1657 -20.1657 -20.1656 -20.1656
    -9.5524  -9.5524  -9.1920  -9.1920  -9.1629  -9.1629  -8.7896  -8.7896
    -8.5139  -8.5139  -8.4983  -8.4983  -8.4506  -8.4506  -8.3955  -8.3955
    -7.8212  -7.8212  -7.7595  -7.7595  -7.7391  -7.7391  -7.7317  -7.7317
     1.5197   1.5197   1.6202   1.6202   1.7400   1.7400   1.8252   1.8252
     2.7614   2.7614   3.0493   3.0493   3.1317   3.1317   3.2365   3.2365
     3.3382   3.3382   3.4477   3.4477   3.6111   3.6111   3.8415   3.8416
     3.9118   3.9118   4.4790   4.4790   4.5750   4.5750   4.9511   4.9511
     5.0647   5.0647   5.1214   5.1214   5.2820   5.2820   5.6701   5.6701
     5.8037   5.8037   5.8389   5.8389   5.9185   5.9185   6.0253   6.0253
     6.3766   6.3766   6.4866   6.4866   6.6846   6.6846   6.7431   6.7431
     6.8826   6.8826   6.9819   6.9819   7.0375   7.0375   7.5688   7.5688
     7.6073   7.6073   7.7001   7.7001   7.7509   7.7509   8.0749   8.0749
    10.3290  10.3290  11.3125  11.3125  11.4069  11.4069  11.6527  11.6527
    11.8385  11.8385  12.5705  12.5705  12.7256  12.7256  12.7838  12.7838
    12.9378  12.9378  13.2948  13.2948  13.3916  13.3916  13.8655  13.8655
    14.6034  14.6034  15.1859  15.1859  15.8723  15.8723  16.0282  16.0282
    16.7288  16.7288  17.8466  17.8467  17.9563

          k = 0.1667 0.1587 0.0000 ( 62164 PWs)   bands (ev):

   -66.0620 -66.0616 -66.0611 -66.0610 -66.0607 -66.0606 -66.0602 -66.0598
   -30.4808 -30.4759 -30.4757 -30.4711 -30.4362 -30.4295 -30.4276 -30.4194
   -30.4080 -30.4075 -30.4015 -30.3982 -30.3881 -30.3859 -30.3783 -30.3778
   -30.3117 -30.3115 -30.3100 -30.3100 -30.3074 -30.3041 -30.3013 -30.2983
   -20.2175 -20.2174 -20.2172 -20.2171 -20.2171 -20.2170 -20.2168 -20.2167
   -20.2070 -20.2068 -20.2067 -20.2065 -20.2035 -20.2032 -20.2030 -20.2027
   -20.2008 -20.2003 -20.2000 -20.1994 -20.1991 -20.1990 -20.1989 -20.1988
   -20.1982 -20.1982 -20.1980 -20.1978 -20.1974 -20.1973 -20.1968 -20.1966
   -20.1874 -20.1872 -20.1870 -20.1869 -20.1852 -20.1850 -20.1847 -20.1846
   -20.1756 -20.1755 -20.1745 -20.1745 -20.1706 -20.1705 -20.1693 -20.1693
   -20.1690 -20.1689 -20.1682 -20.1681 -20.1663 -20.1663 -20.1650 -20.1650
    -9.8152  -9.5506  -9.4401  -9.3438  -9.1955  -9.0490  -8.9822  -8.9160
    -8.8955  -8.7750  -8.7700  -8.7223  -7.9395  -7.8787  -7.8648  -7.8351
    -7.8203  -7.8184  -7.7482  -7.7232  -7.7006  -7.6837  -7.6141  -7.5924
     1.3878   1.3927   1.3948   1.3950   1.6436   1.6759   1.7010   1.8610
     1.8867   1.9328   1.9517   2.1686   2.5571   2.6341   2.7072   2.7822
     2.8434   2.9272   3.9970   4.0822   4.1557   4.2526   4.4331   4.5200
     4.6418   4.7523   4.8863   4.8940   4.9391   4.9971   5.0382   5.2973
     5.3547   5.3904   5.4258   5.5506   5.5988   5.6053   5.6664   5.7276
     5.7939   5.8227   5.8711   5.8925   5.9212   6.0911   6.1069   6.1430
     6.2732   6.4204   6.4446   6.5849   6.7441   6.7796   6.8301   6.8340
     6.8710   6.9282   6.9488   6.9983   7.0149   7.0460   7.2041   7.2367
     7.2445   7.2493   7.8154   7.8205   7.9814   8.0167   8.0737   8.0974
     9.8193   9.8460  10.2956  10.3046  10.5035  10.5481  12.1439  12.3038
    12.3197  12.3417  12.3946  12.4259  12.4598  12.5846  12.7320  12.8804
    13.1926  13.2093  13.3342  13.4098  13.8133  13.8282  14.0546  14.0621
    14.4773  14.7336  14.9085  15.1898  15.4734  15.4832  15.8973  15.9931
    16.2999  16.6565  16.8847  17.3301  17.6206

          k = 0.1667 0.1587 0.1665 ( 62169 PWs)   bands (ev):

   -66.0619 -66.0615 -66.0611 -66.0611 -66.0607 -66.0607 -66.0602 -66.0598
   -30.4804 -30.4761 -30.4756 -30.4714 -30.4350 -30.4281 -30.4279 -30.4198
   -30.4032 -30.4020 -30.3955 -30.3933 -30.3867 -30.3862 -30.3787 -30.3766
   -30.3182 -30.3168 -30.3165 -30.3148 -30.3073 -30.3038 -30.3027 -30.2992
   -20.2175 -20.2174 -20.2171 -20.2171 -20.2171 -20.2170 -20.2168 -20.2167
   -20.2070 -20.2068 -20.2067 -20.2065 -20.2035 -20.2033 -20.2030 -20.2027
   -20.2008 -20.2004 -20.2000 -20.1995 -20.1992 -20.1991 -20.1989 -20.1986
   -20.1982 -20.1981 -20.1980 -20.1977 -20.1973 -20.1973 -20.1968 -20.1966
   -20.1874 -20.1872 -20.1870 -20.1869 -20.1851 -20.1849 -20.1848 -20.1846
   -20.1751 -20.1751 -20.1741 -20.1741 -20.1705 -20.1705 -20.1696 -20.1696
   -20.1693 -20.1692 -20.1686 -20.1686 -20.1662 -20.1662 -20.1651 -20.1651
    -9.7651  -9.4902  -9.3775  -9.3611  -9.1085  -9.0646  -8.9914  -8.8776
    -8.8625  -8.7686  -8.7431  -8.7272  -7.9449  -7.8832  -7.8745  -7.8641
    -7.8304  -7.8281  -7.8215  -7.8093  -7.7480  -7.7234  -7.7002  -7.6823
     1.5731   1.5794   1.6126   1.6444   1.6513   1.6818   1.7095   1.8588
     1.9166   1.9483   1.9956   2.2161   2.6483   2.7296   2.7908   2.7942
     2.9123   2.9408   4.0087   4.0536   4.1761   4.2308   4.4710   4.5153
     4.5679   4.5861   4.6606   4.7258   4.7490   4.8381   4.9907   5.2141
     5.2728   5.2955   5.3611   5.4079   5.4443   5.5766   5.5946   5.6544
     5.7704   5.7843   5.8164   5.8378   5.8505   5.9058   6.2697   6.3597
     6.4063   6.4291   6.5897   6.6671   6.7201   6.7420   6.8045   6.8098
     6.8473   6.8524   6.9321   6.9479   6.9806   6.9924   7.0346   7.1335
     7.3126   7.3621   7.8200   7.8219   7.9823   8.0209   8.0460   8.0594
    10.0345  10.0814  10.4827  10.5063  10.5343  10.6078  12.2064  12.2650
    12.3265  12.3499  12.3687  12.4006  12.5462  12.5748  12.7753  12.9000
    13.0822  13.2058  13.2138  13.3560  13.8092  13.8249  13.9168  13.9598
    14.5622  14.8677  14.9065  15.2908  15.5396  15.5495  15.8812  16.2641
    16.2707  16.7889  17.0307  17.0608  17.6690

          k = 0.1667 0.1587 0.3330 ( 62191 PWs)   bands (ev):

   -66.0617 -66.0613 -66.0613 -66.0609 -66.0609 -66.0605 -66.0604 -66.0600
   -30.4795 -30.4770 -30.4748 -30.4723 -30.4327 -30.4290 -30.4252 -30.4209
   -30.3925 -30.3917 -30.3873 -30.3812 -30.3792 -30.3787 -30.3764 -30.3709
   -30.3353 -30.3342 -30.3325 -30.3311 -30.3066 -30.3042 -30.3031 -30.3006
   -20.2174 -20.2173 -20.2172 -20.2171 -20.2171 -20.2170 -20.2169 -20.2168
   -20.2070 -20.2069 -20.2066 -20.2065 -20.2035 -20.2033 -20.2029 -20.2028
   -20.2007 -20.2005 -20.1999 -20.1996 -20.1993 -20.1991 -20.1990 -20.1985
   -20.1981 -20.1978 -20.1978 -20.1976 -20.1974 -20.1973 -20.1970 -20.1968
   -20.1873 -20.1871 -20.1871 -20.1870 -20.1851 -20.1849 -20.1848 -20.1847
   -20.1740 -20.1740 -20.1730 -20.1730 -20.1708 -20.1708 -20.1702 -20.1701
   -20.1698 -20.1698 -20.1696 -20.1695 -20.1660 -20.1660 -20.1654 -20.1653
    -9.6423  -9.4150  -9.3448  -9.2285  -9.1131  -9.0229  -8.8617  -8.7881
    -8.7443  -8.7389  -8.7110  -8.6384  -8.1592  -8.1495  -8.0927  -8.0513
    -7.9005  -7.8806  -7.8479  -7.8200  -7.8006  -7.7835  -7.7314  -7.7149
     1.6478   1.6612   1.7179   1.7353   1.8138   1.8280   1.9031   1.9478
     2.3262   2.3759   2.4929   2.5964   2.8114   2.8851   2.9305   3.0133
     3.0354   3.1685   3.8274   3.9117   3.9454   3.9800   4.1828   4.2334
     4.2791   4.4574   4.4875   4.5917   4.6333   4.7430   4.7833   4.8699
     4.8992   4.9917   5.0388   5.1797   5.2431   5.2946   5.4149   5.6378
     5.6621   5.6803   5.8149   5.8325   5.8534   5.8769   6.1291   6.1795
     6.4022   6.5553   6.5669   6.6593   6.7155   6.7208   6.7488   6.8207
     6.8572   6.9088   6.9568   6.9974   7.1317   7.1446   7.2325   7.2634
     7.3441   7.3888   7.7829   7.7928   7.9017   7.9388   8.0163   8.0243
    10.4490  10.4668  10.6654  10.7397  11.0679  11.1622  11.9390  11.9980
    12.2084  12.3926  12.4890  12.5067  12.5648  12.5795  12.7562  12.7983
    12.8023  13.0685  13.0983  13.2907  13.5784  13.6063  13.8291  13.8503
    14.7406  14.8826  15.2239  15.5529  15.7563  15.7864  15.9689  16.1826
    16.5168  17.0781  17.2151  17.4573  17.5255

          k = 0.1667 0.1587-0.4996 ( 62202 PWs)   bands (ev):

   -66.0615 -66.0615 -66.0611 -66.0611 -66.0606 -66.0606 -66.0603 -66.0603
   -30.4783 -30.4783 -30.4736 -30.4736 -30.4306 -30.4306 -30.4228 -30.4228
   -30.3891 -30.3891 -30.3836 -30.3836 -30.3577 -30.3577 -30.3575 -30.3575
   -30.3542 -30.3542 -30.3541 -30.3541 -30.3055 -30.3055 -30.3019 -30.3019
   -20.2173 -20.2173 -20.2172 -20.2172 -20.2170 -20.2170 -20.2169 -20.2169
   -20.2069 -20.2069 -20.2066 -20.2066 -20.2034 -20.2034 -20.2028 -20.2028
   -20.2006 -20.2006 -20.1998 -20.1998 -20.1993 -20.1993 -20.1988 -20.1988
   -20.1978 -20.1978 -20.1975 -20.1975 -20.1973 -20.1973 -20.1971 -20.1971
   -20.1872 -20.1872 -20.1871 -20.1871 -20.1850 -20.1850 -20.1848 -20.1848
   -20.1724 -20.1724 -20.1724 -20.1724 -20.1714 -20.1714 -20.1714 -20.1714
   -20.1699 -20.1699 -20.1698 -20.1698 -20.1657 -20.1657 -20.1656 -20.1656
    -9.5107  -9.5107  -9.2031  -9.2031  -9.0940  -9.0940  -8.7585  -8.7585
    -8.5184  -8.5184  -8.4993  -8.4993  -8.4524  -8.4524  -8.3898  -8.3898
    -7.8932  -7.8932  -7.8363  -7.8363  -7.7671  -7.7671  -7.7485  -7.7485
     1.6553   1.6553   1.7373   1.7373   1.8284   1.8284   1.9450   1.9450
     2.8289   2.8289   3.0679   3.0679   3.1484   3.1484   3.2483   3.2483
     3.3395   3.3395   3.4624   3.4624   3.6019   3.6019   3.8509   3.8509
     3.9621   3.9621   4.3548   4.3548   4.4973   4.4973   4.7619   4.7619
     4.9552   4.9552   5.0753   5.0753   5.1557   5.1557   5.5133   5.5133
     5.7324   5.7324   5.7711   5.7711   5.8869   5.8869   5.9254   5.9255
     6.5008   6.5008   6.6361   6.6361   6.6845   6.6845   6.7892   6.7892
     6.9418   6.9418   6.9580   6.9580   7.0702   7.0702   7.5688   7.5688
     7.6031   7.6031   7.6745   7.6745   7.7197   7.7197   8.0219   8.0219
    10.4927  10.4927  11.3196  11.3196  11.4069  11.4069  11.7182  11.7182
    11.8930  11.8930  12.5751  12.5752  12.6077  12.6077  12.7426  12.7426
    12.9147  12.9147  13.1843  13.1843  13.3258  13.3258  13.8294  13.8294
    14.8409  14.8409  15.5549  15.5549  15.9680  15.9680  16.0295  16.0295
    16.7653  16.7653  17.6813  17.6813  17.9557

          k = 0.1667 0.3174 0.0000 ( 62158 PWs)   bands (ev):

   -66.0619 -66.0617 -66.0610 -66.0609 -66.0608 -66.0607 -66.0601 -66.0599
   -30.4705 -30.4653 -30.4651 -30.4601 -30.4443 -30.4380 -30.4371 -30.4303
   -30.4083 -30.4078 -30.4016 -30.4002 -30.3867 -30.3848 -30.3807 -30.3804
   -30.3113 -30.3113 -30.3104 -30.3103 -30.3067 -30.3048 -30.3008 -30.2991
   -20.2174 -20.2173 -20.2172 -20.2171 -20.2170 -20.2169 -20.2168 -20.2168
   -20.2063 -20.2060 -20.2059 -20.2057 -20.2042 -20.2039 -20.2037 -20.2035
   -20.2005 -20.2001 -20.1998 -20.1995 -20.1992 -20.1991 -20.1990 -20.1989
   -20.1984 -20.1983 -20.1983 -20.1979 -20.1973 -20.1972 -20.1969 -20.1967
   -20.1873 -20.1872 -20.1870 -20.1869 -20.1851 -20.1850 -20.1847 -20.1846
   -20.1756 -20.1755 -20.1745 -20.1745 -20.1706 -20.1705 -20.1693 -20.1693
   -20.1690 -20.1689 -20.1682 -20.1681 -20.1663 -20.1663 -20.1650 -20.1650
    -9.7376  -9.5881  -9.3537  -9.2372  -9.2216  -9.0779  -8.9093  -8.8988
    -8.7723  -8.6424  -8.6403  -8.6137  -8.1647  -8.1182  -8.1116  -8.0919
    -7.8451  -7.8314  -7.7442  -7.7302  -7.7005  -7.6883  -7.6100  -7.5979
     1.3926   1.3940   1.3968   1.3972   1.6870   1.6970   1.8747   1.9246
     2.4001   2.5148   2.5531   2.5750   2.6182   2.6971   2.9431   3.0000
     3.0726   3.1294   3.6510   3.6701   3.7869   3.8152   4.1582   4.4260
     4.4862   4.5377   4.5997   4.7669   4.8090   4.8660   4.9595   4.9660
     5.0957   5.0971   5.2947   5.3877   5.4485   5.5374   5.6273   5.6677
     5.7374   5.8045   5.8247   5.8802   6.0758   6.0843   6.1126   6.1455
     6.2905   6.3900   6.4427   6.6009   6.6656   6.8670   6.8979   6.9428
     6.9856   6.9956   7.0872   7.1208   7.1279   7.1361   7.2277   7.2321
     7.2684   7.2925   7.7824   7.8064   7.8502   7.8584   7.8722   7.8901
     9.8345   9.8476  10.7323  10.7738  10.9501  10.9528  11.8279  11.9957
    12.0395  12.1128  12.3177  12.3296  12.4121  12.4434  12.7911  12.8647
    13.2496  13.2713  13.4113  13.4489  13.6456  13.6610  13.8280  13.8390
    15.0026  15.2687  15.3954  15.4765  15.5285  15.7643  15.8786  16.1256
    16.1840  16.8886  17.2806  17.3709  17.7526

          k = 0.1667 0.3174 0.1665 ( 62171 PWs)   bands (ev):

   -66.0618 -66.0616 -66.0610 -66.0610 -66.0608 -66.0607 -66.0601 -66.0599
   -30.4701 -30.4655 -30.4649 -30.4605 -30.4435 -30.4376 -30.4370 -30.4306
   -30.4032 -30.4024 -30.3956 -30.3948 -30.3854 -30.3851 -30.3808 -30.3796
   -30.3180 -30.3171 -30.3162 -30.3152 -30.3067 -30.3046 -30.3021 -30.3001
   -20.2174 -20.2173 -20.2172 -20.2171 -20.2170 -20.2170 -20.2169 -20.2168
   -20.2062 -20.2061 -20.2059 -20.2057 -20.2042 -20.2040 -20.2037 -20.2035
   -20.2005 -20.2001 -20.1998 -20.1996 -20.1992 -20.1992 -20.1991 -20.1986
   -20.1984 -20.1983 -20.1981 -20.1978 -20.1973 -20.1972 -20.1970 -20.1968
   -20.1873 -20.1872 -20.1870 -20.1869 -20.1851 -20.1850 -20.1847 -20.1846
   -20.1751 -20.1751 -20.1741 -20.1741 -20.1705 -20.1705 -20.1696 -20.1696
   -20.1693 -20.1692 -20.1686 -20.1686 -20.1662 -20.1662 -20.1651 -20.1651
    -9.6837  -9.5286  -9.2803  -9.2551  -9.1354  -9.0943  -8.8738  -8.8657
    -8.7812  -8.6349  -8.6265  -8.6180  -8.1670  -8.1209  -8.1135  -8.0977
    -7.8608  -7.8518  -7.8260  -7.8192  -7.7458  -7.7327  -7.6993  -7.6874
     1.5751   1.5788   1.6427   1.6486   1.6932   1.7033   1.9275   1.9896
     2.4044   2.5129   2.5392   2.6614   2.6787   2.7321   3.0101   3.0355
     3.1240   3.1585   3.6768   3.7169   3.7886   3.8151   4.1444   4.4529
     4.4923   4.5111   4.5391   4.6063   4.6524   4.7798   4.8022   4.8791
     4.9249   4.9707   5.1822   5.1995   5.4185   5.4285   5.4481   5.4734
     5.6750   5.6968   5.7637   5.7866   5.8466   5.8540   6.3047   6.3465
     6.4505   6.4784   6.5713   6.6560   6.7899   6.8323   6.8736   6.9041
     6.9446   6.9618   7.0301   7.0513   7.1112   7.1326   7.1649   7.1910
     7.3447   7.3661   7.7871   7.8055   7.8320   7.8478   7.8668   7.8763
    10.0654  10.0865  10.8899  10.9132  10.9605  11.0000  11.9147  12.0104
    12.0915  12.1110  12.3361  12.3597  12.3692  12.3931  12.8408  12.8932
    13.1679  13.2498  13.2559  13.3779  13.6034  13.6643  13.6806  13.7579
    15.1342  15.4155  15.4732  15.5415  15.5679  15.8288  16.1527  16.1630
    16.2649  16.8553  17.3461  17.4248  17.4535

          k = 0.1667 0.3174 0.3330 ( 62178 PWs)   bands (ev):

   -66.0617 -66.0614 -66.0612 -66.0609 -66.0608 -66.0606 -66.0603 -66.0601
   -30.4691 -30.4664 -30.4640 -30.4614 -30.4418 -30.4385 -30.4352 -30.4317
   -30.3921 -30.3917 -30.3863 -30.3827 -30.3796 -30.3793 -30.3761 -30.3732
   -30.3352 -30.3345 -30.3323 -30.3315 -30.3059 -30.3039 -30.3035 -30.3015
   -20.2173 -20.2172 -20.2171 -20.2171 -20.2170 -20.2170 -20.2169 -20.2168
   -20.2062 -20.2061 -20.2058 -20.2057 -20.2042 -20.2040 -20.2037 -20.2035
   -20.2004 -20.2002 -20.1997 -20.1996 -20.1994 -20.1993 -20.1991 -20.1987
   -20.1982 -20.1979 -20.1978 -20.1976 -20.1974 -20.1973 -20.1972 -20.1970
   -20.1873 -20.1872 -20.1871 -20.1870 -20.1850 -20.1849 -20.1848 -20.1847
   -20.1740 -20.1740 -20.1730 -20.1730 -20.1708 -20.1708 -20.1702 -20.1702
   -20.1698 -20.1698 -20.1696 -20.1695 -20.1660 -20.1660 -20.1653 -20.1653
    -9.5514  -9.3840  -9.3108  -9.1452  -9.0925  -8.8919  -8.8165  -8.7630
    -8.7455  -8.6318  -8.6081  -8.5605  -8.2288  -8.1979  -8.1440  -8.1178
    -8.1030  -8.0626  -8.0437  -7.9844  -7.8049  -7.7920  -7.7328  -7.7205
     1.7049   1.7175   1.7267   1.7362   2.2400   2.3188   2.3269   2.4235
     2.4920   2.5370   2.5540   2.7505   2.9397   2.9945   3.0366   3.1142
     3.2677   3.3633   3.7085   3.7193   3.7727   3.8379   3.9442   4.0137
     4.1402   4.3393   4.3962   4.4519   4.4559   4.5842   4.6382   4.7254
     4.7555   4.8547   4.8858   4.9112   4.9842   5.0590   5.1879   5.2083
     5.3662   5.3872   5.4888   5.6563   5.8117   5.8603   6.1620   6.1787
     6.5658   6.6473   6.6564   6.7639   6.8413   6.8637   6.9531   6.9969
     7.0324   7.0476   7.0832   7.1088   7.1678   7.2276   7.2450   7.2891
     7.3376   7.3779   7.7479   7.7573   7.7760   7.7945   7.8405   7.8622
    10.6232  10.6522  10.9502  10.9882  11.3659  11.4238  11.9080  11.9699
    12.0564  12.1703  12.2143  12.2870  12.5034  12.5956  12.6510  12.7316
    12.8234  13.0394  13.0825  13.3131  13.3262  13.4161  13.6451  13.6742
    15.3016  15.4165  15.7290  15.9718  15.9907  16.0551  16.1227  16.7256
    16.7320  16.8577  16.9999  17.5568  17.6626

          k = 0.1667 0.3174-0.4996 ( 62182 PWs)   bands (ev):

   -66.0614 -66.0614 -66.0612 -66.0612 -66.0606 -66.0606 -66.0603 -66.0603
   -30.4677 -30.4677 -30.4627 -30.4627 -30.4400 -30.4400 -30.4333 -30.4333
   -30.3881 -30.3881 -30.3850 -30.3850 -30.3579 -30.3579 -30.3578 -30.3578
   -30.3546 -30.3546 -30.3544 -30.3544 -30.3048 -30.3048 -30.3028 -30.3028
   -20.2172 -20.2172 -20.2171 -20.2171 -20.2170 -20.2170 -20.2169 -20.2169
   -20.2062 -20.2062 -20.2058 -20.2058 -20.2041 -20.2041 -20.2036 -20.2036
   -20.2004 -20.2003 -20.1996 -20.1996 -20.1995 -20.1994 -20.1989 -20.1989
   -20.1978 -20.1978 -20.1976 -20.1976 -20.1974 -20.1974 -20.1972 -20.1972
   -20.1872 -20.1872 -20.1871 -20.1871 -20.1849 -20.1849 -20.1848 -20.1848
   -20.1724 -20.1724 -20.1724 -20.1724 -20.1714 -20.1714 -20.1714 -20.1714
   -20.1699 -20.1699 -20.1699 -20.1699 -20.1657 -20.1657 -20.1656 -20.1656
    -9.4107  -9.4107  -9.2394  -9.2394  -8.9062  -8.9062  -8.6612  -8.6612
    -8.5463  -8.5463  -8.5071  -8.5071  -8.4460  -8.4459  -8.3665  -8.3665
    -8.1146  -8.1146  -8.0746  -8.0746  -7.7688  -7.7688  -7.7559  -7.7559
     1.7241   1.7241   1.7374   1.7374   2.4079   2.4079   2.5251   2.5251
     3.0069   3.0069   3.1233   3.1233   3.1628   3.1628   3.2916   3.2916
     3.3423   3.3423   3.5147   3.5147   3.5632   3.5632   3.7700   3.7700
     4.0959   4.0959   4.1216   4.1216   4.1613   4.1613   4.3881   4.3881
     4.7884   4.7884   4.8846   4.8846   5.0412   5.0412   5.0926   5.0926
     5.1927   5.1928   5.5629   5.5629   5.9079   5.9079   5.9292   5.9292
     6.6862   6.6862   6.7949   6.7949   6.8484   6.8484   6.8974   6.8974
     7.0636   7.0636   7.1045   7.1045   7.2111   7.2111   7.5508   7.5508
     7.5792   7.5792   7.5947   7.5947   7.6402   7.6402   7.8453   7.8453
    10.9170  10.9170  11.3337  11.3337  11.4142  11.4142  11.8669  11.8669
    12.0653  12.0653  12.2547  12.2547  12.5593  12.5593  12.6175  12.6175
    12.8300  12.8300  12.9466  12.9466  13.2856  13.2856  13.6414  13.6414
    15.3760  15.3760  15.9159  15.9159  16.3870  16.3870  16.4909  16.4910
    16.9038  16.9038  17.3335  17.3335  17.8719

          k = 0.1667-0.4761 0.0000 ( 62174 PWs)   bands (ev):

   -66.0618 -66.0618 -66.0609 -66.0609 -66.0608 -66.0608 -66.0600 -66.0600
   -30.4569 -30.4569 -30.4512 -30.4512 -30.4508 -30.4508 -30.4452 -30.4452
   -30.4082 -30.4082 -30.4013 -30.4013 -30.3845 -30.3845 -30.3824 -30.3824
   -30.3109 -30.3109 -30.3108 -30.3108 -30.3058 -30.3058 -30.3000 -30.3000
   -20.2173 -20.2173 -20.2172 -20.2172 -20.2169 -20.2169 -20.2168 -20.2168
   -20.2052 -20.2052 -20.2050 -20.2050 -20.2048 -20.2048 -20.2046 -20.2045
   -20.2000 -20.2000 -20.1996 -20.1996 -20.1995 -20.1994 -20.1987 -20.1987
   -20.1987 -20.1986 -20.1981 -20.1981 -20.1972 -20.1971 -20.1970 -20.1970
   -20.1873 -20.1873 -20.1869 -20.1869 -20.1851 -20.1851 -20.1847 -20.1847
   -20.1756 -20.1755 -20.1745 -20.1745 -20.1706 -20.1706 -20.1693 -20.1693
   -20.1690 -20.1690 -20.1682 -20.1681 -20.1663 -20.1663 -20.1650 -20.1650
    -9.6528  -9.6528  -9.2727  -9.2727  -9.1376  -9.1376  -8.9035  -8.9035
    -8.4719  -8.4718  -8.4147  -8.4147  -8.3999  -8.3999  -8.3960  -8.3960
    -7.8395  -7.8395  -7.7375  -7.7375  -7.6948  -7.6948  -7.6041  -7.6041
     1.3937   1.3937   1.3973   1.3973   1.6950   1.6950   1.9142   1.9142
     2.5958   2.5958   3.1064   3.1064   3.2089   3.2089   3.2750   3.2750
     3.3435   3.3435   3.3869   3.3869   3.5776   3.5776   3.6610   3.6610
     3.7722   3.7722   4.5115   4.5115   4.8377   4.8377   5.0950   5.0950
     5.1779   5.1779   5.2614   5.2615   5.3643   5.3643   5.5659   5.5659
     5.7668   5.7668   5.8106   5.8106   6.1037   6.1037   6.1410   6.1410
     6.4149   6.4149   6.4285   6.4285   6.7532   6.7532   6.9419   6.9419
     7.0268   7.0268   7.1953   7.1953   7.2229   7.2229   7.4848   7.4848
     7.5049   7.5049   7.5543   7.5543   7.5759   7.5759   7.8287   7.8287
     9.8439   9.8439  11.3000  11.3000  11.3693  11.3693  11.5027  11.5027
    11.5761  11.5761  12.3260  12.3260  12.4260  12.4260  12.8433  12.8433
    13.3688  13.3688  13.4660  13.4660  13.5838  13.5838  13.6082  13.6082
    15.4428  15.4428  15.5729  15.5729  15.6718  15.6718  15.9285  15.9285
    16.6386  16.6386  17.8882  17.8883  18.0834

          k = 0.1667-0.4761 0.1665 ( 62150 PWs)   bands (ev):

   -66.0617 -66.0617 -66.0609 -66.0609 -66.0609 -66.0609 -66.0600 -66.0600
   -30.4564 -30.4564 -30.4513 -30.4513 -30.4506 -30.4506 -30.4456 -30.4455
   -30.4029 -30.4028 -30.3955 -30.3955 -30.3839 -30.3839 -30.3822 -30.3821
   -30.3176 -30.3176 -30.3157 -30.3157 -30.3057 -30.3057 -30.3011 -30.3011
   -20.2173 -20.2173 -20.2172 -20.2172 -20.2169 -20.2169 -20.2169 -20.2169
   -20.2052 -20.2052 -20.2050 -20.2050 -20.2048 -20.2048 -20.2046 -20.2046
   -20.2001 -20.2000 -20.1997 -20.1997 -20.1994 -20.1994 -20.1988 -20.1988
   -20.1985 -20.1985 -20.1980 -20.1980 -20.1972 -20.1972 -20.1970 -20.1970
   -20.1873 -20.1873 -20.1870 -20.1870 -20.1851 -20.1850 -20.1847 -20.1847
   -20.1751 -20.1751 -20.1741 -20.1741 -20.1705 -20.1705 -20.1696 -20.1696
   -20.1692 -20.1692 -20.1686 -20.1686 -20.1662 -20.1662 -20.1651 -20.1651
    -9.5952  -9.5952  -9.1903  -9.1901  -9.1550  -9.1549  -8.8695  -8.8695
    -8.4794  -8.4789  -8.4113  -8.4109  -8.4014  -8.4012  -8.3960  -8.3949
    -7.8570  -7.8561  -7.8243  -7.8243  -7.7399  -7.7399  -7.6939  -7.6937
     1.5754   1.5782   1.6464   1.6489   1.7008   1.7019   1.9766   1.9784
     2.6876   2.6894   3.1232   3.1253   3.2005   3.2296   3.2630   3.2867
     3.3490   3.3662   3.3922   3.4321   3.6110   3.6225   3.6606   3.6645
     3.7936   3.7978   4.5142   4.5554   4.5616   4.6007   4.9636   4.9833
[...]
    12.0631  12.0631  12.0631  12.0631  12.2822  12.2822  12.2822  12.2822
    13.0518  13.0518  13.0518  13.0518  13.2339  13.2339  13.2339  13.2339
    15.3420  15.3420  15.3420  15.3420  16.8088  16.8088  16.8088  16.8088
    17.5735  17.5735  17.5735  17.5735  17.7876

          k =-0.5000 0.3174 0.0000 ( 62204 PWs)   bands (ev):

   -66.0615 -66.0615 -66.0612 -66.0612 -66.0605 -66.0605 -66.0603 -66.0603
   -30.4677 -30.4677 -30.4625 -30.4625 -30.4406 -30.4406 -30.4331 -30.4331
   -30.4042 -30.4041 -30.4032 -30.4032 -30.3482 -30.3481 -30.3460 -30.3460
   -30.3437 -30.3437 -30.3422 -30.3422 -30.3090 -30.3090 -30.3083 -30.3083
   -20.2174 -20.2173 -20.2172 -20.2172 -20.2170 -20.2170 -20.2168 -20.2168
   -20.2061 -20.2061 -20.2059 -20.2059 -20.2040 -20.2040 -20.2038 -20.2038
   -20.2001 -20.2001 -20.1996 -20.1996 -20.1992 -20.1991 -20.1988 -20.1988
   -20.1986 -20.1986 -20.1981 -20.1981 -20.1972 -20.1972 -20.1968 -20.1968
   -20.1862 -20.1861 -20.1860 -20.1860 -20.1858 -20.1858 -20.1857 -20.1857
   -20.1750 -20.1750 -20.1750 -20.1750 -20.1690 -20.1690 -20.1690 -20.1690
   -20.1682 -20.1682 -20.1682 -20.1682 -20.1673 -20.1672 -20.1672 -20.1672
    -9.4992  -9.4991  -9.3522  -9.3522  -8.8894  -8.8893  -8.6936  -8.6936
    -8.4981  -8.4981  -8.4912  -8.4912  -8.4301  -8.4301  -8.3382  -8.3382
    -8.1083  -8.1083  -8.0673  -8.0673  -7.6737  -7.6737  -7.6612  -7.6611
     1.4229   1.4229   1.4284   1.4284   2.3967   2.3967   2.5390   2.5390
     2.9820   2.9820   3.0698   3.0698   3.1339   3.1339   3.2916   3.2916
     3.3383   3.3383   3.4777   3.4777   3.5495   3.5495   3.7057   3.7057
     4.0563   4.0564   4.1151   4.1151   4.2664   4.2664   4.4362   4.4362
     4.8679   4.8679   4.9364   4.9364   5.1747   5.1747   5.3560   5.3560
     5.5025   5.5026   5.7675   5.7675   6.2542   6.2542   6.3018   6.3018
     6.5120   6.5120   6.5789   6.5789   6.5819   6.5819   6.7840   6.7840
     7.0621   7.0621   7.1090   7.1090   7.1130   7.1130   7.5120   7.5120
     7.5319   7.5319   7.6279   7.6279   7.6584   7.6584   7.8734   7.8735
    10.7555  10.7555  11.2676  11.2676  11.3224  11.3224  11.6900  11.6900
    12.0578  12.0578  12.2257  12.2257  12.5815  12.5815  12.7237  12.7237
    12.8557  12.8557  13.0215  13.0215  13.4343  13.4343  13.8233  13.8233
    15.1996  15.1996  15.6649  15.6649  16.3192  16.3192  16.4827  16.4827
    16.7530  16.7530  17.2876  17.2876  17.8924

          k =-0.5000 0.3174 0.1665 ( 62170 PWs)   bands (ev):

   -66.0614 -66.0614 -66.0612 -66.0612 -66.0606 -66.0606 -66.0604 -66.0603
   -30.4674 -30.4674 -30.4629 -30.4629 -30.4398 -30.4398 -30.4335 -30.4335
   -30.3980 -30.3980 -30.3976 -30.3976 -30.3479 -30.3479 -30.3461 -30.3461
   -30.3437 -30.3437 -30.3428 -30.3428 -30.3150 -30.3150 -30.3145 -30.3145
   -20.2173 -20.2173 -20.2171 -20.2171 -20.2170 -20.2170 -20.2168 -20.2168
   -20.2061 -20.2061 -20.2059 -20.2059 -20.2040 -20.2040 -20.2038 -20.2038
   -20.2001 -20.2001 -20.1997 -20.1997 -20.1992 -20.1992 -20.1988 -20.1988
   -20.1984 -20.1984 -20.1981 -20.1981 -20.1973 -20.1972 -20.1969 -20.1969
   -20.1861 -20.1861 -20.1860 -20.1860 -20.1858 -20.1858 -20.1857 -20.1857
   -20.1746 -20.1746 -20.1746 -20.1746 -20.1693 -20.1693 -20.1692 -20.1692
   -20.1683 -20.1683 -20.1683 -20.1683 -20.1673 -20.1673 -20.1673 -20.1673
    -9.4307  -9.4306  -9.2716  -9.2715  -8.9040  -8.9040  -8.6741  -8.6741
    -8.5165  -8.5164  -8.4862  -8.4862  -8.4169  -8.4168  -8.3421  -8.3421
    -8.1055  -8.1054  -8.0723  -8.0723  -7.7910  -7.7910  -7.7780  -7.7779
     1.6704   1.6704   1.6807   1.6807   2.4019   2.4019   2.5226   2.5227
     3.0389   3.0389   3.1084   3.1084   3.1394   3.1394   3.3090   3.3090
     3.3597   3.3597   3.5401   3.5401   3.5929   3.5929   3.7554   3.7554
     4.0474   4.0474   4.1244   4.1244   4.2610   4.2610   4.4363   4.4363
     4.7693   4.7693   4.8539   4.8539   5.0422   5.0422   5.1014   5.1015
     5.2149   5.2149   5.5597   5.5597   5.8907   5.8907   5.9155   5.9155
     6.6833   6.6833   6.8144   6.8144   6.8651   6.8651   6.8988   6.8988
     7.0386   7.0386   7.1207   7.1207   7.1884   7.1884   7.5217   7.5217
     7.5479   7.5479   7.6355   7.6355   7.6661   7.6662   7.8527   7.8527
    10.9138  10.9138  11.3409  11.3409  11.4016  11.4016  11.7460  11.7460
    12.0722  12.0722  12.2653  12.2653  12.5674  12.5674  12.6839  12.6839
    12.8381  12.8381  12.9835  12.9835  13.2802  13.2802  13.6851  13.6851
    15.4034  15.4034  15.9133  15.9133  16.3796  16.3796  16.4831  16.4831
    16.8101  16.8101  17.3247  17.3247  17.8363

          k =-0.5000 0.3174 0.3330 ( 62174 PWs)   bands (ev):

   -66.0612 -66.0612 -66.0610 -66.0610 -66.0607 -66.0607 -66.0605 -66.0605
   -30.4664 -30.4664 -30.4638 -30.4638 -30.4380 -30.4380 -30.4346 -30.4345
   -30.3819 -30.3819 -30.3814 -30.3814 -30.3480 -30.3480 -30.3478 -30.3478
   -30.3447 -30.3447 -30.3430 -30.3430 -30.3304 -30.3303 -30.3299 -30.3299
   -20.2173 -20.2173 -20.2171 -20.2171 -20.2171 -20.2171 -20.2169 -20.2169
   -20.2061 -20.2061 -20.2060 -20.2060 -20.2040 -20.2040 -20.2038 -20.2038
   -20.2000 -20.2000 -20.1998 -20.1998 -20.1993 -20.1992 -20.1990 -20.1990
   -20.1981 -20.1981 -20.1979 -20.1978 -20.1973 -20.1973 -20.1971 -20.1971
   -20.1861 -20.1861 -20.1860 -20.1860 -20.1858 -20.1858 -20.1858 -20.1858
   -20.1735 -20.1735 -20.1735 -20.1735 -20.1704 -20.1703 -20.1703 -20.1703
   -20.1682 -20.1682 -20.1682 -20.1681 -20.1676 -20.1676 -20.1675 -20.1675
    -9.2555  -9.2554  -9.0504  -9.0504  -8.9548  -8.9548  -8.6150  -8.6150
    -8.5714  -8.5714  -8.4574  -8.4574  -8.3919  -8.3918  -8.3505  -8.3505
    -8.1219  -8.1219  -8.0943  -8.0943  -8.0688  -8.0688  -8.0232  -8.0231
     2.2639   2.2639   2.3507   2.3507   2.4195   2.4195   2.5514   2.5514
     3.0914   3.0914   3.1379   3.1379   3.2531   3.2531   3.3299   3.3299
     3.4143   3.4143   3.6887   3.6887   3.7726   3.7726   3.8738   3.8738
     4.0147   4.0147   4.1496   4.1496   4.2485   4.2485   4.2781   4.2781
     4.4032   4.4032   4.5354   4.5354   4.6989   4.6989   4.9009   4.9009
     4.9844   4.9844   5.0857   5.0857   5.1164   5.1164   5.3483   5.3483
     6.8694   6.8694   6.9300   6.9300   7.0103   7.0103   7.0564   7.0564
     7.2115   7.2115   7.3245   7.3245   7.3980   7.3981   7.5255   7.5255
     7.5698   7.5698   7.6498   7.6498   7.6739   7.6739   7.7962   7.7962
    11.3221  11.3221  11.5700  11.5700  11.6600  11.6600  11.8426  11.8426
    12.1285  12.1285  12.3722  12.3722  12.4279  12.4279  12.4472  12.4472
    12.7770  12.7770  12.8687  12.8687  12.9221  12.9222  13.3231  13.3231
    15.9114  15.9114  16.3538  16.3538  16.6177  16.6177  16.6949  16.6949
    17.0233  17.0233  17.3889  17.3889  17.6528

          k =-0.5000 0.3174-0.4996 ( 62156 PWs)   bands (ev):

   -66.0610 -66.0610 -66.0610 -66.0610 -66.0608 -66.0608 -66.0608 -66.0608
   -30.4651 -30.4651 -30.4651 -30.4651 -30.4361 -30.4361 -30.4361 -30.4361
   -30.3615 -30.3615 -30.3615 -30.3615 -30.3590 -30.3590 -30.3590 -30.3590
   -30.3435 -30.3435 -30.3435 -30.3435 -30.3399 -30.3399 -30.3398 -30.3398
   -20.2172 -20.2172 -20.2172 -20.2172 -20.2170 -20.2170 -20.2170 -20.2170
   -20.2060 -20.2060 -20.2060 -20.2060 -20.2039 -20.2039 -20.2039 -20.2039
   -20.1999 -20.1999 -20.1999 -20.1999 -20.1992 -20.1992 -20.1992 -20.1991
   -20.1978 -20.1978 -20.1978 -20.1978 -20.1973 -20.1973 -20.1973 -20.1973
   -20.1860 -20.1860 -20.1860 -20.1860 -20.1858 -20.1858 -20.1858 -20.1858
   -20.1719 -20.1719 -20.1719 -20.1719 -20.1719 -20.1719 -20.1719 -20.1719
   -20.1679 -20.1679 -20.1679 -20.1679 -20.1679 -20.1678 -20.1678 -20.1678
    -9.0686  -9.0686  -9.0686  -9.0686  -8.7703  -8.7703  -8.7703  -8.7703
    -8.4584  -8.4584  -8.4584  -8.4584  -8.3356  -8.3356  -8.3356  -8.3356
    -8.3070  -8.3070  -8.3070  -8.3070  -8.0778  -8.0778  -8.0778  -8.0778
     2.4165   2.4165   2.4165   2.4165   3.0352   3.0352   3.0352   3.0352
     3.1503   3.1503   3.1503   3.1503   3.2818   3.2818   3.2818   3.2818
     3.4158   3.4158   3.4158   3.4158   3.9440   3.9440   3.9440   3.9440
     4.0505   4.0505   4.0505   4.0505   4.1488   4.1488   4.1488   4.1488
     4.3856   4.3856   4.3856   4.3856   4.4609   4.4609   4.4609   4.4609
     4.7771   4.7771   4.7771   4.7771   5.0995   5.0995   5.0995   5.0995
     6.9324   6.9324   6.9324   6.9324   7.0466   7.0467   7.0467   7.0467
     7.4271   7.4271   7.4271   7.4271   7.5052   7.5052   7.5052   7.5052
     7.6127   7.6127   7.6127   7.6127   7.7219   7.7219   7.7219   7.7219
    11.7620  11.7620  11.7620  11.7620  11.8931  11.8931  11.8931  11.8931
    12.0905  12.0905  12.0905  12.0905  12.3633  12.3633  12.3633  12.3633
    12.7310  12.7310  12.7310  12.7310  12.9363  12.9363  12.9363  12.9363
    16.2534  16.2534  16.2534  16.2534  16.9771  16.9771  16.9771  16.9771
    17.4424  17.4424  17.4424  17.4424  17.7863

          k =-0.5000-0.4761 0.0000 ( 62224 PWs)   bands (ev):

   -66.0614 -66.0614 -66.0614 -66.0613 -66.0604 -66.0604 -66.0604 -66.0604
   -30.4540 -30.4540 -30.4535 -30.4535 -30.4480 -30.4480 -30.4475 -30.4475
   -30.4041 -30.4041 -30.4040 -30.4040 -30.3473 -30.3473 -30.3466 -30.3466
   -30.3436 -30.3436 -30.3429 -30.3429 -30.3087 -30.3087 -30.3087 -30.3087
   -20.2173 -20.2172 -20.2172 -20.2172 -20.2169 -20.2169 -20.2169 -20.2169
   -20.2051 -20.2051 -20.2050 -20.2050 -20.2049 -20.2049 -20.2047 -20.2047
   -20.1997 -20.1997 -20.1996 -20.1996 -20.1992 -20.1992 -20.1991 -20.1991
   -20.1984 -20.1984 -20.1984 -20.1984 -20.1971 -20.1971 -20.1971 -20.1970
   -20.1861 -20.1861 -20.1861 -20.1861 -20.1857 -20.1857 -20.1857 -20.1857
   -20.1750 -20.1750 -20.1750 -20.1750 -20.1690 -20.1690 -20.1690 -20.1690
   -20.1682 -20.1682 -20.1682 -20.1682 -20.1672 -20.1672 -20.1672 -20.1672
    -9.4149  -9.4149  -9.4092  -9.4092  -8.6560  -8.6560  -8.6337  -8.6337
    -8.5592  -8.5592  -8.5406  -8.5406  -8.3626  -8.3626  -8.3193  -8.3193
    -8.2856  -8.2856  -8.2475  -8.2475  -7.6678  -7.6678  -7.6675  -7.6675
     1.4239   1.4239   1.4295   1.4295   2.9702   2.9702   3.0738   3.0738
     3.1311   3.1311   3.1476   3.1476   3.2737   3.2737   3.2835   3.2835
     3.3690   3.3691   3.4317   3.4317   3.5168   3.5168   3.5452   3.5452
     3.5890   3.5890   3.8679   3.8679   4.3174   4.3174   4.3922   4.3922
     4.4040   4.4040   4.5108   4.5108   5.2530   5.2530   5.2956   5.2956
     5.5446   5.5446   5.5959   5.5959   6.2868   6.2868   6.3000   6.3000
     6.5770   6.5770   6.5895   6.5895   6.6353   6.6353   6.6954   6.6954
     7.2861   7.2862   7.3038   7.3038   7.3314   7.3314   7.4617   7.4617
     7.5222   7.5222   7.5764   7.5764   7.6002   7.6002   7.6242   7.6242
    11.2640  11.2640  11.2835  11.2835  11.3445  11.3445  11.3708  11.3708
    12.2590  12.2590  12.3158  12.3158  12.3711  12.3711  12.4396  12.4396
    12.8946  12.8946  12.9062  12.9062  13.5657  13.5657  13.6035  13.6035
    15.5133  15.5133  15.5258  15.5258  16.8113  16.8113  16.9294  16.9294
    17.2451  17.2451  17.3420  17.3424  17.4100

          k =-0.5000-0.4761 0.1665 ( 62140 PWs)   bands (ev):

   -66.0613 -66.0613 -66.0613 -66.0613 -66.0605 -66.0605 -66.0605 -66.0604
   -30.4535 -30.4535 -30.4530 -30.4530 -30.4484 -30.4484 -30.4478 -30.4478
   -30.3982 -30.3982 -30.3980 -30.3980 -30.3470 -30.3470 -30.3464 -30.3464
   -30.3440 -30.3440 -30.3433 -30.3433 -30.3148 -30.3148 -30.3147 -30.3147
   -20.2172 -20.2172 -20.2172 -20.2172 -20.2169 -20.2169 -20.2169 -20.2169
   -20.2051 -20.2051 -20.2050 -20.2050 -20.2049 -20.2049 -20.2048 -20.2048
   -20.1998 -20.1998 -20.1997 -20.1997 -20.1992 -20.1992 -20.1992 -20.1992
   -20.1983 -20.1983 -20.1983 -20.1983 -20.1971 -20.1971 -20.1971 -20.1971
   -20.1861 -20.1861 -20.1861 -20.1861 -20.1858 -20.1858 -20.1857 -20.1857
   -20.1746 -20.1746 -20.1746 -20.1746 -20.1693 -20.1693 -20.1693 -20.1692
   -20.1683 -20.1683 -20.1683 -20.1683 -20.1673 -20.1673 -20.1673 -20.1673
    -9.3387  -9.3387  -9.3323  -9.3323  -8.6757  -8.6757  -8.6535  -8.6535
    -8.5430  -8.5430  -8.5225  -8.5225  -8.3594  -8.3594  -8.3196  -8.3196
    -8.2849  -8.2849  -8.2505  -8.2505  -7.7850  -7.7850  -7.7848  -7.7848
     1.6748   1.6748   1.6817   1.6817   2.9823   2.9823   3.0865   3.0865
     3.1298   3.1298   3.1547   3.1547   3.2538   3.2538   3.3117   3.3117
     3.4055   3.4055   3.4946   3.4946   3.5664   3.5664   3.5849   3.5849
     3.6341   3.6341   3.8913   3.8913   4.3226   4.3226   4.3786   4.3786
     4.4059   4.4060   4.5011   4.5012   4.9369   4.9369   5.1067   5.1067
     5.2100   5.2100   5.3553   5.3553   5.8903   5.8903   5.9122   5.9122
     6.7523   6.7523   6.8197   6.8197   6.9026   6.9026   6.9387   6.9387
     7.2743   7.2743   7.3027   7.3027   7.3764   7.3764   7.4493   7.4493
     7.5106   7.5106   7.5691   7.5691   7.6206   7.6207   7.6429   7.6429
    11.3173  11.3173  11.3617  11.3617  11.4457  11.4457  11.5235  11.5235
    12.2666  12.2666  12.3215  12.3215  12.3658  12.3658  12.4497  12.4497
    12.8111  12.8111  12.8804  12.8804  13.4078  13.4078  13.4629  13.4630
    15.7583  15.7583  15.7813  15.7813  16.8664  16.8665  16.9812  16.9812
    17.2534  17.2534  17.3542  17.3543  17.4107

          k =-0.5000-0.4761 0.3330 ( 62128 PWs)   bands (ev):

   -66.0611 -66.0611 -66.0611 -66.0611 -66.0606 -66.0606 -66.0606 -66.0606
   -30.4522 -30.4522 -30.4518 -30.4517 -30.4494 -30.4494 -30.4488 -30.4488
   -30.3818 -30.3818 -30.3817 -30.3817 -30.3478 -30.3478 -30.3475 -30.3475
   -30.3446 -30.3446 -30.3438 -30.3438 -30.3304 -30.3304 -30.3301 -30.3301
   -20.2172 -20.2172 -20.2172 -20.2171 -20.2170 -20.2170 -20.2170 -20.2170
   -20.2051 -20.2051 -20.2050 -20.2050 -20.2049 -20.2049 -20.2048 -20.2048
   -20.1998 -20.1998 -20.1997 -20.1997 -20.1993 -20.1993 -20.1993 -20.1993
   -20.1980 -20.1980 -20.1980 -20.1980 -20.1972 -20.1972 -20.1972 -20.1972
   -20.1861 -20.1861 -20.1860 -20.1860 -20.1858 -20.1858 -20.1858 -20.1858
   -20.1735 -20.1735 -20.1735 -20.1735 -20.1704 -20.1703 -20.1703 -20.1703
   -20.1682 -20.1682 -20.1682 -20.1681 -20.1676 -20.1676 -20.1676 -20.1675
    -9.1347  -9.1347  -9.1253  -9.1253  -8.7416  -8.7415  -8.7196  -8.7196
    -8.4880  -8.4880  -8.4666  -8.4666  -8.3516  -8.3516  -8.3232  -8.3232
    -8.2804  -8.2804  -8.2586  -8.2586  -8.0639  -8.0639  -8.0628  -8.0628
     2.3343   2.3343   2.3484   2.3484   3.0105   3.0105   3.0718   3.0718
     3.1457   3.1457   3.1768   3.1768   3.2689   3.2689   3.3071   3.3071
     3.4916   3.4916   3.5432   3.5432   3.6585   3.6585   3.7043   3.7043
     3.8656   3.8656   3.9910   3.9910   4.2978   4.2978   4.3126   4.3126
     4.3759   4.3759   4.4455   4.4455   4.5399   4.5399   4.6555   4.6555
     4.7272   4.7272   4.8758   4.8758   5.1079   5.1079   5.1426   5.1426
     7.0018   7.0018   7.1014   7.1014   7.1958   7.1958   7.2275   7.2275
     7.2956   7.2957   7.3456   7.3456   7.4126   7.4126   7.4335   7.4335
     7.5140   7.5140   7.5934   7.5934   7.6319   7.6319   7.6731   7.6731
    11.5423  11.5423  11.5757  11.5757  11.7806  11.7806  11.8723  11.8723
    12.2470  12.2470  12.2895  12.2895  12.3519  12.3519  12.4504  12.4504
    12.5744  12.5744  12.6901  12.6901  13.0032  13.0032  13.0818  13.0818
    16.4576  16.4576  16.5111  16.5111  17.0183  17.0183  17.1185  17.1185
    17.2584  17.2584  17.3678  17.3687  17.4132

          k =-0.5000-0.4761-0.4996 ( 62176 PWs)   bands (ev):

   -66.0609 -66.0609 -66.0609 -66.0609 -66.0609 -66.0609 -66.0609 -66.0609
   -30.4508 -30.4508 -30.4508 -30.4508 -30.4502 -30.4502 -30.4502 -30.4502
   -30.3614 -30.3614 -30.3614 -30.3614 -30.3592 -30.3591 -30.3591 -30.3591
   -30.3429 -30.3429 -30.3429 -30.3429 -30.3407 -30.3407 -30.3407 -30.3407
   -20.2171 -20.2171 -20.2171 -20.2171 -20.2171 -20.2171 -20.2171 -20.2170
   -20.2050 -20.2050 -20.2050 -20.2050 -20.2049 -20.2049 -20.2049 -20.2049
   -20.1997 -20.1997 -20.1997 -20.1997 -20.1994 -20.1994 -20.1994 -20.1994
   -20.1978 -20.1978 -20.1978 -20.1978 -20.1974 -20.1974 -20.1974 -20.1973
   -20.1860 -20.1860 -20.1860 -20.1860 -20.1859 -20.1858 -20.1858 -20.1858
   -20.1719 -20.1719 -20.1719 -20.1719 -20.1719 -20.1719 -20.1719 -20.1719
   -20.1679 -20.1679 -20.1679 -20.1679 -20.1679 -20.1678 -20.1678 -20.1678
    -8.8954  -8.8954  -8.8954  -8.8954  -8.8758  -8.8758  -8.8758  -8.8758
    -8.3720  -8.3720  -8.3720  -8.3720  -8.3390  -8.3389  -8.3389  -8.3389
    -8.2985  -8.2985  -8.2985  -8.2985  -8.2676  -8.2676  -8.2676  -8.2676
     2.9719   2.9719   2.9719   2.9719   3.0522   3.0522   3.0522   3.0522
     3.1954   3.1954   3.1954   3.1954   3.3033   3.3033   3.3033   3.3033
     3.4131   3.4131   3.4131   3.4131   3.5735   3.5736   3.5736   3.5736
     4.2032   4.2032   4.2032   4.2032   4.2181   4.2181   4.2181   4.2181
     4.4057   4.4057   4.4057   4.4057   4.4576   4.4576   4.4576   4.4576
     4.5254   4.5254   4.5254   4.5254   4.5835   4.5835   4.5835   4.5835
     7.1381   7.1381   7.1381   7.1381   7.2977   7.2977   7.2977   7.2977
     7.3584   7.3584   7.3584   7.3584   7.4103   7.4103   7.4103   7.4103
     7.6005   7.6005   7.6005   7.6005   7.6611   7.6611   7.6611   7.6611
    11.8957  11.8957  11.8957  11.8957  11.9123  11.9123  11.9123  11.9123
    12.2466  12.2466  12.2466  12.2466  12.4016  12.4016  12.4016  12.4016
    12.5670  12.5670  12.5670  12.5670  12.6437  12.6437  12.6437  12.6437
    17.0960  17.0960  17.0960  17.0960  17.1688  17.1688  17.1688  17.1688
    17.3857  17.3858  17.3858  17.3858  17.4246

     the Fermi energy is     9.8357 ev

!    total energy              =   -6260.85506351 Ry
     Harris-Foulkes estimate   =   -6260.85506351 Ry
     estimated scf accuracy    <          1.5E-09 Ry

     The total energy is the sum of the following terms:

     one-electron contribution =   -4704.44148769 Ry
     hartree contribution      =    2590.34704712 Ry
     xc contribution           =    -965.96923639 Ry
     ewald contribution        =   -3180.79134326 Ry
     smearing contrib. (-TS)   =      -0.00004328 Ry

     convergence has been achieved in  13 iterations

     Writing output data file Landau_22.save/
 
     init_run     :     46.96s CPU     49.28s WALL (       1 calls)
     electrons    :   1885.13s CPU   1918.83s WALL (       1 calls)

     Called by init_run:
     wfcinit      :     44.17s CPU     46.33s WALL (       1 calls)
     potinit      :      1.07s CPU      1.12s WALL (       1 calls)
     hinit0       :      1.49s CPU      1.55s WALL (       1 calls)

     Called by electrons:
     c_bands      :   1681.99s CPU   1712.74s WALL (      13 calls)
     sum_band     :    195.34s CPU    196.97s WALL (      13 calls)
     v_of_rho     :      1.56s CPU      1.64s WALL (      14 calls)
     mix_rho      :      2.69s CPU      3.37s WALL (      13 calls)

     Called by c_bands:
     init_us_2    :      9.18s CPU      9.86s WALL (      54 calls)
     cegterg      :   1483.39s CPU   1511.99s WALL (      26 calls)

     Called by sum_band:

     Called by *egterg:
     h_psi        :   1092.40s CPU   1107.23s WALL (     127 calls)
     g_psi        :      1.70s CPU      1.71s WALL (      99 calls)
     cdiaghg      :     20.96s CPU     21.08s WALL (     125 calls)

     Called by h_psi:
     h_psi:pot    :   1089.53s CPU   1097.72s WALL (     127 calls)
     h_psi:calbec :    171.02s CPU    175.41s WALL (     127 calls)
     vloc_psi     :    743.23s CPU    745.79s WALL (     127 calls)
     add_vuspsi   :    175.28s CPU    176.51s WALL (     127 calls)

     General routines
     calbec       :    171.01s CPU    175.41s WALL (     127 calls)
     fft          :      0.89s CPU      0.90s WALL (      42 calls)
     ffts         :      0.30s CPU      0.30s WALL (      13 calls)
     fftw         :    783.70s CPU    785.87s WALL (   33942 calls)
 
     Parallel routines
 
     PWSCF        :  32m46.80s CPU  33m36.35s WALL

 
   This run was terminated on:  20:51:55   2Dec2019            

=------------------------------------------------------------------------------=
   JOB DONE.
=------------------------------------------------------------------------------=
