
     Program PWSCF v.6.2 (svn rev. 14038) starts on 20Mar2020 at  4:37:47 

     This program is part of the open-source Quantum ESPRESSO suite
     for quantum simulation of materials; please cite
         "P. Giannozzi et al., J. Phys.:Condens. Matter 21 395502 (2009);
         "P. Giannozzi et al., J. Phys.:Condens. Matter 29 465901 (2017);
          URL http://www.quantum-espresso.org", 
     in publications or presentations arising from this work. More details at
     http://www.quantum-espresso.org/quote

     Parallel version (MPI), running on    40 processors

     MPI processes distributed on     7 nodes
     K-points division:     npool     =      40
     Reading input from rscf.in

     Current dimensions of program PWSCF are:
     Max number of different atomic species (ntypx) = 10
     Max number of k-points (npk) =  40000
     Max angular momentum in pseudopotentials (lmaxx) =  3

     Subspace diagonalization in iterative solution of the eigenvalue problem:
     a serial algorithm will be used

 
     G-vector sticks info
     --------------------
     sticks:   dense  smooth     PW     G-vecs:    dense   smooth      PW
     Sum        7747    7747   2077               498127   498127   69057
 


     bravais-lattice index     =            0
     lattice parameter (alat)  =      13.8397  a.u.
     unit-cell volume          =    2804.9816 (a.u.)^3
     number of atoms/cell      =           32
     number of atomic types    =            2
     number of electrons       =       368.00
     number of Kohn-Sham states=          221
     kinetic-energy cutoff     =     120.0000  Ry
     charge density cutoff     =     480.0000  Ry
     convergence threshold     =      1.0E-08
     mixing beta               =       0.7000
     number of iterations used =            8  plain     mixing
     Exchange-correlation      = SLA PW NOGX NOGC ( 1  4  0  0 0 0)
     nstep                     =           50


     celldm(1)=  13.839685  celldm(2)=   0.000000  celldm(3)=   0.000000
     celldm(4)=   0.000000  celldm(5)=   0.000000  celldm(6)=   0.000000

     crystal axes: (cart. coord. in units of alat)
               a(1) = (   1.000000   0.000000   0.000000 )  
               a(2) = (   0.000000   1.058160   0.000000 )  
               a(3) = (   0.000000   0.000000   1.000000 )  

     reciprocal axes: (cart. coord. in units 2 pi/alat)
               b(1) = (  1.000000  0.000000  0.000000 )  
               b(2) = (  0.000000  0.945037  0.000000 )  
               b(3) = (  0.000000  0.000000  1.000000 )  


     PseudoPot. # 1 for W  read from file:
     /cluster/scratch/mnoe/QE/pps/W_ONCV_LDA-4.0.upf
     MD5 check sum: ba0307d5d4cd419d6f1d13dc49d7c13a
     Pseudo is Norm-conserving + core correction, Zval = 28.0
     Generated using ONCVPSP code by D. R. Hamann
     Using radial grid of 1380 points,  8 beta functions with: 
                l(1) =   0
                l(2) =   0
                l(3) =   1
                l(4) =   1
                l(5) =   2
                l(6) =   2
                l(7) =   3
                l(8) =   3

     PseudoPot. # 2 for O  read from file:
     /cluster/scratch/mnoe/QE/pps/O_ONCV_LDA-3.0.upf
     MD5 check sum: a1bd6164e7280c17a38c229939bfbd54
     Pseudo is Norm-conserving + core correction, Zval =  6.0
     Generated using ONCVPSP code by D. R. Hamann
     Using radial grid of  926 points,  5 beta functions with: 
                l(1) =   0
                l(2) =   0
                l(3) =   1
                l(4) =   1
                l(5) =   2

     atomic species   valence    mass     pseudopotential
        W             28.00   183.84000     W ( 1.00)
        O              6.00    15.99940     O ( 1.00)

      8 Sym. Ops., with inversion, found ( 6 have fractional translation)



   Cartesian axes

     site n.     atom                  positions (alat units)
         1           W   tau(   1) = (   0.2413379   0.2878643   0.0081798  )
         2           W   tau(   2) = (   0.7586620   0.7702958  -0.0081798  )
         3           W   tau(   3) = (   0.2586621   0.2412158   0.5081798  )
         4           W   tau(   4) = (   0.7413379   0.8169444   0.4918202  )
         5           W   tau(   5) = (   0.7586620   0.2878643   0.4918202  )
         6           W   tau(   6) = (   0.2413379   0.7702958   0.5081798  )
         7           W   tau(   7) = (   0.7413379   0.2412158  -0.0081798  )
         8           W   tau(   8) = (   0.2586621   0.8169444   0.0081798  )
         9           O   tau(   9) = (   0.2340197   0.0059737   0.0025424  )
        10           O   tau(  10) = (   0.7659803  -0.0059737  -0.0025424  )
        11           O   tau(  11) = (   0.2659803   0.5231064   0.5025424  )
        12           O   tau(  12) = (   0.7340196   0.5350538   0.4974576  )
        13           O   tau(  13) = (   0.7659803   0.0059737   0.4974576  )
        14           O   tau(  14) = (   0.2340197  -0.0059737   0.5025424  )
        15           O   tau(  15) = (   0.7340196   0.5231064  -0.0025424  )
        16           O   tau(  16) = (   0.2659803   0.5350538   0.0025424  )
        17           O   tau(  17) = (   0.5023692   0.2471943   0.4735462  )
        18           O   tau(  18) = (   0.4976308   0.8109658   0.5264539  )
        19           O   tau(  19) = (  -0.0023692   0.2818857   0.9735463  )
        20           O   tau(  20) = (   0.0023692   0.7762744   0.0264537  )
        21           O   tau(  21) = (   0.4976308   0.2471943   0.0264537  )
        22           O   tau(  22) = (   0.5023692   0.8109658   0.9735463  )
        23           O   tau(  23) = (   0.0023692   0.2818857   0.5264539  )
        24           O   tau(  24) = (  -0.0023692   0.7762744   0.4735462  )
        25           O   tau(  25) = (   0.7235462   0.2607548   0.7464087  )
        26           O   tau(  26) = (   0.2764537   0.7974054   0.2535912  )
        27           O   tau(  27) = (   0.7764539   0.2683253   0.2464088  )
        28           O   tau(  28) = (   0.2235462   0.7898349   0.7535912  )
        29           O   tau(  29) = (   0.2764537   0.2607548   0.7535912  )
        30           O   tau(  30) = (   0.7235462   0.7974054   0.2464088  )
        31           O   tau(  31) = (   0.2235462   0.2683253   0.2535912  )
        32           O   tau(  32) = (   0.7764539   0.7898349   0.7464087  )

     number of k points=    64  gaussian smearing, width (Ry)=  0.0007
                       cart. coord. in units 2pi/alat
        k(    1) = (   0.0000000   0.0000000   0.0000000), wk =   0.0092593
        k(    2) = (   0.0000000   0.0000000   0.1666667), wk =   0.0185185
        k(    3) = (   0.0000000   0.0000000   0.3333333), wk =   0.0185185
        k(    4) = (   0.0000000   0.0000000  -0.5000000), wk =   0.0092593
        k(    5) = (   0.0000000   0.1575061   0.0000000), wk =   0.0185185
        k(    6) = (   0.0000000   0.1575061   0.1666667), wk =   0.0370370
        k(    7) = (   0.0000000   0.1575061   0.3333333), wk =   0.0370370
        k(    8) = (   0.0000000   0.1575061  -0.5000000), wk =   0.0185185
        k(    9) = (   0.0000000   0.3150122   0.0000000), wk =   0.0185185
        k(   10) = (   0.0000000   0.3150122   0.1666667), wk =   0.0370370
        k(   11) = (   0.0000000   0.3150122   0.3333333), wk =   0.0370370
        k(   12) = (   0.0000000   0.3150122  -0.5000000), wk =   0.0185185
        k(   13) = (   0.0000000  -0.4725183   0.0000000), wk =   0.0092593
        k(   14) = (   0.0000000  -0.4725183   0.1666667), wk =   0.0185185
        k(   15) = (   0.0000000  -0.4725183   0.3333333), wk =   0.0185185
        k(   16) = (   0.0000000  -0.4725183  -0.5000000), wk =   0.0092593
        k(   17) = (   0.1666667   0.0000000   0.1666667), wk =   0.0370370
        k(   18) = (   0.1666667   0.0000000   0.3333333), wk =   0.0370370
        k(   19) = (   0.1666667   0.0000000  -0.5000000), wk =   0.0185185
        k(   20) = (   0.1666667   0.1575061   0.1666667), wk =   0.0740741
        k(   21) = (   0.1666667   0.1575061   0.3333333), wk =   0.0740741
        k(   22) = (   0.1666667   0.1575061  -0.5000000), wk =   0.0370370
        k(   23) = (   0.1666667   0.3150122   0.1666667), wk =   0.0740741
        k(   24) = (   0.1666667   0.3150122   0.3333333), wk =   0.0740741
        k(   25) = (   0.1666667   0.3150122  -0.5000000), wk =   0.0370370
        k(   26) = (   0.1666667  -0.4725183   0.1666667), wk =   0.0370370
        k(   27) = (   0.1666667  -0.4725183   0.3333333), wk =   0.0370370
        k(   28) = (   0.1666667  -0.4725183  -0.5000000), wk =   0.0185185
        k(   29) = (   0.3333333   0.0000000   0.3333333), wk =   0.0370370
        k(   30) = (   0.3333333   0.0000000  -0.5000000), wk =   0.0185185
        k(   31) = (   0.3333333   0.1575061   0.3333333), wk =   0.0740741
        k(   32) = (   0.3333333   0.1575061  -0.5000000), wk =   0.0370370
        k(   33) = (   0.3333333   0.3150122   0.3333333), wk =   0.0740741
        k(   34) = (   0.3333333   0.3150122  -0.5000000), wk =   0.0370370
        k(   35) = (   0.3333333  -0.4725183   0.3333333), wk =   0.0370370
        k(   36) = (   0.3333333  -0.4725183  -0.5000000), wk =   0.0185185
        k(   37) = (  -0.5000000   0.0000000  -0.5000000), wk =   0.0092593
        k(   38) = (  -0.5000000   0.1575061  -0.5000000), wk =   0.0185185
        k(   39) = (  -0.5000000   0.3150122  -0.5000000), wk =   0.0185185
        k(   40) = (  -0.5000000  -0.4725183  -0.5000000), wk =   0.0092593
        k(   41) = (   0.1666667   0.0000000   0.0000000), wk =   0.0185185
        k(   42) = (   0.3333333   0.0000000   0.0000000), wk =   0.0185185
        k(   43) = (  -0.5000000   0.0000000   0.0000000), wk =   0.0092593
        k(   44) = (   0.1666667  -0.1575061   0.0000000), wk =   0.0370370
        k(   45) = (   0.3333333  -0.1575061   0.0000000), wk =   0.0370370
        k(   46) = (  -0.5000000  -0.1575061   0.0000000), wk =   0.0185185
        k(   47) = (   0.1666667  -0.3150122   0.0000000), wk =   0.0370370
        k(   48) = (   0.3333333  -0.3150122   0.0000000), wk =   0.0370370
        k(   49) = (  -0.5000000  -0.3150122   0.0000000), wk =   0.0185185
        k(   50) = (   0.1666667   0.4725183   0.0000000), wk =   0.0185185
        k(   51) = (   0.3333333   0.4725183   0.0000000), wk =   0.0185185
        k(   52) = (  -0.5000000   0.4725183   0.0000000), wk =   0.0092593
        k(   53) = (   0.3333333   0.0000000   0.1666667), wk =   0.0370370
        k(   54) = (  -0.5000000   0.0000000   0.1666667), wk =   0.0185185
        k(   55) = (   0.3333333  -0.1575061   0.1666667), wk =   0.0740741
        k(   56) = (  -0.5000000  -0.1575061   0.1666667), wk =   0.0370370
        k(   57) = (   0.3333333  -0.3150122   0.1666667), wk =   0.0740741
        k(   58) = (  -0.5000000  -0.3150122   0.1666667), wk =   0.0370370
        k(   59) = (   0.3333333   0.4725183   0.1666667), wk =   0.0370370
        k(   60) = (  -0.5000000   0.4725183   0.1666667), wk =   0.0185185
        k(   61) = (  -0.5000000   0.0000000   0.3333333), wk =   0.0185185
        k(   62) = (  -0.5000000  -0.1575061   0.3333333), wk =   0.0370370
        k(   63) = (  -0.5000000  -0.3150122   0.3333333), wk =   0.0370370
        k(   64) = (  -0.5000000   0.4725183   0.3333333), wk =   0.0185185

     Dense  grid:   498127 G-vectors     FFT dimensions: ( 100, 108, 100)

     Estimated max dynamical RAM per process >       3.15 GB

     Estimated total dynamical RAM >     125.81 GB

     Initial potential from superposition of free atoms

     starting charge  367.99656, renormalised to  368.00000
     Starting wfc are  232 randomized atomic wfcs

     total cpu time spent up to now is       61.6 secs

     Self-consistent Calculation

     iteration #  1     ecut=   120.00 Ry     beta= 0.70
     Davidson diagonalization with overlap
     ethr =  1.00E-02,  avg # of iterations =  5.2

     total cpu time spent up to now is      214.0 secs

     total energy              =   -6254.03605498 Ry
     Harris-Foulkes estimate   =   -6264.53866883 Ry
     estimated scf accuracy    <      13.33053140 Ry

     iteration #  2     ecut=   120.00 Ry     beta= 0.70
     Davidson diagonalization with overlap
     ethr =  3.62E-03,  avg # of iterations =  3.8

     total cpu time spent up to now is      361.0 secs

     total energy              =   -6251.10158399 Ry
     Harris-Foulkes estimate   =   -6270.32135885 Ry
     estimated scf accuracy    <      51.16107821 Ry

     iteration #  3     ecut=   120.00 Ry     beta= 0.70
     Davidson diagonalization with overlap
     ethr =  3.62E-03,  avg # of iterations =  3.7

     total cpu time spent up to now is      502.9 secs

     total energy              =   -6260.97455295 Ry
     Harris-Foulkes estimate   =   -6261.38759370 Ry
     estimated scf accuracy    <       1.29637848 Ry

     iteration #  4     ecut=   120.00 Ry     beta= 0.70
     Davidson diagonalization with overlap
     ethr =  3.52E-04,  avg # of iterations =  3.4

     total cpu time spent up to now is      624.0 secs

     total energy              =   -6261.02621551 Ry
     Harris-Foulkes estimate   =   -6261.11711724 Ry
     estimated scf accuracy    <       0.31360711 Ry

     iteration #  5     ecut=   120.00 Ry     beta= 0.70
     Davidson diagonalization with overlap
     ethr =  8.52E-05,  avg # of iterations =  4.2

     total cpu time spent up to now is      749.0 secs

     total energy              =   -6261.01006187 Ry
     Harris-Foulkes estimate   =   -6261.05381935 Ry
     estimated scf accuracy    <       0.09425362 Ry

     iteration #  6     ecut=   120.00 Ry     beta= 0.70
     Davidson diagonalization with overlap
     ethr =  2.56E-05,  avg # of iterations =  5.8

     total cpu time spent up to now is      884.9 secs

     total energy              =   -6261.03168020 Ry
     Harris-Foulkes estimate   =   -6261.03337572 Ry
     estimated scf accuracy    <       0.00512578 Ry

     iteration #  7     ecut=   120.00 Ry     beta= 0.70
     Davidson diagonalization with overlap
     ethr =  1.39E-06,  avg # of iterations =  5.5

     total cpu time spent up to now is     1013.9 secs

     total energy              =   -6261.03215396 Ry
     Harris-Foulkes estimate   =   -6261.03229421 Ry
     estimated scf accuracy    <       0.00040274 Ry

     iteration #  8     ecut=   120.00 Ry     beta= 0.70
     Davidson diagonalization with overlap
     ethr =  1.09E-07,  avg # of iterations =  3.0

     total cpu time spent up to now is     1137.2 secs

     total energy              =   -6261.03220132 Ry
     Harris-Foulkes estimate   =   -6261.03222834 Ry
     estimated scf accuracy    <       0.00005713 Ry

     iteration #  9     ecut=   120.00 Ry     beta= 0.70
     Davidson diagonalization with overlap
     ethr =  1.55E-08,  avg # of iterations =  3.1

     total cpu time spent up to now is     1270.5 secs

     total energy              =   -6261.03221571 Ry
     Harris-Foulkes estimate   =   -6261.03221760 Ry
     estimated scf accuracy    <       0.00000583 Ry

     iteration # 10     ecut=   120.00 Ry     beta= 0.70
     Davidson diagonalization with overlap
     ethr =  1.58E-09,  avg # of iterations =  2.0

     total cpu time spent up to now is     1387.3 secs

     total energy              =   -6261.03221579 Ry
     Harris-Foulkes estimate   =   -6261.03221652 Ry
     estimated scf accuracy    <       0.00000161 Ry

     iteration # 11     ecut=   120.00 Ry     beta= 0.70
     Davidson diagonalization with overlap
     ethr =  4.36E-10,  avg # of iterations =  2.5

     total cpu time spent up to now is     1510.4 secs

     total energy              =   -6261.03221612 Ry
     Harris-Foulkes estimate   =   -6261.03221612 Ry
     estimated scf accuracy    <       0.00000002 Ry

     iteration # 12     ecut=   120.00 Ry     beta= 0.70
     Davidson diagonalization with overlap
     ethr =  6.67E-12,  avg # of iterations =  2.8

     total cpu time spent up to now is     1647.4 secs

     End of self-consistent calculation

          k = 0.0000 0.0000 0.0000 ( 62239 PWs)   bands (ev):

   -66.1515 -66.1511 -66.1505 -66.1505 -66.1501 -66.1501 -66.1495 -66.1491
   -30.6022 -30.6004 -30.5946 -30.5920 -30.5916 -30.5902 -30.5889 -30.5860
   -30.4884 -30.4863 -30.4851 -30.4837 -30.4835 -30.4808 -30.4758 -30.4739
   -30.4445 -30.4392 -30.4386 -30.4335 -30.3863 -30.3818 -30.3815 -30.3771
   -20.2973 -20.2973 -20.2972 -20.2971 -20.2971 -20.2970 -20.2970 -20.2969
   -20.2749 -20.2744 -20.2740 -20.2737 -20.2735 -20.2732 -20.2726 -20.2720
   -20.2718 -20.2713 -20.2710 -20.2707 -20.2705 -20.2704 -20.2703 -20.2702
   -20.2699 -20.2697 -20.2697 -20.2689 -20.2668 -20.2667 -20.2659 -20.2656
   -20.2655 -20.2651 -20.2645 -20.2644 -20.2644 -20.2643 -20.2628 -20.2628
   -20.2618 -20.2614 -20.2612 -20.2610 -20.2587 -20.2587 -20.2570 -20.2569
   -20.2557 -20.2555 -20.2544 -20.2542 -20.2541 -20.2541 -20.2523 -20.2523
   -10.1420  -9.9726  -9.7445  -9.7188  -9.6287  -9.5940  -9.3749  -9.3568
    -8.8035  -8.7396  -8.7387  -8.7334  -7.8347  -7.8243  -7.7879  -7.7860
    -7.7470  -7.7432  -7.7190  -7.7113  -7.5977  -7.5395  -7.5339  -7.4817
     0.6674   0.6736   0.8400   0.8431   0.8930   0.8939   1.1275   1.1815
     1.7749   1.7989   1.8104   1.8819   2.0644   2.1470   2.5522   2.5544
     2.6796   2.6847   4.0862   4.1172   4.1451   4.1852   4.3380   4.3582
     4.3787   4.3968   4.8973   5.1289   5.1312   5.1352   5.1896   5.3981
     5.4068   5.5190   5.5414   5.5671   5.5768   5.5822   5.6045   5.6410
     5.8766   5.8938   5.9518   5.9774   6.0308   6.0705   6.1115   6.1908
     6.2243   6.2383   6.4003   6.4029   6.4070   6.6557   6.8502   7.0204
     7.0372   7.0622   7.0697   7.0840   7.0862   7.0960   7.1409   7.1723
     7.1745   7.2037   8.0554   8.0614   8.1600   8.1941   8.2200   8.2501
     9.1678   9.1977   9.5656   9.5768   9.6247   9.6290  12.2620  12.3348
    12.3757  12.4172  12.7611  12.7621  12.7732  12.7981  13.0374  13.2236
    13.2435  13.3126  13.6685  13.8800  13.8828  13.9342  14.1837  14.1978
    14.3388  14.3636  14.5675  14.9237  15.3607  15.4443  15.4606  16.4228
    16.4388  17.1468  17.3403  17.4260  17.4517

          k = 0.0000 0.0000 0.1667 ( 62262 PWs)   bands (ev):

   -66.1514 -66.1510 -66.1506 -66.1504 -66.1502 -66.1500 -66.1495 -66.1491
   -30.5969 -30.5966 -30.5894 -30.5886 -30.5879 -30.5867 -30.5864 -30.5842
   -30.4961 -30.4940 -30.4919 -30.4900 -30.4831 -30.4805 -30.4774 -30.4750
   -30.4440 -30.4389 -30.4388 -30.4338 -30.3860 -30.3818 -30.3815 -30.3773
   -20.2973 -20.2972 -20.2972 -20.2971 -20.2971 -20.2971 -20.2970 -20.2970
   -20.2749 -20.2745 -20.2739 -20.2736 -20.2733 -20.2732 -20.2727 -20.2719
   -20.2719 -20.2713 -20.2711 -20.2708 -20.2705 -20.2704 -20.2703 -20.2701
   -20.2700 -20.2698 -20.2697 -20.2690 -20.2668 -20.2667 -20.2659 -20.2657
   -20.2655 -20.2652 -20.2646 -20.2643 -20.2640 -20.2638 -20.2623 -20.2622
   -20.2616 -20.2613 -20.2613 -20.2611 -20.2586 -20.2586 -20.2572 -20.2571
   -20.2563 -20.2561 -20.2549 -20.2548 -20.2540 -20.2540 -20.2524 -20.2524
   -10.0852  -9.9131  -9.7302  -9.6486  -9.6026  -9.5269  -9.3298  -9.3116
    -8.8148  -8.7462  -8.7306  -8.7282  -7.9743  -7.9569  -7.9008  -7.8881
    -7.8174  -7.7816  -7.7523  -7.7164  -7.5938  -7.5435  -7.5311  -7.4854
     0.7898   0.7945   0.8936   0.8950   1.1378   1.1445   1.2869   1.3697
     1.7706   1.8037   1.8109   1.9131   2.1545   2.2367   2.5622   2.6456
     2.6710   2.7738   3.9914   4.0687   4.1111   4.1414   4.1693   4.1711
     4.4259   4.4502   4.6920   4.7591   4.8728   5.1348   5.1881   5.1888
     5.2892   5.3625   5.4465   5.5092   5.5569   5.5975   5.6662   5.6887
     5.7454   5.8952   5.9037   6.0219   6.0512   6.0784   6.1974   6.2006
     6.2465   6.3903   6.4137   6.5132   6.6473   6.7380   6.7912   6.8529
     6.8600   6.8736   6.9046   6.9265   7.0255   7.0507   7.0768   7.0851
     7.1774   7.2007   8.0072   8.0080   8.1729   8.1786   8.1960   8.2040
     9.5228   9.5668   9.5690   9.6507   9.9007   9.9477  12.3232  12.3336
    12.4169  12.4478  12.6058  12.6207  12.8154  12.8262  13.0015  13.0503
    13.0778  13.2469  13.6686  13.8751  13.8825  13.9826  14.0081  14.0751
    14.3576  14.4814  14.5620  15.0525  15.3322  15.5628  15.6126  16.4153
    16.8211  17.0504  17.2405  17.5187  17.5813

          k = 0.0000 0.0000 0.3333 ( 62268 PWs)   bands (ev):

   -66.1512 -66.1508 -66.1507 -66.1503 -66.1502 -66.1498 -66.1497 -66.1493
   -30.5941 -30.5915 -30.5906 -30.5876 -30.5720 -30.5695 -30.5671 -30.5644
   -30.5168 -30.5146 -30.5120 -30.5097 -30.4821 -30.4794 -30.4791 -30.4765
   -30.4429 -30.4399 -30.4377 -30.4348 -30.3850 -30.3826 -30.3805 -30.3781
   -20.2973 -20.2972 -20.2972 -20.2971 -20.2971 -20.2971 -20.2970 -20.2970
   -20.2747 -20.2745 -20.2737 -20.2734 -20.2733 -20.2730 -20.2728 -20.2721
   -20.2717 -20.2712 -20.2711 -20.2708 -20.2706 -20.2704 -20.2703 -20.2700
   -20.2699 -20.2697 -20.2697 -20.2692 -20.2666 -20.2665 -20.2661 -20.2660
   -20.2654 -20.2651 -20.2649 -20.2646 -20.2629 -20.2625 -20.2616 -20.2613
   -20.2613 -20.2612 -20.2606 -20.2605 -20.2583 -20.2582 -20.2579 -20.2578
   -20.2575 -20.2574 -20.2564 -20.2563 -20.2537 -20.2537 -20.2528 -20.2527
    -9.9561  -9.7858  -9.7670  -9.6302  -9.3830  -9.2355  -9.1728  -9.1395
    -8.8644  -8.7746  -8.7090  -8.6990  -8.3476  -8.3326  -8.3020  -8.2709
    -7.8058  -7.7681  -7.7668  -7.7303  -7.5835  -7.5543  -7.5218  -7.4953
     0.8783   0.8802   0.8948   0.8975   1.6803   1.6878   1.7618   1.7895
     1.9564   2.0753   2.1064   2.2604   2.4179   2.4960   2.5866   2.6494
     2.9044   3.0147   3.4124   3.4905   3.9237   3.9630   4.1398   4.1534
     4.1538   4.2862   4.4262   4.6092   4.6322   4.7183   4.7905   4.7907
     4.8622   5.1198   5.1607   5.2221   5.2787   5.3112   5.6504   5.8157
     5.8892   5.9379   5.9987   6.0208   6.0631   6.1125   6.2208   6.2395
     6.3416   6.3513   6.3676   6.4064   6.4164   6.5951   6.6385   6.8081
     6.8725   6.9881   6.9958   7.0133   7.0418   7.0487   7.1684   7.1934
     7.2365   7.3009   7.8230   7.8312   8.0160   8.0502   8.1968   8.1991
     9.5777   9.5992  10.3608  10.3805  10.6561  10.6906  12.0577  12.0841
    12.2177  12.4043  12.4179  12.5576  12.5786  12.6735  12.9873  12.9875
    13.0467  13.2737  13.5125  13.5629  13.5916  13.7901  13.8838  13.9572
    14.4305  14.5436  14.7959  15.2412  15.3622  15.8947  16.2452  16.3375
    16.4238  17.5036  17.7276  17.7747  17.8130

          k = 0.0000 0.0000-0.5000 ( 62264 PWs)   bands (ev):

   -66.1510 -66.1510 -66.1506 -66.1506 -66.1500 -66.1500 -66.1496 -66.1496
   -30.5923 -30.5922 -30.5893 -30.5893 -30.5448 -30.5448 -30.5423 -30.5423
   -30.5396 -30.5396 -30.5371 -30.5371 -30.4807 -30.4806 -30.4780 -30.4780
   -30.4414 -30.4414 -30.4362 -30.4362 -30.3838 -30.3837 -30.3793 -30.3793
   -20.2972 -20.2972 -20.2972 -20.2971 -20.2971 -20.2971 -20.2970 -20.2970
   -20.2746 -20.2746 -20.2735 -20.2735 -20.2731 -20.2731 -20.2725 -20.2725
   -20.2715 -20.2715 -20.2709 -20.2709 -20.2706 -20.2706 -20.2701 -20.2701
   -20.2698 -20.2698 -20.2694 -20.2694 -20.2663 -20.2663 -20.2663 -20.2663
   -20.2652 -20.2652 -20.2649 -20.2649 -20.2621 -20.2621 -20.2617 -20.2617
   -20.2597 -20.2597 -20.2597 -20.2597 -20.2587 -20.2587 -20.2587 -20.2587
   -20.2577 -20.2577 -20.2577 -20.2577 -20.2533 -20.2532 -20.2532 -20.2532
    -9.8387  -9.8387  -9.6853  -9.6853  -9.0469  -9.0469  -8.9098  -8.9098
    -8.8037  -8.8037  -8.7893  -8.7893  -8.6355  -8.6355  -8.5912  -8.5911
    -7.7865  -7.7864  -7.7493  -7.7492  -7.5690  -7.5690  -7.5086  -7.5086
     0.8938   0.8938   0.8974   0.8974   1.7500   1.7500   1.7682   1.7683
     2.6077   2.6077   2.8084   2.8084   2.8846   2.8846   3.0076   3.0076
     3.0475   3.0475   3.1350   3.1350   3.2720   3.2720   3.6538   3.6538
     3.7361   3.7361   4.2077   4.2077   4.6550   4.6550   4.8656   4.8656
     4.9695   4.9695   5.0131   5.0131   5.1986   5.1986   5.7853   5.7853
     5.9504   5.9504   6.0495   6.0495   6.0601   6.0601   6.2152   6.2152
     6.2650   6.2650   6.2697   6.2697   6.3900   6.3901   6.7194   6.7194
     6.8806   6.8806   7.0403   7.0403   7.1848   7.1848   7.4770   7.4770
     7.4841   7.4841   7.7095   7.7095   7.7501   7.7501   8.2010   8.2010
     9.5891   9.5891  11.2563  11.2563  11.2823  11.2823  11.5303  11.5303
    11.5755  11.5755  12.4310  12.4310  12.8945  12.8945  13.0489  13.0490
    13.2071  13.2071  13.2742  13.2742  13.4390  13.4390  13.8973  13.8973
    14.5051  14.5051  15.0692  15.0692  15.8313  15.8313  16.1788  16.1789
    17.1028  17.1028  17.8972  17.9444  17.9444

          k = 0.0000 0.1575 0.0000 ( 62231 PWs)   bands (ev):

   -66.1515 -66.1511 -66.1505 -66.1504 -66.1501 -66.1501 -66.1494 -66.1491
   -30.6020 -30.6004 -30.5944 -30.5919 -30.5918 -30.5903 -30.5887 -30.5862
   -30.4882 -30.4864 -30.4850 -30.4838 -30.4833 -30.4810 -30.4757 -30.4740
   -30.4406 -30.4354 -30.4348 -30.4298 -30.3903 -30.3857 -30.3854 -30.3809
   -20.2973 -20.2973 -20.2972 -20.2971 -20.2971 -20.2971 -20.2970 -20.2969
   -20.2748 -20.2743 -20.2741 -20.2736 -20.2734 -20.2733 -20.2725 -20.2720
   -20.2718 -20.2713 -20.2709 -20.2705 -20.2704 -20.2703 -20.2702 -20.2700
   -20.2698 -20.2697 -20.2695 -20.2689 -20.2668 -20.2668 -20.2660 -20.2658
   -20.2656 -20.2655 -20.2648 -20.2646 -20.2644 -20.2644 -20.2628 -20.2628
   -20.2617 -20.2614 -20.2612 -20.2610 -20.2587 -20.2587 -20.2570 -20.2569
   -20.2557 -20.2555 -20.2543 -20.2542 -20.2541 -20.2541 -20.2523 -20.2523
   -10.1262  -9.9806  -9.7320  -9.7053  -9.6335  -9.5992  -9.3737  -9.3580
    -8.7308  -8.6785  -8.6767  -8.6739  -7.8365  -7.8227  -7.7897  -7.7879
    -7.7482  -7.7414  -7.7234  -7.7133  -7.6915  -7.6381  -7.6333  -7.5884
     0.6678   0.6731   0.8405   0.8440   0.8943   0.8950   1.1472   1.1815
     1.9734   2.0326   2.0465   2.0699   2.1342   2.1414   2.6240   2.6250
     2.7468   2.7553   3.9231   3.9351   3.9833   3.9943   4.3408   4.3558
     4.3738   4.3928   4.7448   5.1368   5.1590   5.1896   5.2240   5.2969
     5.3230   5.3863   5.4161   5.5961   5.5978   5.6319   5.6850   5.6928
     5.7952   5.8627   5.8726   5.9563   5.9748   6.0849   6.1147   6.1182
     6.2511   6.3080   6.4028   6.4310   6.4901   6.6917   6.8388   6.8605
     6.8807   6.8845   7.0354   7.0478   7.0805   7.0833   7.1057   7.1173
     7.1261   7.1317   8.0543   8.0612   8.1193   8.1322   8.1684   8.1727
     9.1743   9.1986   9.7987   9.8130   9.8607   9.8740  12.1093  12.1841
    12.2103  12.2523  12.7714  12.7745  12.7747  12.7988  13.0747  13.2566
    13.2667  13.3353  13.7026  13.9157  13.9272  14.0402  14.0960  14.1028
    14.4757  14.6538  14.7582  15.0189  15.4443  15.4580  15.7763  16.3831
    16.3964  16.9239  17.2232  17.5292  17.5580

          k = 0.0000 0.1575 0.1667 ( 62237 PWs)   bands (ev):

   -66.1514 -66.1510 -66.1505 -66.1504 -66.1502 -66.1500 -66.1495 -66.1492
   -30.5968 -30.5966 -30.5892 -30.5885 -30.5880 -30.5866 -30.5866 -30.5844
   -30.4959 -30.4941 -30.4918 -30.4901 -30.4829 -30.4806 -30.4772 -30.4751
   -30.4402 -30.4352 -30.4350 -30.4301 -30.3899 -30.3856 -30.3854 -30.3812
   -20.2973 -20.2972 -20.2972 -20.2971 -20.2971 -20.2971 -20.2970 -20.2970
   -20.2748 -20.2744 -20.2740 -20.2735 -20.2733 -20.2733 -20.2726 -20.2719
   -20.2719 -20.2713 -20.2710 -20.2706 -20.2705 -20.2703 -20.2701 -20.2699
   -20.2699 -20.2697 -20.2694 -20.2689 -20.2668 -20.2667 -20.2660 -20.2658
   -20.2657 -20.2655 -20.2649 -20.2647 -20.2640 -20.2638 -20.2623 -20.2623
   -20.2616 -20.2613 -20.2613 -20.2611 -20.2586 -20.2586 -20.2572 -20.2571
   -20.2563 -20.2561 -20.2549 -20.2548 -20.2540 -20.2540 -20.2524 -20.2524
   -10.0690  -9.9212  -9.7164  -9.6349  -9.6079  -9.5317  -9.3286  -9.3128
    -8.7421  -8.6856  -8.6698  -8.6694  -7.9722  -7.9609  -7.8988  -7.8933
    -7.8170  -7.7839  -7.7533  -7.7185  -7.6883  -7.6406  -7.6325  -7.5899
     0.7901   0.7945   0.8954   0.8956   1.1428   1.1450   1.3192   1.3696
     1.9743   2.0329   2.0437   2.1409   2.1640   2.2310   2.6314   2.7205
     2.7385   2.8456   3.9374   3.9587   3.9845   3.9957   4.0536   4.0658
     4.4173   4.4434   4.7209   4.7238   4.8153   5.1414   5.1511   5.1994
     5.2653   5.2940   5.3526   5.3687   5.5211   5.5411   5.6912   5.7555
     5.8099   5.8427   5.8641   5.9430   6.0729   6.0860   6.1140   6.1671
     6.2533   6.3015   6.4688   6.5337   6.6704   6.7672   6.7847   6.8169
     6.8594   6.8710   6.8754   6.8801   6.9040   6.9040   7.0932   7.0933
     7.1041   7.1403   8.0056   8.0097   8.1235   8.1251   8.1340   8.1344
     9.5499   9.5700   9.8195   9.8758  10.0737  10.1304  12.1790  12.1857
    12.2516  12.2871  12.6095  12.6216  12.8260  12.8265  13.0381  13.0887
    13.1022  13.2686  13.7106  13.8263  13.9102  13.9164  14.0236  14.0753
    14.5215  14.7445  14.8293  15.1418  15.5614  15.6163  15.7499  16.3727
    16.7788  17.0552  17.1371  17.3124  17.6738

          k = 0.0000 0.1575 0.3333 ( 62284 PWs)   bands (ev):

   -66.1512 -66.1509 -66.1507 -66.1504 -66.1502 -66.1499 -66.1497 -66.1494
   -30.5940 -30.5916 -30.5904 -30.5878 -30.5719 -30.5697 -30.5669 -30.5645
   -30.5167 -30.5147 -30.5118 -30.5099 -30.4819 -30.4796 -30.4789 -30.4766
   -30.4390 -30.4361 -30.4339 -30.4311 -30.3889 -30.3864 -30.3844 -30.3820
   -20.2972 -20.2972 -20.2972 -20.2971 -20.2971 -20.2971 -20.2970 -20.2970
   -20.2747 -20.2744 -20.2738 -20.2734 -20.2733 -20.2730 -20.2727 -20.2721
   -20.2717 -20.2712 -20.2711 -20.2706 -20.2705 -20.2703 -20.2701 -20.2699
   -20.2698 -20.2696 -20.2695 -20.2691 -20.2666 -20.2665 -20.2661 -20.2660
   -20.2657 -20.2655 -20.2652 -20.2649 -20.2629 -20.2626 -20.2616 -20.2614
   -20.2613 -20.2612 -20.2606 -20.2606 -20.2583 -20.2582 -20.2579 -20.2578
   -20.2575 -20.2574 -20.2564 -20.2563 -20.2537 -20.2537 -20.2528 -20.2527
    -9.9394  -9.7934  -9.7524  -9.6360  -9.3638  -9.2404  -9.1695  -9.1412
    -8.7956  -8.7185  -8.6530  -8.6436  -8.3514  -8.3268  -8.3070  -8.2649
    -7.8060  -7.7703  -7.7676  -7.7324  -7.6786  -7.6505  -7.6238  -7.5985
     0.8804   0.8805   0.8972   0.8979   1.8275   1.8509   1.9566   1.9808
     2.0286   2.1060   2.1552   2.3332   2.4239   2.4911   2.6531   2.7182
     2.9810   3.0845   3.4149   3.4863   3.8962   3.9069   3.9867   4.0420
     4.1661   4.2297   4.4382   4.5703   4.6013   4.6277   4.6387   4.7975
     4.7997   5.0097   5.1519   5.2066   5.2461   5.3505   5.4124   5.7947
     5.8389   5.9087   5.9088   5.9723   6.0511   6.0580   6.0771   6.1553
     6.3363   6.3513   6.4123   6.4603   6.4755   6.5879   6.7804   6.8512
     6.8545   6.8859   6.9186   7.0076   7.0126   7.0734   7.0750   7.1830
     7.2429   7.3044   7.8282   7.8304   7.9789   7.9978   8.1334   8.1381
     9.8245   9.8515  10.3663  10.3846  10.7591  10.8013  12.0507  12.0836
    12.1484  12.2557  12.4290  12.4468  12.5284  12.5409  12.9805  13.0021
    13.0829  13.2892  13.4156  13.4845  13.5980  13.7784  13.9185  13.9890
    14.6396  14.7355  15.1777  15.4370  15.6618  15.8813  16.2784  16.2987
    16.5104  17.3870  17.5607  17.7511  17.8389

          k = 0.0000 0.1575-0.5000 ( 62234 PWs)   bands (ev):

   -66.1510 -66.1510 -66.1506 -66.1506 -66.1500 -66.1499 -66.1496 -66.1496
   -30.5921 -30.5920 -30.5895 -30.5895 -30.5446 -30.5446 -30.5424 -30.5424
   -30.5395 -30.5394 -30.5373 -30.5373 -30.4805 -30.4805 -30.4782 -30.4782
   -30.4376 -30.4375 -30.4325 -30.4325 -30.3877 -30.3876 -30.3832 -30.3831
   -20.2972 -20.2972 -20.2972 -20.2971 -20.2971 -20.2971 -20.2970 -20.2970
   -20.2745 -20.2745 -20.2736 -20.2735 -20.2730 -20.2730 -20.2725 -20.2725
   -20.2714 -20.2714 -20.2708 -20.2708 -20.2704 -20.2704 -20.2701 -20.2701
   -20.2696 -20.2696 -20.2694 -20.2694 -20.2663 -20.2663 -20.2663 -20.2663
   -20.2655 -20.2655 -20.2652 -20.2652 -20.2620 -20.2620 -20.2617 -20.2617
   -20.2597 -20.2597 -20.2597 -20.2597 -20.2587 -20.2587 -20.2587 -20.2587
   -20.2577 -20.2577 -20.2577 -20.2577 -20.2533 -20.2532 -20.2532 -20.2532
    -9.8229  -9.8229  -9.6919  -9.6919  -9.0062  -9.0062  -8.8887  -8.8887
    -8.8081  -8.8081  -8.7928  -8.7928  -8.5964  -8.5964  -8.5571  -8.5570
    -7.7870  -7.7869  -7.7514  -7.7514  -7.6646  -7.6646  -7.6112  -7.6112
     0.8965   0.8965   0.8977   0.8977   1.9555   1.9556   2.0167   2.0167
     2.6718   2.6718   2.8138   2.8138   2.8827   2.8827   3.0167   3.0167
     3.0457   3.0457   3.1676   3.1676   3.2665   3.2665   3.6905   3.6905
     3.7967   3.7968   4.0467   4.0467   4.4872   4.4872   4.7082   4.7082
     4.9567   4.9567   4.9967   4.9967   5.2350   5.2350   5.5379   5.5379
     5.8907   5.8907   5.9849   5.9849   6.0649   6.0649   6.1421   6.1421
     6.2515   6.2515   6.3182   6.3182   6.4385   6.4385   6.8484   6.8484
     6.9073   6.9074   6.9799   6.9799   7.0636   7.0636   7.4802   7.4802
     7.5015   7.5015   7.6943   7.6943   7.7238   7.7238   8.1380   8.1380
     9.8403   9.8403  11.2597  11.2597  11.2830  11.2830  11.5932  11.5932
    11.6386  11.6386  12.2721  12.2721  12.8243  12.8243  12.9307  12.9308
    13.1709  13.1710  13.2938  13.2938  13.4414  13.4414  13.9309  13.9309
    14.7059  14.7059  15.4693  15.4693  15.9212  15.9212  16.1489  16.1489
    17.1569  17.1569  17.7251  17.7252  17.9278

          k = 0.0000 0.3150 0.0000 ( 62175 PWs)   bands (ev):

   -66.1514 -66.1512 -66.1504 -66.1504 -66.1502 -66.1502 -66.1494 -66.1492
   -30.6016 -30.6007 -30.5938 -30.5923 -30.5916 -30.5907 -30.5882 -30.5867
   -30.4878 -30.4867 -30.4847 -30.4840 -30.4828 -30.4815 -30.4753 -30.4744
   -30.4300 -30.4250 -30.4245 -30.4196 -30.4010 -30.3963 -30.3959 -30.3913
   -20.2973 -20.2973 -20.2972 -20.2971 -20.2971 -20.2971 -20.2970 -20.2969
   -20.2746 -20.2742 -20.2741 -20.2735 -20.2735 -20.2734 -20.2723 -20.2719
   -20.2719 -20.2715 -20.2708 -20.2705 -20.2704 -20.2703 -20.2696 -20.2695
   -20.2693 -20.2691 -20.2689 -20.2682 -20.2668 -20.2668 -20.2668 -20.2666
   -20.2664 -20.2656 -20.2656 -20.2653 -20.2644 -20.2644 -20.2628 -20.2628
   -20.2617 -20.2615 -20.2612 -20.2611 -20.2587 -20.2587 -20.2570 -20.2570
   -20.2557 -20.2556 -20.2543 -20.2542 -20.2541 -20.2541 -20.2523 -20.2523
   -10.0872 -10.0045  -9.7028  -9.6739  -9.6480  -9.6148  -9.3704  -9.3613
    -8.5291  -8.4981  -8.4950  -8.4945  -7.9570  -7.9078  -7.9003  -7.8659
    -7.8187  -7.8108  -7.7931  -7.7925  -7.7364  -7.7317  -7.7214  -7.7190
     0.6688   0.6718   0.8419   0.8445   0.8954   0.8968   1.1693   1.1810
     2.0838   2.1259   2.5522   2.6563   2.6932   2.7587   2.8270   2.8978
     2.9416   2.9813   3.5245   3.5832   3.5884   3.6512   4.2166   4.3478
     4.3604   4.3609   4.3806   4.5956   4.6124   4.9077   5.2361   5.2489
     5.3519   5.3565   5.3615   5.3639   5.6939   5.7016   5.7058   5.7524
     5.7881   5.8376   5.8552   5.9600   5.9684   6.1014   6.1381   6.1437
     6.1739   6.2650   6.3312   6.3766   6.4594   6.4689   6.6306   6.6854
     6.7287   6.8295   7.0661   7.0714   7.0910   7.0936   7.2208   7.2243
     7.2407   7.2407   7.9184   7.9393   7.9458   7.9667   8.0618   8.0645
     9.1832   9.1965  10.3582  10.4047  10.4291  10.4640  11.6723  11.7449
    11.7563  11.8012  12.7803  12.7835  12.7899  12.7992  13.1892  13.3606
    13.3644  13.4329  13.5913  13.7747  13.8099  13.8737  13.9883  14.0424
    15.2509  15.3360  15.3420  15.3621  15.4445  15.4592  16.2385  16.2532
    16.3276  16.8054  17.1476  17.8916  17.9274

          k = 0.0000 0.3150 0.1667 ( 62260 PWs)   bands (ev):

   -66.1513 -66.1511 -66.1505 -66.1503 -66.1503 -66.1501 -66.1494 -66.1492
   -30.5967 -30.5965 -30.5886 -30.5885 -30.5882 -30.5872 -30.5862 -30.5849
   -30.4955 -30.4944 -30.4914 -30.4904 -30.4824 -30.4811 -30.4768 -30.4756
   -30.4296 -30.4248 -30.4246 -30.4199 -30.4006 -30.3962 -30.3959 -30.3916
   -20.2973 -20.2972 -20.2972 -20.2971 -20.2971 -20.2971 -20.2970 -20.2970
   -20.2746 -20.2741 -20.2741 -20.2735 -20.2734 -20.2733 -20.2724 -20.2720
   -20.2718 -20.2714 -20.2708 -20.2705 -20.2704 -20.2704 -20.2697 -20.2694
   -20.2694 -20.2690 -20.2689 -20.2683 -20.2668 -20.2668 -20.2667 -20.2666
   -20.2664 -20.2657 -20.2657 -20.2654 -20.2639 -20.2639 -20.2623 -20.2623
   -20.2615 -20.2614 -20.2613 -20.2611 -20.2586 -20.2586 -20.2571 -20.2571
   -20.2562 -20.2561 -20.2549 -20.2548 -20.2540 -20.2540 -20.2524 -20.2524
   -10.0291  -9.9451  -9.6844  -9.6239  -9.6035  -9.5464  -9.3252  -9.3161
    -8.5388  -8.5069  -8.4944  -8.4898  -7.9944  -7.9660  -7.9588  -7.9175
    -7.8981  -7.8929  -7.8784  -7.8277  -7.8018  -7.7899  -7.7368  -7.7242
     0.7911   0.7938   0.8965   0.8977   1.1464   1.1474   1.3527   1.3689
     2.1736   2.2155   2.5546   2.6368   2.6875   2.7719   2.8331   2.9340
     2.9767   3.0819   3.5801   3.5820   3.6433   3.6506   4.0328   4.0515
     4.2054   4.4172   4.4267   4.5730   4.6221   4.8490   4.9091   4.9829
     5.1079   5.2471   5.3006   5.3703   5.3727   5.4350   5.6493   5.6949
     5.7872   5.8315   5.8749   5.9524   5.9818   6.0021   6.0963   6.1452
     6.1702   6.2648   6.4256   6.4567   6.5176   6.6258   6.7245   6.8274
     6.8540   6.8844   6.8877   6.9018   6.9073   6.9519   7.2205   7.2251
     7.2424   7.2590   7.9173   7.9206   7.9310   7.9379   8.0124   8.0239
     9.5610   9.5709  10.4107  10.4618  10.5464  10.6156  11.7465  11.7645
    11.7995  11.8487  12.6165  12.6221  12.8319  12.8375  13.1555  13.2044
    13.2054  13.3601  13.6100  13.6238  13.6739  13.7733  13.9851  14.0346
    15.2989  15.3489  15.4401  15.5551  15.5850  15.6695  16.2269  16.4686
    16.6244  16.7764  17.2529  17.4131  18.0959

          k = 0.0000 0.3150 0.3333 ( 62269 PWs)   bands (ev):

   -66.1511 -66.1509 -66.1506 -66.1504 -66.1501 -66.1499 -66.1496 -66.1494
   -30.5935 -30.5921 -30.5898 -30.5884 -30.5714 -30.5701 -30.5664 -30.5650
   -30.5162 -30.5151 -30.5114 -30.5102 -30.4814 -30.4801 -30.4784 -30.4771
   -30.4285 -30.4257 -30.4235 -30.4208 -30.3996 -30.3970 -30.3949 -30.3924
   -20.2972 -20.2972 -20.2972 -20.2971 -20.2971 -20.2971 -20.2970 -20.2970
   -20.2744 -20.2742 -20.2739 -20.2736 -20.2732 -20.2730 -20.2726 -20.2722
   -20.2716 -20.2712 -20.2710 -20.2706 -20.2703 -20.2702 -20.2698 -20.2697
   -20.2692 -20.2690 -20.2689 -20.2685 -20.2667 -20.2666 -20.2666 -20.2665
   -20.2664 -20.2660 -20.2659 -20.2658 -20.2628 -20.2627 -20.2615 -20.2614
   -20.2613 -20.2612 -20.2606 -20.2606 -20.2583 -20.2582 -20.2579 -20.2578
   -20.2575 -20.2574 -20.2564 -20.2564 -20.2537 -20.2537 -20.2528 -20.2527
    -9.8988  -9.8163  -9.7182  -9.6532  -9.3220  -9.2556  -9.1619  -9.1461
    -8.6098  -8.5624  -8.4858  -8.4737  -8.3654  -8.3271  -8.3004  -8.2392
    -7.9348  -7.9094  -7.8832  -7.8584  -7.7887  -7.7764  -7.7509  -7.7382
     0.8813   0.8823   0.8988   0.8997   1.9385   1.9568   2.0516   2.1036
     2.4349   2.4763   2.5607   2.6256   2.6863   2.7922   2.8499   2.9152
     3.2220   3.3044   3.4117   3.4744   3.6211   3.6360   3.6892   3.7523
     4.1488   4.2293   4.3704   4.3811   4.4262   4.5115   4.5539   4.6296
     4.6820   4.7966   4.8333   4.9721   5.1795   5.1928   5.3093   5.3647
     5.4517   5.5202   5.8086   5.9873   6.0215   6.0965   6.1238   6.1714
     6.3221   6.4305   6.4380   6.5063   6.5299   6.5757   6.5964   6.6162
     6.8256   6.9312   7.1001   7.1143   7.1581   7.2353   7.2425   7.2592
     7.2974   7.3336   7.8010   7.8289   7.8344   7.8467   7.9336   7.9597
    10.3220  10.3716  10.4360  10.4886  11.0725  11.1326  11.7469  11.7949
    12.0456  12.0851  12.0920  12.1403  12.5843  12.6274  12.9851  13.0126
    13.1095  13.1652  13.2837  13.3719  13.5616  13.7725  13.7749  13.8834
    15.3202  15.3452  15.7398  15.8303  16.0766  16.1671  16.4279  16.6745
    16.7950  16.8574  17.5261  17.6679  17.7615

          k = 0.0000 0.3150-0.5000 ( 62306 PWs)   bands (ev):

   -66.1509 -66.1509 -66.1507 -66.1507 -66.1499 -66.1499 -66.1497 -66.1497
   -30.5915 -30.5915 -30.5901 -30.5901 -30.5441 -30.5441 -30.5429 -30.5429
   -30.5390 -30.5390 -30.5377 -30.5377 -30.4800 -30.4800 -30.4787 -30.4786
   -30.4271 -30.4271 -30.4221 -30.4221 -30.3983 -30.3983 -30.3937 -30.3936
   -20.2972 -20.2972 -20.2972 -20.2972 -20.2971 -20.2971 -20.2970 -20.2970
   -20.2743 -20.2743 -20.2738 -20.2737 -20.2729 -20.2728 -20.2726 -20.2726
   -20.2713 -20.2713 -20.2709 -20.2709 -20.2701 -20.2701 -20.2700 -20.2700
   -20.2690 -20.2690 -20.2687 -20.2687 -20.2667 -20.2667 -20.2663 -20.2663
   -20.2662 -20.2662 -20.2661 -20.2661 -20.2620 -20.2620 -20.2618 -20.2618
   -20.2597 -20.2597 -20.2597 -20.2597 -20.2588 -20.2587 -20.2587 -20.2587
   -20.2577 -20.2577 -20.2577 -20.2577 -20.2532 -20.2532 -20.2532 -20.2532
    -9.7851  -9.7851  -9.7116  -9.7116  -8.9214  -8.9214  -8.8495  -8.8495
    -8.8232  -8.8232  -8.8032  -8.8032  -8.4585  -8.4585  -8.4291  -8.4291
    -7.9227  -7.9227  -7.8720  -7.8719  -7.7700  -7.7700  -7.7574  -7.7574
     0.8986   0.8986   0.8991   0.8991   2.5285   2.5285   2.6343   2.6343
     2.8176   2.8176   2.8358   2.8358   2.9109   2.9110   3.0439   3.0439
     3.0529   3.0529   3.2464   3.2464   3.2537   3.2537   3.6033   3.6034
     3.9290   3.9290   4.0031   4.0031   4.0575   4.0575   4.2974   4.2974
     4.8808   4.8808   4.9507   4.9507   4.9797   4.9797   5.1198   5.1198
     5.4180   5.4180   5.8872   5.8872   6.1619   6.1619   6.1970   6.1970
     6.2933   6.2933   6.3229   6.3229   6.4850   6.4850   6.5992   6.5992
     7.1079   7.1080   7.1871   7.1871   7.2167   7.2167   7.4655   7.4655
     7.5405   7.5405   7.6206   7.6206   7.6380   7.6381   7.9431   7.9431
    10.4299  10.4299  11.2617  11.2617  11.2857  11.2857  11.6988  11.6988
    11.8366  11.8366  11.9371  11.9371  12.5413  12.5413  12.6119  12.6119
    13.1940  13.1940  13.2987  13.2987  13.4744  13.4745  13.7889  13.7889
    15.3347  15.3347  16.0455  16.0455  16.2012  16.2012  16.4742  16.4742
    17.2796  17.2796  17.3553  17.3553  18.0139

          k = 0.0000-0.4725 0.0000 ( 62212 PWs)   bands (ev):

   -66.1513 -66.1513 -66.1503 -66.1503 -66.1503 -66.1503 -66.1493 -66.1493
   -30.6011 -30.6011 -30.5931 -30.5931 -30.5912 -30.5912 -30.5875 -30.5875
   -30.4872 -30.4872 -30.4843 -30.4843 -30.4821 -30.4821 -30.4749 -30.4749
   -30.4155 -30.4155 -30.4107 -30.4107 -30.4103 -30.4103 -30.4056 -30.4055
   -20.2973 -20.2973 -20.2972 -20.2971 -20.2971 -20.2971 -20.2970 -20.2969
   -20.2744 -20.2744 -20.2738 -20.2738 -20.2735 -20.2734 -20.2721 -20.2721
   -20.2717 -20.2717 -20.2706 -20.2706 -20.2705 -20.2705 -20.2695 -20.2694
   -20.2682 -20.2682 -20.2678 -20.2678 -20.2677 -20.2677 -20.2670 -20.2670
   -20.2668 -20.2668 -20.2655 -20.2655 -20.2644 -20.2644 -20.2628 -20.2628
   -20.2616 -20.2616 -20.2611 -20.2611 -20.2587 -20.2587 -20.2570 -20.2570
   -20.2556 -20.2556 -20.2543 -20.2543 -20.2541 -20.2541 -20.2523 -20.2523
   -10.0421 -10.0421  -9.6719  -9.6719  -9.6406  -9.6406  -9.3659  -9.3659
    -8.2532  -8.2532  -8.2210  -8.2210  -8.2156  -8.2156  -8.2008  -8.2008
    -7.8158  -7.8158  -7.7956  -7.7956  -7.7295  -7.7295  -7.7264  -7.7264
     0.6702   0.6703   0.8435   0.8435   0.8966   0.8966   1.1784   1.1784
     2.1048   2.1048   3.0992   3.0992   3.1460   3.1460   3.1987   3.1988
     3.2254   3.2255   3.4229   3.4230   3.6606   3.6606   3.6610   3.6611
     3.8442   3.8442   4.3583   4.3583   4.3727   4.3727   5.3067   5.3067
     5.3222   5.3222   5.5582   5.5582   5.5780   5.5781   5.8640   5.8640
     5.8980   5.8980   5.9120   5.9120   5.9610   5.9611   6.0109   6.0109
     6.1891   6.1891   6.2770   6.2770   6.4584   6.4584   6.4847   6.4847
     6.7670   6.7670   7.0716   7.0716   7.0945   7.0945   7.5901   7.5902
     7.6031   7.6031   7.6062   7.6063   7.6220   7.6220   8.0624   8.0624
     9.1909   9.1910  11.0406  11.0406  11.1011  11.1011  11.1069  11.1069
    11.1775  11.1775  12.7852  12.7853  12.7972  12.7972  13.3726  13.3727
    13.5434  13.5434  13.5712  13.5712  13.6226  13.6226  13.9962  13.9962
    15.4437  15.4438  15.7640  15.7640  15.9150  15.9151  15.9380  15.9380
    16.3221  16.3221  17.7943  17.7943  18.0198

          k = 0.0000-0.4725 0.1667 ( 62246 PWs)   bands (ev):

   -66.1512 -66.1512 -66.1504 -66.1503 -66.1502 -66.1502 -66.1494 -66.1493
   -30.5965 -30.5965 -30.5884 -30.5884 -30.5879 -30.5879 -30.5856 -30.5855
   -30.4949 -30.4949 -30.4909 -30.4909 -30.4818 -30.4818 -30.4762 -30.4761
   -30.4151 -30.4151 -30.4106 -30.4105 -30.4103 -30.4103 -30.4058 -30.4058
   -20.2973 -20.2973 -20.2972 -20.2971 -20.2971 -20.2971 -20.2970 -20.2970
   -20.2743 -20.2743 -20.2738 -20.2738 -20.2734 -20.2733 -20.2722 -20.2722
   -20.2716 -20.2716 -20.2706 -20.2706 -20.2704 -20.2704 -20.2695 -20.2695
   -20.2681 -20.2681 -20.2678 -20.2678 -20.2677 -20.2677 -20.2671 -20.2670
   -20.2667 -20.2667 -20.2656 -20.2656 -20.2639 -20.2639 -20.2623 -20.2623
   -20.2615 -20.2615 -20.2612 -20.2612 -20.2586 -20.2586 -20.2571 -20.2571
   -20.2562 -20.2562 -20.2549 -20.2548 -20.2540 -20.2540 -20.2524 -20.2524
    -9.9831  -9.9831  -9.6503  -9.6503  -9.5709  -9.5709  -9.3207  -9.3207
    -8.2566  -8.2566  -8.2341  -8.2340  -8.2142  -8.2142  -8.2101  -8.2101
    -7.9546  -7.9546  -7.8822  -7.8822  -7.7977  -7.7976  -7.7316  -7.7316
     0.7925   0.7925   0.8976   0.8976   1.1477   1.1477   1.3652   1.3652
     2.1946   2.1946   3.1207   3.1208   3.1611   3.1611   3.2252   3.2252
     3.2701   3.2702   3.4165   3.4166   3.6525   3.6526   3.6916   3.6917
     3.8614   3.8614   4.0451   4.0451   4.4263   4.4263   5.0081   5.0081
     5.2244   5.2244   5.2849   5.2849   5.5096   5.5096   5.5794   5.5795
     5.7819   5.7819   5.8628   5.8628   5.9605   5.9605   6.1445   6.1445
     6.2370   6.2370   6.3403   6.3403   6.4607   6.4607   6.8101   6.8101
     6.8531   6.8531   6.8916   6.8916   6.9392   6.9392   7.5872   7.5873
     7.5955   7.5955   7.6048   7.6048   7.6149   7.6150   8.0149   8.0149
     9.5673   9.5673  11.1075  11.1075  11.1440  11.1440  11.1818  11.1818
    11.2472  11.2472  12.6207  12.6207  12.8381  12.8381  13.3593  13.3593
    13.3751  13.3751  13.4335  13.4335  13.5419  13.5419  13.9924  13.9924
    15.5287  15.5288  15.9099  15.9099  15.9356  15.9356  16.2598  16.2598
    16.4253  16.4253  17.8036  17.8039  18.0221

          k = 0.0000-0.4725 0.3333 ( 62268 PWs)   bands (ev):

   -66.1511 -66.1510 -66.1506 -66.1505 -66.1500 -66.1500 -66.1495 -66.1495
   -30.5928 -30.5928 -30.5891 -30.5891 -30.5708 -30.5708 -30.5657 -30.5657
   -30.5156 -30.5156 -30.5108 -30.5108 -30.4808 -30.4807 -30.4778 -30.4778
   -30.4141 -30.4141 -30.4114 -30.4114 -30.4093 -30.4093 -30.4067 -30.4066
   -20.2972 -20.2972 -20.2971 -20.2971 -20.2971 -20.2971 -20.2970 -20.2970
   -20.2742 -20.2742 -20.2739 -20.2739 -20.2731 -20.2730 -20.2724 -20.2724
   -20.2714 -20.2714 -20.2708 -20.2708 -20.2703 -20.2702 -20.2697 -20.2697
   -20.2680 -20.2680 -20.2678 -20.2678 -20.2676 -20.2676 -20.2672 -20.2672
   -20.2666 -20.2666 -20.2659 -20.2659 -20.2628 -20.2628 -20.2615 -20.2615
   -20.2612 -20.2612 -20.2606 -20.2606 -20.2583 -20.2582 -20.2579 -20.2578
   -20.2574 -20.2574 -20.2564 -20.2564 -20.2537 -20.2537 -20.2528 -20.2528
    -9.8532  -9.8532  -9.6817  -9.6817  -9.2827  -9.2827  -9.1533  -9.1533
    -8.4157  -8.4156  -8.3985  -8.3985  -8.2267  -8.2267  -8.2042  -8.2042
    -8.1730  -8.1730  -8.1301  -8.1300  -7.7842  -7.7842  -7.7458  -7.7458
     0.8822   0.8822   0.8998   0.8998   1.9547   1.9547   2.0940   2.0940
     2.4562   2.4562   3.1261   3.1261   3.1883   3.1883   3.2759   3.2759
     3.3718   3.3718   3.4228   3.4228   3.4919   3.4919   3.6185   3.6186
     3.7843   3.7843   3.8896   3.8896   4.3696   4.3696   4.5199   4.5199
     4.6608   4.6608   4.8314   4.8314   4.9823   4.9823   5.1907   5.1907
     5.6140   5.6141   5.7673   5.7673   6.0779   6.0779   6.1874   6.1874
     6.3866   6.3866   6.4050   6.4050   6.4991   6.4991   6.5692   6.5692
     6.8986   6.8986   7.2098   7.2099   7.2342   7.2342   7.5497   7.5498
     7.5646   7.5646   7.5839   7.5840   7.6226   7.6227   7.8571   7.8571
    10.3693  10.3693  11.1212  11.1212  11.1479  11.1480  11.5560  11.5560
    11.6234  11.6234  12.0849  12.0849  12.8256  12.8256  12.8683  12.8683
    13.0092  13.0092  13.4070  13.4070  13.5434  13.5434  13.7991  13.7991
    15.6965  15.6965  15.8830  15.8831  16.3369  16.3369  16.9300  16.9300
    17.0058  17.0059  17.2554  17.2554  17.9087

          k = 0.0000-0.4725-0.5000 ( 62284 PWs)   bands (ev):

   -66.1508 -66.1508 -66.1508 -66.1508 -66.1498 -66.1498 -66.1498 -66.1498
   -30.5908 -30.5908 -30.5908 -30.5908 -30.5435 -30.5435 -30.5435 -30.5435
   -30.5384 -30.5383 -30.5383 -30.5383 -30.4793 -30.4793 -30.4793 -30.4793
   -30.4127 -30.4127 -30.4127 -30.4127 -30.4080 -30.4079 -30.4079 -30.4079
   -20.2972 -20.2972 -20.2972 -20.2972 -20.2971 -20.2971 -20.2970 -20.2970
   -20.2740 -20.2740 -20.2740 -20.2740 -20.2727 -20.2727 -20.2727 -20.2727
   -20.2711 -20.2711 -20.2711 -20.2711 -20.2700 -20.2700 -20.2700 -20.2700
   -20.2679 -20.2679 -20.2679 -20.2679 -20.2675 -20.2674 -20.2674 -20.2674
   -20.2663 -20.2663 -20.2663 -20.2663 -20.2619 -20.2619 -20.2619 -20.2619
   -20.2597 -20.2597 -20.2597 -20.2597 -20.2588 -20.2587 -20.2587 -20.2587
   -20.2577 -20.2577 -20.2577 -20.2577 -20.2532 -20.2532 -20.2532 -20.2532
    -9.7440  -9.7440  -9.7440  -9.7440  -8.8566  -8.8566  -8.8566  -8.8566
    -8.8208  -8.8208  -8.8208  -8.8208  -8.2151  -8.2151  -8.2150  -8.2150
    -8.1809  -8.1808  -8.1808  -8.1808  -7.7651  -7.7651  -7.7651  -7.7651
     0.8994   0.8994   0.8994   0.8994   2.8306   2.8306   2.8306   2.8306
     2.9734   2.9734   2.9734   2.9734   3.1321   3.1321   3.1321   3.1321
     3.2343   3.2343   3.2343   3.2343   3.4388   3.4388   3.4388   3.4388
     3.6581   3.6581   3.6581   3.6581   4.2837   4.2837   4.2837   4.2837
     4.3804   4.3804   4.3804   4.3804   4.9627   4.9627   4.9627   4.9627
     5.6645   5.6646   5.6646   5.6646   6.2228   6.2228   6.2228   6.2228
     6.3117   6.3117   6.3117   6.3117   6.4541   6.4541   6.4541   6.4542
     7.3420   7.3420   7.3420   7.3420   7.4562   7.4562   7.4562   7.4562
     7.4882   7.4882   7.4882   7.4882   7.6757   7.6757   7.6757   7.6757
    11.0996  11.0996  11.0996  11.0996  11.3098  11.3098  11.3098  11.3098
    12.1553  12.1553  12.1553  12.1553  12.2136  12.2136  12.2136  12.2137
    13.2640  13.2640  13.2641  13.2641  13.5879  13.5879  13.5879  13.5879
    15.8186  15.8186  15.8186  15.8186  16.7499  16.7499  16.7499  16.7499
    17.6194  17.6195  17.6195  17.6195  17.7911

          k = 0.1667 0.0000 0.1667 ( 62234 PWs)   bands (ev):

   -66.1514 -66.1510 -66.1505 -66.1505 -66.1501 -66.1501 -66.1496 -66.1492
   -30.5945 -30.5927 -30.5879 -30.5854 -30.5836 -30.5826 -30.5818 -30.5791
   -30.4958 -30.4937 -30.4932 -30.4917 -30.4905 -30.4880 -30.4836 -30.4818
   -30.4436 -30.4390 -30.4385 -30.4340 -30.3856 -30.3817 -30.3814 -30.3776
   -20.2973 -20.2972 -20.2972 -20.2971 -20.2971 -20.2971 -20.2970 -20.2970
   -20.2747 -20.2743 -20.2739 -20.2736 -20.2733 -20.2731 -20.2727 -20.2719
   -20.2719 -20.2712 -20.2711 -20.2707 -20.2706 -20.2703 -20.2703 -20.2701
   -20.2700 -20.2698 -20.2697 -20.2690 -20.2665 -20.2663 -20.2656 -20.2656
   -20.2653 -20.2652 -20.2646 -20.2644 -20.2638 -20.2637 -20.2625 -20.2624
   -20.2618 -20.2616 -20.2615 -20.2613 -20.2584 -20.2584 -20.2569 -20.2569
   -20.2562 -20.2560 -20.2551 -20.2550 -20.2544 -20.2544 -20.2529 -20.2528
   -10.0270  -9.8521  -9.6602  -9.6364  -9.5355  -9.5022  -9.2876  -9.2690
    -8.8271  -8.7376  -8.7370  -8.7225  -7.9800  -7.9717  -7.9423  -7.9394
    -7.9206  -7.9104  -7.8853  -7.8567  -7.5903  -7.5406  -7.5355  -7.4895
     0.9704   0.9792   1.1382   1.1457   1.1805   1.1931   1.3711   1.4913
     1.7666   1.8049   1.8172   1.9476   2.2456   2.3284   2.6519   2.6553
     2.7534   2.7744   4.0125   4.0387   4.0687   4.1406   4.1522   4.1876
     4.2091   4.2575   4.6239   4.6859   4.7397   4.8164   4.9822   5.1055
     5.2000   5.2032   5.2856   5.4657   5.5142   5.5449   5.5600   5.6905
     5.6989   5.8684   5.8901   6.0906   6.1541   6.1855   6.2162   6.2305
     6.2746   6.4557   6.4697   6.5626   6.5636   6.6406   6.6633   6.7356
     6.8897   6.9116   6.9251   6.9426   6.9784   6.9909   7.0403   7.0583
     7.0846   7.1235   7.9655   7.9664   8.1370   8.1559   8.1917   8.2056
     9.7999   9.8237   9.8590   9.9182   9.9492  10.0067  12.3135  12.3920
    12.4500  12.4818  12.6425  12.6541  12.6652  12.6844  12.8958  13.0020
    13.0376  13.0844  13.7301  13.7736  13.8874  13.8935  14.0037  14.0590
    14.2840  14.4725  14.5762  15.2061  15.3026  15.7468  15.7542  16.7943
    16.7974  17.2173  17.2260  17.3258  17.6324

          k = 0.1667 0.0000 0.3333 ( 62265 PWs)   bands (ev):

   -66.1512 -66.1508 -66.1507 -66.1503 -66.1503 -66.1499 -66.1498 -66.1494
   -30.5871 -30.5848 -30.5833 -30.5805 -30.5711 -30.5688 -30.5674 -30.5647
   -30.5165 -30.5142 -30.5125 -30.5103 -30.4896 -30.4871 -30.4865 -30.4840
   -30.4425 -30.4395 -30.4379 -30.4350 -30.3847 -30.3822 -30.3808 -30.3783
   -20.2972 -20.2972 -20.2972 -20.2971 -20.2971 -20.2971 -20.2970 -20.2970
   -20.2746 -20.2744 -20.2736 -20.2734 -20.2732 -20.2730 -20.2729 -20.2722
   -20.2717 -20.2712 -20.2711 -20.2707 -20.2705 -20.2705 -20.2703 -20.2701
   -20.2699 -20.2697 -20.2697 -20.2692 -20.2663 -20.2662 -20.2658 -20.2657
   -20.2652 -20.2652 -20.2648 -20.2646 -20.2629 -20.2625 -20.2618 -20.2616
   -20.2614 -20.2613 -20.2607 -20.2607 -20.2581 -20.2581 -20.2577 -20.2577
   -20.2573 -20.2572 -20.2565 -20.2564 -20.2541 -20.2541 -20.2532 -20.2532
    -9.8831  -9.7045  -9.6749  -9.5305  -9.3959  -9.2444  -9.1445  -9.1172
    -8.8784  -8.7637  -8.7051  -8.7037  -8.3434  -8.3281  -8.3120  -8.2765
    -7.9523  -7.9258  -7.9140  -7.8876  -7.5802  -7.5514  -7.5261  -7.4994
     1.1600   1.1628   1.1853   1.1957   1.6805   1.6840   1.7571   1.8033
     1.9582   2.0747   2.1064   2.2651   2.5214   2.5991   2.6800   2.7379
     2.9106   3.0083   3.4786   3.5687   3.9349   3.9439   4.1113   4.1310
     4.1626   4.2989   4.3522   4.3726   4.4958   4.6444   4.6467   4.7135
     4.8041   4.8265   4.9195   5.0210   5.0440   5.2407   5.5673   5.5699
     5.7063   5.8482   5.9074   5.9276   6.0672   6.0904   6.1843   6.2137
     6.4021   6.4350   6.5182   6.5929   6.6230   6.6538   6.7939   6.8422
     6.8602   6.8641   6.9179   7.0001   7.0184   7.0710   7.0839   7.1188
     7.2402   7.3194   7.8079   7.8079   8.0243   8.0504   8.1591   8.1602
     9.8893   9.9167  10.5064  10.5421  10.6661  10.7078  12.1237  12.1490
    12.2566  12.4097  12.4883  12.5191  12.6190  12.6701  12.7961  12.8456
    12.9298  13.0672  13.4893  13.5609  13.5790  13.6565  13.8542  13.8718
    14.3927  14.5496  14.7790  15.2131  15.5405  16.1966  16.3916  16.5888
    16.7206  17.5657  17.6014  17.7784  17.7910

          k = 0.1667 0.0000-0.5000 ( 62322 PWs)   bands (ev):

   -66.1509 -66.1509 -66.1505 -66.1505 -66.1501 -66.1500 -66.1497 -66.1496
   -30.5850 -30.5850 -30.5822 -30.5822 -30.5443 -30.5443 -30.5419 -30.5418
   -30.5400 -30.5400 -30.5375 -30.5375 -30.4882 -30.4882 -30.4856 -30.4856
   -30.4410 -30.4410 -30.4364 -30.4364 -30.3834 -30.3834 -30.3795 -30.3795
   -20.2972 -20.2972 -20.2972 -20.2971 -20.2971 -20.2971 -20.2970 -20.2970
   -20.2745 -20.2745 -20.2734 -20.2734 -20.2732 -20.2731 -20.2726 -20.2725
   -20.2715 -20.2714 -20.2708 -20.2708 -20.2706 -20.2706 -20.2702 -20.2702
   -20.2698 -20.2698 -20.2694 -20.2694 -20.2661 -20.2661 -20.2659 -20.2659
   -20.2651 -20.2651 -20.2649 -20.2649 -20.2622 -20.2622 -20.2619 -20.2619
   -20.2597 -20.2597 -20.2597 -20.2597 -20.2588 -20.2588 -20.2588 -20.2588
   -20.2576 -20.2575 -20.2575 -20.2575 -20.2537 -20.2537 -20.2536 -20.2536
    -9.7522  -9.7522  -9.5895  -9.5895  -9.0624  -9.0624  -8.8937  -8.8937
    -8.8095  -8.8095  -8.7840  -8.7840  -8.6317  -8.6317  -8.5946  -8.5946
    -7.9340  -7.9340  -7.9067  -7.9067  -7.5659  -7.5659  -7.5129  -7.5129
     1.1797   1.1797   1.1968   1.1969   1.7449   1.7449   1.7804   1.7805
     2.6926   2.6926   2.8617   2.8617   2.9238   2.9238   3.0095   3.0095
     3.0467   3.0467   3.1813   3.1813   3.3081   3.3081   3.6656   3.6656
     3.7278   3.7278   4.2121   4.2121   4.5776   4.5776   4.6798   4.6798
     4.7051   4.7051   4.8077   4.8077   4.9759   4.9760   5.6335   5.6335
     5.7030   5.7030   5.7640   5.7640   6.1301   6.1301   6.2276   6.2276
     6.3644   6.3644   6.5575   6.5575   6.6657   6.6657   6.7104   6.7104
     6.8916   6.8916   6.9391   6.9391   7.0675   7.0675   7.4852   7.4852
     7.5010   7.5010   7.7166   7.7166   7.7521   7.7521   8.1617   8.1617
     9.9055   9.9055  11.3452  11.3452  11.3761  11.3761  11.5402  11.5402
    11.5879  11.5879  12.4935  12.4935  12.7842  12.7842  13.0331  13.0331
    13.1432  13.1432  13.1740  13.1740  13.2791  13.2791  13.8469  13.8469
    14.4938  14.4939  15.0449  15.0450  16.0068  16.0068  16.5376  16.5376
    17.2603  17.2603  17.9021  17.9026  17.9208

          k = 0.1667 0.1575 0.1667 ( 62255 PWs)   bands (ev):

   -66.1513 -66.1510 -66.1505 -66.1504 -66.1501 -66.1501 -66.1496 -66.1492
   -30.5944 -30.5928 -30.5877 -30.5856 -30.5836 -30.5826 -30.5816 -30.5793
   -30.4956 -30.4938 -30.4931 -30.4918 -30.4903 -30.4882 -30.4835 -30.4820
   -30.4398 -30.4352 -30.4348 -30.4303 -30.3896 -30.3856 -30.3853 -30.3814
   -20.2973 -20.2972 -20.2972 -20.2971 -20.2971 -20.2971 -20.2970 -20.2970
   -20.2747 -20.2742 -20.2739 -20.2736 -20.2733 -20.2732 -20.2727 -20.2720
   -20.2718 -20.2712 -20.2710 -20.2706 -20.2705 -20.2703 -20.2701 -20.2700
   -20.2698 -20.2698 -20.2695 -20.2690 -20.2665 -20.2663 -20.2659 -20.2657
   -20.2656 -20.2653 -20.2648 -20.2648 -20.2638 -20.2637 -20.2625 -20.2624
   -20.2618 -20.2616 -20.2615 -20.2613 -20.2584 -20.2584 -20.2569 -20.2569
   -20.2562 -20.2560 -20.2551 -20.2550 -20.2544 -20.2544 -20.2529 -20.2528
   -10.0103  -9.8601  -9.6462  -9.6214  -9.5404  -9.5075  -9.2863  -9.2703
    -8.7546  -8.6778  -8.6770  -8.6644  -7.9810  -7.9700  -7.9446  -7.9425
    -7.9188  -7.9161  -7.8837  -7.8588  -7.6863  -7.6401  -7.6352  -7.5920
     0.9709   0.9785   1.1435   1.1462   1.1877   1.1937   1.4194   1.4912
     1.9746   2.0309   2.0439   2.1545   2.2516   2.3241   2.7270   2.7272
     2.8262   2.8426   3.9218   3.9495   3.9813   4.0454   4.1134   4.1306
     4.1412   4.1469   4.6437   4.6523   4.7925   4.8478   4.9078   5.0736
     5.1570   5.2210   5.2449   5.3032   5.3119   5.5183   5.5315   5.6788
     5.7034   5.8302   5.9712   5.9891   6.0570   6.1373   6.2137   6.2389
     6.2966   6.3466   6.4480   6.4968   6.5471   6.6564   6.7161   6.7411
     6.7686   6.8774   6.8994   6.9289   6.9534   6.9681   7.0642   7.0920
     7.1106   7.1418   7.9638   7.9670   8.0865   8.0993   8.1307   8.1377
     9.8304   9.8343  10.0469  10.0912  10.1378  10.1710  12.1733  12.2491
    12.2933  12.3226  12.6435  12.6578  12.6674  12.6841  12.9365  13.0339
    13.0617  13.1048  13.7139  13.7510  13.8365  13.9040  13.9423  14.0000
    14.5493  14.8127  14.8539  15.2975  15.7155  15.7484  15.7573  16.7493
    16.7573  17.1451  17.2933  17.2973  17.3954

          k = 0.1667 0.1575 0.3333 ( 62260 PWs)   bands (ev):

   -66.1511 -66.1508 -66.1506 -66.1503 -66.1503 -66.1499 -66.1498 -66.1494
   -30.5870 -30.5849 -30.5832 -30.5807 -30.5710 -30.5690 -30.5672 -30.5649
   -30.5163 -30.5143 -30.5123 -30.5104 -30.4894 -30.4872 -30.4863 -30.4841
   -30.4387 -30.4357 -30.4341 -30.4313 -30.3886 -30.3861 -30.3846 -30.3822
   -20.2972 -20.2972 -20.2972 -20.2971 -20.2971 -20.2971 -20.2970 -20.2970
   -20.2745 -20.2743 -20.2737 -20.2734 -20.2733 -20.2730 -20.2728 -20.2722
   -20.2716 -20.2711 -20.2711 -20.2705 -20.2705 -20.2704 -20.2701 -20.2700
   -20.2697 -20.2696 -20.2695 -20.2691 -20.2663 -20.2662 -20.2659 -20.2657
   -20.2655 -20.2654 -20.2651 -20.2650 -20.2629 -20.2626 -20.2618 -20.2616
   -20.2614 -20.2613 -20.2607 -20.2607 -20.2581 -20.2581 -20.2577 -20.2577
   -20.2573 -20.2573 -20.2565 -20.2564 -20.2541 -20.2541 -20.2532 -20.2532
    -9.8653  -9.7124  -9.6589  -9.5363  -9.3763  -9.2494  -9.1420  -9.1187
    -8.8100  -8.7089  -8.6501  -8.6482  -8.3473  -8.3224  -8.3174  -8.2702
    -7.9505  -7.9298  -7.9122  -7.8911  -7.6769  -7.6496  -7.6265  -7.6009
     1.1648   1.1652   1.1914   1.1963   1.8270   1.8479   1.9576   1.9772
     2.0322   2.1062   2.1525   2.3311   2.5267   2.5988   2.7478   2.8094
     2.9860   3.0779   3.4799   3.5647   3.8852   3.9282   3.9968   4.0617
     4.1694   4.2308   4.3013   4.3491   4.4983   4.5844   4.5961   4.7164
     4.7350   4.7857   4.8696   4.9908   5.0497   5.0664   5.3500   5.5474
     5.6932   5.7521   5.8329   5.8628   5.9238   6.0294   6.1164   6.1751
     6.2713   6.4481   6.5477   6.6438   6.6866   6.7040   6.7232   6.7772
     6.8244   6.8928   6.9927   7.0247   7.0440   7.0611   7.1266   7.1641
     7.2418   7.3220   7.8043   7.8109   7.9792   7.9972   8.1005   8.1056
    10.0806  10.1147  10.5190  10.5496  10.7698  10.8090  12.1167  12.1456
    12.2048  12.3307  12.4156  12.4543  12.5217  12.5618  12.8006  12.8436
    12.9635  13.0732  13.4086  13.4696  13.5613  13.6255  13.8350  13.8521
    14.6887  14.8289  15.1628  15.5815  15.6677  16.1877  16.4085  16.6606
    16.6835  17.4314  17.6187  17.6563  17.7360

          k = 0.1667 0.1575-0.5000 ( 62292 PWs)   bands (ev):

   -66.1509 -66.1509 -66.1506 -66.1505 -66.1500 -66.1500 -66.1497 -66.1497
   -30.5849 -30.5848 -30.5824 -30.5824 -30.5442 -30.5441 -30.5420 -30.5420
   -30.5399 -30.5398 -30.5377 -30.5377 -30.4880 -30.4880 -30.4858 -30.4858
   -30.4372 -30.4371 -30.4327 -30.4327 -30.3873 -30.3873 -30.3834 -30.3834
   -20.2972 -20.2972 -20.2972 -20.2971 -20.2971 -20.2971 -20.2971 -20.2970
   -20.2744 -20.2744 -20.2735 -20.2734 -20.2731 -20.2731 -20.2726 -20.2726
   -20.2714 -20.2714 -20.2708 -20.2708 -20.2704 -20.2703 -20.2702 -20.2702
   -20.2696 -20.2696 -20.2694 -20.2694 -20.2661 -20.2661 -20.2659 -20.2659
   -20.2654 -20.2654 -20.2653 -20.2652 -20.2622 -20.2622 -20.2619 -20.2619
   -20.2597 -20.2597 -20.2597 -20.2597 -20.2588 -20.2588 -20.2588 -20.2588
   -20.2576 -20.2575 -20.2575 -20.2575 -20.2537 -20.2537 -20.2536 -20.2536
    -9.7349  -9.7349  -9.5962  -9.5962  -9.0217  -9.0216  -8.8747  -8.8747
    -8.8140  -8.8140  -8.7867  -8.7867  -8.5926  -8.5926  -8.5610  -8.5610
    -7.9326  -7.9326  -7.9102  -7.9102  -7.6633  -7.6633  -7.6137  -7.6137
     1.1878   1.1879   1.1971   1.1971   1.9561   1.9561   2.0148   2.0148
     2.7544   2.7545   2.8687   2.8687   2.9272   2.9272   3.0184   3.0184
     3.0461   3.0461   3.2106   3.2106   3.3029   3.3029   3.7037   3.7037
     3.7889   3.7889   4.0714   4.0714   4.4610   4.4610   4.6315   4.6315
     4.6765   4.6766   4.7640   4.7640   4.8839   4.8839   5.4791   5.4791
     5.6253   5.6253   5.7553   5.7553   5.9083   5.9083   6.1494   6.1495
     6.4367   6.4367   6.5909   6.5909   6.6662   6.6663   6.7424   6.7424
     6.8800   6.8800   7.0035   7.0035   7.0935   7.0935   7.4820   7.4820
     7.5089   7.5089   7.6949   7.6949   7.7261   7.7261   8.1043   8.1043
    10.1024  10.1024  11.3494  11.3494  11.3788  11.3788  11.6028  11.6028
    11.6490  11.6490  12.3368  12.3368  12.7637  12.7638  12.9214  12.9215
    13.0616  13.0616  13.1772  13.1772  13.2750  13.2750  13.8223  13.8224
    14.7825  14.7825  15.4472  15.4472  16.0870  16.0870  16.5083  16.5083
    17.2987  17.2987  17.7458  17.7458  17.9313

          k = 0.1667 0.3150 0.1667 ( 62249 PWs)   bands (ev):

   -66.1513 -66.1511 -66.1504 -66.1504 -66.1502 -66.1502 -66.1495 -66.1493
   -30.5940 -30.5931 -30.5872 -30.5859 -30.5836 -30.5829 -30.5812 -30.5798
   -30.4952 -30.4942 -30.4928 -30.4920 -30.4898 -30.4886 -30.4832 -30.4823
   -30.4292 -30.4248 -30.4244 -30.4201 -30.4002 -30.3962 -30.3958 -30.3918
   -20.2973 -20.2972 -20.2972 -20.2971 -20.2971 -20.2971 -20.2970 -20.2970
   -20.2745 -20.2740 -20.2740 -20.2735 -20.2734 -20.2733 -20.2725 -20.2721
   -20.2717 -20.2713 -20.2708 -20.2706 -20.2704 -20.2704 -20.2698 -20.2695
   -20.2693 -20.2690 -20.2688 -20.2683 -20.2668 -20.2666 -20.2665 -20.2663
   -20.2662 -20.2657 -20.2654 -20.2652 -20.2638 -20.2638 -20.2624 -20.2624
   -20.2618 -20.2617 -20.2615 -20.2614 -20.2584 -20.2584 -20.2569 -20.2569
   -20.2562 -20.2561 -20.2550 -20.2550 -20.2544 -20.2544 -20.2529 -20.2528
    -9.9692  -9.8841  -9.6140  -9.5868  -9.5554  -9.5237  -9.2829  -9.2737
    -8.5510  -8.5015  -8.4991  -8.4918  -8.0136  -7.9766  -7.9715  -7.9601
    -7.9443  -7.9191  -7.9154  -7.8870  -7.8772  -7.8613  -7.8568  -7.8201
     0.9723   0.9766   1.1475   1.1484   1.1943   1.1949   1.4677   1.4900
     2.2647   2.3054   2.5565   2.6340   2.6574   2.7489   2.9501   2.9790
     3.0404   3.0802   3.5731   3.6242   3.6470   3.7160   4.0908   4.1060
     4.1105   4.1252   4.1964   4.5771   4.5913   4.7960   4.8877   4.9578
     4.9877   5.0091   5.0533   5.1174   5.2690   5.3734   5.4335   5.4408
     5.7118   5.7202   5.8161   5.8184   5.9365   5.9474   6.1258   6.1364
     6.3045   6.3311   6.3919   6.5113   6.5393   6.6795   6.7089   6.7662
     6.8733   6.8932   6.9458   6.9576   6.9855   6.9981   7.2100   7.2386
     7.2551   7.2688   7.8929   7.9046   7.9230   7.9309   7.9707   7.9932
     9.8394   9.8461  10.5362  10.5757  10.6392  10.6473  11.7591  11.8216
    11.8661  11.8864  12.6470  12.6657  12.6712  12.6856  13.0613  13.1361
    13.1712  13.2038  13.5382  13.5906  13.6308  13.6661  13.9222  13.9274
    15.4382  15.5484  15.5791  15.5855  15.7536  15.7599  16.5700  16.5898
    16.6047  16.7512  17.3189  17.5129  17.5246

          k = 0.1667 0.3150 0.3333 ( 62265 PWs)   bands (ev):

   -66.1511 -66.1509 -66.1506 -66.1504 -66.1502 -66.1500 -66.1497 -66.1495
   -30.5865 -30.5853 -30.5827 -30.5812 -30.5706 -30.5694 -30.5667 -30.5654
   -30.5159 -30.5147 -30.5119 -30.5108 -30.4890 -30.4877 -30.4858 -30.4846
   -30.4281 -30.4253 -30.4238 -30.4210 -30.3992 -30.3967 -30.3952 -30.3927
   -20.2972 -20.2972 -20.2971 -20.2971 -20.2971 -20.2971 -20.2970 -20.2970
   -20.2743 -20.2741 -20.2738 -20.2735 -20.2732 -20.2730 -20.2726 -20.2723
   -20.2715 -20.2711 -20.2710 -20.2706 -20.2704 -20.2703 -20.2699 -20.2697
   -20.2691 -20.2689 -20.2689 -20.2685 -20.2667 -20.2666 -20.2664 -20.2662
   -20.2661 -20.2659 -20.2656 -20.2655 -20.2628 -20.2627 -20.2618 -20.2617
   -20.2613 -20.2613 -20.2607 -20.2607 -20.2581 -20.2581 -20.2577 -20.2577
   -20.2573 -20.2573 -20.2565 -20.2564 -20.2541 -20.2541 -20.2532 -20.2532
    -9.8221  -9.7359  -9.6219  -9.5539  -9.3335  -9.2651  -9.1361  -9.1230
    -8.6258  -8.5553  -8.4823  -8.4819  -8.3620  -8.3383  -8.2963  -8.2435
    -7.9626  -7.9597  -7.9195  -7.9189  -7.9070  -7.8821  -7.8605  -7.8352
     1.1671   1.1688   1.1973   1.1979   1.9402   1.9585   2.0516   2.1043
     2.5336   2.5545   2.5749   2.6274   2.6547   2.7738   2.9637   3.0280
     3.2224   3.2980   3.4698   3.5545   3.6573   3.6616   3.7252   3.7768
     4.1363   4.2067   4.2731   4.3170   4.3683   4.4119   4.5073   4.5639
     4.5710   4.7491   4.7748   4.8688   4.9536   4.9916   5.0091   5.1477
     5.3056   5.4171   5.4630   5.6908   5.7308   5.9337   5.9358   5.9971
     6.3723   6.4633   6.5838   6.6952   6.7227   6.7763   6.7945   6.8154
     6.9188   6.9815   7.0978   7.1143   7.1712   7.2352   7.2444   7.2801
     7.3193   7.3322   7.7778   7.8163   7.8297   7.8345   7.9152   7.9410
    10.4778  10.5245  10.6192  10.6644  11.0829  11.1351  11.8278  11.8737
    12.0569  12.1285  12.1451  12.1757  12.5898  12.6248  12.8106  12.8560
    13.0499  13.1440  13.1600  13.2162  13.4926  13.5583  13.6863  13.7301
    15.5154  15.5566  15.8717  16.0668  16.1499  16.4682  16.5674  16.6508
    16.8980  16.9249  17.5255  17.6551  17.7585

          k = 0.1667 0.3150-0.5000 ( 62264 PWs)   bands (ev):

   -66.1508 -66.1508 -66.1506 -66.1506 -66.1500 -66.1499 -66.1498 -66.1497
   -30.5843 -30.5843 -30.5829 -30.5829 -30.5437 -30.5437 -30.5425 -30.5424
   -30.5394 -30.5394 -30.5381 -30.5381 -30.4875 -30.4875 -30.4862 -30.4862
   -30.4267 -30.4267 -30.4224 -30.4223 -30.3979 -30.3979 -30.3939 -30.3939
   -20.2972 -20.2972 -20.2972 -20.2971 -20.2971 -20.2971 -20.2971 -20.2970
   -20.2742 -20.2742 -20.2736 -20.2736 -20.2729 -20.2729 -20.2726 -20.2726
   -20.2712 -20.2712 -20.2709 -20.2708 -20.2702 -20.2702 -20.2700 -20.2700
   -20.2690 -20.2690 -20.2687 -20.2687 -20.2666 -20.2666 -20.2662 -20.2662
   -20.2659 -20.2659 -20.2659 -20.2659 -20.2622 -20.2622 -20.2620 -20.2620
   -20.2597 -20.2597 -20.2597 -20.2597 -20.2588 -20.2588 -20.2588 -20.2588
   -20.2576 -20.2575 -20.2575 -20.2575 -20.2537 -20.2537 -20.2537 -20.2536
    -9.6940  -9.6940  -9.6165  -9.6165  -8.9359  -8.9359  -8.8453  -8.8453
    -8.8243  -8.8243  -8.7949  -8.7949  -8.4550  -8.4550  -8.4351  -8.4351
    -7.9541  -7.9541  -7.9270  -7.9270  -7.8960  -7.8960  -7.8488  -7.8488
     1.1953   1.1953   1.1978   1.1979   2.5307   2.5307   2.6115   2.6115
     2.8605   2.8605   2.8969   2.8969   2.9868   2.9868   3.0509   3.0509
     3.0679   3.0679   3.2816   3.2816   3.2911   3.2911   3.6528   3.6529
     3.9353   3.9354   3.9943   3.9943   4.0537   4.0537   4.3048   4.3048
     4.6319   4.6319   4.6881   4.6881   4.9047   4.9047   5.0286   5.0286
     5.1045   5.1045   5.5246   5.5246   5.7776   5.7776   5.9407   5.9407
     6.5336   6.5337   6.6193   6.6194   6.6794   6.6795   6.8217   6.8218
     7.1113   7.1113   7.1869   7.1869   7.2480   7.2480   7.4673   7.4673
     7.5401   7.5401   7.6155   7.6155   7.6417   7.6417   7.9238   7.9238
    10.6036  10.6036  11.3533  11.3533  11.3827  11.3827  11.7500  11.7500
    11.8491  11.8491  11.9685  11.9685  12.5395  12.5395  12.6074  12.6074
    13.0350  13.0351  13.1742  13.1743  13.2979  13.2980  13.6349  13.6349
    15.5435  15.5435  16.3127  16.3127  16.3977  16.3978  16.4643  16.4643
    17.3278  17.3278  17.4514  17.4514  17.9517

          k = 0.1667-0.4725 0.1667 ( 62220 PWs)   bands (ev):

   -66.1512 -66.1511 -66.1503 -66.1503 -66.1503 -66.1503 -66.1494 -66.1494
   -30.5935 -30.5935 -30.5865 -30.5865 -30.5833 -30.5833 -30.5805 -30.5805
   -30.4947 -30.4946 -30.4924 -30.4923 -30.4892 -30.4892 -30.4827 -30.4827
   -30.4148 -30.4147 -30.4105 -30.4105 -30.4102 -30.4102 -30.4061 -30.4060
   -20.2973 -20.2972 -20.2972 -20.2971 -20.2971 -20.2971 -20.2970 -20.2970
   -20.2742 -20.2742 -20.2737 -20.2737 -20.2734 -20.2734 -20.2723 -20.2722
   -20.2715 -20.2715 -20.2706 -20.2706 -20.2705 -20.2705 -20.2696 -20.2696
   -20.2681 -20.2681 -20.2678 -20.2678 -20.2676 -20.2676 -20.2671 -20.2671
   -20.2663 -20.2663 -20.2653 -20.2653 -20.2638 -20.2638 -20.2624 -20.2624
   -20.2617 -20.2617 -20.2614 -20.2614 -20.2584 -20.2584 -20.2569 -20.2569
   -20.2561 -20.2561 -20.2550 -20.2550 -20.2544 -20.2544 -20.2529 -20.2528
    -9.9225  -9.9225  -9.5807  -9.5807  -9.5509  -9.5509  -9.2783  -9.2783
    -8.2656  -8.2650  -8.2321  -8.2313  -8.2278  -8.2268  -8.2172  -8.2158
    -7.9557  -7.9543  -7.9371  -7.9368  -7.8949  -7.8948  -7.8696  -7.8694
     0.9741   0.9746   1.1486   1.1490   1.1955   1.1959   1.4847   1.4852
     2.2851   2.2856   3.1430   3.1463   3.1727   3.1825   3.2351   3.2382
     3.3196   3.3200   3.4180   3.4187   3.6816   3.6817   3.6862   3.6889
     3.8725   3.8727   4.0973   4.1135   4.1142   4.1259   4.9339   4.9516
     5.0498   5.0602   5.2089   5.2249   5.2402   5.2488   5.4260   5.4424
     5.5422   5.5490   5.7480   5.7668   5.7833   5.7904   6.1447   6.1459
     6.3302   6.3358   6.5190   6.5269   6.5423   6.5433   6.7948   6.7974
     6.8086   6.8145   6.9510   6.9565   7.0206   7.0228   7.5785   7.5789
     7.5936   7.5938   7.5992   7.6059   7.6135   7.6195   7.9747   7.9748
     9.8440   9.8457  11.1492  11.1692  11.1949  11.2179  11.2508  11.2554
    11.3032  11.3033  12.6491  12.6691  12.6724  12.6865  13.2599  13.2612
    13.3372  13.3505  13.3801  13.3837  13.3988  13.4130  13.9115  13.9122
    15.7402  15.7430  16.0222  16.0264  16.2238  16.2297  16.2528  16.2565
    16.4898  16.4928  17.7942  17.8110  17.8539

          k = 0.1667-0.4725 0.3333 ( 62252 PWs)   bands (ev):

   -66.1510 -66.1510 -66.1505 -66.1505 -66.1501 -66.1501 -66.1496 -66.1496
   -30.5859 -30.5859 -30.5820 -30.5819 -30.5700 -30.5700 -30.5661 -30.5660
   -30.5153 -30.5153 -30.5113 -30.5113 -30.4883 -30.4883 -30.4852 -30.4852
   -30.4137 -30.4137 -30.4111 -30.4110 -30.4095 -30.4095 -30.4069 -30.4069
   -20.2972 -20.2972 -20.2971 -20.2971 -20.2971 -20.2971 -20.2970 -20.2970
   -20.2741 -20.2741 -20.2738 -20.2737 -20.2731 -20.2731 -20.2724 -20.2724
   -20.2713 -20.2713 -20.2708 -20.2707 -20.2703 -20.2703 -20.2698 -20.2698
   -20.2680 -20.2680 -20.2678 -20.2677 -20.2677 -20.2676 -20.2673 -20.2672
   -20.2662 -20.2662 -20.2656 -20.2656 -20.2628 -20.2628 -20.2618 -20.2617
   -20.2613 -20.2613 -20.2607 -20.2607 -20.2581 -20.2581 -20.2577 -20.2577
   -20.2573 -20.2573 -20.2565 -20.2564 -20.2541 -20.2541 -20.2532 -20.2532
    -9.7742  -9.7742  -9.5833  -9.5833  -9.2931  -9.2930  -9.1292  -9.1291
    -8.4269  -8.4251  -8.4007  -8.3981  -8.2267  -8.2243  -8.2159  -8.2133
    -8.1717  -8.1701  -8.1369  -8.1356  -7.9283  -7.9279  -7.8917  -7.8916
     1.1686   1.1687   1.1984   1.1991   1.9560   1.9568   2.0950   2.0954
     2.5551   2.5572   3.1568   3.1734   3.2118   3.2224   3.2620   3.2937
     3.3802   3.3872   3.4497   3.4558   3.5375   3.5663   3.6551   3.6578
     3.7781   3.7891   3.8967   3.8992   4.2746   4.2773   4.4131   4.4261
     4.5449   4.5815   4.8132   4.8138   4.8976   4.9487   4.9628   4.9723
     5.2333   5.2625   5.3409   5.4189   5.7684   5.7824   5.9349   5.9541
     6.4364   6.4370   6.6697   6.7000   6.7643   6.7802   6.7881   6.8085
     6.9114   6.9580   7.2025   7.2061   7.2482   7.2622   7.5481   7.5502
     7.5602   7.5630   7.5790   7.5825   7.6110   7.6285   7.8323   7.8387
    10.5248  10.5279  11.2326  11.2340  11.2669  11.2677  11.5637  11.5692
    11.6151  11.6282  12.1401  12.1669  12.7814  12.8263  12.8535  12.8580
    12.8658  12.8958  13.2464  13.2793  13.3565  13.3729  13.6487  13.6828
    16.0132  16.0197  16.1981  16.2020  16.4186  16.4264  16.9367  16.9427
    17.0031  17.0046  17.3074  17.3121  17.8094

          k = 0.1667-0.4725-0.5000 ( 62232 PWs)   bands (ev):

   -66.1507 -66.1507 -66.1507 -66.1507 -66.1499 -66.1498 -66.1498 -66.1498
   -30.5836 -30.5836 -30.5836 -30.5836 -30.5431 -30.5431 -30.5431 -30.5430
   -30.5388 -30.5387 -30.5387 -30.5387 -30.4869 -30.4869 -30.4869 -30.4868
   -30.4124 -30.4123 -30.4123 -30.4123 -30.4082 -30.4082 -30.4082 -30.4081
   -20.2972 -20.2972 -20.2972 -20.2971 -20.2971 -20.2971 -20.2971 -20.2970
   -20.2739 -20.2739 -20.2739 -20.2739 -20.2728 -20.2727 -20.2727 -20.2727
   -20.2711 -20.2710 -20.2710 -20.2710 -20.2701 -20.2701 -20.2701 -20.2700
   -20.2678 -20.2678 -20.2678 -20.2678 -20.2675 -20.2675 -20.2675 -20.2674
   -20.2660 -20.2659 -20.2659 -20.2659 -20.2621 -20.2621 -20.2621 -20.2621
   -20.2597 -20.2597 -20.2597 -20.2597 -20.2588 -20.2588 -20.2588 -20.2588
   -20.2576 -20.2575 -20.2575 -20.2575 -20.2537 -20.2537 -20.2537 -20.2536
    -9.6503  -9.6503  -9.6503  -9.6503  -8.8703  -8.8702  -8.8694  -8.8694
    -8.8099  -8.8099  -8.8089  -8.8089  -8.2147  -8.2146  -8.2138  -8.2137
    -8.1907  -8.1907  -8.1896  -8.1895  -7.9103  -7.9102  -7.9099  -7.9099
     1.1975   1.1975   1.1979   1.1979   2.8715   2.8715   2.8718   2.8718
     2.9719   2.9719   2.9882   2.9882   3.1405   3.1405   3.1709   3.1709
     3.2795   3.2795   3.2984   3.2984   3.4417   3.4417   3.4489   3.4489
     3.6780   3.6780   3.6921   3.6921   4.2815   4.2816   4.2820   4.2820
     4.3663   4.3663   4.3754   4.3755   4.6560   4.6561   4.7046   4.7046
     5.2436   5.2437   5.3067   5.3067   5.7999   5.7999   5.8186   5.8186
     6.5857   6.5857   6.5987   6.5987   6.7587   6.7587   6.7641   6.7641
     7.3238   7.3238   7.3814   7.3814   7.4466   7.4467   7.4470   7.4471
     7.4830   7.4830   7.5085   7.5085   7.6610   7.6610   7.6796   7.6796
    11.1864  11.1864  11.2263  11.2263  11.3874  11.3874  11.4419  11.4419
    12.1590  12.1590  12.1641  12.1641  12.2044  12.2044  12.2173  12.2173
    13.0858  13.0858  13.1633  13.1633  13.3775  13.3775  13.4459  13.4459
    16.1429  16.1429  16.1497  16.1497  16.8158  16.8158  16.8166  16.8166
    17.5819  17.5820  17.6088  17.6088  17.7876

          k = 0.3333 0.0000 0.3333 ( 62316 PWs)   bands (ev):

   -66.1510 -66.1506 -66.1505 -66.1505 -66.1501 -66.1501 -66.1500 -66.1496
   -30.5736 -30.5719 -30.5693 -30.5667 -30.5633 -30.5627 -30.5609 -30.5602
   -30.5160 -30.5146 -30.5143 -30.5126 -30.5097 -30.5074 -30.5047 -30.5032
   -30.4414 -30.4387 -30.4385 -30.4358 -30.3838 -30.3815 -30.3813 -30.3791
   -20.2972 -20.2972 -20.2972 -20.2971 -20.2971 -20.2971 -20.2971 -20.2970
   -20.2743 -20.2740 -20.2736 -20.2734 -20.2732 -20.2731 -20.2729 -20.2723
   -20.2715 -20.2711 -20.2710 -20.2708 -20.2707 -20.2704 -20.2704 -20.2702
   -20.2699 -20.2698 -20.2696 -20.2693 -20.2657 -20.2656 -20.2653 -20.2650
   -20.2648 -20.2647 -20.2646 -20.2645 -20.2631 -20.2628 -20.2625 -20.2624
   -20.2615 -20.2614 -20.2610 -20.2610 -20.2577 -20.2577 -20.2573 -20.2572
   -20.2570 -20.2570 -20.2564 -20.2564 -20.2552 -20.2551 -20.2543 -20.2543
    -9.7048  -9.5076  -9.4396  -9.4227  -9.2744  -9.2460  -9.0378  -9.0189
    -8.9348  -8.7276  -8.7220  -8.6855  -8.4118  -8.3263  -8.3254  -8.3097
    -8.3081  -8.2993  -8.2378  -8.2131  -7.5694  -7.5410  -7.5379  -7.5107
     1.6589   1.6756   1.6774   1.7476   1.7956   1.8051   1.9602   1.9926
     2.0724   2.0976   2.2536   2.4071   2.8101   2.8749   2.9160   2.9470
     2.9543   3.0320   3.6279   3.6562   3.7516   3.7844   3.8825   3.9314
     4.0915   4.1079   4.1203   4.2054   4.2492   4.2510   4.3766   4.4059
     4.5732   4.7179   4.7403   4.7930   4.7991   4.8244   4.8998   5.1899
     5.2363   5.3034   5.3485   5.7026   6.2063   6.2145   6.2340   6.2794
     6.5366   6.5437   6.5780   6.6818   6.7136   6.8036   6.8258   6.8274
     6.9848   7.0083   7.0207   7.0367   7.1385   7.1480   7.1994   7.2309
     7.2487   7.4464   7.6956   7.7091   7.9706   8.0224   8.0526   8.0829
    10.5632  10.6494  10.6498  10.7134  11.0075  11.0597  12.2221  12.2280
    12.2989  12.3366  12.3595  12.3762  12.4671  12.4814  12.6749  12.7143
    12.7246  12.7977  13.1904  13.2583  13.4865  13.5414  13.5800  13.6634
    14.4766  14.7244  14.7332  15.1247  15.9556  16.9042  16.9134  16.9863
    17.0072  17.7180  17.7281  17.7361  17.8621

          k = 0.3333 0.0000-0.5000 ( 62288 PWs)   bands (ev):

   -66.1507 -66.1507 -66.1504 -66.1503 -66.1502 -66.1502 -66.1498 -66.1498
   -30.5655 -30.5655 -30.5630 -30.5630 -30.5430 -30.5430 -30.5411 -30.5410
   -30.5406 -30.5406 -30.5386 -30.5386 -30.5084 -30.5084 -30.5060 -30.5059
   -30.4399 -30.4399 -30.4372 -30.4372 -30.3825 -30.3825 -30.3802 -30.3802
   -20.2972 -20.2972 -20.2971 -20.2971 -20.2971 -20.2971 -20.2971 -20.2970
   -20.2742 -20.2741 -20.2734 -20.2734 -20.2732 -20.2731 -20.2727 -20.2727
   -20.2713 -20.2713 -20.2708 -20.2708 -20.2706 -20.2706 -20.2704 -20.2704
   -20.2697 -20.2697 -20.2695 -20.2695 -20.2656 -20.2656 -20.2651 -20.2651
   -20.2649 -20.2649 -20.2646 -20.2646 -20.2628 -20.2628 -20.2625 -20.2625
   -20.2596 -20.2596 -20.2596 -20.2596 -20.2590 -20.2590 -20.2589 -20.2589
   -20.2570 -20.2570 -20.2570 -20.2570 -20.2548 -20.2547 -20.2547 -20.2547
    -9.5227  -9.5227  -9.3231  -9.3231  -9.1194  -9.1194  -8.8547  -8.8547
    -8.8200  -8.8200  -8.7541  -8.7541  -8.6212  -8.6212  -8.6052  -8.6052
    -8.2893  -8.2892  -8.2823  -8.2823  -7.5553  -7.5553  -7.5244  -7.5244
     1.6741   1.6741   1.7347   1.7347   1.9855   1.9855   2.0681   2.0682
     2.8918   2.8918   2.9534   2.9534   2.9812   2.9812   3.0381   3.0381
     3.0607   3.0607   3.3573   3.3573   3.4704   3.4704   3.6990   3.6990
     3.7037   3.7037   3.9233   3.9233   4.0875   4.0875   4.1356   4.1356
     4.4401   4.4401   4.7062   4.7062   4.7964   4.7964   4.8877   4.8877
     5.0284   5.0284   5.4732   5.4732   6.2548   6.2548   6.2657   6.2657
     6.5529   6.5529   6.5957   6.5957   6.6960   6.6961   6.8077   6.8078
     7.0561   7.0561   7.1565   7.1565   7.2087   7.2087   7.4525   7.4525
     7.4930   7.4930   7.7052   7.7052   7.7687   7.7687   8.0323   8.0323
    10.6359  10.6359  11.5042  11.5042  11.5393  11.5394  11.6928  11.6928
[...]
   -20.6844 -20.6844 -20.6840 -20.6840 -20.6815 -20.6815 -20.6809 -20.6809
   -20.6797 -20.6797 -20.6796 -20.6796 -20.6781 -20.6781 -20.6778 -20.6778
   -20.6775 -20.6775 -20.6773 -20.6773 -20.6740 -20.6739 -20.6739 -20.6739
   -20.6735 -20.6735 -20.6735 -20.6735 -20.6716 -20.6716 -20.6713 -20.6713
    -9.7931  -9.7931  -9.6351  -9.6350  -9.3143  -9.3143  -9.0944  -9.0944
    -8.9189  -8.9188  -8.8575  -8.8574  -8.8106  -8.8106  -8.7840  -8.7839
    -8.4509  -8.4509  -8.4256  -8.4256  -8.1288  -8.1288  -8.1106  -8.1106
     1.1724   1.1724   1.1817   1.1817   1.9667   1.9667   2.0531   2.0531
     2.7158   2.7158   2.8115   2.8116   2.8415   2.8415   2.9226   2.9226
     2.9474   2.9474   3.1781   3.1781   3.1875   3.1875   3.4477   3.4477
     3.5856   3.5856   3.6286   3.6287   3.8695   3.8695   4.0625   4.0625
     4.3505   4.3505   4.4886   4.4886   4.5786   4.5787   4.6578   4.6578
     4.7323   4.7323   5.1526   5.1526   5.5127   5.5127   5.6266   5.6266
     6.3419   6.3419   6.4201   6.4201   6.5009   6.5009   6.5463   6.5463
     6.7517   6.7517   6.8070   6.8070   6.9112   6.9113   7.2342   7.2342
     7.2613   7.2613   7.3088   7.3088   7.3452   7.3452   7.6135   7.6135
    10.2382  10.2382  10.8865  10.8865  10.9130  10.9130  11.3217  11.3218
    11.4069  11.4069  11.6852  11.6852  12.2551  12.2551  12.2797  12.2797
    12.5363  12.5363  12.6199  12.6199  12.6780  12.6780  13.1963  13.1963
    15.0807  15.0807  15.5280  15.5280  16.0335  16.0336  16.3621  16.3621
    16.6601  16.6601  17.0051  17.0052  17.5257

          k = 0.3272 0.4810 0.1634 ( 63554 PWs)   bands (ev):

   -66.5436 -66.5436 -66.5433 -66.5432 -66.5430 -66.5430 -66.5426 -66.5426
   -30.8794 -30.8794 -30.8773 -30.8771 -30.8720 -30.8719 -30.8698 -30.8697
   -30.8623 -30.8622 -30.8621 -30.8620 -30.8525 -30.8523 -30.8511 -30.8509
   -30.8166 -30.8166 -30.8141 -30.8141 -30.8000 -30.8000 -30.7974 -30.7973
   -20.7139 -20.7138 -20.7138 -20.7138 -20.7136 -20.7136 -20.7136 -20.7136
   -20.6894 -20.6894 -20.6892 -20.6891 -20.6886 -20.6886 -20.6884 -20.6884
   -20.6856 -20.6856 -20.6854 -20.6853 -20.6851 -20.6851 -20.6849 -20.6848
   -20.6832 -20.6832 -20.6828 -20.6828 -20.6826 -20.6826 -20.6823 -20.6822
   -20.6801 -20.6800 -20.6794 -20.6794 -20.6793 -20.6793 -20.6789 -20.6789
   -20.6767 -20.6766 -20.6763 -20.6762 -20.6745 -20.6744 -20.6740 -20.6740
   -20.6732 -20.6732 -20.6728 -20.6728 -20.6716 -20.6716 -20.6712 -20.6712
    -9.8107  -9.8107  -9.6259  -9.6258  -9.3524  -9.3523  -9.1379  -9.1379
    -8.8967  -8.8963  -8.8209  -8.8207  -8.7820  -8.7811  -8.7756  -8.7754
    -8.4548  -8.4548  -8.4173  -8.4169  -8.1363  -8.1362  -8.1034  -8.1034
     1.1697   1.1712   1.1773   1.1786   1.9048   1.9055   2.0124   2.0143
     2.6590   2.6633   2.8234   2.8296   2.8816   2.8946   2.9248   2.9402
     2.9835   2.9987   3.1512   3.1663   3.2388   3.2530   3.4011   3.4086
     3.4582   3.4674   3.5949   3.6220   3.9817   3.9890   4.1704   4.1795
     4.2936   4.3355   4.4945   4.5225   4.5351   4.6088   4.6397   4.6482
     4.7534   4.7809   5.0646   5.1033   5.4741   5.4833   5.7370   5.7422
     6.3263   6.3350   6.3765   6.3823   6.5105   6.5107   6.6332   6.6401
     6.7725   6.7753   6.8431   6.8639   6.9446   6.9447   7.1961   7.2029
     7.2156   7.2241   7.2632   7.2645   7.2864   7.3008   7.6203   7.6258
    10.1213  10.1249  10.9047  10.9168  10.9329  10.9355  11.2930  11.3028
    11.3224  11.3338  11.6109  11.6451  12.2509  12.2942  12.3529  12.3551
    12.3949  12.4032  12.7831  12.8430  12.8491  12.8759  12.9888  13.0447
    15.1815  15.1896  15.5023  15.5098  15.9795  15.9850  16.4330  16.4501
    16.6403  16.6509  17.0362  17.0668  17.5240

          k =-0.4908 0.4810 0.1634 ( 63560 PWs)   bands (ev):

   -66.5434 -66.5434 -66.5434 -66.5434 -66.5428 -66.5428 -66.5428 -66.5428
   -30.8783 -30.8783 -30.8782 -30.8782 -30.8655 -30.8655 -30.8650 -30.8650
   -30.8645 -30.8645 -30.8639 -30.8639 -30.8372 -30.8371 -30.8360 -30.8360
   -30.8345 -30.8345 -30.8335 -30.8335 -30.7989 -30.7989 -30.7988 -30.7988
   -20.7138 -20.7138 -20.7138 -20.7138 -20.7136 -20.7136 -20.7136 -20.7136
   -20.6893 -20.6893 -20.6893 -20.6893 -20.6885 -20.6885 -20.6885 -20.6885
   -20.6854 -20.6854 -20.6854 -20.6854 -20.6851 -20.6851 -20.6851 -20.6851
   -20.6831 -20.6831 -20.6829 -20.6829 -20.6825 -20.6825 -20.6824 -20.6824
   -20.6797 -20.6797 -20.6797 -20.6797 -20.6779 -20.6779 -20.6778 -20.6778
   -20.6776 -20.6776 -20.6775 -20.6775 -20.6740 -20.6739 -20.6739 -20.6739
   -20.6735 -20.6735 -20.6735 -20.6735 -20.6715 -20.6715 -20.6715 -20.6715
    -9.6968  -9.6968  -9.6936  -9.6936  -9.0606  -9.0605  -9.0458  -9.0458
    -8.9249  -8.9248  -8.9120  -8.9120  -8.7352  -8.7352  -8.7138  -8.7137
    -8.6995  -8.6995  -8.6790  -8.6790  -8.1202  -8.1202  -8.1201  -8.1201
     1.1798   1.1798   1.1829   1.1829   2.6885   2.6886   2.7596   2.7596
     2.7894   2.7895   2.8432   2.8432   2.8891   2.8891   2.9367   2.9367
     3.0397   3.0397   3.0981   3.0981   3.1665   3.1665   3.2065   3.2065
     3.2357   3.2358   3.4466   3.4466   3.8825   3.8825   3.9494   3.9494
     3.9720   3.9721   4.0395   4.0395   4.4797   4.4797   4.5443   4.5444
     4.8434   4.8434   4.9135   4.9135   5.5320   5.5320   5.5425   5.5425
     6.4203   6.4203   6.4695   6.4695   6.4847   6.4847   6.5238   6.5238
     7.0118   7.0119   7.0474   7.0474   7.1038   7.1038   7.1415   7.1415
     7.1586   7.1586   7.2395   7.2395   7.3803   7.3803   7.4102   7.4102
    10.8138  10.8138  10.8675  10.8675  10.9489  10.9489  11.0168  11.0168
    11.7510  11.7510  11.7946  11.7946  11.8553  11.8553  11.8721  11.8721
    12.5449  12.5449  12.6119  12.6119  12.8519  12.8519  12.9109  12.9109
    15.3893  15.3893  15.3988  15.3988  16.5016  16.5017  16.5556  16.5556
    17.2711  17.2712  17.3151  17.3152  17.3842

          k =-0.4908 0.0000 0.3268 ( 63526 PWs)   bands (ev):

   -66.5436 -66.5436 -66.5432 -66.5432 -66.5430 -66.5430 -66.5427 -66.5427
   -30.9017 -30.9017 -30.8993 -30.8993 -30.8630 -30.8630 -30.8577 -30.8577
   -30.8439 -30.8439 -30.8431 -30.8430 -30.8385 -30.8384 -30.8373 -30.8373
   -30.8268 -30.8268 -30.8195 -30.8195 -30.8129 -30.8129 -30.8104 -30.8104
   -20.7138 -20.7138 -20.7138 -20.7138 -20.7137 -20.7137 -20.7136 -20.7136
   -20.6895 -20.6895 -20.6891 -20.6891 -20.6888 -20.6888 -20.6883 -20.6883
   -20.6861 -20.6861 -20.6857 -20.6857 -20.6857 -20.6857 -20.6856 -20.6855
   -20.6848 -20.6848 -20.6847 -20.6847 -20.6802 -20.6802 -20.6798 -20.6798
   -20.6788 -20.6788 -20.6786 -20.6786 -20.6780 -20.6780 -20.6775 -20.6774
   -20.6770 -20.6770 -20.6768 -20.6768 -20.6747 -20.6747 -20.6746 -20.6746
   -20.6734 -20.6734 -20.6732 -20.6732 -20.6724 -20.6724 -20.6720 -20.6720
    -9.8193  -9.8193  -9.6381  -9.6381  -9.3598  -9.3598  -9.1266  -9.1266
    -8.9136  -8.9135  -8.8464  -8.8463  -8.8143  -8.8142  -8.8004  -8.8004
    -8.4467  -8.4467  -8.4287  -8.4286  -8.0475  -8.0475  -8.0256  -8.0256
     1.0232   1.0232   1.0444   1.0444   1.9074   1.9074   1.9650   1.9650
     2.6292   2.6292   2.7762   2.7762   2.7930   2.7931   2.8989   2.8990
     2.9461   2.9462   3.2646   3.2646   3.3446   3.3447   3.4302   3.4303
     3.5166   3.5166   3.6417   3.6417   3.8322   3.8322   4.0738   4.0738
     4.3798   4.3798   4.6026   4.6027   4.6849   4.6849   4.7045   4.7045
     4.9752   4.9753   5.3099   5.3100   5.7794   5.7794   5.8347   5.8347
     6.1106   6.1106   6.1445   6.1446   6.2796   6.2796   6.2877   6.2877
     6.7909   6.7909   6.9152   6.9152   6.9827   6.9827   7.2560   7.2560
     7.2737   7.2737   7.3363   7.3363   7.3890   7.3890   7.7035   7.7036
    10.2228  10.2228  10.9886  10.9887  11.0062  11.0062  11.2073  11.2073
    11.2713  11.2713  11.8146  11.8146  12.1849  12.1849  12.2320  12.2320
    12.4887  12.4887  12.8303  12.8303  12.8514  12.8514  13.2537  13.2537
    14.5654  14.5654  14.9389  14.9389  15.9400  15.9400  16.4860  16.4860
    16.7888  16.7888  17.0201  17.0202  17.6625

          k =-0.4908-0.1603 0.3268 ( 63518 PWs)   bands (ev):

   -66.5435 -66.5435 -66.5432 -66.5432 -66.5431 -66.5431 -66.5427 -66.5427
   -30.8971 -30.8971 -30.8946 -30.8946 -30.8629 -30.8629 -30.8578 -30.8578
   -30.8453 -30.8453 -30.8442 -30.8442 -30.8383 -30.8383 -30.8374 -30.8374
   -30.8287 -30.8287 -30.8229 -30.8229 -30.8131 -30.8131 -30.8118 -30.8118
   -20.7138 -20.7138 -20.7138 -20.7138 -20.7137 -20.7137 -20.7136 -20.7136
   -20.6894 -20.6894 -20.6890 -20.6890 -20.6889 -20.6889 -20.6884 -20.6884
   -20.6858 -20.6858 -20.6857 -20.6856 -20.6855 -20.6855 -20.6853 -20.6853
   -20.6848 -20.6848 -20.6847 -20.6847 -20.6805 -20.6805 -20.6801 -20.6801
   -20.6788 -20.6788 -20.6785 -20.6785 -20.6781 -20.6781 -20.6775 -20.6775
   -20.6771 -20.6771 -20.6769 -20.6769 -20.6747 -20.6747 -20.6746 -20.6746
   -20.6734 -20.6734 -20.6732 -20.6732 -20.6724 -20.6724 -20.6720 -20.6720
    -9.7609  -9.7609  -9.5618  -9.5618  -9.3700  -9.3699  -9.1024  -9.1024
    -8.9236  -8.9236  -8.8401  -8.8401  -8.8115  -8.8115  -8.8011  -8.8010
    -8.4444  -8.4444  -8.4339  -8.4339  -8.1610  -8.1610  -8.1393  -8.1393
     1.2716   1.2716   1.2981   1.2981   1.9076   1.9076   1.9713   1.9713
     2.7017   2.7017   2.7912   2.7913   2.8188   2.8189   2.9053   2.9053
     2.9488   2.9489   3.3001   3.3001   3.3853   3.3853   3.4406   3.4406
     3.5216   3.5216   3.6975   3.6976   3.8019   3.8019   4.0822   4.0822
     4.2391   4.2392   4.4063   4.4063   4.6060   4.6060   4.6630   4.6630
     4.7122   4.7122   5.0374   5.0374   5.4664   5.4664   5.6097   5.6097
     6.2829   6.2829   6.3172   6.3172   6.3917   6.3917   6.5176   6.5176
     6.8029   6.8029   6.9109   6.9109   6.9941   6.9942   7.2503   7.2503
     7.2692   7.2692   7.3294   7.3294   7.3769   7.3770   7.6579   7.6579
    10.3420  10.3420  11.0464  11.0464  11.0819  11.0819  11.2204  11.2204
    11.2935  11.2935  11.8614  11.8614  12.1840  12.1840  12.2305  12.2305
    12.3268  12.3268  12.6902  12.6902  12.7088  12.7088  13.1219  13.1219
    14.9453  14.9453  15.3374  15.3374  16.0202  16.0203  16.4842  16.4842
    16.8018  16.8018  17.0555  17.0555  17.4783

          k =-0.4908-0.3207 0.3268 ( 63532 PWs)   bands (ev):

   -66.5434 -66.5434 -66.5432 -66.5432 -66.5431 -66.5431 -66.5428 -66.5428
   -30.8849 -30.8849 -30.8821 -30.8821 -30.8633 -30.8633 -30.8582 -30.8582
   -30.8510 -30.8510 -30.8508 -30.8507 -30.8376 -30.8376 -30.8370 -30.8370
   -30.8330 -30.8330 -30.8299 -30.8299 -30.8135 -30.8135 -30.8134 -30.8134
   -20.7138 -20.7138 -20.7138 -20.7138 -20.7137 -20.7137 -20.7136 -20.7136
   -20.6893 -20.6893 -20.6890 -20.6890 -20.6888 -20.6888 -20.6885 -20.6885
   -20.6855 -20.6855 -20.6854 -20.6853 -20.6852 -20.6852 -20.6850 -20.6850
   -20.6844 -20.6844 -20.6841 -20.6841 -20.6815 -20.6815 -20.6811 -20.6811
   -20.6788 -20.6788 -20.6786 -20.6786 -20.6781 -20.6781 -20.6777 -20.6777
   -20.6772 -20.6772 -20.6770 -20.6770 -20.6747 -20.6747 -20.6746 -20.6746
   -20.6734 -20.6734 -20.6733 -20.6733 -20.6723 -20.6723 -20.6721 -20.6721
    -9.6191  -9.6191  -9.4053  -9.4053  -9.3537  -9.3536  -9.0142  -9.0142
    -8.9648  -8.9648  -8.8306  -8.8305  -8.7968  -8.7967  -8.7913  -8.7912
    -8.4858  -8.4857  -8.4401  -8.4401  -8.4347  -8.4347  -8.3739  -8.3739
     1.8083   1.8083   1.9073   1.9073   1.9729   1.9729   2.1173   2.1173
     2.8127   2.8127   2.8391   2.8392   2.8881   2.8881   2.9320   2.9320
     3.0036   3.0036   3.3783   3.3783   3.3923   3.3923   3.5051   3.5051
     3.5703   3.5703   3.6757   3.6757   3.8421   3.8421   3.8597   3.8597
     3.9750   3.9750   4.1588   4.1588   4.2222   4.2222   4.4868   4.4868
     4.5515   4.5515   4.6600   4.6600   4.6779   4.6779   5.0293   5.0293
     6.6106   6.6106   6.6665   6.6665   6.7287   6.7287   6.7570   6.7570
     6.8385   6.8385   6.9080   6.9080   7.0455   7.0455   7.2094   7.2094
     7.2433   7.2433   7.3181   7.3181   7.3276   7.3277   7.5213   7.5213
    10.6963  10.6963  11.1357  11.1357  11.1963  11.1963  11.3593  11.3593
    11.4546  11.4546  11.8707  11.8707  12.0115  12.0115  12.1519  12.1519
    12.2511  12.2511  12.3360  12.3360  12.3659  12.3659  12.7978  12.7978
    15.7938  15.7938  16.2602  16.2602  16.2991  16.2991  16.4737  16.4737
    16.8682  16.8682  17.0942  17.0943  17.1964

          k =-0.4908 0.4810 0.3268 ( 63540 PWs)   bands (ev):

   -66.5433 -66.5433 -66.5433 -66.5433 -66.5430 -66.5430 -66.5429 -66.5429
   -30.8702 -30.8702 -30.8697 -30.8697 -30.8659 -30.8659 -30.8649 -30.8649
   -30.8577 -30.8577 -30.8572 -30.8572 -30.8368 -30.8368 -30.8360 -30.8360
   -30.8349 -30.8349 -30.8337 -30.8337 -30.8139 -30.8139 -30.8137 -30.8137
   -20.7138 -20.7138 -20.7138 -20.7138 -20.7137 -20.7137 -20.7136 -20.7136
   -20.6891 -20.6891 -20.6891 -20.6891 -20.6887 -20.6887 -20.6887 -20.6887
   -20.6853 -20.6853 -20.6853 -20.6853 -20.6852 -20.6852 -20.6851 -20.6851
   -20.6830 -20.6830 -20.6829 -20.6829 -20.6827 -20.6827 -20.6825 -20.6825
   -20.6787 -20.6787 -20.6787 -20.6786 -20.6780 -20.6780 -20.6779 -20.6779
   -20.6772 -20.6772 -20.6771 -20.6771 -20.6747 -20.6747 -20.6747 -20.6746
   -20.6733 -20.6733 -20.6733 -20.6733 -20.6722 -20.6722 -20.6722 -20.6722
    -9.4854  -9.4854  -9.4803  -9.4803  -9.1098  -9.1098  -9.0959  -9.0959
    -8.8749  -8.8748  -8.8626  -8.8626  -8.7292  -8.7292  -8.7126  -8.7126
    -8.7001  -8.7001  -8.6857  -8.6856  -8.4260  -8.4260  -8.4254  -8.4254
     1.8977   1.8977   1.9044   1.9044   2.7030   2.7030   2.7395   2.7395
     2.8138   2.8138   2.8394   2.8394   2.8953   2.8953   2.9454   2.9455
     3.0984   3.0984   3.1218   3.1218   3.3203   3.3203   3.3791   3.3791
     3.4553   3.4553   3.5737   3.5737   3.8655   3.8655   3.8905   3.8905
     3.9476   3.9476   3.9791   3.9791   4.0694   4.0694   4.1098   4.1099
     4.3419   4.3419   4.4127   4.4127   4.7033   4.7033   4.7120   4.7120
     6.7235   6.7235   6.8020   6.8020   6.8251   6.8251   6.8373   6.8373
     6.9883   6.9883   7.0575   7.0575   7.1067   7.1067   7.1135   7.1135
     7.1872   7.1872   7.2529   7.2529   7.3423   7.3423   7.3811   7.3811
    11.0976  11.0976  11.1430  11.1430  11.2611  11.2611  11.3432  11.3432
    11.7453  11.7453  11.7988  11.7988  11.8434  11.8434  11.8828  11.8828
    12.1342  12.1342  12.2644  12.2644  12.3958  12.3958  12.4829  12.4829
    16.2851  16.2851  16.3227  16.3228  16.7111  16.7112  16.7439  16.7439
    17.1741  17.1741  17.2737  17.2737  17.3770

     the Fermi energy is     8.6111 ev

!    total energy              =   -6261.09980948 Ry
     Harris-Foulkes estimate   =   -6261.09980948 Ry
     estimated scf accuracy    <          6.8E-12 Ry

     The total energy is the sum of the following terms:

     one-electron contribution =   -4808.22415512 Ry
     hartree contribution      =    2636.15359828 Ry
     xc contribution           =    -965.67558694 Ry
     ewald contribution        =   -3123.35366570 Ry
     smearing contrib. (-TS)   =      -0.00000000 Ry

     convergence has been achieved in  15 iterations

     Forces acting on atoms (cartesian axes, Ry/au):

     atom    1 type  1   force =    -0.00781659    0.01619976    0.00713521
     atom    2 type  1   force =     0.00781659   -0.01619976   -0.00713521
     atom    3 type  1   force =     0.00781659   -0.01619976    0.00713521
     atom    4 type  1   force =    -0.00781659    0.01619976   -0.00713521
     atom    5 type  1   force =     0.00781659    0.01619976   -0.00713521
     atom    6 type  1   force =    -0.00781659   -0.01619976    0.00713521
     atom    7 type  1   force =    -0.00781659   -0.01619976   -0.00713521
     atom    8 type  1   force =     0.00781659    0.01619976    0.00713521
     atom    9 type  2   force =     0.00000568   -0.00854908   -0.00076379
     atom   10 type  2   force =    -0.00000568    0.00854908    0.00076379
     atom   11 type  2   force =    -0.00000568    0.00854908   -0.00076379
     atom   12 type  2   force =     0.00000568   -0.00854908    0.00076379
     atom   13 type  2   force =    -0.00000568   -0.00854908    0.00076379
     atom   14 type  2   force =     0.00000568    0.00854908   -0.00076379
     atom   15 type  2   force =     0.00000568    0.00854908    0.00076379
     atom   16 type  2   force =    -0.00000568   -0.00854908   -0.00076379
     atom   17 type  2   force =    -0.00439486   -0.00087759   -0.00073222
     atom   18 type  2   force =     0.00439486    0.00087759    0.00073222
     atom   19 type  2   force =     0.00439486    0.00087759   -0.00073222
     atom   20 type  2   force =    -0.00439486   -0.00087759    0.00073222
     atom   21 type  2   force =     0.00439486   -0.00087759    0.00073222
     atom   22 type  2   force =    -0.00439486    0.00087759   -0.00073222
     atom   23 type  2   force =    -0.00439486    0.00087759    0.00073222
     atom   24 type  2   force =     0.00439486   -0.00087759   -0.00073222
     atom   25 type  2   force =    -0.00194678    0.00178054    0.00583794
     atom   26 type  2   force =     0.00194678   -0.00178054   -0.00583794
     atom   27 type  2   force =     0.00194678   -0.00178054    0.00583794
     atom   28 type  2   force =    -0.00194678    0.00178054   -0.00583794
     atom   29 type  2   force =     0.00194678    0.00178054   -0.00583794
     atom   30 type  2   force =    -0.00194678   -0.00178054    0.00583794
     atom   31 type  2   force =    -0.00194678   -0.00178054   -0.00583794
     atom   32 type  2   force =     0.00194678    0.00178054    0.00583794

     Total force =     0.000000     Total SCF correction =     0.000000


     Computing stress (Cartesian axis) and pressure

          total   stress  (Ry/bohr**3)                   (kbar)     P=    1.15
   0.00001103   0.00000000   0.00000000          1.62      0.00      0.00
   0.00000000   0.00000065   0.00000000          0.00      0.10      0.00
   0.00000000   0.00000000   0.00001173          0.00      0.00      1.73


     Writing output data file Landau_25.save
 
     init_run     :     95.87s CPU     98.51s WALL (       2 calls)
     electrons    :  13204.54s CPU  13419.42s WALL (       7 calls)
     update_pot   :    144.25s CPU    144.45s WALL (       5 calls)
     forces       :    235.01s CPU    237.43s WALL (       7 calls)
     stress       :   1788.43s CPU   1804.60s WALL (       7 calls)

     Called by init_run:
     wfcinit      :     69.89s CPU     72.26s WALL (       2 calls)
     potinit      :     11.73s CPU     11.79s WALL (       2 calls)

     Called by electrons:
     c_bands      :  11615.31s CPU  11818.43s WALL (      96 calls)
     sum_band     :   1494.84s CPU   1501.49s WALL (      96 calls)
     v_of_rho     :     12.55s CPU     12.73s WALL (     101 calls)
     mix_rho      :     20.97s CPU     24.73s WALL (      96 calls)

     Called by c_bands:
     init_us_2    :     94.39s CPU     98.80s WALL (     416 calls)
     cegterg      :   8588.60s CPU   8781.57s WALL (     192 calls)

     Called by sum_band:

     Called by *egterg:
     h_psi        :   6488.18s CPU   6510.26s WALL (     792 calls)
     g_psi        :     29.90s CPU     29.93s WALL (     596 calls)
     cdiaghg      :    100.93s CPU    101.07s WALL (     774 calls)

     Called by h_psi:
     h_psi:pot    :   6447.72s CPU   6469.09s WALL (     792 calls)
     h_psi:calbec :    786.21s CPU    801.17s WALL (     792 calls)
     vloc_psi     :   4830.06s CPU   4834.54s WALL (     792 calls)
     add_vuspsi   :    831.44s CPU    833.38s WALL (     792 calls)

     General routines
     calbec       :    900.07s CPU    915.16s WALL (     862 calls)
     fft          :      8.65s CPU      8.66s WALL (     462 calls)
     fftw         :   4942.45s CPU   4945.29s WALL (  250856 calls)
 
     Parallel routines
 
     PWSCF        :     4h18m CPU        4h22m WALL

 
   This run was terminated on:   8:59:54  20Mar2020            

=------------------------------------------------------------------------------=
   JOB DONE.
=------------------------------------------------------------------------------=
