
     Program PWSCF v.6.4.1 starts on 22Nov2019 at  1: 8:10 

     This program is part of the open-source Quantum ESPRESSO suite
     for quantum simulation of materials; please cite
         "P. Giannozzi et al., J. Phys.:Condens. Matter 21 395502 (2009);
         "P. Giannozzi et al., J. Phys.:Condens. Matter 29 465901 (2017);
          URL http://www.quantum-espresso.org", 
     in publications or presentations arising from this work. More details at
     http://www.quantum-espresso.org/quote

     Parallel version (MPI), running on    40 processors

     MPI processes distributed on     5 nodes
     K-points division:     npool     =      40
     Reading input from scf.in

     Current dimensions of program PWSCF are:
     Max number of different atomic species (ntypx) = 10
     Max number of k-points (npk) =  40000
     Max angular momentum in pseudopotentials (lmaxx) =  3

     Subspace diagonalization in iterative solution of the eigenvalue problem:
     a serial algorithm will be used

     Message from routine setup:
     using ibrav=0 with symmetry is DISCOURAGED, use correct ibrav instead
 
     G-vector sticks info
     --------------------
     sticks:   dense  smooth     PW     G-vecs:    dense   smooth      PW
     Sum        7749    7749   2083               499485   499485   69213
 


     bravais-lattice index     =            0
     lattice parameter (alat)  =      13.8684  a.u.
     unit-cell volume          =    2812.9866 (a.u.)^3
     number of atoms/cell      =           32
     number of atomic types    =            2
     number of electrons       =       368.52
     number of Kohn-Sham states=          221
     kinetic-energy cutoff     =     120.0000  Ry
     charge density cutoff     =     480.0000  Ry
     convergence threshold     =      1.0E-08
     mixing beta               =       0.7000
     number of iterations used =            8  plain     mixing
     Exchange-correlation      = SLA PW NOGX NOGC ( 1  4  0  0 0 0)

     celldm(1)=  13.868406  celldm(2)=   0.000000  celldm(3)=   0.000000
     celldm(4)=   0.000000  celldm(5)=   0.000000  celldm(6)=   0.000000

     crystal axes: (cart. coord. in units of alat)
               a(1) = (   1.000000   0.000000   0.000000 )  
               a(2) = (   0.000000   1.054581   0.000000 )  
               a(3) = (   0.000000   0.000000   1.000018 )  

     reciprocal axes: (cart. coord. in units 2 pi/alat)
               b(1) = (  1.000000  0.000000  0.000000 )  
               b(2) = (  0.000000  0.948244  0.000000 )  
               b(3) = (  0.000000  0.000000  0.999982 )  


     PseudoPot. # 1 for W  read from file:
     /cluster/scratch/mnoe/QE/pps/W_ONCV_LDA-4.0.upf
     MD5 check sum: ba0307d5d4cd419d6f1d13dc49d7c13a
     Pseudo is Norm-conserving + core correction, Zval = 28.0
     Generated using ONCVPSP code by D. R. Hamann
     Using radial grid of 1380 points,  8 beta functions with: 
                l(1) =   0
                l(2) =   0
                l(3) =   1
                l(4) =   1
                l(5) =   2
                l(6) =   2
                l(7) =   3
                l(8) =   3

     PseudoPot. # 2 for O  read from file:
     /cluster/scratch/mnoe/QE/pps/O_ONCV_LDA-3.0.upf
     MD5 check sum: b55cdb4f45ae2203d24ad12cf8d61a31
     Pseudo is Norm-conserving + core correction, Zval =  6.0
     Generated using ONCVPSP code by D. R. Hamann
     Using radial grid of  926 points,  5 beta functions with: 
                l(1) =   0
                l(2) =   0
                l(3) =   1
                l(4) =   1
                l(5) =   2

     atomic species   valence    mass     pseudopotential
        W             28.00   183.84000     W ( 1.00)
        O              6.00    15.99940     O ( 1.00)

      8 Sym. Ops., with inversion, found ( 6 have fractional translation)



   Cartesian axes

     site n.     atom                  positions (alat units)
         1           W   tau(   1) = (   0.2490800   0.2979606   0.0008700  )
         2           W   tau(   2) = (   0.7509200   0.7566208   0.9991482  )
         3           W   tau(   3) = (   0.2509200   0.2293301   0.5008791  )
         4           W   tau(   4) = (   0.7490800   0.8252512   0.4991391  )
         5           W   tau(   5) = (   0.7509200   0.2979606   0.4991391  )
         6           W   tau(   6) = (   0.2490800   0.7566208   0.5008791  )
         7           W   tau(   7) = (   0.7490800   0.2293301   0.9991482  )
         8           W   tau(   8) = (   0.2509200   0.8252512   0.0008700  )
         9           O   tau(   9) = (   0.2482900   0.0101295   0.0002700  )
        10           O   tau(  10) = (   0.7517100   1.0444519   0.9997481  )
        11           O   tau(  11) = (   0.2517100   0.5171612   0.5002791  )
        12           O   tau(  12) = (   0.7482900   0.5374201   0.4997391  )
        13           O   tau(  13) = (   0.7517100   0.0101295   0.4997391  )
        14           O   tau(  14) = (   0.2482900   1.0444519   0.5002791  )
        15           O   tau(  15) = (   0.7482900   0.5171612   0.9997481  )
        16           O   tau(  16) = (   0.2517100   0.5374201   0.0002700  )
        17           O   tau(  17) = (   0.5002500   0.2617998   0.4530588  )
        18           O   tau(  18) = (   0.4997500   0.7927815   0.5469593  )
        19           O   tau(  19) = (   0.9997500   0.2654909   0.9530680  )
        20           O   tau(  20) = (   0.0002500   0.7890905   0.0469503  )
        21           O   tau(  21) = (   0.4997500   0.2617998   0.0469503  )
        22           O   tau(  22) = (   0.5002500   0.7927815   0.9530680  )
        23           O   tau(  23) = (   0.0002500   0.2654909   0.5469593  )
        24           O   tau(  24) = (   0.9997500   0.7890905   0.4530588  )
        25           O   tau(  25) = (   0.7030506   0.2632446   0.7496336  )
        26           O   tau(  26) = (   0.2969494   0.7913368   0.2503845  )
        27           O   tau(  27) = (   0.7969494   0.2640461   0.2496245  )
        28           O   tau(  28) = (   0.2030506   0.7905353   0.7503936  )
        29           O   tau(  29) = (   0.2969494   0.2632446   0.7503936  )
        30           O   tau(  30) = (   0.7030506   0.7913368   0.2496245  )
        31           O   tau(  31) = (   0.2030506   0.2640461   0.2503845  )
        32           O   tau(  32) = (   0.7969494   0.7905353   0.7496336  )

     number of k points=    64  gaussian smearing, width (Ry)=  0.0007
                       cart. coord. in units 2pi/alat
        k(    1) = (   0.0000000   0.0000000   0.0000000), wk =   0.0092593
        k(    2) = (   0.0000000   0.0000000   0.1666636), wk =   0.0185185
        k(    3) = (   0.0000000   0.0000000   0.3333273), wk =   0.0185185
        k(    4) = (   0.0000000   0.0000000  -0.4999909), wk =   0.0092593
        k(    5) = (   0.0000000   0.1580406   0.0000000), wk =   0.0185185
        k(    6) = (   0.0000000   0.1580406   0.1666636), wk =   0.0370370
        k(    7) = (   0.0000000   0.1580406   0.3333273), wk =   0.0370370
        k(    8) = (   0.0000000   0.1580406  -0.4999909), wk =   0.0185185
        k(    9) = (   0.0000000   0.3160812   0.0000000), wk =   0.0185185
        k(   10) = (   0.0000000   0.3160812   0.1666636), wk =   0.0370370
        k(   11) = (   0.0000000   0.3160812   0.3333273), wk =   0.0370370
        k(   12) = (   0.0000000   0.3160812  -0.4999909), wk =   0.0185185
        k(   13) = (   0.0000000  -0.4741218   0.0000000), wk =   0.0092593
        k(   14) = (   0.0000000  -0.4741218   0.1666636), wk =   0.0185185
        k(   15) = (   0.0000000  -0.4741218   0.3333273), wk =   0.0185185
        k(   16) = (   0.0000000  -0.4741218  -0.4999909), wk =   0.0092593
        k(   17) = (   0.1666667   0.0000000   0.0000000), wk =   0.0185185
        k(   18) = (   0.1666667   0.0000000   0.1666636), wk =   0.0370370
        k(   19) = (   0.1666667   0.0000000   0.3333273), wk =   0.0370370
        k(   20) = (   0.1666667   0.0000000  -0.4999909), wk =   0.0185185
        k(   21) = (   0.1666667   0.1580406   0.0000000), wk =   0.0370370
        k(   22) = (   0.1666667   0.1580406   0.1666636), wk =   0.0740741
        k(   23) = (   0.1666667   0.1580406   0.3333273), wk =   0.0740741
        k(   24) = (   0.1666667   0.1580406  -0.4999909), wk =   0.0370370
        k(   25) = (   0.1666667   0.3160812   0.0000000), wk =   0.0370370
        k(   26) = (   0.1666667   0.3160812   0.1666636), wk =   0.0740741
        k(   27) = (   0.1666667   0.3160812   0.3333273), wk =   0.0740741
        k(   28) = (   0.1666667   0.3160812  -0.4999909), wk =   0.0370370
        k(   29) = (   0.1666667  -0.4741218   0.0000000), wk =   0.0185185
        k(   30) = (   0.1666667  -0.4741218   0.1666636), wk =   0.0370370
        k(   31) = (   0.1666667  -0.4741218   0.3333273), wk =   0.0370370
        k(   32) = (   0.1666667  -0.4741218  -0.4999909), wk =   0.0185185
        k(   33) = (   0.3333333   0.0000000   0.0000000), wk =   0.0185185
        k(   34) = (   0.3333333   0.0000000   0.1666636), wk =   0.0370370
        k(   35) = (   0.3333333   0.0000000   0.3333273), wk =   0.0370370
        k(   36) = (   0.3333333   0.0000000  -0.4999909), wk =   0.0185185
        k(   37) = (   0.3333333   0.1580406   0.0000000), wk =   0.0370370
        k(   38) = (   0.3333333   0.1580406   0.1666636), wk =   0.0740741
        k(   39) = (   0.3333333   0.1580406   0.3333273), wk =   0.0740741
        k(   40) = (   0.3333333   0.1580406  -0.4999909), wk =   0.0370370
        k(   41) = (   0.3333333   0.3160812   0.0000000), wk =   0.0370370
        k(   42) = (   0.3333333   0.3160812   0.1666636), wk =   0.0740741
        k(   43) = (   0.3333333   0.3160812   0.3333273), wk =   0.0740741
        k(   44) = (   0.3333333   0.3160812  -0.4999909), wk =   0.0370370
        k(   45) = (   0.3333333  -0.4741218   0.0000000), wk =   0.0185185
        k(   46) = (   0.3333333  -0.4741218   0.1666636), wk =   0.0370370
        k(   47) = (   0.3333333  -0.4741218   0.3333273), wk =   0.0370370
        k(   48) = (   0.3333333  -0.4741218  -0.4999909), wk =   0.0185185
        k(   49) = (  -0.5000000   0.0000000   0.0000000), wk =   0.0092593
        k(   50) = (  -0.5000000   0.0000000   0.1666636), wk =   0.0185185
        k(   51) = (  -0.5000000   0.0000000   0.3333273), wk =   0.0185185
        k(   52) = (  -0.5000000   0.0000000  -0.4999909), wk =   0.0092593
        k(   53) = (  -0.5000000   0.1580406   0.0000000), wk =   0.0185185
        k(   54) = (  -0.5000000   0.1580406   0.1666636), wk =   0.0370370
        k(   55) = (  -0.5000000   0.1580406   0.3333273), wk =   0.0370370
        k(   56) = (  -0.5000000   0.1580406  -0.4999909), wk =   0.0185185
        k(   57) = (  -0.5000000   0.3160812   0.0000000), wk =   0.0185185
        k(   58) = (  -0.5000000   0.3160812   0.1666636), wk =   0.0370370
        k(   59) = (  -0.5000000   0.3160812   0.3333273), wk =   0.0370370
        k(   60) = (  -0.5000000   0.3160812  -0.4999909), wk =   0.0185185
        k(   61) = (  -0.5000000  -0.4741218   0.0000000), wk =   0.0092593
        k(   62) = (  -0.5000000  -0.4741218   0.1666636), wk =   0.0185185
        k(   63) = (  -0.5000000  -0.4741218   0.3333273), wk =   0.0185185
        k(   64) = (  -0.5000000  -0.4741218  -0.4999909), wk =   0.0092593

     Dense  grid:   499485 G-vectors     FFT dimensions: ( 100, 108, 100)

     Estimated max dynamical RAM per process >       3.14 GB

     Estimated total dynamical RAM >     125.43 GB

     Initial potential from superposition of free atoms

     starting charge  367.99656, renormalised to  368.52000
     Starting wfcs are  232 randomized atomic wfcs

     total cpu time spent up to now is       50.2 secs

     Self-consistent Calculation

     iteration #  1     ecut=   120.00 Ry     beta= 0.70
     Davidson diagonalization with overlap
     ethr =  1.00E-02,  avg # of iterations =  5.2

     total cpu time spent up to now is      227.1 secs

     total energy              =   -6253.51136503 Ry
     Harris-Foulkes estimate   =   -6264.31819103 Ry
     estimated scf accuracy    <      13.62270000 Ry

     iteration #  2     ecut=   120.00 Ry     beta= 0.70
     Davidson diagonalization with overlap
     ethr =  3.70E-03,  avg # of iterations =  3.6

     total cpu time spent up to now is      396.5 secs

     total energy              =   -6250.44393661 Ry
     Harris-Foulkes estimate   =   -6270.37503547 Ry
     estimated scf accuracy    <      53.11102807 Ry

     iteration #  3     ecut=   120.00 Ry     beta= 0.70
     Davidson diagonalization with overlap
     ethr =  3.70E-03,  avg # of iterations =  3.4

     total cpu time spent up to now is      549.3 secs

     total energy              =   -6260.73420533 Ry
     Harris-Foulkes estimate   =   -6261.00486971 Ry
     estimated scf accuracy    <       0.90606575 Ry

     iteration #  4     ecut=   120.00 Ry     beta= 0.70
     Davidson diagonalization with overlap
     ethr =  2.46E-04,  avg # of iterations =  3.1

     total cpu time spent up to now is      673.1 secs

     total energy              =   -6260.72546020 Ry
     Harris-Foulkes estimate   =   -6260.79941349 Ry
     estimated scf accuracy    <       0.22414918 Ry

     iteration #  5     ecut=   120.00 Ry     beta= 0.70
     Davidson diagonalization with overlap
     ethr =  6.08E-05,  avg # of iterations =  4.7

     total cpu time spent up to now is      808.8 secs

     total energy              =   -6260.73133841 Ry
     Harris-Foulkes estimate   =   -6260.75999376 Ry
     estimated scf accuracy    <       0.06483359 Ry

     iteration #  6     ecut=   120.00 Ry     beta= 0.70
     Davidson diagonalization with overlap
     ethr =  1.76E-05,  avg # of iterations =  4.8

     total cpu time spent up to now is      951.8 secs

     total energy              =   -6260.74494950 Ry
     Harris-Foulkes estimate   =   -6260.74775383 Ry
     estimated scf accuracy    <       0.00713190 Ry

     iteration #  7     ecut=   120.00 Ry     beta= 0.70
     Davidson diagonalization with overlap
     ethr =  1.94E-06,  avg # of iterations =  5.0

     total cpu time spent up to now is     1094.0 secs

     total energy              =   -6260.74598827 Ry
     Harris-Foulkes estimate   =   -6260.74604206 Ry
     estimated scf accuracy    <       0.00009214 Ry

     iteration #  8     ecut=   120.00 Ry     beta= 0.70
     Davidson diagonalization with overlap
     ethr =  2.50E-08,  avg # of iterations =  3.8

     total cpu time spent up to now is     1277.6 secs

     total energy              =   -6260.74604015 Ry
     Harris-Foulkes estimate   =   -6260.74605016 Ry
     estimated scf accuracy    <       0.00004981 Ry

     iteration #  9     ecut=   120.00 Ry     beta= 0.70
     Davidson diagonalization with overlap
     ethr =  1.35E-08,  avg # of iterations =  1.0

     total cpu time spent up to now is     1388.6 secs

     total energy              =   -6260.74603416 Ry
     Harris-Foulkes estimate   =   -6260.74604248 Ry
     estimated scf accuracy    <       0.00002196 Ry

     iteration # 10     ecut=   120.00 Ry     beta= 0.70
     Davidson diagonalization with overlap
     ethr =  5.96E-09,  avg # of iterations =  2.0

     total cpu time spent up to now is     1506.5 secs

     total energy              =   -6260.74603750 Ry
     Harris-Foulkes estimate   =   -6260.74603773 Ry
     estimated scf accuracy    <       0.00000053 Ry

     iteration # 11     ecut=   120.00 Ry     beta= 0.70
     Davidson diagonalization with overlap
     ethr =  1.43E-10,  avg # of iterations =  3.0

     total cpu time spent up to now is     1659.9 secs

     total energy              =   -6260.74603765 Ry
     Harris-Foulkes estimate   =   -6260.74603769 Ry
     estimated scf accuracy    <       0.00000017 Ry

     iteration # 12     ecut=   120.00 Ry     beta= 0.70
     Davidson diagonalization with overlap
     ethr =  4.72E-11,  avg # of iterations =  1.8

     total cpu time spent up to now is     1774.5 secs

     total energy              =   -6260.74603761 Ry
     Harris-Foulkes estimate   =   -6260.74603766 Ry
     estimated scf accuracy    <       0.00000008 Ry

     iteration # 13     ecut=   120.00 Ry     beta= 0.70
     Davidson diagonalization with overlap
     ethr =  2.28E-11,  avg # of iterations =  2.1

     total cpu time spent up to now is     1917.7 secs

     End of self-consistent calculation

          k = 0.0000 0.0000 0.0000 ( 62383 PWs)   bands (ev):

   -66.1022 -66.1018 -66.1013 -66.1012 -66.1008 -66.1008 -66.1003 -66.0999
   -30.5352 -30.5320 -30.5320 -30.5289 -30.4744 -30.4718 -30.4718 -30.4692
   -30.4421 -30.4420 -30.4386 -30.4385 -30.4368 -30.4368 -30.4335 -30.4333
   -30.3426 -30.3425 -30.3398 -30.3397 -30.3382 -30.3381 -30.3355 -30.3354
   -20.2528 -20.2526 -20.2525 -20.2525 -20.2524 -20.2524 -20.2524 -20.2524
   -20.2523 -20.2523 -20.2523 -20.2523 -20.2472 -20.2469 -20.2469 -20.2467
   -20.2408 -20.2407 -20.2405 -20.2405 -20.2396 -20.2396 -20.2395 -20.2395
   -20.2380 -20.2380 -20.2379 -20.2379 -20.2370 -20.2369 -20.2367 -20.2367
   -20.2287 -20.2286 -20.2283 -20.2283 -20.2283 -20.2282 -20.2280 -20.2279
   -20.2063 -20.2063 -20.2062 -20.2062 -20.2048 -20.2048 -20.2048 -20.2047
   -20.2001 -20.2001 -20.2001 -20.2001 -20.1987 -20.1987 -20.1986 -20.1986
    -9.9643  -9.6669  -9.5381  -9.5381  -9.2467  -9.2466  -9.1256  -9.0427
    -9.0293  -8.9040  -8.8759  -8.8758  -7.8889  -7.8294  -7.8292  -7.7776
    -7.7751  -7.7749  -7.7488  -7.7488  -7.6365  -7.6364  -7.6147  -7.6147
     1.1962   1.1965   1.2748   1.2750   1.2981   1.2984   1.3380   1.5845
     1.5847   1.5877   1.6236   1.8177   2.4117   2.4903   2.5432   2.5433
     2.6823   2.6826   4.1244   4.1248   4.3459   4.3466   4.8044   4.8056
     4.8262   4.8265   4.8568   4.8569   4.9863   4.9863   5.0367   5.4145
     5.4150   5.5093   5.5114   5.5253   5.5254   5.5455   5.5474   5.7876
     5.7882   5.8632   5.8633   5.9199   5.9366   6.0663   6.0663   6.1021
     6.1022   6.2578   6.2583   6.5408   6.5409   6.7579   6.7585   6.7917
     6.7920   6.8633   7.0142   7.0191   7.0754   7.0757   7.3651   7.3655
     7.4043   7.4047   7.8613   7.8743   8.0659   8.0666   8.1290   8.1297
     9.2482   9.2542   9.9740   9.9742   9.9922   9.9925  12.2937  12.2971
    12.3101  12.3142  12.3627  12.3634  12.4992  12.4997  12.9827  12.9873
    13.2520  13.2537  13.4093  13.4099  13.7627  14.1715  14.1760  14.1780
    14.1783  14.3275  14.3340  14.8133  15.3645  15.3748  15.4856  16.0173
    16.0178  16.7858  17.0470  17.0475  17.3773

          k = 0.0000 0.0000 0.1667 ( 62453 PWs)   bands (ev):

   -66.1022 -66.1017 -66.1013 -66.1012 -66.1009 -66.1008 -66.1003 -66.0999
   -30.5351 -30.5323 -30.5319 -30.5292 -30.4745 -30.4721 -30.4719 -30.4695
   -30.4417 -30.4382 -30.4371 -30.4351 -30.4337 -30.4320 -30.4300 -30.4268
   -30.3492 -30.3464 -30.3448 -30.3422 -30.3420 -30.3395 -30.3384 -30.3357
   -20.2527 -20.2526 -20.2525 -20.2525 -20.2524 -20.2524 -20.2524 -20.2524
   -20.2524 -20.2523 -20.2523 -20.2523 -20.2472 -20.2470 -20.2469 -20.2467
   -20.2407 -20.2406 -20.2406 -20.2403 -20.2396 -20.2395 -20.2394 -20.2393
   -20.2381 -20.2380 -20.2380 -20.2379 -20.2371 -20.2369 -20.2368 -20.2367
   -20.2287 -20.2285 -20.2284 -20.2283 -20.2283 -20.2282 -20.2280 -20.2279
   -20.2061 -20.2061 -20.2059 -20.2059 -20.2049 -20.2048 -20.2044 -20.2044
   -20.2005 -20.2005 -20.2000 -20.2000 -20.1991 -20.1991 -20.1987 -20.1987
    -9.9187  -9.6136  -9.5543  -9.4793  -9.2602  -9.1572  -9.1342  -9.0050
    -8.9880  -8.8907  -8.8801  -8.8432  -7.8954  -7.8904  -7.8818  -7.8330
    -7.8204  -7.7810  -7.7660  -7.7641  -7.7471  -7.7402  -7.6453  -7.6235
     1.2683   1.2767   1.2859   1.3042   1.4036   1.4456   1.5564   1.5781
     1.5797   1.6733   1.7970   1.9442   2.4972   2.5519   2.5807   2.6320
     2.6743   2.7718   4.0647   4.1239   4.3307   4.3596   4.3630   4.4705
     4.6372   4.7395   4.7999   4.8993   4.9121   4.9728   5.0202   5.2886
     5.3480   5.4016   5.4970   5.5221   5.5272   5.5650   5.5834   5.6303
     5.7238   5.7287   5.7789   5.9024   5.9494   6.1012   6.1081   6.1220
     6.2772   6.4291   6.4932   6.5306   6.6208   6.6498   6.7325   6.7844
     6.8283   6.8331   6.9627   6.9916   7.0150   7.0844   7.1372   7.1399
     7.1862   7.2480   7.8663   7.8693   8.0256   8.0814   8.0862   8.1298
     9.5980   9.6309   9.9746   9.9908  10.2407  10.2782  12.2137  12.2576
    12.2819  12.3476  12.3814  12.3901  12.5020  12.5984  12.9612  13.0347
    13.0511  13.2461  13.3103  13.4095  13.8961  14.0312  14.0484  14.1704
    14.1751  14.3279  14.4604  14.9216  15.4047  15.4337  15.4509  15.9912
    16.3385  16.7653  16.9580  17.2342  17.4270

          k = 0.0000 0.0000 0.3333 ( 62444 PWs)   bands (ev):

   -66.1020 -66.1016 -66.1015 -66.1011 -66.1010 -66.1006 -66.1005 -66.1001
   -30.5347 -30.5330 -30.5316 -30.5299 -30.4743 -30.4728 -30.4718 -30.4702
   -30.4407 -30.4381 -30.4373 -30.4346 -30.4167 -30.4138 -30.4118 -30.4089
   -30.3673 -30.3645 -30.3627 -30.3600 -30.3414 -30.3392 -30.3387 -30.3365
   -20.2527 -20.2526 -20.2525 -20.2525 -20.2525 -20.2524 -20.2524 -20.2524
   -20.2524 -20.2524 -20.2523 -20.2523 -20.2472 -20.2470 -20.2469 -20.2468
   -20.2407 -20.2406 -20.2401 -20.2398 -20.2397 -20.2394 -20.2390 -20.2389
   -20.2386 -20.2385 -20.2381 -20.2378 -20.2376 -20.2372 -20.2369 -20.2368
   -20.2286 -20.2285 -20.2284 -20.2283 -20.2282 -20.2281 -20.2280 -20.2280
   -20.2059 -20.2059 -20.2051 -20.2051 -20.2048 -20.2048 -20.2033 -20.2033
   -20.2017 -20.2017 -20.2003 -20.2003 -20.1997 -20.1997 -20.1990 -20.1990
    -9.8082  -9.6041  -9.4909  -9.3441  -9.3017  -9.1633  -8.9372  -8.9023
    -8.8917  -8.8415  -8.7944  -8.7183  -8.1955  -8.1951  -8.1065  -8.0867
    -7.8663  -7.8429  -7.8143  -7.7901  -7.7383  -7.7150  -7.6698  -7.6476
     1.2808   1.2872   1.3192   1.3404   1.5192   1.5259   1.5622   1.5655
     2.2491   2.2785   2.4394   2.5109   2.5756   2.6658   2.7439   2.8457
     2.8732   3.0097   3.7571   3.8204   3.8521   3.9390   4.1502   4.2396
     4.2803   4.4721   4.5577   4.7710   4.7988   4.8057   4.9535   4.9679
     5.1569   5.1656   5.1739   5.3295   5.4468   5.4668   5.6028   5.6318
     5.6836   5.7101   5.7597   5.9650   5.9728   6.1484   6.2714   6.2828
     6.3011   6.3402   6.4840   6.4956   6.5501   6.5521   6.6689   6.7123
     6.7793   6.8140   6.8379   6.9842   7.0163   7.0436   7.0793   7.1123
     7.3062   7.3363   7.7777   7.8025   7.9037   7.9472   8.1144   8.1313
     9.9762   9.9869  10.3260  10.3914  10.8643  10.9601  11.8208  11.8630
    12.1017  12.4913  12.4964  12.5140  12.5354  12.6165  12.6918  12.8651
    12.9647  13.1343  13.1919  13.4160  13.6949  13.7085  14.1219  14.1674
    14.1860  14.3083  14.7974  15.2123  15.3389  15.5664  15.8380  15.9092
    16.2113  17.1995  17.3376  17.5062  17.5672

          k = 0.0000 0.0000-0.5000 ( 62464 PWs)   bands (ev):

   -66.1017 -66.1017 -66.1013 -66.1013 -66.1008 -66.1008 -66.1004 -66.1004
   -30.5340 -30.5339 -30.5308 -30.5308 -30.4737 -30.4736 -30.4711 -30.4711
   -30.4394 -30.4394 -30.4360 -30.4359 -30.3920 -30.3920 -30.3892 -30.3891
   -30.3872 -30.3872 -30.3844 -30.3844 -30.3403 -30.3403 -30.3376 -30.3376
   -20.2527 -20.2527 -20.2525 -20.2525 -20.2525 -20.2525 -20.2524 -20.2524
   -20.2524 -20.2524 -20.2523 -20.2523 -20.2471 -20.2471 -20.2469 -20.2469
   -20.2406 -20.2406 -20.2398 -20.2398 -20.2392 -20.2392 -20.2390 -20.2390
   -20.2385 -20.2384 -20.2382 -20.2382 -20.2376 -20.2376 -20.2369 -20.2368
   -20.2285 -20.2285 -20.2284 -20.2284 -20.2281 -20.2281 -20.2281 -20.2280
   -20.2055 -20.2055 -20.2055 -20.2055 -20.2033 -20.2033 -20.2033 -20.2033
   -20.2018 -20.2018 -20.2018 -20.2018 -20.1994 -20.1994 -20.1994 -20.1993
    -9.6907  -9.6906  -9.3763  -9.3763  -9.2267  -9.2267  -8.9090  -8.9090
    -8.5598  -8.5597  -8.5367  -8.5367  -8.5250  -8.5250  -8.4512  -8.4512
    -7.8559  -7.8559  -7.8024  -7.8024  -7.7038  -7.7037  -7.6810  -7.6809
     1.2855   1.2855   1.3364   1.3364   1.5446   1.5446   1.5520   1.5520
     2.6060   2.6060   2.9579   2.9579   3.1120   3.1120   3.1171   3.1172
     3.2704   3.2705   3.3420   3.3421   3.4334   3.4334   3.7656   3.7656
     3.8816   3.8816   4.4086   4.4086   4.7284   4.7284   4.8909   4.8909
     5.2256   5.2256   5.3127   5.3127   5.3258   5.3258   5.6468   5.6468
     5.7172   5.7173   5.8951   5.8951   6.1548   6.1548   6.2192   6.2192
     6.3136   6.3136   6.4341   6.4341   6.4396   6.4396   6.5173   6.5173
     6.7813   6.7813   6.7818   6.7818   7.0622   7.0622   7.4877   7.4877
     7.5568   7.5568   7.6826   7.6826   7.6929   7.6929   8.1290   8.1290
     9.9812   9.9812  11.1293  11.1294  11.1938  11.1938  11.5705  11.5705
    11.7684  11.7684  12.5416  12.5416  12.7189  12.7190  12.8137  12.8137
    12.9566  12.9566  13.2655  13.2655  13.4647  13.4647  14.1622  14.1622
    14.2656  14.2656  15.1259  15.1259  15.6557  15.6557  15.7655  15.7655
    16.6046  16.6046  17.7422  17.7423  18.0962

          k = 0.0000 0.1580 0.0000 ( 62415 PWs)   bands (ev):

   -66.1022 -66.1018 -66.1012 -66.1012 -66.1009 -66.1009 -66.1003 -66.0999
   -30.5311 -30.5280 -30.5280 -30.5249 -30.4785 -30.4759 -30.4758 -30.4733
   -30.4418 -30.4418 -30.4389 -30.4387 -30.4366 -30.4365 -30.4337 -30.4336
   -30.3424 -30.3423 -30.3400 -30.3399 -30.3380 -30.3380 -30.3356 -30.3356
   -20.2525 -20.2525 -20.2524 -20.2524 -20.2524 -20.2524 -20.2524 -20.2523
   -20.2523 -20.2521 -20.2521 -20.2519 -20.2476 -20.2473 -20.2473 -20.2471
   -20.2407 -20.2406 -20.2405 -20.2405 -20.2396 -20.2396 -20.2396 -20.2396
   -20.2379 -20.2379 -20.2379 -20.2379 -20.2370 -20.2370 -20.2368 -20.2368
   -20.2287 -20.2286 -20.2283 -20.2283 -20.2283 -20.2282 -20.2280 -20.2279
   -20.2063 -20.2063 -20.2062 -20.2062 -20.2048 -20.2048 -20.2048 -20.2047
   -20.2001 -20.2001 -20.2001 -20.2001 -20.1987 -20.1987 -20.1986 -20.1986
    -9.9339  -9.6788  -9.4998  -9.4998  -9.2545  -9.2544  -9.0512  -9.0418
    -9.0302  -8.8585  -8.8386  -8.8386  -7.9851  -7.9301  -7.9300  -7.8854
    -7.7733  -7.7733  -7.7506  -7.7506  -7.6350  -7.6350  -7.6162  -7.6162
     1.1962   1.1965   1.2864   1.2867   1.2980   1.2983   1.4746   1.6228
     1.7645   1.8167   1.8168   1.9895   2.4168   2.4848   2.6151   2.6152
     2.7504   2.7506   3.9870   3.9875   4.0751   4.0757   4.7889   4.8284
     4.8290   4.8500   4.8503   4.8669   4.8706   4.9421   4.9421   5.2489
     5.2492   5.4429   5.4430   5.5901   5.6147   5.6149   5.6240   5.6253
     5.7892   5.7895   5.8575   5.8579   5.9593   6.0628   6.0629   6.1125
     6.1126   6.2464   6.2472   6.5631   6.5634   6.7928   6.7932   6.8277
     6.8313   6.8361   6.8742   6.9919   6.9920   7.0093   7.3722   7.3725
     7.4039   7.4043   7.8656   7.8738   8.0204   8.0209   8.0463   8.0468
     9.2484   9.2537  10.1676  10.1676  10.1748  10.1749  12.1800  12.1808
    12.3128  12.3131  12.3440  12.3443  12.3616  12.3620  12.9832  12.9871
    13.2872  13.2886  13.4188  13.4194  14.0574  14.0778  14.0854  14.0874
    14.1066  14.6022  14.6038  14.9902  15.3649  15.3736  15.8880  15.9832
    15.9836  16.4632  17.1860  17.1865  17.4388

          k = 0.0000 0.1580 0.1667 ( 62405 PWs)   bands (ev):

   -66.1021 -66.1018 -66.1013 -66.1012 -66.1009 -66.1008 -66.1003 -66.1000
   -30.5311 -30.5283 -30.5279 -30.5252 -30.4786 -30.4761 -30.4760 -30.4735
   -30.4415 -30.4385 -30.4369 -30.4349 -30.4339 -30.4322 -30.4298 -30.4271
   -30.3490 -30.3466 -30.3446 -30.3422 -30.3420 -30.3396 -30.3382 -30.3359
   -20.2525 -20.2525 -20.2524 -20.2524 -20.2524 -20.2524 -20.2524 -20.2524
   -20.2523 -20.2522 -20.2521 -20.2520 -20.2476 -20.2474 -20.2473 -20.2471
   -20.2407 -20.2405 -20.2405 -20.2403 -20.2396 -20.2396 -20.2395 -20.2394
   -20.2380 -20.2380 -20.2379 -20.2378 -20.2372 -20.2370 -20.2369 -20.2368
   -20.2286 -20.2285 -20.2284 -20.2283 -20.2283 -20.2282 -20.2280 -20.2279
   -20.2061 -20.2061 -20.2059 -20.2059 -20.2049 -20.2048 -20.2044 -20.2044
   -20.2005 -20.2005 -20.2000 -20.2000 -20.1991 -20.1991 -20.1987 -20.1987
    -9.8870  -9.6255  -9.5160  -9.4364  -9.2682  -9.1652  -9.0598  -9.0030
    -8.9889  -8.8475  -8.8427  -8.8106  -7.9850  -7.9431  -7.9290  -7.8938
    -7.8925  -7.8665  -7.7645  -7.7626  -7.7456  -7.7419  -7.6439  -7.6250
     1.2803   1.2858   1.2909   1.3041   1.5144   1.5561   1.5701   1.7751
     1.7962   1.8116   1.8413   2.0533   2.5035   2.5747   2.6235   2.7058
     2.7430   2.8394   3.9581   4.0029   4.0637   4.1085   4.3924   4.4680
     4.6774   4.6885   4.7733   4.8537   4.8901   4.9125   4.9478   5.2092
     5.2511   5.2658   5.2971   5.4703   5.5670   5.5695   5.6112   5.6710
     5.7162   5.7281   5.7981   5.8333   5.8482   6.0998   6.1245   6.1464
     6.2014   6.4207   6.4629   6.5530   6.6711   6.7408   6.7523   6.8026
     6.8191   6.8562   6.9409   6.9592   6.9999   7.0012   7.1367   7.1397
     7.2008   7.2482   7.8685   7.8695   7.9818   8.0088   8.0225   8.0474
     9.6033   9.6290  10.1694  10.1749  10.4088  10.4213  12.1632  12.2224
    12.2552  12.2623  12.3454  12.3464  12.3641  12.4853  12.9640  13.0325
    13.0911  13.2809  13.3177  13.4170  13.9302  13.9565  14.0711  14.0835
    14.2226  14.5984  14.7587  15.0850  15.4041  15.4341  15.8537  15.9574
    16.3020  16.6188  16.8944  17.3530  17.5066

          k = 0.0000 0.1580 0.3333 ( 62471 PWs)   bands (ev):

   -66.1019 -66.1016 -66.1015 -66.1011 -66.1010 -66.1006 -66.1005 -66.1002
   -30.5307 -30.5290 -30.5276 -30.5260 -30.4784 -30.4768 -30.4758 -30.4743
   -30.4405 -30.4379 -30.4375 -30.4349 -30.4166 -30.4140 -30.4116 -30.4091
   -30.3671 -30.3647 -30.3626 -30.3601 -30.3412 -30.3390 -30.3388 -30.3367
   -20.2525 -20.2525 -20.2524 -20.2524 -20.2524 -20.2524 -20.2524 -20.2523
   -20.2523 -20.2522 -20.2521 -20.2520 -20.2476 -20.2474 -20.2473 -20.2472
   -20.2406 -20.2405 -20.2401 -20.2398 -20.2397 -20.2394 -20.2390 -20.2389
   -20.2385 -20.2384 -20.2381 -20.2378 -20.2376 -20.2373 -20.2370 -20.2369
   -20.2286 -20.2285 -20.2284 -20.2283 -20.2282 -20.2281 -20.2280 -20.2280
   -20.2059 -20.2059 -20.2051 -20.2051 -20.2048 -20.2048 -20.2033 -20.2033
   -20.2017 -20.2017 -20.2003 -20.2003 -20.1997 -20.1997 -20.1990 -20.1990
    -9.7738  -9.5662  -9.5023  -9.3104  -9.2874  -9.0895  -8.9156  -8.9108
    -8.8545  -8.8432  -8.7737  -8.6994  -8.2026  -8.1932  -8.1251  -8.0848
    -7.9566  -7.9380  -7.9134  -7.8864  -7.7369  -7.7166  -7.6684  -7.6491
     1.3019   1.3191   1.3198   1.3402   1.7023   1.7283   1.8086   1.8107
     2.2475   2.2895   2.4419   2.5284   2.6466   2.7272   2.7548   2.8426
     2.9483   3.0698   3.7555   3.8151   3.8469   3.8851   4.0749   4.1020
     4.2100   4.3141   4.5749   4.7204   4.7753   4.7966   4.8034   4.8476
     4.9969   5.1106   5.1358   5.1475   5.3383   5.4034   5.4770   5.5889
     5.6661   5.7110   5.7686   5.8135   5.9410   6.1221   6.1890   6.2685
     6.3307   6.5169   6.5183   6.5474   6.6359   6.6444   6.6712   6.7692
     6.7823   6.8058   6.8943   6.9547   6.9912   7.0195   7.0541   7.1003
     7.2981   7.3300   7.7817   7.8003   7.8665   7.8869   8.0406   8.0499
    10.1680  10.1744  10.3345  10.3923  10.9794  11.0526  11.8225  11.8605
    12.0607  12.3576  12.4599  12.5097  12.5241  12.5687  12.6455  12.7592
    12.9512  13.1387  13.2125  13.4152  13.5996  13.6172  14.0726  14.0804
    14.4445  14.5807  15.1423  15.3510  15.5552  15.7431  15.8561  15.8772
    16.3420  17.0793  17.1549  17.3907  17.7430

          k = 0.0000 0.1580-0.5000 ( 62436 PWs)   bands (ev):

   -66.1017 -66.1017 -66.1014 -66.1013 -66.1007 -66.1007 -66.1004 -66.1004
   -30.5299 -30.5299 -30.5269 -30.5269 -30.4777 -30.4777 -30.4752 -30.4751
   -30.4392 -30.4392 -30.4362 -30.4362 -30.3918 -30.3918 -30.3894 -30.3893
   -30.3871 -30.3870 -30.3846 -30.3846 -30.3402 -30.3401 -30.3378 -30.3378
   -20.2525 -20.2525 -20.2524 -20.2524 -20.2524 -20.2524 -20.2524 -20.2524
   -20.2523 -20.2523 -20.2521 -20.2521 -20.2475 -20.2475 -20.2473 -20.2473
   -20.2406 -20.2405 -20.2398 -20.2398 -20.2391 -20.2391 -20.2390 -20.2390
   -20.2384 -20.2384 -20.2383 -20.2383 -20.2377 -20.2376 -20.2369 -20.2369
   -20.2285 -20.2285 -20.2284 -20.2284 -20.2281 -20.2281 -20.2281 -20.2280
   -20.2055 -20.2055 -20.2055 -20.2055 -20.2033 -20.2033 -20.2033 -20.2033
   -20.2018 -20.2018 -20.2018 -20.2018 -20.1994 -20.1994 -20.1994 -20.1993
    -9.6539  -9.6539  -9.3862  -9.3862  -9.1569  -9.1569  -8.8738  -8.8738
    -8.5635  -8.5635  -8.5349  -8.5349  -8.5318  -8.5318  -8.4452  -8.4452
    -7.9507  -7.9507  -7.9023  -7.9022  -7.7023  -7.7023  -7.6825  -7.6825
     1.3149   1.3149   1.3362   1.3362   1.7267   1.7268   1.8150   1.8150
     2.6744   2.6744   2.9768   2.9768   3.1087   3.1087   3.1584   3.1584
     3.2753   3.2753   3.3390   3.3391   3.4215   3.4216   3.7648   3.7648
     3.9296   3.9296   4.2156   4.2156   4.6414   4.6414   4.7243   4.7243
     5.0402   5.0402   5.2852   5.2852   5.2897   5.2897   5.4653   5.4653
     5.6701   5.6701   5.7925   5.7925   6.1514   6.1514   6.2950   6.2950
     6.3281   6.3281   6.4614   6.4614   6.5057   6.5057   6.6256   6.6256
     6.8087   6.8087   6.8414   6.8414   6.9750   6.9750   7.4978   7.4978
     7.5506   7.5506   7.6526   7.6527   7.6646   7.6646   8.0499   8.0499
    10.1733  10.1733  11.1343  11.1343  11.1913  11.1913  11.6355  11.6355
    11.8300  11.8300  12.4097  12.4097  12.6917  12.6917  12.8221  12.8221
    12.8933  12.8933  13.1694  13.1694  13.4373  13.4373  14.0762  14.0762
    14.5426  14.5426  15.4959  15.4959  15.7401  15.7401  15.8047  15.8047
    16.6461  16.6461  17.5457  17.5457  18.0837

          k = 0.0000 0.3161 0.0000 ( 62415 PWs)   bands (ev):

   -66.1021 -66.1019 -66.1011 -66.1011 -66.1009 -66.1009 -66.1002 -66.1000
   -30.5201 -30.5170 -30.5170 -30.5141 -30.4897 -30.4869 -30.4869 -30.4842
   -30.4412 -30.4412 -30.4395 -30.4394 -30.4360 -30.4359 -30.4343 -30.4342
   -30.3419 -30.3418 -30.3405 -30.3404 -30.3375 -30.3375 -30.3361 -30.3361
   -20.2525 -20.2525 -20.2524 -20.2524 -20.2524 -20.2524 -20.2523 -20.2523
   -20.2514 -20.2512 -20.2511 -20.2509 -20.2486 -20.2484 -20.2484 -20.2481
   -20.2404 -20.2404 -20.2403 -20.2403 -20.2398 -20.2398 -20.2398 -20.2398
   -20.2377 -20.2377 -20.2377 -20.2376 -20.2372 -20.2372 -20.2370 -20.2370
   -20.2287 -20.2286 -20.2283 -20.2283 -20.2283 -20.2283 -20.2280 -20.2279
   -20.2063 -20.2063 -20.2062 -20.2062 -20.2048 -20.2048 -20.2048 -20.2047
   -20.2001 -20.2001 -20.2001 -20.2001 -20.1987 -20.1987 -20.1986 -20.1986
    -9.8597  -9.7155  -9.4124  -9.4124  -9.2802  -9.2801  -9.0394  -9.0327
    -8.8410  -8.7166  -8.7115  -8.7115  -8.2296  -8.1831  -8.1830  -8.1585
    -7.7686  -7.7686  -7.7554  -7.7554  -7.6311  -7.6311  -7.6202  -7.6202
     1.1963   1.1964   1.2943   1.2946   1.2977   1.2980   1.5865   1.6200
     2.3302   2.4308   2.4701   2.4793   2.4796   2.6456   2.8267   2.8271
     2.9492   2.9497   3.6032   3.6038   3.6416   3.6422   4.1108   4.4305
     4.4310   4.7090   4.8352   4.8359   4.8608   4.8615   5.0055   5.0058
     5.0369   5.0372   5.3488   5.3490   5.5685   5.5686   5.6651   5.6654
     5.8324   5.8325   5.8920   5.8922   6.0488   6.0489   6.0744   6.1363
     6.1364   6.2107   6.2117   6.5185   6.6268   6.6271   6.8482   6.8485
     6.9038   6.9817   7.0543   7.0543   7.0635   7.0636   7.3811   7.3813
     7.4053   7.4055   7.8043   7.8046   7.8366   7.8369   7.8692   7.8726
     9.2493   9.2524  10.6321  10.6325  10.6818  10.6819  11.7960  11.7969
    11.9163  11.9166  12.3362  12.3367  12.3581  12.3584  12.9845  12.9866
    13.3980  13.3989  13.4849  13.4854  13.8435  13.8436  13.8709  13.8717
    14.7008  15.1703  15.1706  15.3660  15.3708  15.6123  15.8675  15.8677
    15.8883  16.8887  17.1961  17.6589  17.6594

          k = 0.0000 0.3161 0.1667 ( 62420 PWs)   bands (ev):

   -66.1021 -66.1018 -66.1012 -66.1011 -66.1010 -66.1009 -66.1002 -66.1000
   -30.5200 -30.5173 -30.5170 -30.5144 -30.4897 -30.4872 -30.4870 -30.4845
   -30.4408 -30.4391 -30.4363 -30.4346 -30.4344 -30.4328 -30.4292 -30.4276
   -30.3485 -30.3471 -30.3441 -30.3427 -30.3415 -30.3401 -30.3377 -30.3364
   -20.2525 -20.2525 -20.2524 -20.2524 -20.2524 -20.2524 -20.2523 -20.2523
   -20.2514 -20.2512 -20.2511 -20.2510 -20.2486 -20.2484 -20.2484 -20.2482
   -20.2404 -20.2403 -20.2403 -20.2401 -20.2398 -20.2398 -20.2396 -20.2396
   -20.2379 -20.2378 -20.2377 -20.2377 -20.2374 -20.2372 -20.2372 -20.2371
   -20.2286 -20.2286 -20.2283 -20.2283 -20.2283 -20.2282 -20.2280 -20.2280
   -20.2061 -20.2061 -20.2059 -20.2059 -20.2049 -20.2048 -20.2044 -20.2044
   -20.2005 -20.2005 -20.2000 -20.2000 -20.1991 -20.1991 -20.1987 -20.1987
    -9.8101  -9.6624  -9.4286  -9.3375  -9.2945  -9.1918  -8.9993  -8.9916
    -8.8493  -8.7159  -8.7099  -8.6949  -8.2304  -8.1907  -8.1797  -8.1642
    -7.8894  -7.8766  -7.7606  -7.7585  -7.7495  -7.7464  -7.6399  -7.6290
     1.2843   1.2856   1.2999   1.3038   1.5462   1.5552   1.7480   1.7928
     2.3324   2.4562   2.4802   2.5185   2.5595   2.6343   2.8342   2.9303
     2.9425   3.0461   3.6046   3.6338   3.6473   3.6815   4.1040   4.3896
     4.4223   4.4455   4.4971   4.7123   4.7409   4.8422   4.8926   4.9064
     5.0065   5.0483   5.1458   5.2761   5.3950   5.4430   5.5746   5.5993
     5.6581   5.7505   5.7615   5.8136   6.0236   6.1019   6.1292   6.1325
     6.2399   6.4251   6.4374   6.5773   6.6166   6.8332   6.8616   6.9103
     6.9481   6.9622   7.0340   7.0475   7.0662   7.0726   7.1372   7.1402
     7.2316   7.2553   7.7802   7.8049   7.8064   7.8206   7.8713   7.8732
     9.6124   9.6251  10.6377  10.6813  10.8194  10.8520  11.7960  11.8938
    11.9175  11.9955  12.2356  12.2522  12.3874  12.4176  12.9793  13.0238
    13.2113  13.3714  13.3891  13.4806  13.6895  13.7398  13.8420  13.8677
    14.8394  15.1620  15.3909  15.3994  15.4389  15.6811  15.8434  16.0510
    16.1769  16.8513  17.2649  17.3047  17.7692

          k = 0.0000 0.3161 0.3333 ( 62419 PWs)   bands (ev):

   -66.1019 -66.1017 -66.1014 -66.1012 -66.1009 -66.1007 -66.1004 -66.1002
   -30.5197 -30.5181 -30.5167 -30.5151 -30.4895 -30.4879 -30.4868 -30.4852
   -30.4399 -30.4381 -30.4372 -30.4355 -30.4161 -30.4146 -30.4111 -30.4096
   -30.3666 -30.3652 -30.3620 -30.3607 -30.3407 -30.3394 -30.3385 -30.3372
   -20.2525 -20.2524 -20.2524 -20.2524 -20.2524 -20.2524 -20.2524 -20.2523
   -20.2514 -20.2512 -20.2511 -20.2510 -20.2486 -20.2485 -20.2484 -20.2482
   -20.2404 -20.2403 -20.2400 -20.2398 -20.2396 -20.2395 -20.2392 -20.2391
   -20.2383 -20.2383 -20.2379 -20.2378 -20.2377 -20.2375 -20.2372 -20.2371
   -20.2285 -20.2285 -20.2284 -20.2283 -20.2282 -20.2282 -20.2280 -20.2280
   -20.2059 -20.2059 -20.2051 -20.2051 -20.2048 -20.2048 -20.2033 -20.2033
   -20.2017 -20.2017 -20.2003 -20.2003 -20.1997 -20.1997 -20.1990 -20.1990
    -9.6908  -9.5383  -9.4786  -9.3388  -9.1475  -8.9410  -8.8838  -8.8753
    -8.8484  -8.7300  -8.6762  -8.6245  -8.2724  -8.2658  -8.1872  -8.1817
    -8.1714  -8.1187  -8.0788  -8.0334  -7.7327  -7.7209  -7.6644  -7.6532
     1.3139   1.3187   1.3347   1.3397   2.1615   2.2427   2.2635   2.3513
     2.4400   2.4758   2.4854   2.7092   2.7843   2.8148   2.8543   2.9337
     3.1754   3.2580   3.5890   3.6069   3.6979   3.7255   3.8298   3.8443
     4.0848   4.2733   4.3595   4.3824   4.4639   4.5539   4.6245   4.7711
     4.7871   4.8094   4.9612   5.0286   5.1530   5.1680   5.1724   5.3424
     5.3436   5.5629   5.6202   5.7716   6.1123   6.1716   6.2189   6.2731
     6.4114   6.5828   6.6266   6.6353   6.6781   6.7915   6.7999   6.8216
     6.8769   6.9533   7.0027   7.0289   7.0355   7.1148   7.1437   7.1584
     7.2677   7.3120   7.7035   7.7152   7.7714   7.7942   7.8130   7.8418
    10.3515  10.3737  10.6558  10.6763  11.2908  11.3293  11.7854  11.8247
    11.8535  11.9477  12.1908  12.2261  12.5515  12.6172  12.6452  12.7070
    12.8964  13.1628  13.1785  13.3968  13.4755  13.4851  13.8464  13.8626
    15.0106  15.1346  15.5084  15.7700  15.8705  15.9306  15.9686  16.5662
    16.7213  16.7550  17.0001  17.4994  17.5904

          k = 0.0000 0.3161-0.5000 ( 62462 PWs)   bands (ev):

   -66.1016 -66.1016 -66.1014 -66.1014 -66.1007 -66.1007 -66.1005 -66.1005
   -30.5190 -30.5189 -30.5160 -30.5160 -30.4888 -30.4888 -30.4861 -30.4861
   -30.4386 -30.4385 -30.4368 -30.4368 -30.3913 -30.3913 -30.3899 -30.3899
   -30.3866 -30.3865 -30.3851 -30.3851 -30.3396 -30.3396 -30.3383 -30.3383
   -20.2525 -20.2525 -20.2524 -20.2524 -20.2524 -20.2524 -20.2523 -20.2523
   -20.2513 -20.2513 -20.2511 -20.2511 -20.2486 -20.2486 -20.2483 -20.2483
   -20.2403 -20.2403 -20.2399 -20.2399 -20.2390 -20.2390 -20.2389 -20.2389
   -20.2385 -20.2385 -20.2384 -20.2384 -20.2376 -20.2376 -20.2372 -20.2371
   -20.2284 -20.2284 -20.2284 -20.2284 -20.2281 -20.2281 -20.2281 -20.2281
   -20.2055 -20.2055 -20.2055 -20.2055 -20.2033 -20.2033 -20.2033 -20.2033
   -20.2018 -20.2018 -20.2018 -20.2018 -20.1994 -20.1994 -20.1994 -20.1993
    -9.5669  -9.5669  -9.4185  -9.4184  -8.9654  -8.9654  -8.7645  -8.7644
    -8.5806  -8.5806  -8.5761  -8.5761  -8.5103  -8.5102  -8.4220  -8.4220
    -8.1810  -8.1810  -8.1419  -8.1419  -7.6982  -7.6982  -7.6868  -7.6868
     1.3302   1.3302   1.3357   1.3357   2.3343   2.3343   2.4717   2.4717
     2.8724   2.8724   3.0304   3.0304   3.0814   3.0814   3.2663   3.2663
     3.2955   3.2955   3.3299   3.3299   3.3758   3.3759   3.6071   3.6071
     4.0535   4.0535   4.0878   4.0878   4.1042   4.1042   4.3387   4.3387
     4.7845   4.7845   4.8899   4.8899   5.0888   5.0888   5.2588   5.2588
     5.4010   5.4011   5.6946   5.6946   6.2697   6.2697   6.3293   6.3293
     6.4495   6.4495   6.5101   6.5102   6.5308   6.5309   6.7539   6.7539
     7.0026   7.0026   7.0266   7.0266   7.0751   7.0751   7.4972   7.4972
     7.5321   7.5321   7.5462   7.5462   7.5881   7.5881   7.8225   7.8226
    10.6609  10.6609  11.1470  11.1470  11.1849  11.1849  11.7045  11.7045
    12.0176  12.0176  12.1385  12.1385  12.5620  12.5620  12.6577  12.6578
    12.8445  12.8445  12.9823  12.9823  13.4670  13.4670  13.8552  13.8552
    15.0857  15.0857  15.6509  15.6510  16.2481  16.2481  16.4377  16.4377
    16.8217  16.8217  17.1685  17.1685  17.9221

          k = 0.0000-0.4741 0.0000 ( 62338 PWs)   bands (ev):

   -66.1020 -66.1020 -66.1011 -66.1010 -66.1010 -66.1010 -66.1001 -66.1001
   -30.5049 -30.5049 -30.5020 -30.5020 -30.5020 -30.5020 -30.4992 -30.4992
   -30.4404 -30.4404 -30.4402 -30.4402 -30.4351 -30.4351 -30.4351 -30.4351
   -30.3412 -30.3412 -30.3411 -30.3411 -30.3369 -30.3368 -30.3368 -30.3367
   -20.2525 -20.2525 -20.2524 -20.2524 -20.2524 -20.2524 -20.2523 -20.2523
   -20.2500 -20.2500 -20.2498 -20.2498 -20.2498 -20.2498 -20.2495 -20.2495
   -20.2401 -20.2401 -20.2401 -20.2401 -20.2400 -20.2400 -20.2400 -20.2400
   -20.2375 -20.2375 -20.2375 -20.2375 -20.2374 -20.2374 -20.2373 -20.2373
   -20.2286 -20.2286 -20.2283 -20.2283 -20.2283 -20.2283 -20.2280 -20.2280
   -20.2063 -20.2063 -20.2062 -20.2062 -20.2048 -20.2048 -20.2048 -20.2047
   -20.2001 -20.2001 -20.2001 -20.2001 -20.1987 -20.1987 -20.1986 -20.1986
    -9.7782  -9.7781  -9.3311  -9.3311  -9.3310  -9.3310  -9.0360  -9.0360
    -8.5392  -8.5392  -8.4782  -8.4782  -8.4781  -8.4781  -8.4743  -8.4743
    -7.7621  -7.7621  -7.7619  -7.7619  -7.6257  -7.6257  -7.6257  -7.6256
     1.1963   1.1963   1.2968   1.2968   1.2971   1.2971   1.6120   1.6120
     2.4502   2.4502   3.1601   3.1601   3.1654   3.1654   3.2035   3.2035
     3.2594   3.2594   3.2600   3.2600   3.4241   3.4241   3.4248   3.4249
     3.6302   3.6302   4.8454   4.8454   4.8461   4.8461   5.1803   5.1804
     5.1812   5.1812   5.2896   5.2896   5.2900   5.2900   5.7292   5.7292
     5.7295   5.7295   6.0079   6.0079   6.0084   6.0084   6.1690   6.1691
     6.1698   6.1698   6.2616   6.2616   6.7240   6.7241   6.7243   6.7243
     6.9433   6.9433   7.3685   7.3685   7.3687   7.3687   7.4389   7.4389
     7.4390   7.4390   7.5120   7.5120   7.5121   7.5121   7.8708   7.8708
     9.2507   9.2508  11.2319  11.2319  11.2326  11.2326  11.3161  11.3162
    11.3170  11.3170  12.3506  12.3506  12.3510  12.3510  12.9857  12.9857
    13.5903  13.5903  13.5914  13.5914  13.6432  13.6433  13.6438  13.6438
    15.2886  15.2886  15.3680  15.3680  15.6218  15.6219  15.6220  15.6220
    16.5023  16.5023  17.8717  18.1265  18.1265

          k = 0.0000-0.4741 0.1667 ( 62454 PWs)   bands (ev):

   -66.1020 -66.1019 -66.1011 -66.1011 -66.1010 -66.1010 -66.1002 -66.1001
   -30.5049 -30.5049 -30.5023 -30.5023 -30.5020 -30.5020 -30.4995 -30.4995
   -30.4400 -30.4399 -30.4354 -30.4354 -30.4336 -30.4336 -30.4284 -30.4284
   -30.3478 -30.3478 -30.3434 -30.3434 -30.3408 -30.3408 -30.3371 -30.3371
   -20.2525 -20.2525 -20.2524 -20.2524 -20.2524 -20.2524 -20.2523 -20.2523
   -20.2500 -20.2500 -20.2498 -20.2498 -20.2498 -20.2498 -20.2496 -20.2496
   -20.2401 -20.2401 -20.2400 -20.2400 -20.2399 -20.2399 -20.2398 -20.2398
   -20.2377 -20.2376 -20.2375 -20.2375 -20.2375 -20.2375 -20.2374 -20.2374
   -20.2286 -20.2286 -20.2283 -20.2283 -20.2283 -20.2283 -20.2280 -20.2280
   -20.2061 -20.2061 -20.2059 -20.2059 -20.2049 -20.2048 -20.2044 -20.2044
   -20.2005 -20.2005 -20.2000 -20.2000 -20.1991 -20.1991 -20.1987 -20.1987
    -9.7261  -9.7261  -9.3464  -9.3463  -9.2464  -9.2464  -8.9953  -8.9953
    -8.5454  -8.5454  -8.4839  -8.4838  -8.4729  -8.4729  -8.4712  -8.4711
    -7.8833  -7.8833  -7.7554  -7.7554  -7.7522  -7.7522  -7.6345  -7.6345
     1.2852   1.2852   1.3028   1.3028   1.5530   1.5530   1.7830   1.7830
     2.5393   2.5393   3.1668   3.1669   3.1771   3.1772   3.2032   3.2032
     3.2533   3.2533   3.2978   3.2979   3.4223   3.4223   3.4798   3.4798
     3.6579   3.6579   4.4471   4.4471   4.8945   4.8945   4.9431   4.9431
     5.1000   5.1000   5.1653   5.1653   5.3027   5.3027   5.4692   5.4692
     5.7022   5.7022   5.7563   5.7563   6.1057   6.1058   6.1316   6.1316
     6.3869   6.3869   6.4313   6.4313   6.7138   6.7138   6.8965   6.8965
     6.9983   6.9983   7.1366   7.1366   7.1923   7.1923   7.4251   7.4251
     7.4457   7.4457   7.4743   7.4744   7.4957   7.4957   7.8707   7.8707
     9.6197   9.6197  11.2376  11.2376  11.3100  11.3101  11.3631  11.3631
    11.4397  11.4397  12.2451  12.2451  12.4033  12.4033  13.0051  13.0051
    13.4103  13.4103  13.5142  13.5142  13.5966  13.5966  13.6398  13.6398
    15.3317  15.3317  15.5290  15.5290  15.6038  15.6038  15.9038  15.9038
    16.5674  16.5674  17.8193  17.8193  18.0816

          k = 0.0000-0.4741 0.3333 ( 62396 PWs)   bands (ev):

   -66.1018 -66.1018 -66.1013 -66.1013 -66.1008 -66.1008 -66.1003 -66.1003
   -30.5046 -30.5046 -30.5030 -30.5030 -30.5018 -30.5018 -30.5002 -30.5002
   -30.4390 -30.4390 -30.4364 -30.4364 -30.4153 -30.4153 -30.4104 -30.4104
   -30.3659 -30.3659 -30.3614 -30.3614 -30.3400 -30.3400 -30.3379 -30.3379
   -20.2525 -20.2525 -20.2524 -20.2524 -20.2524 -20.2524 -20.2523 -20.2523
   -20.2500 -20.2500 -20.2499 -20.2499 -20.2498 -20.2498 -20.2496 -20.2496
   -20.2401 -20.2401 -20.2400 -20.2400 -20.2394 -20.2394 -20.2393 -20.2393
   -20.2381 -20.2381 -20.2380 -20.2380 -20.2375 -20.2375 -20.2374 -20.2374
   -20.2285 -20.2285 -20.2283 -20.2283 -20.2282 -20.2282 -20.2280 -20.2280
   -20.2059 -20.2059 -20.2051 -20.2051 -20.2048 -20.2048 -20.2033 -20.2033
   -20.2017 -20.2017 -20.2003 -20.2003 -20.1997 -20.1997 -20.1990 -20.1990
    -9.6026  -9.6026  -9.3938  -9.3938  -9.0130  -9.0130  -8.8583  -8.8583
    -8.5793  -8.5792  -8.5076  -8.5076  -8.4633  -8.4632  -8.4440  -8.4440
    -8.1747  -8.1747  -8.0671  -8.0671  -7.7269  -7.7269  -7.6588  -7.6588
     1.3175   1.3175   1.3384   1.3384   2.2313   2.2313   2.4195   2.4195
     2.7975   2.7975   3.1749   3.1749   3.1938   3.1938   3.2011   3.2011
     3.2350   3.2350   3.3730   3.3730   3.4128   3.4128   3.6405   3.6405
     3.7197   3.7197   3.8301   3.8301   4.4695   4.4695   4.6249   4.6249
     4.7769   4.7769   4.8323   4.8323   5.1791   5.1791   5.2202   5.2203
     5.3476   5.3476   5.6261   5.6261   6.1687   6.1687   6.2691   6.2691
     6.5195   6.5196   6.6685   6.6685   6.6830   6.6830   6.8370   6.8370
     6.9943   6.9943   7.1656   7.1656   7.1770   7.1770   7.4054   7.4054
     7.4364   7.4365   7.4681   7.4681   7.4697   7.4697   7.8004   7.8004
    10.3664  10.3664  11.2527  11.2527  11.2909  11.2909  11.7470  11.7470
    11.7882  11.7882  11.8468  11.8468  12.5750  12.5750  12.7737  12.7737
    12.9359  12.9359  13.2354  13.2354  13.6078  13.6078  13.6335  13.6335
    15.3657  15.3657  15.5475  15.5475  16.1410  16.1411  16.6386  16.6386
    16.7969  16.7969  17.3037  17.3037  17.9070

          k = 0.0000-0.4741-0.5000 ( 62428 PWs)   bands (ev):

   -66.1015 -66.1015 -66.1015 -66.1015 -66.1006 -66.1006 -66.1006 -66.1006
   -30.5039 -30.5039 -30.5039 -30.5039 -30.5011 -30.5011 -30.5011 -30.5011
   -30.4377 -30.4377 -30.4377 -30.4377 -30.3906 -30.3906 -30.3906 -30.3906
   -30.3859 -30.3858 -30.3858 -30.3858 -30.3390 -30.3390 -30.3390 -30.3389
   -20.2525 -20.2524 -20.2524 -20.2524 -20.2524 -20.2524 -20.2524 -20.2524
   -20.2500 -20.2500 -20.2500 -20.2499 -20.2497 -20.2497 -20.2497 -20.2497
   -20.2401 -20.2401 -20.2401 -20.2401 -20.2388 -20.2388 -20.2388 -20.2388
   -20.2386 -20.2386 -20.2386 -20.2386 -20.2374 -20.2374 -20.2374 -20.2374
   -20.2284 -20.2284 -20.2284 -20.2284 -20.2281 -20.2281 -20.2281 -20.2281
   -20.2055 -20.2055 -20.2055 -20.2055 -20.2033 -20.2033 -20.2033 -20.2033
   -20.2018 -20.2018 -20.2018 -20.2018 -20.1994 -20.1994 -20.1994 -20.1993
    -9.4788  -9.4788  -9.4788  -9.4788  -8.7242  -8.7242  -8.7242  -8.7242
    -8.6288  -8.6288  -8.6288  -8.6288  -8.4147  -8.4147  -8.4147  -8.4147
    -8.3482  -8.3482  -8.3482  -8.3482  -7.6925  -7.6925  -7.6925  -7.6925
     1.3343   1.3343   1.3343   1.3343   2.9979   2.9979   2.9979   2.9979
     3.1254   3.1254   3.1254   3.1254   3.1978   3.1978   3.1978   3.1978
     3.2730   3.2730   3.2730   3.2730   3.4247   3.4247   3.4247   3.4247
     3.5795   3.5795   3.5795   3.5795   4.2881   4.2881   4.2881   4.2881
     4.3966   4.3966   4.3966   4.3966   5.1938   5.1938   5.1938   5.1938
     5.4810   5.4810   5.4811   5.4811   6.3200   6.3200   6.3200   6.3200
     6.5073   6.5073   6.5073   6.5073   6.6338   6.6338   6.6338   6.6338
     7.2730   7.2730   7.2730   7.2730   7.3465   7.3465   7.3465   7.3465
     7.4330   7.4330   7.4330   7.4330   7.5882   7.5882   7.5882   7.5882
    11.1478  11.1478  11.1478  11.1478  11.2895  11.2895  11.2895  11.2895
    12.2857  12.2857  12.2857  12.2857  12.3197  12.3197  12.3197  12.3197
    12.8824  12.8824  12.8824  12.8824  13.6220  13.6220  13.6220  13.6220
    15.4573  15.4573  15.4573  15.4573  16.7813  16.7813  16.7813  16.7814
    17.3384  17.3384  17.3384  17.3384  17.4667

          k = 0.1667 0.0000 0.0000 ( 62453 PWs)   bands (ev):

   -66.1022 -66.1017 -66.1013 -66.1012 -66.1009 -66.1008 -66.1003 -66.0999
   -30.5351 -30.5323 -30.5319 -30.5292 -30.4745 -30.4720 -30.4720 -30.4695
   -30.4417 -30.4383 -30.4371 -30.4351 -30.4338 -30.4319 -30.4300 -30.4267
   -30.3492 -30.3464 -30.3447 -30.3423 -30.3420 -30.3395 -30.3385 -30.3358
   -20.2527 -20.2526 -20.2525 -20.2525 -20.2524 -20.2524 -20.2524 -20.2524
   -20.2523 -20.2523 -20.2523 -20.2523 -20.2472 -20.2470 -20.2469 -20.2467
   -20.2407 -20.2406 -20.2405 -20.2404 -20.2396 -20.2395 -20.2394 -20.2393
   -20.2381 -20.2381 -20.2380 -20.2379 -20.2371 -20.2369 -20.2369 -20.2367
   -20.2286 -20.2285 -20.2283 -20.2283 -20.2282 -20.2282 -20.2280 -20.2279
   -20.2062 -20.2062 -20.2059 -20.2058 -20.2049 -20.2049 -20.2044 -20.2044
   -20.2005 -20.2005 -20.2000 -20.2000 -20.1991 -20.1991 -20.1988 -20.1987
    -9.9187  -9.6136  -9.5543  -9.4793  -9.2603  -9.1571  -9.1342  -9.0050
    -8.9880  -8.8906  -8.8801  -8.8432  -7.8974  -7.8875  -7.8825  -7.8329
    -7.8206  -7.7810  -7.7663  -7.7636  -7.7472  -7.7402  -7.6454  -7.6235
     1.2682   1.2765   1.2857   1.3038   1.4036   1.4456   1.5566   1.5779
     1.5797   1.6736   1.7972   1.9443   2.4971   2.5521   2.5807   2.6318
     2.6745   2.7716   4.0645   4.1242   4.3301   4.3594   4.3636   4.4706
     4.6368   4.7392   4.8012   4.8989   4.9123   4.9721   5.0196   5.2891
     5.3491   5.4014   5.4971   5.5209   5.5282   5.5641   5.5840   5.6302
     5.7236   5.7293   5.7786   5.9024   5.9499   6.1011   6.1092   6.1206
     6.2779   6.4290   6.4924   6.5303   6.6215   6.6500   6.7320   6.7840
     6.8244   6.8373   6.9624   6.9918   7.0150   7.0840   7.1376   7.1403
     7.1861   7.2477   7.8663   7.8693   8.0250   8.0821   8.0856   8.1305
     9.5980   9.6312   9.9745   9.9911  10.2405  10.2780  12.2149  12.2571
    12.2808  12.3460  12.3846  12.3886  12.5016  12.5988  12.9619  13.0191
    13.0685  13.2431  13.3107  13.4101  13.8941  14.0358  14.0461  14.1725
    14.1774  14.3213  14.4621  14.9217  15.4047  15.4335  15.4509  15.9908
    16.3388  16.7649  16.9579  17.2348  17.4271

          k = 0.1667 0.0000 0.1667 ( 62428 PWs)   bands (ev):

   -66.1021 -66.1017 -66.1013 -66.1012 -66.1008 -66.1008 -66.1004 -66.1000
   -30.5350 -30.5322 -30.5322 -30.5295 -30.4746 -30.4722 -30.4722 -30.4698
   -30.4348 -30.4348 -30.4316 -30.4316 -30.4305 -30.4301 -30.4272 -30.4271
   -30.3489 -30.3489 -30.3461 -30.3461 -30.3451 -30.3450 -30.3423 -30.3423
   -20.2527 -20.2526 -20.2525 -20.2525 -20.2524 -20.2524 -20.2524 -20.2524
   -20.2524 -20.2523 -20.2523 -20.2523 -20.2472 -20.2470 -20.2470 -20.2467
   -20.2406 -20.2405 -20.2404 -20.2403 -20.2395 -20.2394 -20.2393 -20.2393
   -20.2382 -20.2382 -20.2381 -20.2380 -20.2371 -20.2371 -20.2369 -20.2369
   -20.2286 -20.2285 -20.2283 -20.2283 -20.2282 -20.2282 -20.2280 -20.2279
   -20.2058 -20.2058 -20.2058 -20.2057 -20.2045 -20.2045 -20.2045 -20.2044
   -20.2004 -20.2004 -20.2004 -20.2004 -20.1992 -20.1992 -20.1992 -20.1992
    -9.8709  -9.5552  -9.4954  -9.4953  -9.1710  -9.1709  -9.1431  -8.9653
    -8.9516  -8.8813  -8.8478  -8.8477  -7.8956  -7.8879  -7.8852  -7.8724
    -7.8723  -7.8229  -7.8226  -7.7953  -7.7844  -7.7762  -7.7528  -7.7321
     1.3942   1.4397   1.4398   1.4563   1.4570   1.5624   1.5627   1.5714
     1.6745   1.6748   1.8837   2.0248   2.5831   2.6400   2.6401   2.6752
     2.7488   2.7830   4.0603   4.0719   4.2975   4.2977   4.4639   4.4639
     4.5357   4.5358   4.6642   4.6645   4.6992   4.7688   5.0051   5.2361
     5.2927   5.3091   5.3723   5.4622   5.4628   5.6041   5.6044   5.6656
     5.6657   5.7122   5.7330   5.7332   5.7640   5.9586   6.3153   6.4466
     6.4479   6.5284   6.5316   6.6005   6.6375   6.6492   6.6509   6.6621
     6.7038   6.8304   6.8308   6.8691   6.8707   6.9781   6.9782   7.0911
     7.2792   7.3390   7.8600   7.8615   8.0253   8.0687   8.0867   8.0873
     9.8300   9.8966  10.2349  10.2428  10.2434  10.3311  12.2655  12.2664
    12.2924  12.2925  12.3337  12.3754  12.5886  12.5890  12.9832  13.0322
    13.0476  13.0803  13.1929  13.3776  13.9926  14.0062  14.0263  14.0434
    14.0810  14.4522  14.4539  15.0383  15.4173  15.4983  15.5126  16.3068
    16.3071  16.9289  16.9291  17.0977  17.4751

          k = 0.1667 0.0000 0.3333 ( 62443 PWs)   bands (ev):

   -66.1019 -66.1015 -66.1014 -66.1011 -66.1010 -66.1007 -66.1006 -66.1002
   -30.5346 -30.5330 -30.5319 -30.5302 -30.4744 -30.4729 -30.4721 -30.4705
   -30.4338 -30.4313 -30.4306 -30.4280 -30.4164 -30.4135 -30.4121 -30.4092
   -30.3670 -30.3642 -30.3630 -30.3603 -30.3481 -30.3458 -30.3453 -30.3431
   -20.2527 -20.2526 -20.2526 -20.2525 -20.2525 -20.2524 -20.2524 -20.2524
   -20.2524 -20.2524 -20.2523 -20.2523 -20.2472 -20.2471 -20.2470 -20.2468
   -20.2405 -20.2404 -20.2401 -20.2398 -20.2395 -20.2392 -20.2390 -20.2388
   -20.2386 -20.2384 -20.2383 -20.2380 -20.2376 -20.2373 -20.2371 -20.2370
   -20.2285 -20.2284 -20.2284 -20.2283 -20.2282 -20.2281 -20.2281 -20.2280
   -20.2055 -20.2055 -20.2048 -20.2047 -20.2047 -20.2047 -20.2034 -20.2034
   -20.2016 -20.2016 -20.2004 -20.2004 -20.2002 -20.2001 -20.1994 -20.1994
    -9.7554  -9.5452  -9.4186  -9.3590  -9.2135  -9.1733  -8.9172  -8.8990
    -8.8597  -8.8190  -8.7887  -8.7247  -8.1857  -8.1856  -8.1225  -8.0982
    -7.8670  -7.8588  -7.8586  -7.8233  -7.8175  -7.7959  -7.7902  -7.7720
     1.4049   1.4267   1.5157   1.5534   1.5784   1.5929   1.6509   1.6803
     2.2554   2.2850   2.4264   2.5020   2.6618   2.7433   2.8444   2.8788
     2.9561   3.0209   3.8035   3.8289   3.9148   3.9226   4.1385   4.2568
     4.2747   4.4537   4.5179   4.5480   4.5998   4.7152   4.7589   4.8999
     4.9581   5.0560   5.0904   5.1947   5.2897   5.3539   5.5241   5.6486
     5.6668   5.7171   5.7468   5.7771   5.7956   5.9714   6.1294   6.1868
     6.3986   6.4161   6.4469   6.5446   6.5756   6.6183   6.6287   6.6393
     6.7804   6.8562   6.8669   6.8804   7.1260   7.1314   7.1517   7.2147
     7.3146   7.3619   7.7854   7.8023   7.9186   7.9495   8.0801   8.0891
    10.2273  10.2458  10.4801  10.5323  10.8719  10.9780  11.8768  11.9148
    12.1518  12.4182  12.4363  12.5238  12.5667  12.5876  12.7451  12.8443
    12.9457  13.0262  13.0842  13.2911  13.6706  13.6858  14.0211  14.0416
    14.2336  14.4266  14.7834  15.3090  15.3478  15.7754  15.9436  16.2148
    16.3484  17.1737  17.3661  17.4574  17.5446

          k = 0.1667 0.0000-0.5000 ( 62450 PWs)   bands (ev):

   -66.1017 -66.1017 -66.1013 -66.1013 -66.1008 -66.1008 -66.1004 -66.1004
   -30.5339 -30.5339 -30.5311 -30.5311 -30.4738 -30.4738 -30.4714 -30.4714
   -30.4326 -30.4325 -30.4293 -30.4293 -30.3917 -30.3917 -30.3888 -30.3888
   -30.3876 -30.3875 -30.3847 -30.3847 -30.3470 -30.3469 -30.3442 -30.3442
   -20.2527 -20.2527 -20.2525 -20.2525 -20.2525 -20.2525 -20.2524 -20.2524
   -20.2524 -20.2524 -20.2523 -20.2523 -20.2472 -20.2471 -20.2469 -20.2469
   -20.2404 -20.2404 -20.2397 -20.2397 -20.2392 -20.2392 -20.2389 -20.2389
   -20.2385 -20.2385 -20.2382 -20.2382 -20.2377 -20.2377 -20.2370 -20.2370
   -20.2284 -20.2284 -20.2283 -20.2283 -20.2281 -20.2281 -20.2281 -20.2280
   -20.2051 -20.2051 -20.2051 -20.2051 -20.2032 -20.2032 -20.2032 -20.2032
   -20.2019 -20.2019 -20.2019 -20.2019 -20.1998 -20.1998 -20.1998 -20.1998
    -9.6334  -9.6334  -9.2923  -9.2923  -9.2388  -9.2388  -8.8767  -8.8767
    -8.5598  -8.5598  -8.5537  -8.5536  -8.5079  -8.5079  -8.4538  -8.4537
    -7.8588  -7.8588  -7.8268  -7.8267  -7.8053  -7.8053  -7.8023  -7.8023
     1.4139   1.4139   1.5350   1.5350   1.5960   1.5960   1.6842   1.6842
     2.6867   2.6867   2.9693   2.9693   3.0591   3.0592   3.1791   3.1791
     3.2916   3.2916   3.4159   3.4159   3.4923   3.4923   3.7824   3.7824
     3.8749   3.8749   4.3743   4.3743   4.5209   4.5209   4.8690   4.8690
     5.0205   5.0205   5.0393   5.0393   5.2344   5.2344   5.6024   5.6024
     5.7610   5.7610   5.7711   5.7711   5.8756   5.8756   5.9344   5.9344
     6.3190   6.3190   6.3967   6.3967   6.6137   6.6137   6.7086   6.7086
     6.7982   6.7982   6.9553   6.9553   7.0174   7.0174   7.5314   7.5314
     7.5784   7.5784   7.6922   7.6922   7.6998   7.6998   8.0889   8.0889
    10.2472  10.2472  11.2069  11.2069  11.2715  11.2715  11.5925  11.5925
    11.7795  11.7795  12.6088  12.6088  12.6688  12.6688  12.7045  12.7045
    12.9299  12.9299  13.2414  13.2414  13.3518  13.3518  14.0278  14.0278
    14.3669  14.3669  15.1030  15.1030  15.7963  15.7963  16.0462  16.0462
    16.7162  16.7162  17.7647  17.7650  17.7972

          k = 0.1667 0.1580 0.0000 ( 62403 PWs)   bands (ev):

   -66.1021 -66.1018 -66.1013 -66.1012 -66.1009 -66.1008 -66.1003 -66.1000
   -30.5311 -30.5283 -30.5279 -30.5252 -30.4786 -30.4761 -30.4760 -30.4735
   -30.4415 -30.4385 -30.4369 -30.4349 -30.4340 -30.4321 -30.4298 -30.4270
   -30.3490 -30.3466 -30.3445 -30.3422 -30.3421 -30.3397 -30.3383 -30.3359
   -20.2525 -20.2525 -20.2524 -20.2524 -20.2524 -20.2524 -20.2524 -20.2524
   -20.2523 -20.2521 -20.2521 -20.2520 -20.2476 -20.2473 -20.2473 -20.2471
   -20.2406 -20.2405 -20.2405 -20.2403 -20.2396 -20.2395 -20.2395 -20.2394
   -20.2381 -20.2380 -20.2379 -20.2378 -20.2372 -20.2370 -20.2370 -20.2368
   -20.2286 -20.2285 -20.2283 -20.2283 -20.2283 -20.2282 -20.2280 -20.2279
   -20.2062 -20.2062 -20.2059 -20.2058 -20.2049 -20.2049 -20.2044 -20.2044
   -20.2005 -20.2005 -20.2000 -20.2000 -20.1991 -20.1991 -20.1988 -20.1987
    -9.8871  -9.6255  -9.5161  -9.4364  -9.2683  -9.1650  -9.0598  -9.0031
    -8.9889  -8.8474  -8.8428  -8.8105  -7.9851  -7.9431  -7.9290  -7.8936
    -7.8925  -7.8665  -7.7650  -7.7621  -7.7458  -7.7417  -7.6439  -7.6250
     1.2801   1.2856   1.2906   1.3038   1.5146   1.5563   1.5702   1.7752
     1.7963   1.8115   1.8415   2.0534   2.5034   2.5747   2.6237   2.7056
     2.7432   2.8392   3.9577   4.0032   4.0633   4.1090   4.3923   4.4681
     4.6779   4.6853   4.7797   4.8503   4.8892   4.9127   4.9473   5.2093
     5.2567   5.2605   5.2977   5.4704   5.5671   5.5692   5.6110   5.6704
     5.7169   5.7284   5.7979   5.8336   5.8482   6.0997   6.1255   6.1446
     6.2023   6.4212   6.4619   6.5528   6.6712   6.7401   6.7526   6.8024
     6.8189   6.8567   6.9407   6.9595   6.9979   7.0032   7.1370   7.1401
     7.2005   7.2479   7.8684   7.8695   7.9813   8.0083   8.0231   8.0478
     9.6033   9.6292  10.1694  10.1747  10.4089  10.4212  12.1629  12.2220
    12.2564  12.2623  12.3453  12.3460  12.3639  12.4854  12.9644  13.0265
    13.0987  13.2779  13.3188  13.4175  13.9287  13.9553  14.0748  14.0854
    14.2204  14.5970  14.7592  15.0850  15.4041  15.4339  15.8536  15.9571
    16.3023  16.6187  16.8941  17.3534  17.5066

          k = 0.1667 0.1580 0.1667 ( 62449 PWs)   bands (ev):

   -66.1021 -66.1017 -66.1012 -66.1012 -66.1009 -66.1009 -66.1004 -66.1000
   -30.5310 -30.5282 -30.5282 -30.5255 -30.4786 -30.4762 -30.4762 -30.4738
   -30.4346 -30.4346 -30.4318 -30.4318 -30.4303 -30.4299 -30.4274 -30.4273
   -30.3487 -30.3487 -30.3463 -30.3463 -30.3449 -30.3448 -30.3425 -30.3424
   -20.2525 -20.2525 -20.2524 -20.2524 -20.2524 -20.2524 -20.2524 -20.2524
   -20.2523 -20.2522 -20.2521 -20.2520 -20.2476 -20.2474 -20.2474 -20.2471
   -20.2405 -20.2404 -20.2403 -20.2402 -20.2395 -20.2394 -20.2394 -20.2394
   -20.2381 -20.2381 -20.2380 -20.2380 -20.2372 -20.2372 -20.2370 -20.2370
   -20.2286 -20.2285 -20.2283 -20.2283 -20.2282 -20.2282 -20.2280 -20.2280
   -20.2058 -20.2058 -20.2058 -20.2057 -20.2045 -20.2045 -20.2045 -20.2045
   -20.2004 -20.2004 -20.2004 -20.2004 -20.1992 -20.1992 -20.1992 -20.1992
    -9.8378  -9.5671  -9.4526  -9.4526  -9.1792  -9.1791  -9.0688  -8.9644
    -8.9525  -8.8386  -8.8149  -8.8149  -7.9865  -7.9408  -7.9408  -7.9005
    -7.8845  -7.8843  -7.8580  -7.8580  -7.7940  -7.7721  -7.7516  -7.7336
     1.4563   1.4568   1.5170   1.5172   1.5621   1.5623   1.5882   1.7752
     1.8381   1.8383   1.8828   2.1074   2.5918   2.6692   2.7134   2.7135
     2.8209   2.8460   3.9584   3.9880   4.0880   4.0883   4.4523   4.4526
     4.5387   4.5389   4.6488   4.6958   4.6987   4.7287   4.7674   5.1968
     5.2076   5.2199   5.2219   5.3446   5.3522   5.5684   5.5689   5.5989
     5.7212   5.7213   5.7453   5.7599   5.7600   5.8287   6.3360   6.3628
     6.3631   6.5252   6.5283   6.6263   6.6384   6.6903   6.7315   6.7496
     6.7504   6.8125   6.8513   6.8515   6.9444   6.9532   6.9541   7.0967
     7.2822   7.3379   7.8606   7.8615   7.9685   8.0097   8.0101   8.0123
     9.8454   9.8935  10.3854  10.4103  10.4107  10.4673  12.2214  12.2626
    12.2717  12.2731  12.2784  12.2796  12.4515  12.4517  12.9732  13.0493
    13.0884  13.0994  13.2033  13.3847  13.9104  13.9242  13.9254  13.9917
    14.3400  14.7522  14.7528  15.1868  15.4992  15.5117  15.8210  16.2719
    16.2722  16.7435  17.0364  17.0367  17.5405

          k = 0.1667 0.1580 0.3333 ( 62456 PWs)   bands (ev):

   -66.1019 -66.1015 -66.1014 -66.1011 -66.1010 -66.1007 -66.1006 -66.1002
   -30.5306 -30.5290 -30.5279 -30.5262 -30.4785 -30.4769 -30.4761 -30.4745
   -30.4336 -30.4311 -30.4308 -30.4283 -30.4162 -30.4137 -30.4119 -30.4094
   -30.3668 -30.3644 -30.3629 -30.3605 -30.3479 -30.3457 -30.3455 -30.3433
   -20.2525 -20.2524 -20.2524 -20.2524 -20.2524 -20.2524 -20.2524 -20.2523
   -20.2523 -20.2522 -20.2521 -20.2520 -20.2476 -20.2474 -20.2474 -20.2472
   -20.2404 -20.2403 -20.2400 -20.2398 -20.2395 -20.2393 -20.2390 -20.2389
   -20.2385 -20.2384 -20.2382 -20.2379 -20.2376 -20.2374 -20.2372 -20.2370
   -20.2285 -20.2284 -20.2284 -20.2283 -20.2282 -20.2281 -20.2281 -20.2280
   -20.2055 -20.2055 -20.2048 -20.2047 -20.2047 -20.2047 -20.2034 -20.2034
   -20.2016 -20.2016 -20.2004 -20.2004 -20.2002 -20.2001 -20.1994 -20.1994
    -9.7186  -9.5032  -9.4304  -9.3028  -9.2223  -9.0997  -8.9258  -8.8784
    -8.8267  -8.8203  -8.7694  -8.7054  -8.1927  -8.1838  -8.1417  -8.0961
    -7.9544  -7.9405  -7.9186  -7.8917  -7.8587  -7.8357  -7.7913  -7.7720
     1.5240   1.5372   1.5781   1.5926   1.7231   1.7281   1.8085   1.8367
     2.2540   2.2959   2.4279   2.5176   2.7342   2.8064   2.8645   2.9527
     2.9531   3.0746   3.7982   3.8246   3.8727   3.9136   4.0714   4.1422
     4.2195   4.3236   4.5445   4.5640   4.6359   4.6809   4.7153   4.7326
     4.8868   4.8952   4.9413   5.1237   5.1904   5.2305   5.2863   5.5781
     5.6125   5.6273   5.7167   5.7622   5.7882   5.8042   6.1379   6.1874
     6.3418   6.4869   6.5120   6.6012   6.6620   6.6641   6.7021   6.7345
     6.8258   6.8620   6.8843   6.9197   7.1200   7.1249   7.1431   7.2214
     7.3055   7.3556   7.7856   7.7991   7.8714   7.8894   8.0119   8.0133
    10.3549  10.4108  10.5024  10.5468  10.9862  11.0684  11.8777  11.9114
    12.1213  12.3964  12.4368  12.4431  12.4833  12.5721  12.6838  12.7251
    12.9347  13.0632  13.0666  13.2950  13.5649  13.5892  13.9241  13.9493
    14.5631  14.7305  15.1314  15.4642  15.7176  15.7699  15.9537  16.1827
    16.4590  17.1324  17.1389  17.4248  17.5000

          k = 0.1667 0.1580-0.5000 ( 62482 PWs)   bands (ev):

   -66.1016 -66.1016 -66.1013 -66.1013 -66.1008 -66.1008 -66.1005 -66.1004
   -30.5299 -30.5299 -30.5271 -30.5271 -30.4778 -30.4778 -30.4754 -30.4754
   -30.4324 -30.4323 -30.4295 -30.4295 -30.3915 -30.3915 -30.3890 -30.3890
   -30.3874 -30.3874 -30.3849 -30.3849 -30.3468 -30.3468 -30.3444 -30.3444
   -20.2525 -20.2525 -20.2524 -20.2524 -20.2524 -20.2524 -20.2524 -20.2524
   -20.2523 -20.2523 -20.2521 -20.2521 -20.2475 -20.2475 -20.2473 -20.2473
   -20.2404 -20.2404 -20.2397 -20.2397 -20.2391 -20.2391 -20.2390 -20.2389
   -20.2385 -20.2385 -20.2383 -20.2383 -20.2378 -20.2378 -20.2371 -20.2371
   -20.2284 -20.2284 -20.2283 -20.2283 -20.2281 -20.2281 -20.2281 -20.2281
   -20.2051 -20.2051 -20.2051 -20.2051 -20.2032 -20.2032 -20.2032 -20.2032
   -20.2019 -20.2019 -20.2019 -20.2019 -20.1998 -20.1998 -20.1998 -20.1998
    -9.5932  -9.5932  -9.3025  -9.3025  -9.1695  -9.1695  -8.8447  -8.8447
    -8.5650  -8.5649  -8.5563  -8.5563  -8.5085  -8.5085  -8.4482  -8.4482
    -7.9498  -7.9498  -7.9087  -7.9087  -7.8249  -7.8249  -7.8041  -7.8040
     1.5325   1.5325   1.5958   1.5958   1.7368   1.7368   1.8359   1.8359
     2.7551   2.7551   2.9896   2.9896   3.0779   3.0779   3.1935   3.1935
     3.2932   3.2932   3.4187   3.4188   3.4834   3.4834   3.7839   3.7839
     3.9229   3.9229   4.2206   4.2206   4.5468   4.5469   4.6389   4.6390
     4.9139   4.9139   4.9983   4.9983   5.0816   5.0816   5.4087   5.4087
     5.6576   5.6577   5.7334   5.7335   5.8256   5.8257   5.8743   5.8743
     6.4449   6.4449   6.5767   6.5767   6.6097   6.6097   6.7511   6.7511
     6.8723   6.8723   6.9152   6.9152   7.0401   7.0401   7.5301   7.5301
     7.5724   7.5724   7.6600   7.6600   7.6710   7.6710   8.0152   8.0152
    10.4068  10.4068  11.2125  11.2125  11.2701  11.2701  11.6591  11.6591
    11.8408  11.8408  12.4759  12.4760  12.6467  12.6467  12.6994  12.6994
    12.9074  12.9074  13.1381  13.1381  13.2968  13.2968  13.9327  13.9327
    14.6806  14.6806  15.4792  15.4792  15.9208  15.9208  16.0239  16.0239
    16.7475  16.7475  17.5657  17.5658  17.8325

          k = 0.1667 0.3161 0.0000 ( 62420 PWs)   bands (ev):

   -66.1021 -66.1018 -66.1012 -66.1011 -66.1010 -66.1009 -66.1002 -66.1000
   -30.5200 -30.5173 -30.5170 -30.5144 -30.4897 -30.4872 -30.4870 -30.4845
   -30.4409 -30.4392 -30.4363 -30.4346 -30.4343 -30.4327 -30.4292 -30.4276
   -30.3485 -30.3471 -30.3440 -30.3427 -30.3416 -30.3402 -30.3378 -30.3364
   -20.2525 -20.2525 -20.2524 -20.2524 -20.2524 -20.2524 -20.2523 -20.2523
   -20.2514 -20.2512 -20.2512 -20.2510 -20.2486 -20.2484 -20.2484 -20.2482
   -20.2404 -20.2403 -20.2403 -20.2401 -20.2398 -20.2398 -20.2397 -20.2396
   -20.2379 -20.2378 -20.2377 -20.2377 -20.2374 -20.2372 -20.2372 -20.2370
   -20.2286 -20.2286 -20.2283 -20.2283 -20.2283 -20.2282 -20.2280 -20.2280
   -20.2062 -20.2062 -20.2059 -20.2058 -20.2049 -20.2049 -20.2044 -20.2044
   -20.2005 -20.2005 -20.2000 -20.2000 -20.1991 -20.1991 -20.1988 -20.1988
    -9.8101  -9.6624  -9.4286  -9.3375  -9.2946  -9.1917  -8.9993  -8.9915
    -8.8493  -8.7159  -8.7099  -8.6949  -8.2304  -8.1907  -8.1798  -8.1642
    -7.8893  -7.8766  -7.7611  -7.7579  -7.7499  -7.7461  -7.6400  -7.6290
     1.2841   1.2855   1.2996   1.3034   1.5464   1.5555   1.7482   1.7930
     2.3323   2.4562   2.4802   2.5185   2.5595   2.6342   2.8346   2.9298
     2.9433   3.0456   3.6039   3.6329   3.6483   3.6820   4.1041   4.3892
     4.4225   4.4458   4.4975   4.7121   4.7410   4.8425   4.8914   4.9061
     5.0070   5.0479   5.1462   5.2765   5.3950   5.4432   5.5746   5.5991
     5.6582   5.7505   5.7614   5.8136   6.0239   6.1019   6.1289   6.1327
     6.2399   6.4242   6.4376   6.5773   6.6169   6.8335   6.8613   6.9101
     6.9482   6.9621   7.0345   7.0468   7.0670   7.0724   7.1374   7.1408
     7.2314   7.2550   7.7799   7.8045   7.8068   7.8210   7.8713   7.8731
     9.6124   9.6252  10.6373  10.6809  10.8200  10.8520  11.7952  11.8944
    11.9175  11.9957  12.2359  12.2524  12.3869  12.4173  12.9793  13.0227
    13.2132  13.3684  13.3914  13.4811  13.6895  13.7390  13.8422  13.8685
    14.8395  15.1618  15.3867  15.4037  15.4385  15.6811  15.8432  16.0509
    16.1771  16.8513  17.2643  17.3051  17.7701

          k = 0.1667 0.3161 0.1667 ( 62395 PWs)   bands (ev):

   -66.1020 -66.1018 -66.1012 -66.1011 -66.1009 -66.1009 -66.1003 -66.1001
   -30.5200 -30.5173 -30.5173 -30.5146 -30.4897 -30.4873 -30.4872 -30.4848
   -30.4341 -30.4340 -30.4324 -30.4324 -30.4297 -30.4294 -30.4280 -30.4279
   -30.3482 -30.3482 -30.3468 -30.3468 -30.3444 -30.3443 -30.3430 -30.3430
   -20.2525 -20.2525 -20.2524 -20.2524 -20.2524 -20.2524 -20.2523 -20.2523
   -20.2514 -20.2512 -20.2512 -20.2510 -20.2486 -20.2484 -20.2484 -20.2482
   -20.2403 -20.2402 -20.2401 -20.2400 -20.2396 -20.2396 -20.2396 -20.2396
   -20.2379 -20.2379 -20.2378 -20.2378 -20.2374 -20.2374 -20.2372 -20.2372
   -20.2286 -20.2285 -20.2283 -20.2283 -20.2283 -20.2282 -20.2280 -20.2280
   -20.2058 -20.2058 -20.2058 -20.2057 -20.2045 -20.2045 -20.2045 -20.2045
   -20.2004 -20.2004 -20.2004 -20.2004 -20.1992 -20.1992 -20.1992 -20.1992
    -9.7573  -9.6046  -9.3540  -9.3539  -9.2065  -9.2063  -8.9619  -8.9552
    -8.8580  -8.7035  -8.6992  -8.6992  -8.2327  -8.1872  -8.1872  -8.1693
    -7.8803  -7.8803  -7.8670  -7.8670  -7.7899  -7.7777  -7.7479  -7.7374
     1.4563   1.4566   1.5517   1.5519   1.5612   1.5615   1.8213   1.8790
     2.3340   2.4575   2.4578   2.6047   2.6103   2.6695   2.9363   2.9366
     3.0362   3.0438   3.6455   3.6458   3.6498   3.6984   4.0979   4.4123
     4.4126   4.4772   4.4775   4.5623   4.5629   4.7031   4.7115   4.8011
     4.8538   4.8542   5.0991   5.1256   5.3508   5.3871   5.3944   5.3950
     5.6038   5.6261   5.7339   5.7341   5.7869   5.7870   6.3957   6.3970
     6.4127   6.5127   6.5151   6.6130   6.6977   6.7256   6.8483   6.8489
     6.9085   6.9088   6.9590   6.9889   7.0599   7.0634   7.0644   7.1234
     7.2999   7.3405   7.7790   7.7825   7.7828   7.8122   7.8622   7.8718
     9.8666   9.8877  10.7935  10.8505  10.8530  10.8600  11.8695  11.9169
    11.9930  11.9932  12.2836  12.2839  12.3186  12.3188  12.9792  13.0415
    13.2108  13.2126  13.2706  13.4351  13.6799  13.6826  13.6851  13.7821
    14.9966  15.3830  15.3834  15.5017  15.5089  15.7475  16.1508  16.1511
    16.1732  16.8158  17.3261  17.3857  17.3860

          k = 0.1667 0.3161 0.3333 ( 62436 PWs)   bands (ev):

   -66.1018 -66.1016 -66.1013 -66.1011 -66.1010 -66.1008 -66.1005 -66.1003
   -30.5196 -30.5180 -30.5170 -30.5154 -30.4895 -30.4880 -30.4871 -30.4855
   -30.4331 -30.4314 -30.4305 -30.4289 -30.4157 -30.4143 -30.4114 -30.4100
   -30.3663 -30.3649 -30.3624 -30.3610 -30.3474 -30.3460 -30.3451 -30.3438
   -20.2525 -20.2524 -20.2524 -20.2524 -20.2524 -20.2524 -20.2524 -20.2523
   -20.2514 -20.2512 -20.2512 -20.2510 -20.2486 -20.2485 -20.2484 -20.2483
   -20.2402 -20.2401 -20.2398 -20.2396 -20.2396 -20.2395 -20.2391 -20.2391
   -20.2383 -20.2383 -20.2380 -20.2378 -20.2378 -20.2376 -20.2374 -20.2373
   -20.2285 -20.2284 -20.2283 -20.2283 -20.2282 -20.2282 -20.2280 -20.2280
   -20.2055 -20.2055 -20.2048 -20.2047 -20.2047 -20.2047 -20.2034 -20.2034
   -20.2016 -20.2016 -20.2004 -20.2004 -20.2002 -20.2001 -20.1994 -20.1994
    -9.6297  -9.4677  -9.4052  -9.2519  -9.1641  -8.9569  -8.8923  -8.8470
    -8.8238  -8.7125  -8.6719  -8.6295  -8.2851  -8.2580  -8.1827  -8.1813
    -8.1727  -8.1138  -8.0896  -8.0398  -7.8546  -7.8425  -7.7875  -7.7764
     1.5665   1.5772   1.5834   1.5919   2.1662   2.2492   2.2549   2.3469
     2.4262   2.4595   2.4843   2.6795   2.8793   2.9433   2.9527   3.0315
     3.1775   3.2562   3.6241   3.6281   3.7017   3.7169   3.8850   3.9556
     4.0804   4.2780   4.3607   4.3807   4.4561   4.5504   4.6013   4.6159
     4.6881   4.7512   4.8051   4.8363   4.9058   4.9616   5.1241   5.1276
     5.2931   5.3144   5.4258   5.5776   5.7634   5.7989   6.1702   6.1892
     6.5190   6.6119   6.6164   6.7274   6.7952   6.8193   6.9057   6.9293
     6.9718   7.0074   7.0216   7.0469   7.1314   7.1440   7.1695   7.2577
     7.2780   7.3367   7.7027   7.7072   7.7631   7.7901   7.7972   7.8363
    10.4758  10.5123  10.8438  10.8496  11.3011  11.3426  11.8702  11.8824
    11.8866  12.0555  12.1935  12.2151  12.4474  12.5376  12.6587  12.7161
    12.8866  13.0724  13.1361  13.3436  13.3485  13.3722  13.6876  13.7302
    15.2162  15.3581  15.7374  15.9242  15.9486  16.0199  16.0729  16.6248
    16.6926  16.8030  17.0039  17.5342  17.6012

          k = 0.1667 0.3161-0.5000 ( 62428 PWs)   bands (ev):

   -66.1016 -66.1016 -66.1014 -66.1014 -66.1007 -66.1007 -66.1005 -66.1005
   -30.5189 -30.5189 -30.5163 -30.5163 -30.4888 -30.4888 -30.4864 -30.4864
   -30.4318 -30.4318 -30.4302 -30.4302 -30.3910 -30.3910 -30.3896 -30.3896
   -30.3869 -30.3869 -30.3855 -30.3854 -30.3463 -30.3463 -30.3449 -30.3449
   -20.2525 -20.2525 -20.2524 -20.2524 -20.2524 -20.2524 -20.2524 -20.2523
   -20.2513 -20.2513 -20.2511 -20.2511 -20.2486 -20.2486 -20.2484 -20.2483
   -20.2402 -20.2402 -20.2397 -20.2397 -20.2390 -20.2390 -20.2389 -20.2389
   -20.2385 -20.2385 -20.2384 -20.2384 -20.2378 -20.2378 -20.2373 -20.2373
   -20.2284 -20.2284 -20.2284 -20.2284 -20.2281 -20.2281 -20.2281 -20.2281
   -20.2051 -20.2051 -20.2051 -20.2051 -20.2032 -20.2032 -20.2032 -20.2032
   -20.2019 -20.2019 -20.2019 -20.2019 -20.1998 -20.1998 -20.1998 -20.1998
    -9.4975  -9.4975  -9.3362  -9.3362  -8.9795  -8.9795  -8.7434  -8.7434
    -8.5998  -8.5997  -8.5674  -8.5673  -8.4982  -8.4982  -8.4260  -8.4260
    -8.1782  -8.1782  -8.1468  -8.1468  -7.8209  -7.8209  -7.8093  -7.8093
     1.5835   1.5835   1.5948   1.5948   2.3365   2.3365   2.4526   2.4527
     2.9474   2.9474   3.0527   3.0527   3.0825   3.0826   3.2560   3.2560
     3.2958   3.2958   3.4258   3.4258   3.4513   3.4513   3.6535   3.6535
     4.0565   4.0565   4.0892   4.0892   4.0966   4.0966   4.3474   4.3474
     4.7102   4.7102   4.7761   4.7761   4.9602   4.9602   5.0111   5.0112
     5.1149   5.1149   5.4921   5.4921   5.8728   5.8728   5.8810   5.8810
     6.6548   6.6548   6.7665   6.7665   6.8188   6.8189   6.8516   6.8516
     6.9864   6.9864   7.0338   7.0338   7.1544   7.1544   7.5012   7.5012
     7.5411   7.5411   7.5661   7.5661   7.6039   7.6039   7.8034   7.8034
    10.8269  10.8269  11.2253  11.2253  11.2688  11.2688  11.7681  11.7681
    12.0274  12.0274  12.1747  12.1747  12.5445  12.5445  12.6223  12.6223
    12.7957  12.7957  12.9285  12.9285  13.2987  13.2987  13.7041  13.7041
    15.3083  15.3083  15.9362  15.9362  16.3144  16.3145  16.4279  16.4279
    16.8847  16.8847  17.2100  17.2101  17.8102

          k = 0.1667-0.4741 0.0000 ( 62454 PWs)   bands (ev):

   -66.1020 -66.1019 -66.1011 -66.1011 -66.1010 -66.1010 -66.1002 -66.1001
   -30.5049 -30.5049 -30.5023 -30.5023 -30.5020 -30.5020 -30.4995 -30.4995
   -30.4400 -30.4400 -30.4355 -30.4355 -30.4335 -30.4335 -30.4284 -30.4284
   -30.3478 -30.3478 -30.3434 -30.3434 -30.3409 -30.3409 -30.3371 -30.3371
   -20.2525 -20.2525 -20.2524 -20.2524 -20.2524 -20.2524 -20.2523 -20.2523
   -20.2500 -20.2500 -20.2498 -20.2498 -20.2498 -20.2498 -20.2496 -20.2496
   -20.2401 -20.2401 -20.2400 -20.2400 -20.2400 -20.2399 -20.2398 -20.2398
   -20.2377 -20.2377 -20.2375 -20.2375 -20.2375 -20.2375 -20.2373 -20.2373
   -20.2286 -20.2286 -20.2283 -20.2283 -20.2283 -20.2283 -20.2280 -20.2280
   -20.2062 -20.2062 -20.2059 -20.2058 -20.2049 -20.2049 -20.2044 -20.2044
   -20.2005 -20.2005 -20.2000 -20.2000 -20.1991 -20.1991 -20.1988 -20.1988
    -9.7261  -9.7261  -9.3464  -9.3464  -9.2463  -9.2463  -8.9953  -8.9953
    -8.5454  -8.5454  -8.4839  -8.4838  -8.4729  -8.4729  -8.4712  -8.4711
    -7.8832  -7.8832  -7.7556  -7.7555  -7.7521  -7.7521  -7.6345  -7.6345
     1.2851   1.2851   1.3025   1.3025   1.5532   1.5532   1.7832   1.7832
     2.5393   2.5393   3.1648   3.1648   3.1786   3.1786   3.2039   3.2039
     3.2532   3.2532   3.2981   3.2981   3.4218   3.4218   3.4802   3.4802
     3.6579   3.6579   4.4474   4.4474   4.8916   4.8916   4.9456   4.9456
     5.1000   5.1001   5.1653   5.1653   5.3026   5.3026   5.4695   5.4695
     5.7021   5.7021   5.7563   5.7564   6.1058   6.1058   6.1317   6.1317
     6.3870   6.3870   6.4308   6.4308   6.7140   6.7140   6.8964   6.8964
     6.9983   6.9983   7.1370   7.1370   7.1921   7.1921   7.4251   7.4251
     7.4457   7.4457   7.4743   7.4743   7.4959   7.4959   7.8707   7.8707
     9.6198   9.6198  11.2370  11.2370  11.3092  11.3092  11.3639  11.3639
    11.4402  11.4402  12.2454  12.2455  12.4029  12.4029  13.0049  13.0049
    13.4106  13.4106  13.5152  13.5152  13.5953  13.5953  13.6403  13.6403
    15.3322  15.3322  15.5284  15.5284  15.6036  15.6036  15.9038  15.9038
    16.5674  16.5674  17.8192  17.8192  18.0828

          k = 0.1667-0.4741 0.1667 ( 62436 PWs)   bands (ev):

   -66.1019 -66.1019 -66.1011 -66.1011 -66.1010 -66.1010 -66.1002 -66.1002
   -30.5049 -30.5048 -30.5023 -30.5023 -30.5023 -30.5023 -30.4997 -30.4997
   -30.4333 -30.4333 -30.4332 -30.4332 -30.4289 -30.4289 -30.4287 -30.4287
   -30.3475 -30.3475 -30.3475 -30.3475 -30.3437 -30.3437 -30.3436 -30.3436
   -20.2525 -20.2525 -20.2524 -20.2524 -20.2524 -20.2524 -20.2523 -20.2523
   -20.2500 -20.2500 -20.2498 -20.2498 -20.2498 -20.2498 -20.2496 -20.2496
   -20.2400 -20.2399 -20.2399 -20.2399 -20.2399 -20.2398 -20.2398 -20.2398
   -20.2377 -20.2377 -20.2376 -20.2376 -20.2375 -20.2375 -20.2375 -20.2375
   -20.2286 -20.2286 -20.2283 -20.2283 -20.2283 -20.2283 -20.2280 -20.2280
   -20.2058 -20.2058 -20.2058 -20.2057 -20.2045 -20.2045 -20.2045 -20.2045
   -20.2004 -20.2004 -20.2004 -20.2004 -20.1992 -20.1992 -20.1992 -20.1992
    -9.6701  -9.6700  -9.2622  -9.2621  -9.2621  -9.2620  -8.9585  -8.9585
    -8.5528  -8.5528  -8.4769  -8.4768  -8.4765  -8.4765  -8.4708  -8.4708
    -7.8741  -7.8739  -7.8739  -7.8737  -7.7840  -7.7840  -7.7427  -7.7427
     1.4564   1.4564   1.5586   1.5589   1.5592   1.5594   1.8672   1.8672
     2.6311   2.6312   3.1744   3.1776   3.1805   3.1853   3.2031   3.2044
     3.2541   3.2543   3.3365   3.3369   3.4746   3.4752   3.4804   3.4810
     3.6788   3.6789   4.4879   4.4883   4.5365   4.5370   4.9038   4.9042
     4.9747   4.9748   5.0810   5.0813   5.1288   5.1292   5.4203   5.4203
[...]
    11.9795  11.9795  11.9795  11.9795  12.1842  12.1842  12.1842  12.1842
    12.9947  12.9947  12.9947  12.9947  13.1660  13.1660  13.1660  13.1660
    15.2674  15.2674  15.2674  15.2674  16.7117  16.7117  16.7117  16.7117
    17.6593  17.6593  17.6594  17.6594  17.9081

          k =-0.5000 0.3161 0.0000 ( 62460 PWs)   bands (ev):

   -66.1016 -66.1016 -66.1014 -66.1014 -66.1007 -66.1007 -66.1005 -66.1005
   -30.5189 -30.5189 -30.5160 -30.5160 -30.4888 -30.4888 -30.4861 -30.4861
   -30.4386 -30.4386 -30.4369 -30.4369 -30.3913 -30.3913 -30.3898 -30.3898
   -30.3865 -30.3865 -30.3851 -30.3851 -30.3397 -30.3397 -30.3383 -30.3383
   -20.2525 -20.2525 -20.2524 -20.2524 -20.2524 -20.2524 -20.2523 -20.2523
   -20.2513 -20.2513 -20.2511 -20.2511 -20.2486 -20.2486 -20.2483 -20.2483
   -20.2403 -20.2403 -20.2399 -20.2399 -20.2390 -20.2390 -20.2389 -20.2389
   -20.2385 -20.2385 -20.2385 -20.2385 -20.2376 -20.2376 -20.2371 -20.2371
   -20.2284 -20.2284 -20.2284 -20.2284 -20.2281 -20.2281 -20.2281 -20.2281
   -20.2055 -20.2055 -20.2055 -20.2055 -20.2033 -20.2033 -20.2033 -20.2033
   -20.2018 -20.2018 -20.2018 -20.2018 -20.1994 -20.1994 -20.1994 -20.1994
    -9.5669  -9.5669  -9.4186  -9.4186  -8.9655  -8.9655  -8.7645  -8.7645
    -8.5803  -8.5803  -8.5762  -8.5762  -8.5101  -8.5101  -8.4219  -8.4219
    -8.1810  -8.1810  -8.1419  -8.1419  -7.6983  -7.6983  -7.6868  -7.6868
     1.3299   1.3299   1.3354   1.3354   2.3342   2.3342   2.4716   2.4716
     2.8729   2.8729   3.0300   3.0300   3.0812   3.0812   3.2675   3.2675
     3.2924   3.2924   3.3326   3.3326   3.3756   3.3756   3.6070   3.6070
     4.0533   4.0533   4.0851   4.0851   4.1074   4.1074   4.3391   4.3391
     4.7844   4.7844   4.8893   4.8893   5.0888   5.0888   5.2589   5.2589
     5.4011   5.4011   5.6946   5.6946   6.2696   6.2696   6.3292   6.3292
     6.4497   6.4497   6.5110   6.5110   6.5302   6.5302   6.7540   6.7540
     7.0023   7.0023   7.0267   7.0267   7.0749   7.0749   7.4970   7.4970
     7.5307   7.5307   7.5479   7.5479   7.5883   7.5883   7.8227   7.8227
    10.6607  10.6607  11.1472  11.1472  11.1849  11.1849  11.7033  11.7033
    12.0177  12.0177  12.1387  12.1387  12.5620  12.5620  12.6585  12.6585
    12.8444  12.8444  12.9828  12.9828  13.4671  13.4671  13.8558  13.8558
    15.0855  15.0855  15.6506  15.6506  16.2481  16.2481  16.4376  16.4376
    16.8210  16.8210  17.1685  17.1685  17.9219

          k =-0.5000 0.3161 0.1667 ( 62428 PWs)   bands (ev):

   -66.1016 -66.1016 -66.1014 -66.1014 -66.1007 -66.1007 -66.1005 -66.1005
   -30.5189 -30.5189 -30.5163 -30.5163 -30.4888 -30.4888 -30.4864 -30.4864
   -30.4318 -30.4318 -30.4302 -30.4302 -30.3910 -30.3910 -30.3895 -30.3895
   -30.3868 -30.3868 -30.3854 -30.3854 -30.3463 -30.3463 -30.3449 -30.3449
   -20.2525 -20.2525 -20.2524 -20.2524 -20.2524 -20.2524 -20.2523 -20.2523
   -20.2513 -20.2513 -20.2511 -20.2511 -20.2486 -20.2486 -20.2484 -20.2484
   -20.2401 -20.2401 -20.2397 -20.2397 -20.2390 -20.2390 -20.2389 -20.2389
   -20.2385 -20.2385 -20.2385 -20.2385 -20.2378 -20.2378 -20.2373 -20.2373
   -20.2284 -20.2284 -20.2284 -20.2284 -20.2281 -20.2281 -20.2281 -20.2281
   -20.2051 -20.2051 -20.2051 -20.2051 -20.2032 -20.2032 -20.2032 -20.2032
   -20.2019 -20.2019 -20.2019 -20.2019 -20.1998 -20.1998 -20.1998 -20.1998
    -9.4975  -9.4975  -9.3363  -9.3363  -8.9795  -8.9795  -8.7435  -8.7435
    -8.5997  -8.5997  -8.5673  -8.5673  -8.4981  -8.4981  -8.4259  -8.4259
    -8.1782  -8.1782  -8.1468  -8.1468  -7.8210  -7.8210  -7.8094  -7.8094
     1.5833   1.5833   1.5945   1.5945   2.3364   2.3364   2.4526   2.4526
     2.9478   2.9478   3.0525   3.0525   3.0822   3.0822   3.2562   3.2562
     3.2957   3.2957   3.4264   3.4264   3.4511   3.4511   3.6534   3.6534
     4.0561   4.0561   4.0850   4.0850   4.1015   4.1015   4.3478   4.3478
     4.7100   4.7100   4.7757   4.7757   4.9602   4.9602   5.0112   5.0112
     5.1150   5.1150   5.4921   5.4921   5.8727   5.8727   5.8809   5.8809
     6.6549   6.6549   6.7668   6.7668   6.8190   6.8190   6.8517   6.8517
     6.9861   6.9861   7.0339   7.0339   7.1542   7.1542   7.5010   7.5010
     7.5404   7.5404   7.5669   7.5669   7.6041   7.6041   7.8034   7.8035
    10.8269  10.8269  11.2254  11.2254  11.2686  11.2686  11.7670  11.7670
    12.0275  12.0275  12.1749  12.1749  12.5444  12.5444  12.6231  12.6231
    12.7958  12.7958  12.9289  12.9289  13.2986  13.2986  13.7045  13.7045
    15.3083  15.3083  15.9359  15.9359  16.3144  16.3144  16.4279  16.4279
    16.8841  16.8841  17.2101  17.2101  17.8099

          k =-0.5000 0.3161 0.3333 ( 62412 PWs)   bands (ev):

   -66.1014 -66.1014 -66.1012 -66.1012 -66.1009 -66.1009 -66.1007 -66.1007
   -30.5186 -30.5186 -30.5170 -30.5170 -30.4886 -30.4886 -30.4871 -30.4871
   -30.4136 -30.4136 -30.4121 -30.4121 -30.3901 -30.3901 -30.3887 -30.3886
   -30.3877 -30.3877 -30.3863 -30.3863 -30.3643 -30.3643 -30.3629 -30.3629
   -20.2524 -20.2524 -20.2524 -20.2524 -20.2524 -20.2524 -20.2524 -20.2524
   -20.2513 -20.2513 -20.2512 -20.2512 -20.2486 -20.2486 -20.2484 -20.2484
   -20.2397 -20.2397 -20.2393 -20.2393 -20.2389 -20.2389 -20.2389 -20.2389
   -20.2385 -20.2385 -20.2385 -20.2385 -20.2381 -20.2381 -20.2378 -20.2378
   -20.2283 -20.2283 -20.2283 -20.2283 -20.2282 -20.2282 -20.2281 -20.2281
   -20.2041 -20.2041 -20.2041 -20.2041 -20.2029 -20.2029 -20.2029 -20.2029
   -20.2022 -20.2022 -20.2022 -20.2022 -20.2010 -20.2010 -20.2010 -20.2010
    -9.3214  -9.3214  -9.1113  -9.1113  -9.0283  -9.0283  -8.6810  -8.6810
    -8.6465  -8.6465  -8.5335  -8.5335  -8.4740  -8.4740  -8.4348  -8.4348
    -8.1914  -8.1914  -8.1638  -8.1638  -8.1164  -8.1164  -8.0768  -8.0768
     2.1991   2.1991   2.2815   2.2815   2.3441   2.3441   2.4749   2.4749
     3.0290   3.0290   3.0834   3.0834   3.1626   3.1626   3.2476   3.2476
     3.3270   3.3270   3.5827   3.5827   3.6996   3.6996   3.7850   3.7850
     4.0470   4.0471   4.0757   4.0757   4.1119   4.1119   4.2307   4.2307
     4.3109   4.3109   4.4460   4.4460   4.6001   4.6001   4.8228   4.8228
     4.9416   4.9416   4.9907   4.9907   5.0521   5.0521   5.2659   5.2659
     6.8290   6.8290   6.8821   6.8821   6.9383   6.9383   7.0040   7.0041
     7.1492   7.1493   7.2665   7.2665   7.3909   7.3909   7.4868   7.4868
     7.5329   7.5329   7.6074   7.6074   7.6289   7.6289   7.7523   7.7523
    11.2504  11.2504  11.4724  11.4724  11.5567  11.5567  11.8678  11.8678
    12.0665  12.0665  12.3148  12.3148  12.3557  12.3557  12.3887  12.3887
    12.7112  12.7112  12.7998  12.7998  12.8888  12.8888  13.3071  13.3071
    15.8422  15.8422  16.3551  16.3551  16.5488  16.5488  16.7038  16.7038
    17.1223  17.1223  17.2835  17.2835  17.5608

          k =-0.5000 0.3161-0.5000 ( 62492 PWs)   bands (ev):

   -66.1012 -66.1012 -66.1011 -66.1011 -66.1010 -66.1010 -66.1009 -66.1009
   -30.5179 -30.5179 -30.5179 -30.5179 -30.4880 -30.4880 -30.4880 -30.4880
   -30.3894 -30.3894 -30.3894 -30.3894 -30.3887 -30.3887 -30.3887 -30.3886
   -30.3877 -30.3877 -30.3877 -30.3877 -30.3871 -30.3871 -30.3871 -30.3871
   -20.2524 -20.2524 -20.2524 -20.2524 -20.2524 -20.2524 -20.2524 -20.2524
   -20.2513 -20.2513 -20.2513 -20.2513 -20.2485 -20.2485 -20.2485 -20.2485
   -20.2391 -20.2391 -20.2391 -20.2391 -20.2389 -20.2389 -20.2389 -20.2389
   -20.2385 -20.2385 -20.2385 -20.2385 -20.2383 -20.2383 -20.2383 -20.2383
   -20.2282 -20.2282 -20.2282 -20.2282 -20.2282 -20.2282 -20.2282 -20.2282
   -20.2026 -20.2026 -20.2026 -20.2026 -20.2026 -20.2026 -20.2026 -20.2026
   -20.2025 -20.2025 -20.2025 -20.2025 -20.2025 -20.2025 -20.2025 -20.2025
    -9.1374  -9.1374  -9.1373  -9.1373  -8.8334  -8.8334  -8.8334  -8.8334
    -8.5180  -8.5180  -8.5180  -8.5180  -8.4059  -8.4059  -8.4059  -8.4059
    -8.3876  -8.3876  -8.3876  -8.3876  -8.1497  -8.1497  -8.1497  -8.1497
     2.3486   2.3486   2.3486   2.3486   2.9857   2.9857   2.9857   2.9858
     3.0870   3.0870   3.0870   3.0870   3.2175   3.2175   3.2175   3.2175
     3.2768   3.2768   3.2768   3.2768   3.9710   3.9710   3.9710   3.9710
     3.9839   3.9839   3.9839   3.9839   4.0629   4.0629   4.0629   4.0629
     4.3045   4.3046   4.3046   4.3046   4.3246   4.3246   4.3246   4.3246
     4.7015   4.7015   4.7015   4.7015   5.0022   5.0022   5.0022   5.0022
     6.8872   6.8872   6.8872   6.8872   6.9764   6.9764   6.9764   6.9764
     7.3798   7.3798   7.3798   7.3798   7.4651   7.4651   7.4652   7.4652
     7.5831   7.5831   7.5831   7.5831   7.6810   7.6810   7.6810   7.6810
    11.7410  11.7410  11.7410  11.7410  11.8066  11.8066  11.8066  11.8066
    12.0406  12.0406  12.0406  12.0406  12.2819  12.2819  12.2820  12.2820
    12.6793  12.6793  12.6793  12.6793  12.8693  12.8693  12.8693  12.8693
    16.2137  16.2137  16.2137  16.2137  16.9000  16.9000  16.9000  16.9000
    17.4156  17.4156  17.4156  17.4156  17.8957

          k =-0.5000-0.4741 0.0000 ( 62428 PWs)   bands (ev):

   -66.1015 -66.1015 -66.1015 -66.1015 -66.1006 -66.1006 -66.1006 -66.1006
   -30.5039 -30.5039 -30.5039 -30.5039 -30.5011 -30.5011 -30.5011 -30.5011
   -30.4377 -30.4377 -30.4377 -30.4377 -30.3906 -30.3906 -30.3905 -30.3905
   -30.3858 -30.3858 -30.3858 -30.3858 -30.3390 -30.3390 -30.3390 -30.3390
   -20.2525 -20.2525 -20.2524 -20.2524 -20.2524 -20.2524 -20.2524 -20.2524
   -20.2500 -20.2500 -20.2499 -20.2499 -20.2497 -20.2497 -20.2497 -20.2497
   -20.2401 -20.2401 -20.2401 -20.2401 -20.2388 -20.2388 -20.2388 -20.2388
   -20.2387 -20.2387 -20.2386 -20.2386 -20.2374 -20.2374 -20.2374 -20.2374
   -20.2284 -20.2284 -20.2284 -20.2284 -20.2281 -20.2281 -20.2281 -20.2281
   -20.2055 -20.2055 -20.2055 -20.2055 -20.2033 -20.2033 -20.2033 -20.2033
   -20.2018 -20.2018 -20.2018 -20.2018 -20.1994 -20.1994 -20.1994 -20.1994
    -9.4791  -9.4791  -9.4786  -9.4786  -8.7254  -8.7254  -8.7230  -8.7230
    -8.6297  -8.6297  -8.6278  -8.6278  -8.4167  -8.4167  -8.4126  -8.4126
    -8.3501  -8.3501  -8.3463  -8.3463  -7.6926  -7.6926  -7.6925  -7.6925
     1.3337   1.3337   1.3343   1.3343   2.9914   2.9914   3.0040   3.0040
     3.1248   3.1248   3.1280   3.1280   3.1929   3.1929   3.1973   3.1973
     3.2722   3.2722   3.2793   3.2793   3.4175   3.4176   3.4309   3.4309
     3.5625   3.5625   3.5967   3.5967   4.2847   4.2847   4.2913   4.2913
     4.3906   4.3907   4.4021   4.4021   5.1917   5.1917   5.1959   5.1959
     5.4786   5.4787   5.4834   5.4834   6.3189   6.3189   6.3208   6.3208
     6.5076   6.5076   6.5077   6.5077   6.6309   6.6309   6.6367   6.6367
     7.2703   7.2703   7.2754   7.2754   7.3353   7.3354   7.3577   7.3577
     7.4270   7.4271   7.4395   7.4395   7.5875   7.5875   7.5888   7.5888
    11.1475  11.1475  11.1494  11.1494  11.2869  11.2869  11.2895  11.2895
    12.2780  12.2780  12.2935  12.2935  12.3129  12.3129  12.3271  12.3271
    12.8821  12.8821  12.8830  12.8830  13.6207  13.6207  13.6239  13.6239
    15.4569  15.4569  15.4574  15.4574  16.7764  16.7765  16.7858  16.7858
    17.3338  17.3338  17.3422  17.3423  17.4630

          k =-0.5000-0.4741 0.1667 ( 62396 PWs)   bands (ev):

   -66.1015 -66.1015 -66.1015 -66.1015 -66.1006 -66.1006 -66.1006 -66.1006
   -30.5039 -30.5039 -30.5039 -30.5039 -30.5014 -30.5014 -30.5013 -30.5013
   -30.4310 -30.4310 -30.4310 -30.4310 -30.3903 -30.3903 -30.3902 -30.3902
   -30.3862 -30.3862 -30.3861 -30.3861 -30.3456 -30.3456 -30.3456 -30.3456
   -20.2524 -20.2524 -20.2524 -20.2524 -20.2524 -20.2524 -20.2524 -20.2524
   -20.2500 -20.2500 -20.2499 -20.2499 -20.2498 -20.2498 -20.2497 -20.2497
   -20.2399 -20.2399 -20.2399 -20.2399 -20.2388 -20.2388 -20.2388 -20.2388
   -20.2387 -20.2387 -20.2387 -20.2387 -20.2376 -20.2376 -20.2376 -20.2376
   -20.2284 -20.2284 -20.2284 -20.2284 -20.2281 -20.2281 -20.2281 -20.2281
   -20.2051 -20.2051 -20.2051 -20.2051 -20.2032 -20.2032 -20.2032 -20.2032
   -20.2019 -20.2019 -20.2019 -20.2019 -20.1998 -20.1998 -20.1998 -20.1998
    -9.4013  -9.4013  -9.4007  -9.4007  -8.7443  -8.7443  -8.7412  -8.7412
    -8.6134  -8.6134  -8.6088  -8.6088  -8.4151  -8.4151  -8.4089  -8.4089
    -8.3530  -8.3530  -8.3482  -8.3482  -7.8155  -7.8155  -7.8151  -7.8151
     1.5911   1.5911   1.5927   1.5927   2.9914   2.9914   3.0057   3.0057
     3.1100   3.1100   3.1296   3.1296   3.1894   3.1894   3.2506   3.2506
     3.2719   3.2719   3.3698   3.3698   3.4693   3.4693   3.4903   3.4903
     3.5940   3.5941   3.6306   3.6306   4.2847   4.2847   4.2950   4.2950
     4.3833   4.3834   4.3953   4.3953   4.8563   4.8563   5.0271   5.0271
     5.1195   5.1196   5.2722   5.2722   5.8755   5.8755   5.8830   5.8830
     6.7391   6.7391   6.7719   6.7719   6.8554   6.8554   6.8932   6.8932
     7.2555   7.2555   7.2888   7.2888   7.3295   7.3295   7.3721   7.3721
     7.4165   7.4165   7.4574   7.4574   7.5927   7.5927   7.6164   7.6164
    11.2003  11.2003  11.2320  11.2320  11.3929  11.3929  11.4526  11.4526
    12.2664  12.2664  12.2991  12.2991  12.3203  12.3203  12.3361  12.3361
    12.7709  12.7709  12.8421  12.8421  13.4364  13.4364  13.4833  13.4833
    15.7213  15.7213  15.7447  15.7447  16.8318  16.8318  16.8495  16.8495
    17.3371  17.3371  17.3587  17.3587  17.4439

          k =-0.5000-0.4741 0.3333 ( 62412 PWs)   bands (ev):

   -66.1013 -66.1013 -66.1013 -66.1013 -66.1008 -66.1008 -66.1008 -66.1008
   -30.5036 -30.5036 -30.5036 -30.5036 -30.5021 -30.5021 -30.5020 -30.5020
   -30.4129 -30.4129 -30.4129 -30.4129 -30.3894 -30.3894 -30.3893 -30.3893
   -30.3870 -30.3870 -30.3870 -30.3870 -30.3636 -30.3636 -30.3636 -30.3636
   -20.2524 -20.2524 -20.2524 -20.2524 -20.2524 -20.2524 -20.2524 -20.2524
   -20.2499 -20.2499 -20.2499 -20.2499 -20.2498 -20.2498 -20.2498 -20.2498
   -20.2394 -20.2394 -20.2394 -20.2394 -20.2388 -20.2388 -20.2388 -20.2388
   -20.2387 -20.2387 -20.2387 -20.2387 -20.2380 -20.2380 -20.2380 -20.2380
   -20.2283 -20.2283 -20.2283 -20.2283 -20.2281 -20.2281 -20.2281 -20.2281
   -20.2041 -20.2041 -20.2041 -20.2041 -20.2029 -20.2029 -20.2029 -20.2029
   -20.2022 -20.2022 -20.2022 -20.2022 -20.2010 -20.2010 -20.2010 -20.2010
    -9.1934  -9.1934  -9.1925  -9.1925  -8.8057  -8.8057  -8.8033  -8.8033
    -8.5543  -8.5543  -8.5502  -8.5502  -8.4094  -8.4094  -8.4033  -8.4033
    -8.3585  -8.3585  -8.3537  -8.3537  -8.1090  -8.1090  -8.1079  -8.1079
     2.2706   2.2707   2.2736   2.2736   2.9931   2.9931   3.0032   3.0032
     3.1012   3.1012   3.1104   3.1104   3.2390   3.2390   3.2683   3.2683
     3.3548   3.3548   3.3813   3.3813   3.6219   3.6219   3.6289   3.6289
     3.7703   3.7703   3.8007   3.8007   4.2512   4.2512   4.2730   4.2730
     4.3224   4.3225   4.3737   4.3737   4.4411   4.4411   4.5592   4.5592
     4.6359   4.6359   4.7888   4.7888   5.0625   5.0625   5.0734   5.0735
     7.0151   7.0151   7.0386   7.0386   7.1718   7.1718   7.1750   7.1750
     7.2522   7.2522   7.2928   7.2928   7.3051   7.3051   7.3726   7.3726
     7.4693   7.4693   7.5246   7.5246   7.6156   7.6156   7.6335   7.6335
    11.4326  11.4326  11.4666  11.4666  11.7518  11.7518  11.8242  11.8242
    12.1977  12.1977  12.2498  12.2498  12.3381  12.3381  12.3458  12.3458
    12.5077  12.5077  12.6143  12.6143  12.9891  12.9891  13.0676  13.0676
    16.4525  16.4525  16.5074  16.5074  17.0075  17.0075  17.0162  17.0162
    17.3129  17.3131  17.3822  17.3823  17.4115

          k =-0.5000-0.4741-0.5000 ( 62504 PWs)   bands (ev):

   -66.1011 -66.1011 -66.1011 -66.1010 -66.1010 -66.1010 -66.1010 -66.1010
   -30.5030 -30.5030 -30.5030 -30.5030 -30.5029 -30.5029 -30.5029 -30.5029
   -30.3889 -30.3889 -30.3888 -30.3888 -30.3885 -30.3885 -30.3884 -30.3884
   -30.3880 -30.3880 -30.3880 -30.3880 -30.3876 -30.3876 -30.3876 -30.3876
   -20.2524 -20.2524 -20.2524 -20.2524 -20.2524 -20.2524 -20.2524 -20.2524
   -20.2499 -20.2499 -20.2499 -20.2499 -20.2499 -20.2499 -20.2499 -20.2499
   -20.2389 -20.2389 -20.2389 -20.2389 -20.2388 -20.2388 -20.2388 -20.2388
   -20.2386 -20.2386 -20.2386 -20.2386 -20.2385 -20.2385 -20.2385 -20.2385
   -20.2282 -20.2282 -20.2282 -20.2282 -20.2282 -20.2282 -20.2282 -20.2282
   -20.2026 -20.2026 -20.2026 -20.2026 -20.2026 -20.2026 -20.2026 -20.2026
   -20.2025 -20.2025 -20.2025 -20.2025 -20.2025 -20.2025 -20.2025 -20.2025
    -8.9521  -8.9521  -8.9521  -8.9521  -8.9504  -8.9504  -8.9504  -8.9504
    -8.4223  -8.4223  -8.4223  -8.4223  -8.4197  -8.4197  -8.4197  -8.4197
    -8.3600  -8.3600  -8.3600  -8.3600  -8.3585  -8.3585  -8.3585  -8.3585
     2.9944   2.9944   2.9944   2.9944   2.9979   2.9979   2.9980   2.9980
     3.1198   3.1198   3.1198   3.1198   3.1244   3.1244   3.1244   3.1244
     3.4237   3.4237   3.4237   3.4237   3.4378   3.4378   3.4378   3.4378
     4.1465   4.1465   4.1465   4.1465   4.1493   4.1493   4.1493   4.1493
     4.3584   4.3584   4.3584   4.3584   4.3591   4.3591   4.3591   4.3591
     4.4437   4.4437   4.4437   4.4437   4.4476   4.4476   4.4476   4.4476
     7.1738   7.1738   7.1739   7.1739   7.1924   7.1924   7.1924   7.1925
     7.3093   7.3094   7.3094   7.3094   7.3114   7.3114   7.3114   7.3114
     7.5977   7.5977   7.5977   7.5977   7.6021   7.6021   7.6021   7.6021
    11.8271  11.8271  11.8271  11.8271  11.8285  11.8285  11.8285  11.8285
    12.2823  12.2823  12.2823  12.2823  12.2992  12.2992  12.2992  12.2992
    12.5341  12.5341  12.5341  12.5341  12.5415  12.5415  12.5415  12.5415
    17.1034  17.1034  17.1034  17.1034  17.1128  17.1128  17.1128  17.1128
    17.3741  17.3742  17.3751  17.3753  17.3783

     the Fermi energy is     9.6346 ev

!    total energy              =   -6260.74603763 Ry
     Harris-Foulkes estimate   =   -6260.74603763 Ry
     estimated scf accuracy    <          1.3E-09 Ry

     The total energy is the sum of the following terms:

     one-electron contribution =   -4734.73011090 Ry
     hartree contribution      =    2605.01434929 Ry
     xc contribution           =    -966.24823764 Ry
     ewald contribution        =   -3164.78201220 Ry
     smearing contrib. (-TS)   =      -0.00002617 Ry

     convergence has been achieved in  13 iterations

     Writing output data file Landau_2.save/
 
     init_run     :     46.53s CPU     48.77s WALL (       1 calls)
     electrons    :   1832.85s CPU   1868.18s WALL (       1 calls)

     Called by init_run:
     wfcinit      :     43.73s CPU     45.79s WALL (       1 calls)
     potinit      :      1.09s CPU      1.15s WALL (       1 calls)
     hinit0       :      1.49s CPU      1.56s WALL (       1 calls)

     Called by electrons:
     c_bands      :   1652.53s CPU   1684.91s WALL (      13 calls)
     sum_band     :    175.24s CPU    176.68s WALL (      13 calls)
     v_of_rho     :      1.44s CPU      1.54s WALL (      14 calls)
     mix_rho      :      2.38s CPU      3.06s WALL (      13 calls)

     Called by c_bands:
     init_us_2    :      8.00s CPU      8.67s WALL (      54 calls)
     cegterg      :   1446.98s CPU   1477.08s WALL (      26 calls)

     Called by sum_band:

     Called by *egterg:
     h_psi        :   1063.35s CPU   1078.56s WALL (     110 calls)
     g_psi        :      1.56s CPU      1.56s WALL (      82 calls)
     cdiaghg      :     18.23s CPU     18.35s WALL (     108 calls)

     Called by h_psi:
     h_psi:pot    :   1060.64s CPU   1069.12s WALL (     110 calls)
     h_psi:calbec :    171.06s CPU    175.71s WALL (     110 calls)
     vloc_psi     :    714.60s CPU    717.14s WALL (     110 calls)
     add_vuspsi   :    174.98s CPU    176.27s WALL (     110 calls)

     General routines
     calbec       :    171.06s CPU    175.71s WALL (     110 calls)
     fft          :      0.88s CPU      0.89s WALL (      42 calls)
     ffts         :      0.30s CPU      0.30s WALL (      13 calls)
     fftw         :    763.26s CPU    765.43s WALL (   33826 calls)
 
     Parallel routines
 
     PWSCF        :  31m29.73s CPU  32m11.48s WALL

 
   This run was terminated on:   1:40:22  22Nov2019            

=------------------------------------------------------------------------------=
   JOB DONE.
=------------------------------------------------------------------------------=
