
     Program PWSCF v.6.4.1 starts on 16Dec2019 at 21:49:50 

     This program is part of the open-source Quantum ESPRESSO suite
     for quantum simulation of materials; please cite
         "P. Giannozzi et al., J. Phys.:Condens. Matter 21 395502 (2009);
         "P. Giannozzi et al., J. Phys.:Condens. Matter 29 465901 (2017);
          URL http://www.quantum-espresso.org", 
     in publications or presentations arising from this work. More details at
     http://www.quantum-espresso.org/quote

     Parallel version (MPI), running on    40 processors

     MPI processes distributed on     2 nodes
     K-points division:     npool     =      40
     Reading input from scf.in

     Current dimensions of program PWSCF are:
     Max number of different atomic species (ntypx) = 10
     Max number of k-points (npk) =  40000
     Max angular momentum in pseudopotentials (lmaxx) =  3

     Subspace diagonalization in iterative solution of the eigenvalue problem:
     a serial algorithm will be used

     Message from routine setup:
     using ibrav=0 with symmetry is DISCOURAGED, use correct ibrav instead
 
     G-vector sticks info
     --------------------
     sticks:   dense  smooth     PW     G-vecs:    dense   smooth      PW
     Sum        3729    3729   1005               249037   249037   35153
 


     bravais-lattice index     =            0
     lattice parameter (alat)  =       9.8781  a.u.
     unit-cell volume          =    1402.7542 (a.u.)^3
     number of atoms/cell      =           16
     number of atomic types    =            2
     number of electrons       =       184.30
     number of Kohn-Sham states=          111
     kinetic-energy cutoff     =     120.0000  Ry
     charge density cutoff     =     480.0000  Ry
     convergence threshold     =      1.0E-08
     mixing beta               =       0.7000
     number of iterations used =            8  plain     mixing
     Exchange-correlation      = SLA PW NOGX NOGC ( 1  4  0  0 0 0)

     celldm(1)=   9.878093  celldm(2)=   0.000000  celldm(3)=   0.000000
     celldm(4)=   0.000000  celldm(5)=   0.000000  celldm(6)=   0.000000

     crystal axes: (cart. coord. in units of alat)
               a(1) = (   1.000000   0.000000   0.000000 )  
               a(2) = (   0.000000   1.000000   0.000000 )  
               a(3) = (   0.000000   0.000000   1.455332 )  

     reciprocal axes: (cart. coord. in units 2 pi/alat)
               b(1) = (  1.000000  0.000000  0.000000 )  
               b(2) = (  0.000000  1.000000  0.000000 )  
               b(3) = (  0.000000  0.000000  0.687128 )  


     PseudoPot. # 1 for W  read from file:
     /cluster/scratch/mnoe/QE/pps/W_ONCV_LDA-4.0.upf
     MD5 check sum: ba0307d5d4cd419d6f1d13dc49d7c13a
     Pseudo is Norm-conserving + core correction, Zval = 28.0
     Generated using ONCVPSP code by D. R. Hamann
     Using radial grid of 1380 points,  8 beta functions with: 
                l(1) =   0
                l(2) =   0
                l(3) =   1
                l(4) =   1
                l(5) =   2
                l(6) =   2
                l(7) =   3
                l(8) =   3

     PseudoPot. # 2 for O  read from file:
     /cluster/scratch/mnoe/QE/pps/O_ONCV_LDA-3.0.upf
     MD5 check sum: b55cdb4f45ae2203d24ad12cf8d61a31
     Pseudo is Norm-conserving + core correction, Zval =  6.0
     Generated using ONCVPSP code by D. R. Hamann
     Using radial grid of  926 points,  5 beta functions with: 
                l(1) =   0
                l(2) =   0
                l(3) =   1
                l(4) =   1
                l(5) =   2

     atomic species   valence    mass     pseudopotential
        W             28.00   183.84000     W ( 1.00)
        O              6.00    15.99940     O ( 1.00)

     16 Sym. Ops., with inversion, found (14 have fractional translation)



   Cartesian axes

     site n.     atom                  positions (alat units)
         1           W   tau(   1) = (   0.2500000   0.2500000   0.2976739  )
         2           W   tau(   2) = (   0.7500000   0.7500000   1.1576585  )
         3           W   tau(   3) = (   0.7500000   0.7500000   0.4299923  )
         4           W   tau(   4) = (   0.2500000   0.2500000   1.0253401  )
         5           O   tau(   5) = (   0.2500000   0.2500000   0.6781432  )
         6           O   tau(   6) = (   0.7500000   0.7500000   0.7771892  )
         7           O   tau(   7) = (   0.7500000   0.7500000   0.0495230  )
         8           O   tau(   8) = (   0.2500000   0.2500000   1.4058094  )
         9           O   tau(   9) = (   0.5196265   0.4803734   0.3638331  )
        10           O   tau(  10) = (   0.4803735   0.5196266   1.0914993  )
        11           O   tau(  11) = (  -0.0196265   1.0196266   0.3638331  )
        12           O   tau(  12) = (   1.0196265  -0.0196265   1.0914993  )
        13           O   tau(  13) = (   1.0196266   0.5196265   0.3638331  )
        14           O   tau(  14) = (  -0.0196265   0.4803735   1.0914993  )
        15           O   tau(  15) = (   0.4803734  -0.0196265   0.3638331  )
        16           O   tau(  16) = (   0.5196266   1.0196265   1.0914993  )

     number of k points=    60  gaussian smearing, width (Ry)=  0.0007
                       cart. coord. in units 2pi/alat
        k(    1) = (   0.0000000   0.0000000   0.0000000), wk =   0.0041152
        k(    2) = (   0.0000000   0.0000000   0.1145214), wk =   0.0082305
        k(    3) = (   0.0000000   0.0000000   0.2290428), wk =   0.0082305
        k(    4) = (   0.0000000   0.0000000  -0.3435641), wk =   0.0041152
        k(    5) = (   0.0000000   0.1111111   0.0000000), wk =   0.0164609
        k(    6) = (   0.0000000   0.1111111   0.1145214), wk =   0.0329218
        k(    7) = (   0.0000000   0.1111111   0.2290428), wk =   0.0329218
        k(    8) = (   0.0000000   0.1111111  -0.3435641), wk =   0.0164609
        k(    9) = (   0.0000000   0.2222222   0.0000000), wk =   0.0164609
        k(   10) = (   0.0000000   0.2222222   0.1145214), wk =   0.0329218
        k(   11) = (   0.0000000   0.2222222   0.2290428), wk =   0.0329218
        k(   12) = (   0.0000000   0.2222222  -0.3435641), wk =   0.0164609
        k(   13) = (   0.0000000   0.3333333   0.0000000), wk =   0.0164609
        k(   14) = (   0.0000000   0.3333333   0.1145214), wk =   0.0329218
        k(   15) = (   0.0000000   0.3333333   0.2290428), wk =   0.0329218
        k(   16) = (   0.0000000   0.3333333  -0.3435641), wk =   0.0164609
        k(   17) = (   0.0000000   0.4444444   0.0000000), wk =   0.0164609
        k(   18) = (   0.0000000   0.4444444   0.1145214), wk =   0.0329218
        k(   19) = (   0.0000000   0.4444444   0.2290428), wk =   0.0329218
        k(   20) = (   0.0000000   0.4444444  -0.3435641), wk =   0.0164609
        k(   21) = (   0.1111111   0.1111111   0.0000000), wk =   0.0164609
        k(   22) = (   0.1111111   0.1111111   0.1145214), wk =   0.0329218
        k(   23) = (   0.1111111   0.1111111   0.2290428), wk =   0.0329218
        k(   24) = (   0.1111111   0.1111111  -0.3435641), wk =   0.0164609
        k(   25) = (   0.1111111   0.2222222   0.0000000), wk =   0.0329218
        k(   26) = (   0.1111111   0.2222222   0.1145214), wk =   0.0658436
        k(   27) = (   0.1111111   0.2222222   0.2290428), wk =   0.0658436
        k(   28) = (   0.1111111   0.2222222  -0.3435641), wk =   0.0329218
        k(   29) = (   0.1111111   0.3333333   0.0000000), wk =   0.0329218
        k(   30) = (   0.1111111   0.3333333   0.1145214), wk =   0.0658436
        k(   31) = (   0.1111111   0.3333333   0.2290428), wk =   0.0658436
        k(   32) = (   0.1111111   0.3333333  -0.3435641), wk =   0.0329218
        k(   33) = (   0.1111111   0.4444444   0.0000000), wk =   0.0329218
        k(   34) = (   0.1111111   0.4444444   0.1145214), wk =   0.0658436
        k(   35) = (   0.1111111   0.4444444   0.2290428), wk =   0.0658436
        k(   36) = (   0.1111111   0.4444444  -0.3435641), wk =   0.0329218
        k(   37) = (   0.2222222   0.2222222   0.0000000), wk =   0.0164609
        k(   38) = (   0.2222222   0.2222222   0.1145214), wk =   0.0329218
        k(   39) = (   0.2222222   0.2222222   0.2290428), wk =   0.0329218
        k(   40) = (   0.2222222   0.2222222  -0.3435641), wk =   0.0164609
        k(   41) = (   0.2222222   0.3333333   0.0000000), wk =   0.0329218
        k(   42) = (   0.2222222   0.3333333   0.1145214), wk =   0.0658436
        k(   43) = (   0.2222222   0.3333333   0.2290428), wk =   0.0658436
        k(   44) = (   0.2222222   0.3333333  -0.3435641), wk =   0.0329218
        k(   45) = (   0.2222222   0.4444444   0.0000000), wk =   0.0329218
        k(   46) = (   0.2222222   0.4444444   0.1145214), wk =   0.0658436
        k(   47) = (   0.2222222   0.4444444   0.2290428), wk =   0.0658436
        k(   48) = (   0.2222222   0.4444444  -0.3435641), wk =   0.0329218
        k(   49) = (   0.3333333   0.3333333   0.0000000), wk =   0.0164609
        k(   50) = (   0.3333333   0.3333333   0.1145214), wk =   0.0329218
        k(   51) = (   0.3333333   0.3333333   0.2290428), wk =   0.0329218
        k(   52) = (   0.3333333   0.3333333  -0.3435641), wk =   0.0164609
        k(   53) = (   0.3333333   0.4444444   0.0000000), wk =   0.0329218
        k(   54) = (   0.3333333   0.4444444   0.1145214), wk =   0.0658436
        k(   55) = (   0.3333333   0.4444444   0.2290428), wk =   0.0658436
        k(   56) = (   0.3333333   0.4444444  -0.3435641), wk =   0.0329218
        k(   57) = (   0.4444444   0.4444444   0.0000000), wk =   0.0164609
        k(   58) = (   0.4444444   0.4444444   0.1145214), wk =   0.0329218
        k(   59) = (   0.4444444   0.4444444   0.2290428), wk =   0.0329218
        k(   60) = (   0.4444444   0.4444444  -0.3435641), wk =   0.0164609

     Dense  grid:   249037 G-vectors     FFT dimensions: (  72,  72, 108)

     Estimated max dynamical RAM per process >     887.45 MB

     Estimated total dynamical RAM >      34.67 GB

     Initial potential from superposition of free atoms

     starting charge  183.99828, renormalised to  184.30000
     Starting wfcs are  116 randomized atomic wfcs

     total cpu time spent up to now is       10.8 secs

     Self-consistent Calculation

     iteration #  1     ecut=   120.00 Ry     beta= 0.70
     Davidson diagonalization with overlap
     ethr =  1.00E-02,  avg # of iterations =  4.9

     total cpu time spent up to now is       46.1 secs

     total energy              =   -3126.47721478 Ry
     Harris-Foulkes estimate   =   -3132.12067566 Ry
     estimated scf accuracy    <       7.09714196 Ry

     iteration #  2     ecut=   120.00 Ry     beta= 0.70
     Davidson diagonalization with overlap
     ethr =  3.85E-03,  avg # of iterations =  3.4

     total cpu time spent up to now is       80.4 secs

     total energy              =   -3124.80107236 Ry
     Harris-Foulkes estimate   =   -3135.48926598 Ry
     estimated scf accuracy    <      28.80563095 Ry

     iteration #  3     ecut=   120.00 Ry     beta= 0.70
     Davidson diagonalization with overlap
     ethr =  3.85E-03,  avg # of iterations =  3.2

     total cpu time spent up to now is      112.0 secs

     total energy              =   -3130.25955520 Ry
     Harris-Foulkes estimate   =   -3130.39841984 Ry
     estimated scf accuracy    <       0.48577737 Ry

     iteration #  4     ecut=   120.00 Ry     beta= 0.70
     Davidson diagonalization with overlap
     ethr =  2.64E-04,  avg # of iterations =  2.3

     total cpu time spent up to now is      137.1 secs

     total energy              =   -3130.24444082 Ry
     Harris-Foulkes estimate   =   -3130.28985665 Ry
     estimated scf accuracy    <       0.12784944 Ry

     iteration #  5     ecut=   120.00 Ry     beta= 0.70
     Davidson diagonalization with overlap
     ethr =  6.94E-05,  avg # of iterations =  4.3

     total cpu time spent up to now is      165.2 secs

     total energy              =   -3130.25343216 Ry
     Harris-Foulkes estimate   =   -3130.26600141 Ry
     estimated scf accuracy    <       0.02919745 Ry

     iteration #  6     ecut=   120.00 Ry     beta= 0.70
     Davidson diagonalization with overlap
     ethr =  1.58E-05,  avg # of iterations =  4.5

     total cpu time spent up to now is      194.6 secs

     total energy              =   -3130.25929124 Ry
     Harris-Foulkes estimate   =   -3130.26097581 Ry
     estimated scf accuracy    <       0.00470208 Ry

     iteration #  7     ecut=   120.00 Ry     beta= 0.70
     Davidson diagonalization with overlap
     ethr =  2.55E-06,  avg # of iterations =  3.8

     total cpu time spent up to now is      222.7 secs

     total energy              =   -3130.25980623 Ry
     Harris-Foulkes estimate   =   -3130.25989768 Ry
     estimated scf accuracy    <       0.00015828 Ry

     iteration #  8     ecut=   120.00 Ry     beta= 0.70
     Davidson diagonalization with overlap
     ethr =  8.59E-08,  avg # of iterations =  3.2

     total cpu time spent up to now is      256.5 secs

     total energy              =   -3130.25987139 Ry
     Harris-Foulkes estimate   =   -3130.25988206 Ry
     estimated scf accuracy    <       0.00005193 Ry

     iteration #  9     ecut=   120.00 Ry     beta= 0.70
     Davidson diagonalization with overlap
     ethr =  2.82E-08,  avg # of iterations =  1.0

     total cpu time spent up to now is      280.2 secs

     total energy              =   -3130.25986601 Ry
     Harris-Foulkes estimate   =   -3130.25987360 Ry
     estimated scf accuracy    <       0.00001971 Ry

     iteration # 10     ecut=   120.00 Ry     beta= 0.70
     Davidson diagonalization with overlap
     ethr =  1.07E-08,  avg # of iterations =  2.8

     total cpu time spent up to now is      306.3 secs

     total energy              =   -3130.25986940 Ry
     Harris-Foulkes estimate   =   -3130.25986947 Ry
     estimated scf accuracy    <       0.00000012 Ry

     iteration # 11     ecut=   120.00 Ry     beta= 0.70
     Davidson diagonalization with overlap
     ethr =  6.76E-11,  avg # of iterations =  2.9

     total cpu time spent up to now is      339.6 secs

     total energy              =   -3130.25986946 Ry
     Harris-Foulkes estimate   =   -3130.25986947 Ry
     estimated scf accuracy    <       0.00000002 Ry

     iteration # 12     ecut=   120.00 Ry     beta= 0.70
     Davidson diagonalization with overlap
     ethr =  1.35E-11,  avg # of iterations =  2.0

     total cpu time spent up to now is      369.0 secs

     End of self-consistent calculation

          k = 0.0000 0.0000 0.0000 ( 31095 PWs)   bands (ev):

   -66.0787 -66.0782 -66.0773 -66.0768 -30.4396 -30.4366 -30.4118 -30.4118
   -30.4073 -30.4073 -30.3629 -30.3613 -30.3318 -30.3318 -30.3283 -30.3283
   -20.2370 -20.2369 -20.2369 -20.2368 -20.2221 -20.2221 -20.2220 -20.2220
   -20.2214 -20.2213 -20.2209 -20.2207 -20.2202 -20.2197 -20.2190 -20.2190
   -20.2190 -20.2190 -20.2128 -20.2124 -20.2105 -20.2105 -20.2095 -20.2095
   -20.2082 -20.2082 -20.2071 -20.2071  -9.9941  -9.5442  -9.1923  -8.8711
    -8.8463  -8.7521  -7.6969  -7.6658  -7.6658  -7.6436  -7.6436  -7.5454
     1.2036   1.2727   1.2774   1.3919   1.6355   1.6780   2.4984   2.4984
     2.5947   2.7122   4.0100   4.0100   4.9689   4.9689   5.1021   5.6900
     5.6900   6.0157   6.0157   6.0857   6.0996   6.0996   6.1616   6.6894
     6.6894   6.9770   7.2564   7.3138   7.3138   7.3530   7.3530   7.4231
     8.4392   8.4438   8.5124   8.5124   9.0884   9.1019   9.6547   9.6547
    12.5777  12.5777  13.4286  13.4286  13.5506  13.5637  13.5947  14.3165
    14.3165  14.5086  14.5100  14.8618  15.7439  16.4561  17.2316

          k = 0.0000 0.0000 0.1145 ( 31166 PWs)   bands (ev):

   -66.0787 -66.0782 -66.0773 -66.0768 -30.4346 -30.4316 -30.4115 -30.4115
   -30.4076 -30.4076 -30.3681 -30.3663 -30.3316 -30.3316 -30.3286 -30.3286
   -20.2370 -20.2369 -20.2369 -20.2368 -20.2221 -20.2221 -20.2220 -20.2220
   -20.2214 -20.2214 -20.2209 -20.2208 -20.2197 -20.2193 -20.2190 -20.2190
   -20.2190 -20.2190 -20.2134 -20.2129 -20.2104 -20.2104 -20.2095 -20.2095
   -20.2082 -20.2082 -20.2072 -20.2072  -9.9501  -9.5621  -9.1066  -8.8694
    -8.8480  -8.7083  -7.8157  -7.6731  -7.6643  -7.6643  -7.6451  -7.6451
     1.2730   1.2771   1.4387   1.6017   1.6343   1.7814   2.5693   2.5693
     2.6023   2.7041   3.8536   3.8536   4.8583   5.0184   5.0184   5.6829
     5.6829   5.7599   5.8010   5.8010   6.1316   6.3845   6.3845   6.6670
     6.6670   6.9952   7.2122   7.2371   7.3150   7.3150   7.3445   7.3445
     8.4360   8.4360   8.4396   8.4441   9.0895   9.1012   9.9038   9.9038
    12.4070  12.4070  13.4552  13.4552  13.5514  13.5628  13.8485  14.2181
    14.2181  14.5090  14.5103  15.1198  16.1477  16.1733  17.3073

          k = 0.0000 0.0000 0.2290 ( 31214 PWs)   bands (ev):

   -66.0786 -66.0783 -66.0772 -66.0769 -30.4206 -30.4179 -30.4107 -30.4107
   -30.4084 -30.4084 -30.3823 -30.3802 -30.3310 -30.3310 -30.3292 -30.3292
   -20.2370 -20.2369 -20.2369 -20.2368 -20.2221 -20.2221 -20.2220 -20.2220
   -20.2214 -20.2214 -20.2209 -20.2208 -20.2190 -20.2190 -20.2190 -20.2190
   -20.2184 -20.2180 -20.2147 -20.2143 -20.2102 -20.2102 -20.2096 -20.2096
   -20.2080 -20.2080 -20.2074 -20.2074  -9.8399  -9.6181  -8.8649  -8.8630
    -8.8525  -8.5674  -8.1204  -7.9822  -7.6603  -7.6603  -7.6492  -7.6492
     1.2740   1.2763   1.6061   1.6305   2.2100   2.4971   2.6234   2.6821
     2.7762   2.7762   3.4916   3.4916   4.1542   4.7721   5.1820   5.1820
     5.5948   5.5948   5.7691   5.7691   6.1230   6.1230   6.2685   6.8214
     7.0452   7.1657   7.1657   7.1848   7.3178   7.3178   7.3399   7.3399
     8.1747   8.1747   8.4407   8.4435   9.0925   9.0993  10.5138  10.5138
    11.9295  11.9295  13.5519  13.5519  13.5537  13.5603  13.9841  13.9841
    14.3666  14.5100  14.5107  15.5664  15.8233  17.1715  17.2399

          k = 0.0000 0.0000-0.3436 ( 31170 PWs)   bands (ev):

   -66.0784 -66.0784 -66.0771 -66.0771 -30.4095 -30.4095 -30.4095 -30.4095
   -30.4015 -30.4015 -30.3991 -30.3991 -30.3301 -30.3301 -30.3301 -30.3301
   -20.2369 -20.2369 -20.2368 -20.2368 -20.2221 -20.2221 -20.2221 -20.2221
   -20.2214 -20.2214 -20.2208 -20.2208 -20.2190 -20.2190 -20.2190 -20.2190
   -20.2166 -20.2166 -20.2162 -20.2162 -20.2099 -20.2099 -20.2099 -20.2099
   -20.2078 -20.2078 -20.2078 -20.2078  -9.7149  -9.7149  -8.8587  -8.8587
    -8.5061  -8.5061  -8.3166  -8.3166  -7.6547  -7.6547  -7.6547  -7.6547
     1.2752   1.2752   1.6234   1.6234   2.6525   2.6525   3.0989   3.0989
     3.0989   3.0989   3.1745   3.1745   3.5845   3.5845   5.4158   5.4158
     5.4158   5.4158   5.8669   5.8669   5.8669   5.8669   6.4961   6.4961
     7.1144   7.1144   7.3207   7.3207   7.3207   7.3207   7.7353   7.7353
     7.7353   7.7353   8.4422   8.4422   9.0962   9.0962  11.2496  11.2496
    11.2496  11.2496  13.5570  13.5570  13.7349  13.7349  13.7349  13.7349
    14.5107  14.5107  14.9496  14.9496  16.6304  16.6304  17.7343

          k = 0.0000 0.1111 0.0000 ( 31141 PWs)   bands (ev):

   -66.0787 -66.0781 -66.0774 -66.0768 -30.4401 -30.4368 -30.4098 -30.4094
   -30.4049 -30.4045 -30.3625 -30.3619 -30.3343 -30.3337 -30.3307 -30.3306
   -20.2370 -20.2369 -20.2369 -20.2368 -20.2223 -20.2222 -20.2221 -20.2220
   -20.2216 -20.2215 -20.2206 -20.2205 -20.2203 -20.2197 -20.2191 -20.2190
   -20.2190 -20.2189 -20.2129 -20.2125 -20.2105 -20.2104 -20.2094 -20.2094
   -20.2082 -20.2082 -20.2071 -20.2071  -9.9579  -9.4983  -9.2022  -8.8412
    -8.8165  -8.7414  -7.7576  -7.7277  -7.7111  -7.6888  -7.6507  -7.5488
     1.2118   1.3812   1.3833   1.3876   1.7514   1.7877   2.5310   2.5323
     2.6752   2.7880   3.9915   4.0099   4.7800   4.8465   5.0957   5.5525
     5.5762   5.8970   5.9662   6.1062   6.1090   6.1904   6.3059   6.6317
     6.6334   6.9570   7.0024   7.1023   7.1147   7.2625   7.3264   7.3374
     8.3786   8.3936   8.4902   8.5032   9.4125   9.4445   9.8068   9.8543
    12.6002  12.6136  13.2638  13.3075  13.5528  13.6167  13.7432  14.2365
    14.2387  14.6439  14.6652  14.9461  15.7135  16.6075  17.2642

          k = 0.0000 0.1111 0.1145 ( 31152 PWs)   bands (ev):

   -66.0786 -66.0782 -66.0774 -66.0769 -30.4351 -30.4318 -30.4095 -30.4091
   -30.4052 -30.4047 -30.3677 -30.3669 -30.3340 -30.3336 -30.3310 -30.3308
   -20.2370 -20.2369 -20.2369 -20.2368 -20.2223 -20.2222 -20.2220 -20.2220
   -20.2216 -20.2215 -20.2206 -20.2205 -20.2199 -20.2192 -20.2191 -20.2190
   -20.2189 -20.2189 -20.2134 -20.2130 -20.2104 -20.2104 -20.2095 -20.2094
   -20.2082 -20.2082 -20.2072 -20.2072  -9.9127  -9.5162  -9.1166  -8.8396
    -8.8182  -8.6988  -7.8402  -7.7260  -7.7097  -7.7021  -7.6903  -7.6627
     1.3817   1.3872   1.4610   1.6200   1.7501   1.8479   2.6000   2.6027
     2.6853   2.7804   3.8452   3.8639   4.8328   4.8503   4.8968   5.5529
     5.5738   5.6731   5.7330   5.7886   6.3250   6.3513   6.3533   6.6177
     6.6308   6.9712   6.9720   7.1136   7.1620   7.1869   7.2809   7.3286
     8.3747   8.3879   8.4163   8.4287   9.4177   9.4413  10.0281  10.0688
    12.4327  12.4473  13.2843  13.3386  13.5475  13.6227  13.9965  14.1365
    14.1472  14.6447  14.6590  15.1964  16.1423  16.2828  17.3630

          k = 0.0000 0.1111 0.2290 ( 31155 PWs)   bands (ev):

   -66.0785 -66.0783 -66.0773 -66.0770 -30.4217 -30.4182 -30.4089 -30.4083
   -30.4060 -30.4050 -30.3816 -30.3806 -30.3334 -30.3331 -30.3316 -30.3315
   -20.2370 -20.2369 -20.2369 -20.2368 -20.2223 -20.2222 -20.2220 -20.2220
   -20.2215 -20.2215 -20.2206 -20.2205 -20.2193 -20.2191 -20.2190 -20.2189
   -20.2182 -20.2179 -20.2147 -20.2143 -20.2101 -20.2101 -20.2096 -20.2095
   -20.2081 -20.2081 -20.2075 -20.2075  -9.7994  -9.5727  -8.8734  -8.8350
    -8.8227  -8.5613  -8.1323  -7.9854  -7.7214  -7.7056  -7.7046  -7.6944
     1.3829   1.3861   1.7146   1.7459   2.2127   2.4756   2.6956   2.7552
     2.8152   2.8273   3.4959   3.5157   4.1505   4.7703   5.0106   5.0652
     5.4908   5.5014   5.6376   5.6466   5.9949   6.0057   6.4646   6.8732
     6.9736   7.0001   7.1299   7.1524   7.1773   7.1989   7.2895   7.3329
     8.1486   8.1626   8.3890   8.3950   9.4251   9.4366  10.5917  10.6229
    11.9620  11.9803  13.3587  13.4377  13.5285  13.6486  13.8947  13.9351
    14.5151  14.6461  14.6513  15.7008  15.8937  17.2046  17.2436

          k = 0.0000 0.1111-0.3436 ( 31170 PWs)   bands (ev):

   -66.0784 -66.0784 -66.0771 -66.0771 -30.4093 -30.4093 -30.4072 -30.4072
   -30.3995 -30.3995 -30.3992 -30.3992 -30.3325 -30.3325 -30.3323 -30.3323
   -20.2369 -20.2369 -20.2369 -20.2369 -20.2223 -20.2223 -20.2220 -20.2220
   -20.2215 -20.2215 -20.2205 -20.2205 -20.2191 -20.2191 -20.2190 -20.2190
   -20.2165 -20.2165 -20.2162 -20.2162 -20.2098 -20.2098 -20.2098 -20.2098
   -20.2078 -20.2078 -20.2078 -20.2078  -9.6712  -9.6712  -8.8289  -8.8289
    -8.5171  -8.5171  -8.3147  -8.3147  -7.7144  -7.7144  -7.7000  -7.7000
     1.3845   1.3845   1.7375   1.7375   2.7268   2.7268   3.1003   3.1003
     3.1310   3.1310   3.1766   3.1766   3.5989   3.5990   5.2752   5.2752
     5.3139   5.3139   5.7195   5.7195   5.7372   5.7372   6.6502   6.6502
     6.9775   6.9775   7.1856   7.1856   7.2899   7.2899   7.7179   7.7179
     7.7335   7.7335   8.3918   8.3918   9.4313   9.4313  11.2969  11.2969
    11.3210  11.3210  13.4614  13.4614  13.6314  13.6314  13.7421  13.7421
    14.6478  14.6478  15.0918  15.0918  16.7038  16.7038  17.7630

          k = 0.0000 0.2222 0.0000 ( 31130 PWs)   bands (ev):

   -66.0785 -66.0780 -66.0775 -66.0770 -30.4408 -30.4376 -30.4040 -30.4025
   -30.3981 -30.3968 -30.3640 -30.3613 -30.3413 -30.3389 -30.3376 -30.3372
   -20.2370 -20.2369 -20.2369 -20.2368 -20.2226 -20.2225 -20.2220 -20.2219
   -20.2218 -20.2217 -20.2206 -20.2201 -20.2200 -20.2195 -20.2193 -20.2189
   -20.2189 -20.2188 -20.2129 -20.2126 -20.2103 -20.2102 -20.2094 -20.2093
   -20.2083 -20.2083 -20.2073 -20.2073  -9.8555  -9.3634  -9.2343  -8.7535
    -8.7290  -8.7064  -7.9513  -7.8947  -7.8373  -7.8148  -7.6447  -7.5586
     1.2286   1.3607   1.6905   1.7041   2.0723   2.0951   2.6233   2.6367
     2.9120   3.0179   3.9191   3.9687   4.4380   4.5603   5.0766   5.1844
     5.2178   5.6135   5.8023   6.1318   6.1394   6.1898   6.2717   6.2958
     6.5046   6.5946   6.7375   6.7427   7.0840   7.2688   7.3286   7.3708
     8.2323   8.2486   8.4069   8.4566  10.0428  10.1159  10.2025  10.3448
    12.6517  12.6989  12.9958  13.0273  13.3437  13.4149  14.0252  14.0448
    14.0940  15.1970  15.1989  15.2124  15.6208  17.0084  17.4160

          k = 0.0000 0.2222 0.1145 ( 31153 PWs)   bands (ev):

   -66.0785 -66.0780 -66.0775 -66.0770 -30.4359 -30.4326 -30.4039 -30.4022
   -30.3984 -30.3969 -30.3686 -30.3663 -30.3410 -30.3391 -30.3379 -30.3374
   -20.2370 -20.2369 -20.2369 -20.2368 -20.2226 -20.2225 -20.2220 -20.2219
   -20.2218 -20.2217 -20.2203 -20.2201 -20.2200 -20.2194 -20.2191 -20.2189
   -20.2188 -20.2187 -20.2134 -20.2131 -20.2102 -20.2101 -20.2094 -20.2093
   -20.2083 -20.2083 -20.2074 -20.2074  -9.8063  -9.3816  -9.1495  -8.7518
    -8.7307  -8.6679  -7.9880  -7.8922  -7.8358  -7.8163  -7.7393  -7.6748
     1.4898   1.6206   1.6915   1.7033   2.0706   2.1154   2.6971   2.7030
     2.9205   3.0109   3.8053   3.8609   4.4912   4.6117   4.8278   5.1912
     5.2229   5.3998   5.5427   5.8001   6.1150   6.1948   6.2833   6.3278
     6.5611   6.6004   6.7757   6.9903   7.0842   7.2534   7.3434   7.3805
     8.2311   8.2427   8.3327   8.3829  10.0601  10.1049  10.3720  10.4923
    12.5074  12.5597  13.0011  13.0380  13.3372  13.4198  13.9153  13.9486
    14.3718  15.1974  15.2091  15.4219  16.0472  16.6354  17.4338

          k = 0.0000 0.2222 0.2290 ( 31131 PWs)   bands (ev):

   -66.0784 -66.0781 -66.0774 -66.0771 -30.4229 -30.4190 -30.4042 -30.4014
   -30.3992 -30.3968 -30.3819 -30.3794 -30.3403 -30.3391 -30.3385 -30.3379
   -20.2370 -20.2369 -20.2369 -20.2368 -20.2226 -20.2225 -20.2219 -20.2219
   -20.2218 -20.2217 -20.2201 -20.2200 -20.2197 -20.2194 -20.2189 -20.2188
   -20.2180 -20.2179 -20.2147 -20.2144 -20.2100 -20.2099 -20.2094 -20.2094
   -20.2083 -20.2083 -20.2077 -20.2077  -9.6828  -9.4398  -8.9090  -8.7474
    -8.7351  -8.5411  -8.1947  -7.9925  -7.8844  -7.8318  -7.8300  -7.8204
     1.6941   1.7009   1.9972   2.0649   2.2211   2.4541   2.8782   2.9285
     2.9609   2.9969   3.5012   3.5672   4.1410   4.6827   4.7324   4.7978
     5.1998   5.2226   5.3033   5.3361   5.6763   5.7501   6.2592   6.2752
     6.8362   7.0391   7.1100   7.1450   7.2035   7.2396   7.3952   7.4021
     8.0833   8.1174   8.2467   8.2638  10.0788  10.0976  10.8256  10.9249
    12.0654  12.1301  13.0774  13.1304  13.3123  13.4368  13.6590  13.7277
    14.9144  15.1984  15.2037  16.0624  16.0897  17.0946  17.4338

          k = 0.0000 0.2222-0.3436 ( 31100 PWs)   bands (ev):

   -66.0783 -66.0783 -66.0772 -66.0772 -30.4086 -30.4086 -30.4004 -30.4004
   -30.4003 -30.4003 -30.3931 -30.3931 -30.3394 -30.3394 -30.3386 -30.3386
   -20.2369 -20.2369 -20.2369 -20.2369 -20.2226 -20.2225 -20.2219 -20.2219
   -20.2218 -20.2218 -20.2200 -20.2200 -20.2195 -20.2195 -20.2189 -20.2189
   -20.2164 -20.2164 -20.2161 -20.2161 -20.2097 -20.2096 -20.2096 -20.2096
   -20.2080 -20.2080 -20.2080 -20.2080  -9.5441  -9.5441  -8.7413  -8.7413
    -8.5588  -8.5587  -8.3073  -8.3073  -7.8691  -7.8691  -7.8261  -7.8261
     1.6975   1.6976   2.0519   2.0519   2.9424   2.9424   3.1114   3.1114
     3.1845   3.1845   3.2174   3.2174   3.6344   3.6344   4.9767   4.9767
     5.0523   5.0523   5.3656   5.3656   5.3954   5.3954   6.2678   6.2678
     6.9442   6.9442   7.2146   7.2146   7.3894   7.3894   7.6861   7.6861
     7.7270   7.7271   8.2506   8.2506  10.0900  10.0900  11.4461  11.4461
    11.5281  11.5281  13.1986  13.1986  13.3542  13.3542  13.5463  13.5463
    15.1999  15.1999  15.4784  15.4784  16.9053  16.9053  17.7967

          k = 0.0000 0.3333 0.0000 ( 31148 PWs)   bands (ev):

   -66.0784 -66.0778 -66.0777 -66.0771 -30.4410 -30.4386 -30.3953 -30.3919
   -30.3877 -30.3858 -30.3681 -30.3594 -30.3519 -30.3482 -30.3472 -30.3458
   -20.2370 -20.2369 -20.2369 -20.2368 -20.2228 -20.2227 -20.2223 -20.2222
   -20.2219 -20.2213 -20.2210 -20.2198 -20.2195 -20.2195 -20.2192 -20.2189
   -20.2188 -20.2188 -20.2129 -20.2127 -20.2101 -20.2099 -20.2093 -20.2092
   -20.2084 -20.2083 -20.2077 -20.2076  -9.7056  -9.2959  -9.1491  -8.6380
    -8.6141  -8.5900  -8.2336  -8.1191  -8.0194  -7.9966  -7.6303  -7.5736
     1.2487   1.3310   2.1486   2.1872   2.5120   2.5179   2.7581   2.7944
     3.3134   3.4109   3.7492   3.7812   4.1210   4.2356   4.6597   4.6959
     5.0693   5.2492   5.4835   5.5117   5.6359   6.1802   6.1896   6.3186
     6.3195   6.4033   6.4819   6.8476   7.1974   7.3495   7.4309   7.6819
     8.0274   8.0317   8.2428   8.3552  10.7197  10.7358  10.8479  10.9751
    12.4652  12.4778  12.8856  12.9154  12.9442  12.9813  13.7266  13.7873
    14.5248  15.4617  15.6257  16.0762  16.0790  17.4321  17.4915

          k = 0.0000 0.3333 0.1145 ( 31155 PWs)   bands (ev):

   -66.0783 -66.0779 -66.0776 -66.0772 -30.4362 -30.4337 -30.3956 -30.3916
   -30.3880 -30.3859 -30.3720 -30.3640 -30.3517 -30.3484 -30.3474 -30.3468
   -20.2370 -20.2369 -20.2369 -20.2368 -20.2228 -20.2227 -20.2223 -20.2222
   -20.2218 -20.2213 -20.2207 -20.2198 -20.2195 -20.2195 -20.2189 -20.2188
   -20.2188 -20.2186 -20.2134 -20.2132 -20.2100 -20.2098 -20.2093 -20.2092
   -20.2085 -20.2084 -20.2078 -20.2077  -9.6493  -9.2137  -9.1678  -8.6125
    -8.6067  -8.5916  -8.2586  -8.1139  -8.0179  -7.9981  -7.7367  -7.6890
     1.5129   1.5958   2.1516   2.1851   2.5171   2.5212   2.8313   2.8530
     3.3184   3.4039   3.6850   3.7302   4.1792   4.2900   4.6716   4.7102
     4.8068   5.0697   5.3258   5.4588   5.4811   5.8224   5.8446   6.1268
     6.5809   6.6372   6.8404   6.9608   7.2108   7.3409   7.4419   7.6740
     8.0257   8.0269   8.1823   8.2922  10.7535  10.7912  10.8995  11.0594
    12.4773  12.5072  12.7792  12.8353  12.8853  12.9499  13.6046  13.6754
    14.8504  15.7950  15.8820  16.0760  16.0787  17.0639  17.5823

          k = 0.0000 0.3333 0.2290 ( 31108 PWs)   bands (ev):

   -66.0782 -66.0780 -66.0776 -66.0773 -30.4232 -30.4202 -30.3977 -30.3909
   -30.3887 -30.3858 -30.3840 -30.3752 -30.3510 -30.3491 -30.3481 -30.3479
   -20.2370 -20.2369 -20.2369 -20.2369 -20.2227 -20.2227 -20.2222 -20.2222
   -20.2216 -20.2214 -20.2203 -20.2199 -20.2195 -20.2195 -20.2188 -20.2188
   -20.2178 -20.2178 -20.2146 -20.2144 -20.2097 -20.2097 -20.2092 -20.2092
   -20.2085 -20.2085 -20.2080 -20.2079  -9.5064  -9.2294  -8.9829  -8.6083
    -8.5959  -8.4999  -8.3773  -8.0959  -8.0143  -8.0023  -7.9942  -7.9237
     2.1595   2.1788   2.2193   2.2495   2.5092   2.5958   3.0226   3.0612
     3.3233   3.3820   3.4843   3.5585   4.1336   4.3772   4.4565   4.5917
     4.7370   4.7612   4.9878   5.0763   5.3040   5.4697   5.4899   5.4943
     7.0786   7.1295   7.1534   7.2086   7.2516   7.3224   7.4940   7.6400
     7.9669   7.9822   8.0508   8.1248  10.7913  10.8112  11.2065  11.3631
    12.2417  12.3609  12.6896  12.6906  12.8859  12.9823  13.3154  13.4082
    15.4706  16.0753  16.0769  16.3771  16.5526  16.8971  17.5704

          k = 0.0000 0.3333-0.3436 ( 31100 PWs)   bands (ev):

   -66.0781 -66.0781 -66.0774 -66.0774 -30.4072 -30.4072 -30.4018 -30.4018
   -30.3898 -30.3898 -30.3838 -30.3838 -30.3501 -30.3501 -30.3483 -30.3483
   -20.2369 -20.2369 -20.2369 -20.2369 -20.2227 -20.2227 -20.2222 -20.2222
   -20.2215 -20.2214 -20.2200 -20.2200 -20.2195 -20.2195 -20.2188 -20.2188
   -20.2163 -20.2163 -20.2161 -20.2161 -20.2094 -20.2094 -20.2094 -20.2094
   -20.2083 -20.2083 -20.2083 -20.2083  -9.3458  -9.3458  -8.6611  -8.6611
    -8.6011  -8.6011  -8.2901  -8.2901  -8.0511  -8.0511  -8.0080  -8.0080
     2.1696   2.1696   2.4829   2.4829   3.0694   3.0694   3.2084   3.2084
     3.2692   3.2692   3.3934   3.3934   3.6522   3.6522   4.6670   4.6670
     4.7303   4.7303   4.9004   4.9004   4.9996   4.9996   5.4796   5.4796
     7.1997   7.1997   7.2925   7.2925   7.5373   7.5373   7.6367   7.6367
     7.7122   7.7122   8.0524   8.0524  10.8072  10.8072  11.7069  11.7069
    11.8495  11.8495  12.7665  12.7665  12.9739  12.9739  13.1554  13.1554
    16.0152  16.0152  16.0827  16.0827  17.1768  17.1768  17.6888

          k = 0.0000 0.4444 0.0000 ( 31158 PWs)   bands (ev):

   -66.0781 -66.0779 -66.0776 -66.0774 -30.4406 -30.4397 -30.3851 -30.3789
   -30.3753 -30.3748 -30.3730 -30.3650 -30.3611 -30.3596 -30.3565 -30.3521
   -20.2370 -20.2370 -20.2369 -20.2368 -20.2228 -20.2227 -20.2226 -20.2225
   -20.2217 -20.2213 -20.2208 -20.2203 -20.2192 -20.2191 -20.2190 -20.2189
   -20.2189 -20.2189 -20.2129 -20.2128 -20.2098 -20.2095 -20.2095 -20.2093
   -20.2083 -20.2082 -20.2080 -20.2079  -9.5406  -9.3972  -8.8717  -8.5566
    -8.5212  -8.4315  -8.4120  -8.3406  -8.2272  -8.2038  -7.6119  -7.5921
     1.2724   1.3003   2.6325   2.7724   2.8375   2.8460   2.8863   3.0522
     3.3590   3.4525   3.8850   3.9613   3.9961   3.9965   4.1384   4.2217
     4.5992   4.6958   5.0800   5.1703   5.6829   5.9392   6.2484   6.2570
     6.3237   6.3266   6.4907   6.6404   7.5353   7.5493   7.6722   7.7770
     7.7923   7.9673   7.9931   8.1926  11.3254  11.3716  11.5562  11.6567
    11.9592  11.9680  12.2813  12.3309  13.1186  13.2137  13.4054  13.4976
    14.9184  15.2301  16.2138  16.8358  17.0922  17.1910  17.6100

          k = 0.0000 0.4444 0.1145 ( 31139 PWs)   bands (ev):

   -66.0781 -66.0779 -66.0776 -66.0774 -30.4358 -30.4348 -30.3861 -30.3786
   -30.3777 -30.3751 -30.3731 -30.3648 -30.3614 -30.3603 -30.3597 -30.3545
   -20.2370 -20.2369 -20.2369 -20.2369 -20.2228 -20.2227 -20.2226 -20.2225
   -20.2215 -20.2211 -20.2208 -20.2203 -20.2192 -20.2191 -20.2189 -20.2189
   -20.2187 -20.2186 -20.2133 -20.2132 -20.2097 -20.2095 -20.2094 -20.2092
   -20.2084 -20.2083 -20.2081 -20.2080  -9.4744  -9.3212  -8.8912  -8.5777
    -8.4999  -8.4301  -8.4131  -8.3297  -8.2256  -8.2053  -7.7229  -7.7058
     1.5374   1.5656   2.6456   2.7667   2.8676   2.8737   2.9452   3.0482
     3.3385   3.4226   3.8882   3.9679   4.0400   4.0533   4.1729   4.2527
     4.5761   4.6940   4.8326   4.9193   5.3179   5.5207   5.9012   5.9955
     6.6423   6.7220   6.7296   6.8348   7.5277   7.5541   7.6609   7.7686
     7.7943   7.9421   7.9545   8.1467  11.3839  11.4167  11.5707  11.6965
    12.0058  12.0114  12.2874  12.3478  12.9673  13.0704  13.2681  13.3696
    15.2943  15.6356  16.3249  16.8874  17.0871  17.2044  17.4146

          k = 0.0000 0.4444 0.2290 ( 31134 PWs)   bands (ev):

   -66.0780 -66.0778 -66.0777 -66.0775 -30.4226 -30.4215 -30.3916 -30.3871
   -30.3779 -30.3758 -30.3731 -30.3681 -30.3640 -30.3621 -30.3600 -30.3584
   -20.2369 -20.2369 -20.2369 -20.2369 -20.2227 -20.2227 -20.2226 -20.2225
   -20.2212 -20.2209 -20.2208 -20.2204 -20.2191 -20.2191 -20.2189 -20.2189
   -20.2177 -20.2177 -20.2145 -20.2145 -20.2094 -20.2093 -20.2091 -20.2091
   -20.2086 -20.2086 -20.2084 -20.2083  -9.3014  -9.1140  -8.9596  -8.6599
    -8.4265  -8.4236  -8.4164  -8.2887  -8.2215  -8.2095  -7.9854  -7.9647
     2.2445   2.2619   2.6783   2.7478   2.9354   2.9373   3.0634   3.1158
     3.2743   3.3166   3.8918   3.9561   4.1493   4.2148   4.2211   4.2967
     4.3350   4.3646   4.6571   4.6908   4.8502   5.0080   5.1496   5.2743
     7.1445   7.1663   7.1669   7.1933   7.5031   7.5479   7.6441   7.7298
     7.7791   7.8489   7.8649   8.0091  11.4854  11.4885  11.6981  11.8802
    12.1010  12.1373  12.3273  12.4344  12.5895  12.7035  12.9315  13.0516
    16.0679  16.5550  16.7466  17.0204  17.0204  17.1072  17.2913

          k = 0.0000 0.4444-0.3436 ( 31116 PWs)   bands (ev):

   -66.0779 -66.0779 -66.0776 -66.0776 -30.4055 -30.4055 -30.4036 -30.4036
   -30.3769 -30.3769 -30.3723 -30.3723 -30.3631 -30.3631 -30.3600 -30.3600
   -20.2369 -20.2369 -20.2369 -20.2369 -20.2227 -20.2227 -20.2225 -20.2225
   -20.2210 -20.2210 -20.2205 -20.2205 -20.2191 -20.2191 -20.2189 -20.2189
   -20.2162 -20.2162 -20.2161 -20.2161 -20.2091 -20.2091 -20.2090 -20.2090
   -20.2087 -20.2087 -20.2086 -20.2086  -9.1005  -9.1005  -8.8514  -8.8513
    -8.4213  -8.4213  -8.2562  -8.2562  -8.2144  -8.2144  -8.1838  -8.1838
     2.7162   2.7162   2.8729   2.8729   3.0400   3.0400   3.1609   3.1609
     3.3074   3.3074   3.5227   3.5227   3.9466   3.9466   4.4414   4.4414
     4.5213   4.5213   4.5744   4.5744   4.6798   4.6798   4.7371   4.7371
     7.3959   7.3959   7.4453   7.4453   7.5504   7.5504   7.5684   7.5684
     7.7385   7.7385   7.8612   7.8612  11.5084  11.5084  12.0210  12.0210
    12.2242  12.2242  12.2778  12.2778  12.5407  12.5407  12.7024  12.7024
    16.6208  16.6208  17.0347  17.0347  17.2300  17.2300  17.6132

          k = 0.1111 0.1111 0.0000 ( 31149 PWs)   bands (ev):

   -66.0786 -66.0781 -66.0774 -66.0769 -30.4402 -30.4371 -30.4123 -30.4078
   -30.4027 -30.3969 -30.3627 -30.3621 -30.3405 -30.3379 -30.3313 -30.3278
   -20.2370 -20.2369 -20.2369 -20.2368 -20.2222 -20.2222 -20.2222 -20.2221
   -20.2217 -20.2216 -20.2205 -20.2204 -20.2202 -20.2195 -20.2192 -20.2190
   -20.2189 -20.2188 -20.2129 -20.2125 -20.2105 -20.2102 -20.2095 -20.2093
   -20.2084 -20.2081 -20.2073 -20.2071  -9.9268  -9.4607  -9.2128  -8.8209
    -8.7809  -8.7188  -7.8837  -7.8591  -7.6738  -7.6631  -7.6512  -7.5519
     1.2122   1.3765   1.3857   1.3945   1.9643   1.9827   2.4924   2.6291
     2.7556   2.8620   3.9565   3.9940   4.4949   4.9668   5.0892   5.2356
     5.6412   5.7457   5.9574   6.0793   6.1532   6.2129   6.3530   6.4833
     6.6905   6.8358   6.9091   6.9357   7.0836   7.1735   7.2458   7.3776
     8.3046   8.3361   8.4267   8.5262   9.6684   9.6924   9.7319  10.2581
    12.5523  12.7127  12.9692  13.4289  13.4938  13.5335  13.8379  14.0426
    14.3178  14.7684  14.8411  15.0351  15.6797  16.7932  17.2963

          k = 0.1111 0.1111 0.1145 ( 31151 PWs)   bands (ev):

   -66.0786 -66.0781 -66.0774 -66.0769 -30.4352 -30.4321 -30.4120 -30.4081
   -30.4026 -30.3971 -30.3676 -30.3672 -30.3405 -30.3381 -30.3311 -30.3281
   -20.2370 -20.2369 -20.2369 -20.2368 -20.2222 -20.2222 -20.2222 -20.2221
   -20.2217 -20.2216 -20.2204 -20.2202 -20.2200 -20.2192 -20.2191 -20.2189
   -20.2189 -20.2188 -20.2134 -20.2130 -20.2104 -20.2102 -20.2095 -20.2093
   -20.2084 -20.2081 -20.2074 -20.2072  -9.8805  -9.4786  -9.1275  -8.8146
    -8.7827  -8.6819  -7.9194  -7.8571  -7.7538  -7.6740  -7.6716  -7.6527
     1.3645   1.3852   1.4974   1.6410   1.9627   2.0086   2.5630   2.6922
     2.7705   2.8546   3.8372   3.8496   4.5381   4.8416   5.0229   5.2455
     5.4878   5.6560   5.7368   5.7946   6.1842   6.3747   6.3968   6.5947
     6.6339   6.8802   6.9058   6.9715   7.0862   7.2200   7.2305   7.2585
     8.3035   8.3317   8.3653   8.4403   9.6969   9.7222   9.9240  10.4170
    12.3960  12.5490  12.9935  13.4488  13.4873  13.5463  13.9476  14.0694
    14.2197  14.7623  14.8550  15.2815  16.1072  16.4427  17.4311

          k = 0.1111 0.1111 0.2290 ( 31133 PWs)   bands (ev):

   -66.0785 -66.0782 -66.0773 -66.0770 -30.4218 -30.4184 -30.4112 -30.4090
   -30.4024 -30.3974 -30.3811 -30.3807 -30.3402 -30.3387 -30.3305 -30.3287
   -20.2370 -20.2369 -20.2369 -20.2368 -20.2222 -20.2222 -20.2222 -20.2221
   -20.2217 -20.2216 -20.2203 -20.2203 -20.2195 -20.2193 -20.2188 -20.2188
   -20.2182 -20.2179 -20.2147 -20.2143 -20.2102 -20.2099 -20.2096 -20.2094
   -20.2083 -20.2080 -20.2077 -20.2074  -9.7648  -9.5351  -8.8853  -8.8043
    -8.7879  -8.5528  -8.1543  -7.9893  -7.8514  -7.8195  -7.6682  -7.6569
     1.3787   1.3839   1.9134   1.9576   2.2161   2.4742   2.7634   2.7687
     2.8400   2.9312   3.4922   3.5330   4.1468   4.7203   4.7587   5.1875
     5.2799   5.3002   5.5945   5.6589   5.7620   6.1069   6.5022   6.8743
     6.8857   6.9033   7.0463   7.0750   7.1512   7.1879   7.2947   7.3048
     8.1161   8.1553   8.3302   8.3417   9.7054   9.7196  10.5272  10.8639
    11.9307  12.0972  13.0950  13.4235  13.5500  13.5645  13.7454  13.9865
    14.4970  14.7462  14.9405  15.8676  15.9760  17.1620  17.3274

          k = 0.1111 0.1111-0.3436 ( 31180 PWs)   bands (ev):

   -66.0784 -66.0784 -66.0772 -66.0772 -30.4101 -30.4101 -30.4061 -30.4061
   -30.3998 -30.3997 -30.3951 -30.3951 -30.3395 -30.3395 -30.3296 -30.3296
   -20.2369 -20.2369 -20.2369 -20.2369 -20.2222 -20.2222 -20.2221 -20.2221
   -20.2217 -20.2217 -20.2203 -20.2203 -20.2193 -20.2193 -20.2188 -20.2188
   -20.2165 -20.2165 -20.2162 -20.2162 -20.2099 -20.2099 -20.2096 -20.2096
   -20.2080 -20.2080 -20.2078 -20.2078  -9.6344  -9.6344  -8.7954  -8.7954
    -8.5311  -8.5311  -8.3121  -8.3121  -7.8414  -7.8414  -7.6625  -7.6625
     1.3817   1.3818   1.9472   1.9472   2.7988   2.7988   3.0984   3.0984
     3.1487   3.1487   3.1871   3.1871   3.6124   3.6124   5.0184   5.0184
     5.3451   5.3451   5.4718   5.4718   5.8231   5.8231   6.6742   6.6742
     6.8918   6.8918   7.0676   7.0676   7.3006   7.3006   7.7140   7.7140
     7.7209   7.7209   8.3349   8.3349   9.7134   9.7134  11.2571  11.2571
    11.4802  11.4802  13.2706  13.2706  13.6009  13.6009  13.7434  13.7434
    14.7028  14.7028  15.3055  15.3055  16.7892  16.7892  17.7975

          k = 0.1111 0.2222 0.0000 ( 31114 PWs)   bands (ev):

   -66.0785 -66.0780 -66.0775 -66.0770 -30.4405 -30.4377 -30.4106 -30.4057
   -30.3927 -30.3857 -30.3658 -30.3608 -30.3491 -30.3486 -30.3331 -30.3298
   -20.2370 -20.2369 -20.2369 -20.2368 -20.2226 -20.2225 -20.2221 -20.2221
   -20.2219 -20.2218 -20.2206 -20.2201 -20.2197 -20.2195 -20.2192 -20.2191
   -20.2187 -20.2186 -20.2129 -20.2126 -20.2105 -20.2099 -20.2095 -20.2091
   -20.2085 -20.2081 -20.2076 -20.2071  -9.8379  -9.3505  -9.2471  -8.7747
    -8.6770  -8.6371  -8.1142  -8.0599  -7.7325  -7.7221  -7.6443  -7.5611
     1.2277   1.3576   1.5194   1.5289   2.4080   2.4173   2.5324   2.7695
     2.9874   3.0871   3.7839   3.9291   4.2266   4.7279   4.8108   5.0736
     5.4507   5.5089   5.7694   6.0746   6.2105   6.2447   6.2985   6.3463
     6.4806   6.5492   6.6146   6.6459   7.0536   7.1682   7.2663   7.5475
     8.1372   8.1730   8.2993   8.5096   9.8426  10.2854  10.3370  10.8205
    12.4137  12.7145  12.8746  13.2646  13.2768  13.3753  13.7632  14.0345
    14.2406  15.1621  15.2815  15.4401  15.5762  17.2640  17.3890

          k = 0.1111 0.2222 0.1145 ( 31115 PWs)   bands (ev):

   -66.0785 -66.0780 -66.0775 -66.0770 -30.4356 -30.4328 -30.4104 -30.4060
   -30.3928 -30.3859 -30.3699 -30.3656 -30.3498 -30.3488 -30.3329 -30.3300
   -20.2370 -20.2369 -20.2369 -20.2368 -20.2225 -20.2225 -20.2221 -20.2221
   -20.2219 -20.2219 -20.2203 -20.2200 -20.2197 -20.2195 -20.2189 -20.2189
   -20.2186 -20.2186 -20.2134 -20.2131 -20.2104 -20.2099 -20.2095 -20.2091
   -20.2086 -20.2081 -20.2077 -20.2072  -9.7885  -9.3681  -9.1630  -8.7556
    -8.6793  -8.6163  -8.1350  -8.0567  -7.7725  -7.7310  -7.7073  -7.6759
     1.4524   1.5187   1.5471   1.6489   2.4178   2.4197   2.5990   2.8320
     2.9976   3.0799   3.7140   3.8383   4.2267   4.7442   4.8193   4.8740
     5.2354   5.4571   5.5882   5.8181   5.9471   6.2913   6.3432   6.3810
     6.5960   6.6117   6.6682   6.8339   7.0608   7.1804   7.2122   7.5452
     8.1386   8.1679   8.2440   8.4231  10.0525  10.2907  10.3418  10.9308
    12.3691  12.6354  12.7271  13.2529  13.2768  13.3952  13.6575  14.1414
    14.2791  15.1508  15.4138  15.5604  15.9988  16.8302  17.5100

          k = 0.1111 0.2222 0.2290 ( 31125 PWs)   bands (ev):

   -66.0784 -66.0781 -66.0774 -66.0771 -30.4224 -30.4192 -30.4097 -30.4066
   -30.3941 -30.3862 -30.3824 -30.3775 -30.3504 -30.3494 -30.3323 -30.3306
   -20.2370 -20.2369 -20.2369 -20.2368 -20.2225 -20.2225 -20.2220 -20.2220
   -20.2219 -20.2219 -20.2199 -20.2199 -20.2197 -20.2196 -20.2187 -20.2186
   -20.2180 -20.2178 -20.2147 -20.2144 -20.2101 -20.2097 -20.2096 -20.2091
   -20.2085 -20.2081 -20.2080 -20.2075  -9.6648  -9.4246  -8.9254  -8.7204
    -8.6863  -8.5205  -8.2624  -8.0461  -7.9997  -7.9340  -7.7266  -7.7130
     1.5082   1.5168   2.2113   2.2667   2.4129   2.5397   2.8068   2.9761
     3.0608   3.0731   3.4895   3.5311   4.1392   4.3958   4.6662   4.8040
     5.0491   5.0868   5.3531   5.4452   5.5382   5.9661   6.3357   6.3515
     6.7193   6.9503   7.0252   7.0551   7.1383   7.2032   7.3532   7.5290
     8.0272   8.0989   8.1714   8.2184  10.2961  10.3094  10.6376  11.2631
    11.9697  12.3130  12.7070  13.1710  13.2903  13.4398  13.4880  13.9059
    14.7124  15.1100  15.5370  16.2138  16.2909  17.0276  17.5501

          k = 0.1111 0.2222-0.3436 ( 31136 PWs)   bands (ev):

   -66.0782 -66.0782 -66.0773 -66.0773 -30.4097 -30.4097 -30.4032 -30.4032
   -30.4007 -30.4007 -30.3854 -30.3854 -30.3501 -30.3501 -30.3315 -30.3315
   -20.2369 -20.2369 -20.2369 -20.2369 -20.2225 -20.2225 -20.2220 -20.2220
   -20.2219 -20.2219 -20.2198 -20.2198 -20.2196 -20.2196 -20.2187 -20.2187
   -20.2164 -20.2164 -20.2161 -20.2161 -20.2098 -20.2098 -20.2094 -20.2094
   -20.2083 -20.2083 -20.2078 -20.2078  -9.5270  -9.5269  -8.6989  -8.6987
    -8.5845  -8.5842  -8.3024  -8.3021  -8.0215  -8.0212  -7.7204  -7.7203
     1.5134   1.5139   2.3928   2.3932   2.9972   3.0011   3.1067   3.1236
     3.1677   3.1680   3.2286   3.2433   3.6264   3.6286   4.7009   4.7183
     4.9537   4.9633   5.2696   5.3231   5.6081   5.6576   6.3445   6.3482
     6.8379   6.8619   7.0303   7.0461   7.4540   7.4569   7.6788   7.6849
     7.7028   7.7083   8.1780   8.1788  10.3073  10.3083  11.3183  11.3253
    11.7647  11.7711  12.9199  12.9468  13.3006  13.3768  13.6305  13.6803
    14.9912  15.0024  15.8122  15.8262  17.0278  17.0288  17.8426

          k = 0.1111 0.3333 0.0000 ( 31129 PWs)   bands (ev):

   -66.0783 -66.0778 -66.0777 -66.0772 -30.4407 -30.4387 -30.4047 -30.3988
   -30.3811 -30.3730 -30.3726 -30.3616 -30.3585 -30.3566 -30.3387 -30.3362
   -20.2370 -20.2369 -20.2369 -20.2368 -20.2228 -20.2227 -20.2224 -20.2223
   -20.2219 -20.2215 -20.2209 -20.2200 -20.2198 -20.2192 -20.2191 -20.2189
   -20.2185 -20.2185 -20.2129 -20.2127 -20.2103 -20.2096 -20.2096 -20.2090
   -20.2087 -20.2081 -20.2080 -20.2073  -9.7055  -9.3121  -9.1746  -8.7120
    -8.5138  -8.4897  -8.3888  -8.2784  -7.8788  -7.8743  -7.6294  -7.5752
     1.2502   1.3312   1.8408   1.8419   2.6114   2.8137   2.8630   2.9865
     3.3909   3.3915   3.4888   3.8405   4.1002   4.2181   4.4944   4.9965
     5.0844   5.2648   5.4001   5.6750   5.9017   6.0963   6.1912   6.2830
     6.2985   6.3726   6.5590   6.9853   6.9984   7.1901   7.2786   7.8555
     7.9161   7.9332   8.0953   8.4394  10.2650  10.9593  11.0157  11.4303
    11.9609  12.7522  12.8130  12.8773  13.0087  13.2154  13.4479  14.0419
    14.3845  15.3969  15.7027  15.8394  16.2556  17.5153  17.5898

          k = 0.1111 0.3333 0.1145 ( 31126 PWs)   bands (ev):

   -66.0783 -66.0778 -66.0777 -66.0772 -30.4358 -30.4337 -30.4045 -30.3990
   -30.3818 -30.3752 -30.3728 -30.3625 -30.3618 -30.3590 -30.3387 -30.3364
   -20.2370 -20.2369 -20.2369 -20.2368 -20.2228 -20.2227 -20.2224 -20.2223
   -20.2218 -20.2215 -20.2207 -20.2200 -20.2196 -20.2192 -20.2190 -20.2187
   -20.2185 -20.2185 -20.2134 -20.2131 -20.2102 -20.2095 -20.2095 -20.2089
   -20.2087 -20.2081 -20.2081 -20.2074  -9.6502  -9.2315  -9.1918  -8.6869
    -8.5170  -8.4810  -8.4061  -8.2719  -7.8863  -7.8769  -7.7332  -7.6903
     1.5115   1.5911   1.8407   1.8549   2.6812   2.8347   2.9054   2.9858
     3.3647   3.3964   3.4826   3.8031   4.0707   4.2515   4.5591   4.7952
     5.0157   5.0906   5.2117   5.6685   5.6970   5.7649   5.8703   6.2353
     6.5471   6.6718   6.7378   7.0222   7.0602   7.1759   7.3020   7.8328
     7.9151   7.9279   8.0542   8.3612  10.4225  10.9629  11.0166  11.5079
    12.0172  12.5907  12.8029  12.8693  12.9853  13.1342  13.3219  13.9348
    14.6718  15.8025  15.8230  15.8731  16.2972  17.2324  17.6424

          k = 0.1111 0.3333 0.2290 ( 31144 PWs)   bands (ev):

   -66.0782 -66.0779 -66.0776 -66.0773 -30.4228 -30.4203 -30.4043 -30.3993
   -30.3867 -30.3849 -30.3732 -30.3703 -30.3623 -30.3621 -30.3385 -30.3370
   -20.2370 -20.2369 -20.2369 -20.2369 -20.2228 -20.2227 -20.2224 -20.2223
   -20.2217 -20.2215 -20.2203 -20.2200 -20.2194 -20.2192 -20.2187 -20.2186
   -20.2178 -20.2177 -20.2146 -20.2144 -20.2100 -20.2095 -20.2093 -20.2089
   -20.2088 -20.2083 -20.2082 -20.2077  -9.5112  -9.2488  -9.0077  -8.6162
    -8.5277  -8.4871  -8.4351  -8.2481  -8.0204  -7.9817  -7.8715  -7.8422
     1.8177   1.8373   2.2313   2.3285   2.8556   2.9034   2.9704   3.0662
     3.2815   3.3932   3.4651   3.5576   4.1461   4.1992   4.3666   4.4930
     4.7438   4.9961   5.0298   5.1231   5.1831   5.6116   5.6862   5.7708
     6.9704   7.0856   7.1060   7.1245   7.1658   7.2201   7.4159   7.7533
     7.8734   7.9014   7.9598   8.1377  10.8293  10.9706  11.0483  11.7508
    12.0615  12.2799  12.5986  12.8058  12.8629  13.0523  13.1975  13.6780
    15.1929  15.7484  16.2223  16.6282  16.7749  16.8198  17.6543

          k = 0.1111 0.3333-0.3436 ( 31134 PWs)   bands (ev):

   -66.0781 -66.0781 -66.0774 -66.0774 -30.4079 -30.4079 -30.4021 -30.4021
   -30.3973 -30.3973 -30.3731 -30.3731 -30.3627 -30.3627 -30.3378 -30.3378
   -20.2369 -20.2369 -20.2369 -20.2369 -20.2227 -20.2227 -20.2224 -20.2224
   -20.2216 -20.2216 -20.2201 -20.2201 -20.2193 -20.2193 -20.2186 -20.2186
   -20.2163 -20.2163 -20.2161 -20.2161 -20.2097 -20.2097 -20.2090 -20.2090
   -20.2087 -20.2087 -20.2080 -20.2080  -9.3577  -9.3577  -8.7094  -8.7088
    -8.5532  -8.5520  -8.2775  -8.2760  -8.1828  -8.1815  -7.8629  -7.8625
     1.8308   1.8318   2.8615   2.8630   3.0492   3.0509   3.1585   3.1842
     3.2470   3.2734   3.4482   3.4512   3.5768   3.5828   4.5085   4.5342
     4.6103   4.6202   4.9160   5.0343   5.1848   5.2846   5.6930   5.6939
     7.0691   7.0802   7.1532   7.1637   7.5650   7.5751   7.6155   7.6291
     7.6713   7.6845   7.9658   7.9721  10.9664  10.9750  11.4924  11.5202
    12.1397  12.1559  12.5069  12.5565  12.8532  12.9599  13.3714  13.4275
    15.5501  15.5770  16.4444  16.4764  17.3440  17.3802  17.6673

          k = 0.1111 0.4444 0.0000 ( 31141 PWs)   bands (ev):

   -66.0781 -66.0779 -66.0776 -66.0774 -30.4404 -30.4397 -30.3953 -30.3883
   -30.3839 -30.3753 -30.3701 -30.3625 -30.3589 -30.3541 -30.3468 -30.3463
   -20.2370 -20.2370 -20.2369 -20.2368 -20.2229 -20.2228 -20.2227 -20.2226
   -20.2216 -20.2213 -20.2210 -20.2204 -20.2195 -20.2193 -20.2188 -20.2186
   -20.2186 -20.2185 -20.2129 -20.2128 -20.2100 -20.2097 -20.2093 -20.2090
   -20.2086 -20.2083 -20.2079 -20.2076  -9.5544  -9.4156  -8.9443  -8.6759
    -8.6171  -8.4736  -8.3061  -8.2931  -8.0822  -8.0785  -7.6115  -7.5927
     1.2748   1.3023   2.2840   2.3152   2.7116   2.7669   2.8601   2.9085
     3.4539   3.7831   3.9563   3.9570   4.0316   4.1733   4.2983   4.4685
     4.6500   4.9559   5.1197   5.2671   5.7321   5.9056   6.1401   6.2021
     6.3687   6.4392   6.5463   6.7376   7.3770   7.3884   7.4958   7.6543
     7.6612   7.8130   8.1166   8.3105  10.8102  11.3887  11.6340  11.6990
    12.0228  12.2706  12.3428  12.5846  12.9180  13.1546  13.4645  13.7669
    14.7858  15.1340  16.2691  16.6644  16.9900  17.1628  17.4998

          k = 0.1111 0.4444 0.1145 ( 31141 PWs)   bands (ev):

   -66.0781 -66.0779 -66.0776 -66.0774 -30.4355 -30.4348 -30.3954 -30.3884
   -30.3846 -30.3755 -30.3723 -30.3658 -30.3591 -30.3565 -30.3475 -30.3465
   -20.2370 -20.2369 -20.2369 -20.2369 -20.2228 -20.2228 -20.2227 -20.2226
   -20.2215 -20.2211 -20.2210 -20.2205 -20.2193 -20.2191 -20.2188 -20.2186
   -20.2185 -20.2184 -20.2133 -20.2132 -20.2100 -20.2097 -20.2092 -20.2090
   -20.2087 -20.2084 -20.2080 -20.2077  -9.4905  -9.3422  -8.9612  -8.6926
    -8.5961  -8.4606  -8.3107  -8.2889  -8.0888  -8.0760  -7.7220  -7.7061
     1.5395   1.5670   2.2906   2.3125   2.7303   2.8336   2.8576   2.9580
     3.4299   3.7193   3.9440   3.9789   4.0784   4.2331   4.3195   4.4771
     4.6052   4.8685   4.9666   5.0277   5.4026   5.5010   5.9498   6.0767
     6.5640   6.6230   6.8079   6.9306   7.3787   7.3878   7.4990   7.6470
     7.6629   7.7930   8.0733   8.2473  10.9212  11.4646  11.6360  11.7014
    12.0773  12.2715  12.3421  12.6291  12.7600  13.0095  13.3301  13.6469
    15.1278  15.5190  16.3895  16.6449  17.0467  17.1869  17.4208

          k = 0.1111 0.4444 0.2290 ( 31152 PWs)   bands (ev):

   -66.0780 -66.0778 -66.0777 -66.0775 -30.4224 -30.4214 -30.3966 -30.3894
   -30.3887 -30.3807 -30.3759 -30.3729 -30.3596 -30.3595 -30.3480 -30.3471
   -20.2369 -20.2369 -20.2369 -20.2369 -20.2228 -20.2228 -20.2227 -20.2226
   -20.2213 -20.2210 -20.2208 -20.2205 -20.2190 -20.2189 -20.2188 -20.2186
   -20.2177 -20.2177 -20.2145 -20.2145 -20.2097 -20.2095 -20.2090 -20.2090
   -20.2087 -20.2087 -20.2082 -20.2080  -9.3263  -9.1456  -9.0200  -8.7567
    -8.5233  -8.4121  -8.3289  -8.2723  -8.1307  -8.0679  -7.9794  -7.9468
     2.1935   2.2446   2.3044   2.3814   2.7805   2.8342   3.0385   3.1127
     3.3438   3.5060   3.9420   3.9808   4.2213   4.2479   4.3579   4.4098
     4.4169   4.5340   4.6178   4.9633   4.9860   5.0891   5.2338   5.4422
     7.0668   7.1060   7.1795   7.2068   7.3602   7.4031   7.5312   7.6225
     7.6564   7.7392   7.9361   8.0567  11.2429  11.6290  11.6629  11.7553
    12.2253  12.2609  12.3543  12.3655  12.6542  12.7690  12.9972  13.3541
    15.7996  16.3582  16.5422  16.7707  17.1896  17.2616  17.3349

          k = 0.1111 0.4444-0.3436 ( 31114 PWs)   bands (ev):

   -66.0779 -66.0779 -66.0776 -66.0776 -30.4059 -30.4059 -30.4039 -30.4039
   -30.3879 -30.3879 -30.3759 -30.3759 -30.3600 -30.3600 -30.3477 -30.3477
   -20.2369 -20.2369 -20.2369 -20.2369 -20.2228 -20.2228 -20.2226 -20.2226
   -20.2211 -20.2211 -20.2206 -20.2206 -20.2189 -20.2189 -20.2187 -20.2187
   -20.2162 -20.2162 -20.2161 -20.2161 -20.2094 -20.2094 -20.2090 -20.2090
   -20.2087 -20.2087 -20.2083 -20.2083  -9.1431  -9.1430  -8.9112  -8.9109
    -8.3991  -8.3977  -8.2919  -8.2918  -8.2049  -8.2048  -8.0482  -8.0475
     2.2887   2.2899   2.7806   2.7809   3.0815   3.0833   3.1228   3.1338
     3.4173   3.4255   3.5315   3.5325   3.9686   3.9907   4.4188   4.4414
     4.5414   4.6303   4.6495   4.6842   4.8108   4.8833   5.0542   5.0552
     7.2780   7.2859   7.3550   7.3603   7.4857   7.5018   7.5217   7.5403
     7.7042   7.7193   7.7939   7.8077  11.5637  11.6345  11.7741  11.8605
    12.0767  12.1489  12.2703  12.4199  12.5866  12.6257  13.0038  13.0522
    16.2572  16.3053  16.8873  17.0043  17.1028  17.2846  17.5461

          k = 0.2222 0.2222 0.0000 ( 31108 PWs)   bands (ev):

   -66.0784 -66.0779 -66.0776 -66.0771 -30.4401 -30.4382 -30.4138 -30.4092
   -30.3808 -30.3729 -30.3721 -30.3621 -30.3590 -30.3557 -30.3301 -30.3266
   -20.2370 -20.2369 -20.2369 -20.2368 -20.2226 -20.2226 -20.2224 -20.2223
   -20.2221 -20.2219 -20.2206 -20.2201 -20.2199 -20.2192 -20.2192 -20.2188
   -20.2184 -20.2183 -20.2129 -20.2126 -20.2106 -20.2097 -20.2096 -20.2089
   -20.2088 -20.2080 -20.2079 -20.2070  -9.7848  -9.3036  -9.2878  -8.7776
    -8.5346  -8.4962  -8.3647  -8.2697  -7.6939  -7.6703  -7.6476  -7.5685
     1.2302   1.3477   1.4184   1.4420   2.4717   2.8399   2.8665   3.0183
     3.1997   3.2814   3.4180   3.8469   4.1597   4.2304   4.9403   5.0676
     5.4137   5.4448   5.6664   6.0347   6.1431   6.2392   6.3289   6.3432
     6.3543   6.4161   6.5289   6.6999   6.7609   6.9719   7.3800   7.8414
     7.8970   7.9624   8.1043   8.5339   9.6974  10.7804  10.8376  11.4189
    11.9410  12.6271  13.0984  13.1111  13.1180  13.4440  13.4657  14.0057
    14.3215  15.1898  15.4386  15.5331  15.9824  17.4721  17.6680

          k = 0.2222 0.2222 0.1145 ( 31128 PWs)   bands (ev):

   -66.0784 -66.0779 -66.0776 -66.0771 -30.4351 -30.4333 -30.4135 -30.4095
   -30.3817 -30.3749 -30.3723 -30.3630 -30.3623 -30.3586 -30.3299 -30.3269
   -20.2370 -20.2369 -20.2369 -20.2368 -20.2226 -20.2226 -20.2224 -20.2223
   -20.2221 -20.2219 -20.2204 -20.2199 -20.2199 -20.2192 -20.2190 -20.2186
   -20.2184 -20.2183 -20.2134 -20.2131 -20.2105 -20.2096 -20.2095 -20.2089
   -20.2088 -20.2081 -20.2080 -20.2071  -9.7343  -9.3199  -9.2065  -8.7485
    -8.5386  -8.4865  -8.3806  -8.2637  -7.7587  -7.6930  -7.6880  -7.6719
     1.3836   1.4178   1.5355   1.6392   2.5432   2.8621   2.9133   3.0088
     3.2066   3.2707   3.3958   3.8127   4.0767   4.2640   4.8039   4.9794
     5.1442   5.4406   5.5327   5.7479   5.8669   6.2476   6.3530   6.3950
     6.5046   6.5563   6.6557   6.7357   6.7792   7.0625   7.2419   7.8191
     7.9116   7.9567   8.0656   8.4422   9.9423  10.7840  10.8364  11.4961
    11.9965  12.4622  12.9789  13.0693  13.1260  13.3565  13.4603  14.2199
    14.2359  15.1696  15.7121  15.8432  16.0761  17.1692  17.7055

          k = 0.2222 0.2222 0.2290 ( 31154 PWs)   bands (ev):

   -66.0783 -66.0780 -66.0775 -66.0772 -30.4216 -30.4198 -30.4126 -30.4104
   -30.3877 -30.3844 -30.3727 -30.3703 -30.3628 -30.3623 -30.3292 -30.3275
   -20.2370 -20.2369 -20.2369 -20.2368 -20.2226 -20.2226 -20.2224 -20.2223
   -20.2220 -20.2219 -20.2201 -20.2199 -20.2195 -20.2192 -20.2184 -20.2183
   -20.2180 -20.2177 -20.2146 -20.2144 -20.2102 -20.2097 -20.2093 -20.2089
   -20.2088 -20.2083 -20.2080 -20.2074  -9.6089  -9.3730  -8.9801  -8.6658
    -8.5522  -8.4547  -8.4403  -8.2414  -8.0138  -7.9705  -7.6880  -7.6763
     1.4089   1.4163   2.2267   2.3592   2.7502   2.9299   2.9792   3.0449
     3.2234   3.2302   3.3344   3.5050   4.1485   4.1894   4.3786   4.4907
     5.0513   5.1058   5.2084   5.4304   5.5196   6.0368   6.3515   6.3551
     6.6462   6.6622   6.7554   6.9957   7.1194   7.2184   7.3310   7.7405
     7.8854   7.9269   7.9780   8.1831  10.5275  10.7929  10.8425  11.7386
    11.9197  12.2549  12.6061  12.8840  13.1388  13.2011  13.5527  13.9882
    14.6399  15.0974  16.0092  16.5773  16.7098  16.8166  17.8702

          k = 0.2222 0.2222-0.3436 ( 31114 PWs)   bands (ev):

   -66.0782 -66.0781 -66.0774 -66.0774 -30.4115 -30.4115 -30.4035 -30.4035
   -30.4015 -30.4015 -30.3727 -30.3727 -30.3631 -30.3631 -30.3284 -30.3284
   -20.2369 -20.2369 -20.2369 -20.2369 -20.2226 -20.2226 -20.2223 -20.2223
   -20.2220 -20.2220 -20.2200 -20.2200 -20.2193 -20.2193 -20.2184 -20.2184
   -20.2164 -20.2164 -20.2161 -20.2161 -20.2099 -20.2099 -20.2090 -20.2090
   -20.2087 -20.2087 -20.2078 -20.2078  -9.4717  -9.4717  -8.6769  -8.6769
    -8.5855  -8.5855  -8.2812  -8.2812  -8.1772  -8.1772  -7.6822  -7.6822
     1.4136   1.4136   2.8970   2.8970   3.0714   3.0714   3.0807   3.0807
     3.2317   3.2318   3.3032   3.3033   3.5432   3.5432   4.5180   4.5180
     4.6255   4.6255   5.3548   5.3548   5.6836   5.6836   6.3565   6.3565
     6.7182   6.7182   6.8038   6.8038   7.5600   7.5600   7.6423   7.6424
     7.6650   7.6650   7.9927   7.9927  10.7982  10.7982  11.2815  11.2815
    12.1393  12.1393  12.5361  12.5361  13.1560  13.1560  13.7373  13.7373
    14.9365  14.9365  16.3052  16.3052  17.3636  17.3636  17.8290

          k = 0.2222 0.3333 0.0000 ( 31140 PWs)   bands (ev):

   -66.0783 -66.0778 -66.0777 -66.0772 -30.4399 -30.4388 -30.4122 -30.4073
   -30.3846 -30.3763 -30.3706 -30.3591 -30.3580 -30.3544 -30.3317 -30.3284
   -20.2370 -20.2369 -20.2369 -20.2368 -20.2229 -20.2229 -20.2228 -20.2226
   -20.2219 -20.2216 -20.2208 -20.2202 -20.2200 -20.2194 -20.2187 -20.2184
   -20.2182 -20.2181 -20.2129 -20.2127 -20.2106 -20.2098 -20.2092 -20.2089
   -20.2088 -20.2084 -20.2078 -20.2071  -9.6979  -9.3610  -9.2092  -8.7535
    -8.6237  -8.4606  -8.3327  -8.3082  -7.7550  -7.7407  -7.6285  -7.5801
     1.2526   1.3301   1.5295   1.5470   2.5022   2.7110   2.8611   2.9244
     3.4884   3.6494   3.6557   4.0284   4.0300   4.2849   4.8029   5.0856
     5.1705   5.2756   5.4233   5.9951   6.0187   6.0363   6.0497   6.2231
     6.3945   6.4601   6.6535   6.7142   6.7921   7.0010   7.2505   7.6271
     7.6635   7.8326   8.1025   8.5097   9.8716  11.3559  11.3839  11.4177
    12.0132  12.6465  12.8253  12.8323  13.1668  13.2486  13.4999  14.1555
    14.2471  15.2007  15.4954  15.9256  16.6442  17.4858  17.7417

          k = 0.2222 0.3333 0.1145 ( 31129 PWs)   bands (ev):

   -66.0782 -66.0778 -66.0777 -66.0773 -30.4349 -30.4339 -30.4120 -30.4075
   -30.3851 -30.3764 -30.3734 -30.3634 -30.3582 -30.3565 -30.3315 -30.3286
   -20.2370 -20.2369 -20.2369 -20.2368 -20.2229 -20.2229 -20.2228 -20.2226
   -20.2218 -20.2216 -20.2207 -20.2202 -20.2197 -20.2191 -20.2187 -20.2183
   -20.2182 -20.2181 -20.2133 -20.2131 -20.2105 -20.2098 -20.2092 -20.2090
   -20.2087 -20.2085 -20.2078 -20.2072  -9.6446  -9.2855  -9.2243  -8.7224
    -8.6381  -8.4487  -8.3385  -8.3034  -7.7727  -7.7534  -7.7167  -7.6936
     1.4627   1.5289   1.5583   1.6471   2.5750   2.7277   2.8535   2.9827
     3.4777   3.6330   3.6443   3.8968   4.0881   4.2790   4.8367   4.8571
     5.1348   5.1522   5.2141   5.5858   5.9435   5.9889   6.0082   6.3537
     6.4428   6.5770   6.7270   6.8009   6.8179   7.0683   7.1917   7.6319
     7.6568   7.8115   8.0584   8.4204  10.0881  11.3581  11.4060  11.4763
    12.0704  12.4758  12.8067  12.8288  13.0399  13.2368  13.4124  14.1458
    14.4025  15.4683  15.5799  16.0968  16.7266  17.3676  17.7775

          k = 0.2222 0.3333 0.2290 ( 31143 PWs)   bands (ev):

   -66.0781 -66.0779 -66.0776 -66.0774 -30.4216 -30.4205 -30.4112 -30.4080
   -30.3891 -30.3843 -30.3768 -30.3725 -30.3588 -30.3587 -30.3309 -30.3292
   -20.2369 -20.2369 -20.2369 -20.2369 -20.2229 -20.2229 -20.2227 -20.2227
   -20.2217 -20.2216 -20.2204 -20.2203 -20.2191 -20.2187 -20.2183 -20.2182
   -20.2179 -20.2176 -20.2146 -20.2144 -20.2102 -20.2097 -20.2092 -20.2090
   -20.2087 -20.2085 -20.2080 -20.2075  -9.5127  -9.2745  -9.0830  -8.6947
    -8.6192  -8.4026  -8.3628  -8.2845  -8.0226  -7.9770  -7.7488  -7.7344
     1.5174   1.5270   2.2351   2.3518   2.7714   2.7990   2.8292   3.1496
     3.4063   3.4870   3.6270   3.6510   4.2388   4.2656   4.3590   4.4370
     4.9202   5.0064   5.1739   5.2184   5.2457   5.8374   6.0137   6.0904
     6.6671   6.7822   6.8267   7.0542   7.0787   7.2233   7.3262   7.6333
     7.6504   7.7460   7.9158   8.1591  10.6352  11.3626  11.4036  11.7118
    12.0221  12.2554  12.5697  12.8286  12.8927  12.9752  13.4515  13.9030
    14.8529  15.3765  16.3831  16.5257  17.0797  17.1113  17.6219

          k = 0.2222 0.3333-0.3436 ( 31136 PWs)   bands (ev):

   -66.0780 -66.0780 -66.0775 -66.0775 -30.4108 -30.4108 -30.4030 -30.4030
   -30.4014 -30.4014 -30.3766 -30.3765 -30.3591 -30.3591 -30.3301 -30.3301
   -20.2369 -20.2369 -20.2369 -20.2369 -20.2229 -20.2229 -20.2227 -20.2227
   -20.2217 -20.2217 -20.2203 -20.2203 -20.2188 -20.2188 -20.2182 -20.2182
   -20.2163 -20.2163 -20.2161 -20.2161 -20.2099 -20.2099 -20.2091 -20.2091
   -20.2087 -20.2087 -20.2078 -20.2078  -9.3716  -9.3716  -8.8429  -8.8427
    -8.4556  -8.4548  -8.2759  -8.2752  -8.2133  -8.2129  -7.7423  -7.7422
     1.5235   1.5240   2.7723   2.7726   3.0861   3.0898   3.1130   3.1287
     3.3808   3.3879   3.4936   3.5139   3.6338   3.6350   4.5088   4.5131
     4.6483   4.6494   5.0883   5.1565   5.4360   5.5081   6.0273   6.0317
     6.7425   6.7533   6.9309   6.9393   7.4975   7.5087   7.5448   7.5562
     7.6548   7.6635   7.8096   7.8201  11.2582  11.2916  11.4180  11.4618
    12.1265  12.1386  12.5702  12.5721  12.8473  12.8750  13.6308  13.6523
    15.1793  15.1926  16.7572  16.7655  17.2097  17.2386  17.7634

          k = 0.2222 0.4444 0.0000 ( 31131 PWs)   bands (ev):

   -66.0781 -66.0779 -66.0776 -66.0774 -30.4397 -30.4394 -30.4062 -30.4003
   -30.3965 -30.3895 -30.3648 -30.3616 -30.3461 -30.3450 -30.3375 -30.3348
   -20.2370 -20.2369 -20.2369 -20.2368 -20.2231 -20.2230 -20.2230 -20.2229
   -20.2215 -20.2212 -20.2211 -20.2207 -20.2198 -20.2196 -20.2183 -20.2182
   -20.2181 -20.2181 -20.2128 -20.2127 -20.2104 -20.2101 -20.2090 -20.2089
   -20.2088 -20.2087 -20.2075 -20.2073  -9.5854  -9.4653  -9.0611  -8.8622
    -8.6994  -8.6052  -8.1073  -8.0983  -7.9009  -7.8969  -7.6110  -7.5946
     1.2805   1.3068   1.8419   1.8454   2.2813   2.3100   2.6064   2.7665
     3.8308   4.0192   4.1066   4.1510   4.2313   4.5051   4.6539   4.7340
     4.8592   5.2826   5.4547   5.4836   5.8667   5.9083   6.0280   6.0547
     6.4789   6.5590   6.6664   6.9128   7.0520   7.0573   7.1795   7.3360
     7.3671   7.4972   8.3005   8.4340  10.2873  10.8213  11.9180  11.9641
    12.4198  12.4369  12.5717  12.7428  12.9157  12.9947  13.7737  14.0487
    14.4823  14.8668  16.0816  16.4354  16.8575  17.0691  17.3301

          k = 0.2222 0.4444 0.1145 ( 31122 PWs)   bands (ev):

   -66.0781 -66.0779 -66.0776 -66.0774 -30.4348 -30.4345 -30.4060 -30.4005
   -30.3965 -30.3897 -30.3691 -30.3663 -30.3466 -30.3453 -30.3374 -30.3350
   -20.2370 -20.2369 -20.2369 -20.2368 -20.2230 -20.2230 -20.2230 -20.2229
   -20.2214 -20.2211 -20.2210 -20.2207 -20.2195 -20.2193 -20.2183 -20.2182
   -20.2180 -20.2180 -20.2133 -20.2132 -20.2103 -20.2100 -20.2090 -20.2089
   -20.2088 -20.2087 -20.2076 -20.2074  -9.5266  -9.3984  -9.0754  -8.8762
    -8.6718  -8.5850  -8.1153  -8.0955  -7.9088  -7.8990  -7.7193  -7.7071
     1.5402   1.5669   1.8407   1.8613   2.2882   2.3071   2.6805   2.8388
     3.7781   3.8929   4.0896   4.1448   4.2688   4.5493   4.6566   4.6987
     4.8711   5.0587   5.1857   5.4743   5.5065   5.6565   6.0830   6.2413
     6.4529   6.4821   6.8916   7.0058   7.0596   7.0879   7.2038   7.3268
     7.3641   7.4951   8.2362   8.3540  10.4490  10.9364  11.9185  11.9612
    12.4186  12.4332  12.5779  12.6130  12.7635  13.0331  13.6515  13.9387
    14.7696  15.2032  16.0491  16.5739  16.8201  17.1657  17.3952

          k = 0.2222 0.4444 0.2290 ( 31155 PWs)   bands (ev):

   -66.0780 -66.0778 -66.0777 -66.0775 -30.4218 -30.4213 -30.4057 -30.4007
   -30.3973 -30.3899 -30.3817 -30.3784 -30.3469 -30.3458 -30.3371 -30.3356
   -20.2369 -20.2369 -20.2369 -20.2369 -20.2230 -20.2230 -20.2230 -20.2229
   -20.2213 -20.2212 -20.2209 -20.2207 -20.2188 -20.2185 -20.2184 -20.2182
   -20.2177 -20.2176 -20.2145 -20.2145 -20.2100 -20.2098 -20.2093 -20.2091
   -20.2087 -20.2084 -20.2079 -20.2077  -9.3800  -9.2267  -9.1244  -8.9267
    -8.5736  -8.5087  -8.1666  -8.0867  -8.0511  -7.9553  -7.8933  -7.8602
     1.8159   1.8373   2.1795   2.2983   2.3298   2.3832   2.9057   3.0566
     3.5447   3.5651   4.0668   4.1039   4.4128   4.4405   4.4543   4.5966
     4.6641   4.8276   4.9169   5.0906   5.4491   5.4794   5.5101   5.7580
     6.8240   6.9689   7.0098   7.1188   7.1541   7.2122   7.3028   7.3485
     7.4018   7.4940   8.0371   8.1141  10.8927  11.2722  11.9092  11.9474
    12.1470  12.2844  12.4227  12.4974  12.7554  13.1540  13.3548  13.6730
    15.3142  15.8869  15.9409  16.6702  16.9687  17.4347  17.5844

          k = 0.2222 0.4444-0.3436 ( 31182 PWs)   bands (ev):

   -66.0778 -66.0778 -66.0777 -66.0777 -30.4079 -30.4079 -30.4051 -30.4051
   -30.3969 -30.3969 -30.3884 -30.3884 -30.3465 -30.3465 -30.3364 -30.3364
   -20.2369 -20.2369 -20.2369 -20.2369 -20.2230 -20.2230 -20.2229 -20.2229
   -20.2212 -20.2212 -20.2208 -20.2208 -20.2184 -20.2184 -20.2182 -20.2182
   -20.2163 -20.2162 -20.2162 -20.2162 -20.2097 -20.2097 -20.2094 -20.2094
   -20.2083 -20.2083 -20.2080 -20.2080  -9.2252  -9.2251  -9.0410  -9.0409
    -8.3761  -8.3752  -8.3294  -8.3291  -8.0642  -8.0638  -7.8839  -7.8835
     1.8308   1.8316   2.2824   2.2829   3.1088   3.1130   3.1235   3.1324
     3.4508   3.4604   3.5277   3.5283   4.0669   4.1026   4.5496   4.5870
     4.8350   4.8460   5.0147   5.0311   5.1361   5.1789   5.5515   5.5556
     6.9476   6.9535   7.1678   7.1678   7.2287   7.2487   7.3838   7.3885
     7.7003   7.7090   7.7383   7.7494  11.4783  11.5016  11.7570  11.7805
    11.9355  11.9864  12.4229  12.4731  12.9995  13.0226  13.3705  13.3962
    15.7031  15.7277  16.3853  16.4232  17.2821  17.3538  17.6597

          k = 0.3333 0.3333 0.0000 ( 31124 PWs)   bands (ev):

   -66.0782 -66.0779 -66.0776 -66.0773 -30.4391 -30.4389 -30.4154 -30.4108
   -30.3970 -30.3900 -30.3653 -30.3604 -30.3458 -30.3445 -30.3287 -30.3253
   -20.2370 -20.2369 -20.2369 -20.2368 -20.2231 -20.2231 -20.2231 -20.2230
   -20.2217 -20.2215 -20.2209 -20.2205 -20.2200 -20.2196 -20.2182 -20.2180
   -20.2179 -20.2178 -20.2128 -20.2126 -20.2107 -20.2101 -20.2091 -20.2089
   -20.2087 -20.2086 -20.2075 -20.2070  -9.6692  -9.4384  -9.2046  -8.8420
    -8.7621  -8.6004  -8.1154  -8.1056  -7.7166  -7.6920  -7.6275  -7.5879
     1.2579   1.3239   1.4170   1.4471   2.2782   2.3063   2.4581   2.7706
     3.8553   3.9610   4.0261   4.1258   4.2086   4.8366   4.9516   5.1013
     5.1859   5.2995   5.4901   5.8755   5.9093   5.9572   6.1192   6.2825
     6.4906   6.5285   6.5506   6.5838   6.7079   6.9280   7.2397   7.3030
     7.3877   7.4978   8.2973   8.5322   9.7220  10.8191  11.8087  11.8586
    12.5514  12.6075  12.7195  12.7265  12.9332  13.3737  13.7842  14.0663
    14.3263  14.8853  15.3844  16.2659  16.8810  17.0928  17.6699

          k = 0.3333 0.3333 0.1145 ( 31148 PWs)   bands (ev):

   -66.0782 -66.0778 -66.0777 -66.0773 -30.4341 -30.4340 -30.4151 -30.4111
   -30.3970 -30.3902 -30.3698 -30.3653 -30.3462 -30.3448 -30.3285 -30.3255
   -20.2370 -20.2369 -20.2369 -20.2368 -20.2231 -20.2231 -20.2231 -20.2230
   -20.2216 -20.2215 -20.2208 -20.2205 -20.2196 -20.2192 -20.2182 -20.2180
   -20.2179 -20.2178 -20.2133 -20.2131 -20.2106 -20.2101 -20.2092 -20.2089
   -20.2088 -20.2085 -20.2076 -20.2071  -9.6167  -9.3709  -9.2184  -8.8552
    -8.7282  -8.5804  -8.1236  -8.1028  -7.7432  -7.7151  -7.7044  -7.6936
     1.3862   1.4166   1.5563   1.6252   2.2850   2.3033   2.5316   2.8444
     3.8360   3.9170   3.9562   3.9645   4.2769   4.8406   4.9943   5.0431
     5.1251   5.1408   5.2174   5.5030   6.0185   6.0648   6.1265   6.2387
     6.3769   6.5082   6.6137   6.6436   6.8146   7.0344   7.2540   7.2803
     7.2938   7.4951   8.2327   8.4389   9.9679  10.9357  11.8101  11.8560
    12.4353  12.5953  12.6720  12.7266  12.8249  13.4017  13.6671  14.2261
    14.3020  15.2188  15.3561  16.4398  16.8396  17.1840  17.7995

          k = 0.3333 0.3333 0.2290 ( 31151 PWs)   bands (ev):

   -66.0781 -66.0778 -66.0777 -66.0774 -30.4209 -30.4203 -30.4142 -30.4119
   -30.3977 -30.3903 -30.3830 -30.3778 -30.3464 -30.3453 -30.3278 -30.3261
   -20.2369 -20.2369 -20.2369 -20.2369 -20.2231 -20.2231 -20.2230 -20.2230
   -20.2216 -20.2215 -20.2207 -20.2206 -20.2188 -20.2182 -20.2181 -20.2179
   -20.2178 -20.2175 -20.2146 -20.2144 -20.2103 -20.2099 -20.2094 -20.2091
   -20.2086 -20.2083 -20.2078 -20.2074  -9.4881  -9.2642  -9.1981  -8.9030
    -8.6121  -8.5041  -8.1762  -8.0935  -8.0227  -7.9569  -7.7105  -7.6982
     1.4083   1.4152   2.1748   2.2946   2.3587   2.3828   2.7468   3.0675
     3.5055   3.6147   3.9037   3.9407   4.4159   4.4626   4.4797   4.8708
     5.0054   5.1008   5.1107   5.2735   5.4600   5.9032   6.1320   6.2117
     6.4222   6.5258   6.7002   6.9727   7.0211   7.2029   7.2627   7.2860
     7.3829   7.4851   8.0317   8.1644  10.5625  11.2729  11.8004  11.8489
    11.9792  12.3077  12.7279  12.7512  12.7635  13.3256  13.5497  13.9865
    14.7392  15.2609  15.9049  16.7057  16.8472  17.5449  17.5706

          k = 0.3333 0.3333-0.3436 ( 31150 PWs)   bands (ev):

   -66.0779 -66.0779 -66.0776 -66.0776 -30.4131 -30.4131 -30.4048 -30.4048
   -30.4016 -30.4016 -30.3886 -30.3886 -30.3460 -30.3460 -30.3270 -30.3270
   -20.2369 -20.2369 -20.2369 -20.2369 -20.2231 -20.2231 -20.2230 -20.2230
   -20.2215 -20.2215 -20.2206 -20.2206 -20.2183 -20.2183 -20.2179 -20.2179
   -20.2164 -20.2164 -20.2162 -20.2161 -20.2099 -20.2099 -20.2094 -20.2094
   -20.2083 -20.2083 -20.2078 -20.2078  -9.3541  -9.3541  -9.0135  -9.0135
    -8.3938  -8.3938  -8.3199  -8.3199  -8.0703  -8.0703  -7.7044  -7.7043
     1.4128   1.4128   2.2786   2.2786   3.0852   3.0852   3.1382   3.1382
     3.3854   3.3854   3.5443   3.5443   3.9221   3.9221   4.7800   4.7800
     4.9718   4.9718   5.1296   5.1296   5.5692   5.5692   6.1519   6.1519
     6.4924   6.4925   6.8373   6.8373   7.2048   7.2048   7.3941   7.3941
     7.6889   7.6889   7.7529   7.7529  11.2745  11.2745  11.7775  11.7775
    11.8435  11.8435  12.7478  12.7478  13.0015  13.0015  13.7294  13.7294
    15.0692  15.0692  16.4313  16.4313  17.2196  17.2196  18.0287

          k = 0.3333 0.4444 0.0000 ( 31129 PWs)   bands (ev):

   -66.0781 -66.0780 -66.0775 -66.0774 -30.4389 -30.4388 -30.4136 -30.4086
   -30.4072 -30.4013 -30.3631 -30.3616 -30.3366 -30.3339 -30.3305 -30.3272
   -20.2369 -20.2369 -20.2369 -20.2368 -20.2233 -20.2233 -20.2232 -20.2232
   -20.2214 -20.2212 -20.2211 -20.2209 -20.2199 -20.2198 -20.2178 -20.2178
   -20.2178 -20.2177 -20.2127 -20.2127 -20.2106 -20.2104 -20.2091 -20.2089
   -20.2087 -20.2086 -20.2072 -20.2071  -9.6117  -9.5293  -9.1422  -9.0194
    -8.7424  -8.6917  -7.9150  -7.9102  -7.7746  -7.7577  -7.6124  -7.5985
     1.2840   1.3091   1.5249   1.5456   1.8365   1.8414   2.4926   2.6034
     4.1300   4.1580   4.3297   4.3624   4.5166   4.7688   4.8295   4.8772
     5.4431   5.5375   5.5539   5.8553   5.8857   5.9052   5.9449   6.1560
     6.5776   6.6093   6.6373   6.6641   6.7697   6.8860   6.9034   7.1247
     7.1265   7.3088   8.4303   8.5066   9.8892  10.2943  12.2139  12.2549
    12.5213  12.5483  12.6379  12.7458  12.9913  13.2808  14.0545  14.1987
    14.2526  14.5120  15.6171  16.1547  16.6877  17.1664  17.5363

          k = 0.3333 0.4444 0.1145 ( 31134 PWs)   bands (ev):

   -66.0780 -66.0779 -66.0776 -66.0775 -30.4340 -30.4338 -30.4134 -30.4089
   -30.4070 -30.4014 -30.3680 -30.3666 -30.3366 -30.3341 -30.3303 -30.3274
   -20.2369 -20.2369 -20.2369 -20.2368 -20.2233 -20.2233 -20.2232 -20.2232
   -20.2214 -20.2212 -20.2211 -20.2209 -20.2195 -20.2194 -20.2178 -20.2178
   -20.2178 -20.2177 -20.2132 -20.2131 -20.2105 -20.2103 -20.2092 -20.2090
   -20.2086 -20.2085 -20.2073 -20.2072  -9.5572  -9.4697  -9.1553  -9.0323
    -8.7097  -8.6638  -7.9215  -7.9130  -7.7775  -7.7729  -7.7147  -7.7085
     1.4692   1.5243   1.5553   1.6431   1.8354   1.8576   2.5673   2.6792
     3.9562   3.9836   4.3117   4.3605   4.5768   4.7662   4.8266   4.9221
     5.2648   5.2786   5.4496   5.6063   5.8682   5.9037   6.2387   6.2646
     6.3419   6.4600   6.6297   6.7578   6.8646   6.9120   6.9783   7.1375
     7.1434   7.2280   8.3496   8.4162  10.1064  10.4574  12.2145  12.2516
    12.4688  12.5098  12.5290  12.6116  13.0287  13.3154  13.9432  14.1494
    14.4498  14.7983  15.5866  16.1207  16.8586  17.3209  17.6128

          k = 0.3333 0.4444 0.2290 ( 31155 PWs)   bands (ev):

   -66.0779 -66.0778 -66.0777 -66.0776 -30.4210 -30.4205 -30.4126 -30.4092
   -30.4066 -30.4015 -30.3817 -30.3801 -30.3362 -30.3347 -30.3297 -30.3280
   -20.2369 -20.2369 -20.2369 -20.2369 -20.2233 -20.2233 -20.2232 -20.2232
   -20.2213 -20.2212 -20.2210 -20.2209 -20.2185 -20.2182 -20.2179 -20.2177
   -20.2176 -20.2175 -20.2145 -20.2145 -20.2103 -20.2101 -20.2095 -20.2093
   -20.2084 -20.2082 -20.2076 -20.2075  -9.4242  -9.3222  -9.1993  -9.0767
    -8.5945  -8.5622  -8.0616  -8.0306  -7.9071  -7.8715  -7.7681  -7.7530
     1.5137   1.5226   1.8109   1.8320   2.3241   2.3449   2.7905   2.9102
     3.5394   3.5909   4.3156   4.3462   4.4682   4.4825   4.7242   4.7698
     4.8674   5.1130   5.4218   5.4736   5.7344   5.7703   5.9208   6.0667
     6.4861   6.6009   6.7305   6.8454   6.8999   7.0806   7.1442   7.1707
     7.2415   7.2804   8.1057   8.1476  10.6552  10.9032  11.9850  12.1084
    12.2307  12.2528  12.5346  12.5597  13.1522  13.4265  13.6742  13.9008
    14.9236  15.3556  15.4853  16.0078  17.2728  17.7106  17.8376

          k = 0.3333 0.4444-0.3436 ( 31156 PWs)   bands (ev):

   -66.0778 -66.0778 -66.0777 -66.0777 -30.4120 -30.4120 -30.4082 -30.4082
   -30.4001 -30.4001 -30.3965 -30.3965 -30.3355 -30.3355 -30.3289 -30.3289
   -20.2369 -20.2369 -20.2369 -20.2369 -20.2233 -20.2232 -20.2232 -20.2232
   -20.2213 -20.2212 -20.2209 -20.2209 -20.2180 -20.2180 -20.2178 -20.2178
   -20.2163 -20.2163 -20.2162 -20.2162 -20.2099 -20.2099 -20.2097 -20.2097
   -20.2080 -20.2080 -20.2078 -20.2078  -9.2879  -9.2879  -9.1709  -9.1708
    -8.3657  -8.3654  -8.3451  -8.3449  -7.8972  -7.8970  -7.7614  -7.7613
     1.5195   1.5198   1.8259   1.8261   3.0971   3.1005   3.1205   3.1242
     3.4052   3.4061   3.4661   3.4665   4.3269   4.3444   4.7549   4.7812
     5.1214   5.1354   5.4004   5.4359   5.5289   5.5402   5.9479   5.9558
     6.5651   6.5676   6.8434   6.8518   6.9594   6.9613   7.1840   7.1860
     7.7081   7.7112   7.7265   7.7304  11.3373  11.3408  11.5070  11.5107
    12.2330  12.2457  12.5392  12.5535  13.3694  13.3779  13.6282  13.6376
    15.2765  15.2856  15.7712  15.7816  17.5870  17.6130  17.9176

          k = 0.4444 0.4444 0.0000 ( 31126 PWs)   bands (ev):

   -66.0780 -66.0780 -66.0775 -66.0775 -30.4383 -30.4382 -30.4164 -30.4142
   -30.4118 -30.4092 -30.3623 -30.3619 -30.3300 -30.3278 -30.3267 -30.3244
   -20.2369 -20.2369 -20.2368 -20.2368 -20.2234 -20.2234 -20.2234 -20.2234
   -20.2213 -20.2212 -20.2211 -20.2210 -20.2199 -20.2199 -20.2176 -20.2176
   -20.2175 -20.2175 -20.2126 -20.2126 -20.2107 -20.2107 -20.2092 -20.2091
   -20.2086 -20.2086 -20.2071 -20.2070  -9.6140  -9.5847  -9.1650  -9.1234
    -8.7542  -8.7384  -7.7824  -7.7648  -7.7312  -7.7060  -7.6140  -7.6057
     1.2837   1.3009   1.4130   1.4472   1.5223   1.5441   2.4506   2.4895
     4.2151   4.2314   4.5934   4.6691   4.8166   4.8355   4.8753   4.9572
     5.5972   5.6159   5.7091   5.7641   5.8798   6.0483   6.1467   6.2487
     6.4075   6.5422   6.5833   6.6091   6.6409   6.6694   6.7146   6.7861
     7.2980   7.3904   8.5051   8.5298   9.7345   9.8942  12.4282  12.4689
    12.5282  12.5621  12.6017  12.6417  13.2811  13.3841  14.0887  14.2088
    14.2563  14.3315  15.4510  15.6476  16.9367  17.1185  17.7588

          k = 0.4444 0.4444 0.1145 ( 31150 PWs)   bands (ev):

   -66.0780 -66.0780 -66.0775 -66.0775 -30.4334 -30.4332 -30.4161 -30.4139
   -30.4121 -30.4094 -30.3674 -30.3670 -30.3298 -30.3276 -30.3269 -30.3246
   -20.2369 -20.2369 -20.2369 -20.2368 -20.2234 -20.2234 -20.2234 -20.2234
   -20.2213 -20.2212 -20.2211 -20.2210 -20.2195 -20.2194 -20.2176 -20.2176
   -20.2175 -20.2175 -20.2131 -20.2131 -20.2106 -20.2106 -20.2093 -20.2092
   -20.2085 -20.2084 -20.2072 -20.2071  -9.5612  -9.5301  -9.1776  -9.1359
    -8.7195  -8.7054  -7.7816  -7.7806  -7.7337  -7.7296  -7.7119  -7.7077
     1.3866   1.4126   1.4709   1.5218   1.6223   1.6447   2.5254   2.5651
     3.9870   4.0064   4.6068   4.6676   4.8299   4.8694   4.8818   5.0213
     5.3049   5.3170   5.7354   5.8391   5.8863   6.0534   6.2266   6.3178
     6.3764   6.3798   6.5004   6.5649   6.6382   6.7834   6.8048   6.8651
     7.2201   7.2598   8.4143   8.4357   9.9802  10.1116  12.4168  12.4444
    12.4553  12.4676  12.5346  12.5735  13.3152  13.4177  14.1522  14.2292
    14.3278  14.4617  15.4217  15.6168  17.1391  17.3256  17.8106

          k = 0.4444 0.4444 0.2290 ( 31160 PWs)   bands (ev):

   -66.0779 -66.0779 -66.0776 -66.0776 -30.4201 -30.4194 -30.4153 -30.4132
   -30.4130 -30.4097 -30.3814 -30.3809 -30.3292 -30.3275 -30.3269 -30.3252
   -20.2369 -20.2369 -20.2369 -20.2369 -20.2234 -20.2234 -20.2234 -20.2234
   -20.2212 -20.2211 -20.2211 -20.2210 -20.2183 -20.2182 -20.2176 -20.2175
   -20.2175 -20.2175 -20.2145 -20.2145 -20.2103 -20.2103 -20.2096 -20.2095
   -20.2082 -20.2082 -20.2074 -20.2074  -9.4332  -9.3976  -9.2196  -9.1781
    -8.5982  -8.5885  -8.0339  -8.0274  -7.7758  -7.7603  -7.7250  -7.7124
     1.4051   1.4114   1.5116   1.5201   2.3420   2.3542   2.7450   2.7908
     3.5364   3.5583   4.4691   4.4802   4.6270   4.6661   4.8337   4.8634
     5.0751   5.2152   5.6602   5.7878   5.9004   6.0567   6.0756   6.1864
     6.3325   6.4180   6.4520   6.5468   6.7226   6.8644   7.0363   7.0896
     7.2109   7.2227   8.1440   8.1574  10.5740  10.6602  11.9528  11.9924
    12.4438  12.4613  12.5455  12.5640  13.4272  13.5265  13.9014  13.9856
    14.7811  14.9426  15.3240  15.5150  17.6422  17.9662  17.9843

          k = 0.4444 0.4444-0.3436 ( 31204 PWs)   bands (ev):

   -66.0778 -66.0778 -66.0777 -66.0777 -30.4141 -30.4141 -30.4125 -30.4125
   -30.4004 -30.4004 -30.3995 -30.3995 -30.3284 -30.3284 -30.3261 -30.3261
   -20.2369 -20.2369 -20.2369 -20.2369 -20.2234 -20.2234 -20.2234 -20.2234
   -20.2212 -20.2212 -20.2211 -20.2211 -20.2176 -20.2176 -20.2175 -20.2175
   -20.2164 -20.2164 -20.2163 -20.2163 -20.2100 -20.2100 -20.2099 -20.2099
   -20.2078 -20.2078 -20.2078 -20.2078  -9.3036  -9.3036  -9.2636  -9.2636
    -8.3593  -8.3593  -8.3533  -8.3533  -7.7688  -7.7688  -7.7187  -7.7187
     1.4092   1.4092   1.5173   1.5173   3.0936   3.0936   3.1047   3.1047
     3.3880   3.3880   3.4080   3.4080   4.6465   4.6465   4.8466   4.8466
     5.3697   5.3697   5.5089   5.5089   5.9356   5.9356   6.0965   6.0965
     6.3848   6.3848   6.5134   6.5134   6.8561   6.8561   6.9682   6.9683
     7.7163   7.7163   7.7229   7.7229  11.2885  11.2886  11.3450  11.3450
    12.4530  12.4530  12.5555  12.5555  13.6289  13.6289  13.7235  13.7235
    15.1265  15.1265  15.3082  15.3082  17.9244  17.9244  18.0913

     the Fermi energy is     9.6941 ev

!    total energy              =   -3130.25986946 Ry
     Harris-Foulkes estimate   =   -3130.25986946 Ry
     estimated scf accuracy    <          9.0E-10 Ry

     The total energy is the sum of the following terms:

     one-electron contribution =   -2368.16911706 Ry
     hartree contribution      =    1303.37631967 Ry
     xc contribution           =    -483.19517390 Ry
     ewald contribution        =   -1582.27188341 Ry
     smearing contrib. (-TS)   =      -0.00001476 Ry

     convergence has been achieved in  12 iterations

     Writing output data file chempot_6.save/
 
     init_run     :      9.14s CPU      9.74s WALL (       1 calls)
     electrons    :    351.95s CPU    358.22s WALL (       1 calls)

     Called by init_run:
     wfcinit      :      8.38s CPU      8.89s WALL (       1 calls)
     potinit      :      0.26s CPU      0.29s WALL (       1 calls)
     hinit0       :      0.39s CPU      0.43s WALL (       1 calls)

     Called by electrons:
     c_bands      :    303.37s CPU    309.18s WALL (      12 calls)
     sum_band     :     45.57s CPU     45.77s WALL (      12 calls)
     v_of_rho     :      0.67s CPU      0.70s WALL (      13 calls)
     mix_rho      :      1.05s CPU      1.22s WALL (      12 calls)

     Called by c_bands:
     init_us_2    :      1.78s CPU      1.94s WALL (      50 calls)
     cegterg      :    244.41s CPU    249.79s WALL (      24 calls)

     Called by sum_band:

     Called by *egterg:
     h_psi        :    196.13s CPU    198.78s WALL (      91 calls)
     g_psi        :      0.40s CPU      0.41s WALL (      65 calls)
     cdiaghg      :      2.53s CPU      2.56s WALL (      89 calls)

     Called by h_psi:
     h_psi:pot    :    195.55s CPU    196.59s WALL (      91 calls)
     h_psi:calbec :     20.84s CPU     21.16s WALL (      91 calls)
     vloc_psi     :    152.30s CPU    152.87s WALL (      91 calls)
     add_vuspsi   :     22.41s CPU     22.55s WALL (      91 calls)

     General routines
     calbec       :     20.84s CPU     21.16s WALL (      91 calls)
     fft          :      0.38s CPU      0.39s WALL (      39 calls)
     ffts         :      0.13s CPU      0.13s WALL (      12 calls)
     fftw         :    159.40s CPU    159.87s WALL (   15828 calls)
 
     Parallel routines
 
     PWSCF        :   6m 2.35s CPU   6m 9.61s WALL

 
   This run was terminated on:  21:56: 0  16Dec2019            

=------------------------------------------------------------------------------=
   JOB DONE.
=------------------------------------------------------------------------------=
