
     Program PWSCF v.6.2 (svn rev. 14038) starts on 25Mar2020 at 20:21:35 

     This program is part of the open-source Quantum ESPRESSO suite
     for quantum simulation of materials; please cite
         "P. Giannozzi et al., J. Phys.:Condens. Matter 21 395502 (2009);
         "P. Giannozzi et al., J. Phys.:Condens. Matter 29 465901 (2017);
          URL http://www.quantum-espresso.org", 
     in publications or presentations arising from this work. More details at
     http://www.quantum-espresso.org/quote

     Parallel version (MPI), running on    40 processors

     MPI processes distributed on    10 nodes
     K-points division:     npool     =      40
     Reading input from scf.in

     Current dimensions of program PWSCF are:
     Max number of different atomic species (ntypx) = 10
     Max number of k-points (npk) =  40000
     Max angular momentum in pseudopotentials (lmaxx) =  3

     Subspace diagonalization in iterative solution of the eigenvalue problem:
     a serial algorithm will be used

 
     G-vector sticks info
     --------------------
     sticks:   dense  smooth     PW     G-vecs:    dense   smooth      PW
     Sum        7661    7661   2051               494845   494845   68573
 


     bravais-lattice index     =            0
     lattice parameter (alat)  =      13.9021  a.u.
     unit-cell volume          =    2786.1393 (a.u.)^3
     number of atoms/cell      =           32
     number of atomic types    =            2
     number of electrons       =       368.60
     number of Kohn-Sham states=          221
     kinetic-energy cutoff     =     120.0000  Ry
     charge density cutoff     =     480.0000  Ry
     convergence threshold     =      1.0E-08
     mixing beta               =       0.7000
     number of iterations used =            8  plain     mixing
     Exchange-correlation      = SLA PW NOGX NOGC ( 1  4  0  0 0 0)

     celldm(1)=  13.902146  celldm(2)=   0.000000  celldm(3)=   0.000000
     celldm(4)=   0.000000  celldm(5)=   0.000000  celldm(6)=   0.000000

     crystal axes: (cart. coord. in units of alat)
               a(1) = (   1.000000   0.000000   0.000000 )  
               a(2) = (   0.000000   1.036949   0.000000 )  
               a(3) = (   0.000000   0.000000   1.000000 )  

     reciprocal axes: (cart. coord. in units 2 pi/alat)
               b(1) = (  1.000000  0.000000  0.000000 )  
               b(2) = (  0.000000  0.964368  0.000000 )  
               b(3) = (  0.000000  0.000000  1.000000 )  


     PseudoPot. # 1 for W  read from file:
     /cluster/scratch/mnoe/QE/pps/W_ONCV_LDA-4.0.upf
     MD5 check sum: ba0307d5d4cd419d6f1d13dc49d7c13a
     Pseudo is Norm-conserving + core correction, Zval = 28.0
     Generated using ONCVPSP code by D. R. Hamann
     Using radial grid of 1380 points,  8 beta functions with: 
                l(1) =   0
                l(2) =   0
                l(3) =   1
                l(4) =   1
                l(5) =   2
                l(6) =   2
                l(7) =   3
                l(8) =   3

     PseudoPot. # 2 for O  read from file:
     /cluster/scratch/mnoe/QE/pps/O_ONCV_LDA-3.0.upf
     MD5 check sum: a1bd6164e7280c17a38c229939bfbd54
     Pseudo is Norm-conserving + core correction, Zval =  6.0
     Generated using ONCVPSP code by D. R. Hamann
     Using radial grid of  926 points,  5 beta functions with: 
                l(1) =   0
                l(2) =   0
                l(3) =   1
                l(4) =   1
                l(5) =   2

     atomic species   valence    mass     pseudopotential
        W             28.00   183.84000     W ( 1.00)
        O              6.00    15.99940     O ( 1.00)

      8 Sym. Ops. (no inversion) found ( 7 have fractional translation)



   Cartesian axes

     site n.     atom                  positions (alat units)
         1           W   tau(   1) = (   0.2284180   0.2910322  -0.0006180  )
         2           W   tau(   2) = (   0.7506180   0.7459166  -0.0215820  )
         3           W   tau(   3) = (   0.2715820   0.2274422   0.4993820  )
         4           W   tau(   4) = (   0.7493820   0.8095066   0.4784180  )
         5           W   tau(   5) = (   0.7715820   0.2910322   0.5006180  )
         6           W   tau(   6) = (   0.2493820   0.7459166   0.5215820  )
         7           W   tau(   7) = (   0.7284180   0.2274422   0.0006180  )
         8           W   tau(   8) = (   0.2506180   0.8095066   0.0215820  )
         9           O   tau(   9) = (   0.2262640   0.0082890  -0.0172200  )
        10           O   tau(  10) = (   0.7672200  -0.0082890  -0.0237360  )
        11           O   tau(  11) = (   0.2737360   0.5101854   0.4827800  )
        12           O   tau(  12) = (   0.7327800   0.5267634   0.4762640  )
        13           O   tau(  13) = (   0.7737360   0.0082890   0.5172200  )
        14           O   tau(  14) = (   0.2327800  -0.0082890   0.5237360  )
        15           O   tau(  15) = (   0.7262640   0.5101854   0.0172200  )
        16           O   tau(  16) = (   0.2672200   0.5267634   0.0237360  )
        17           O   tau(  17) = (   0.5076380   0.2327017   0.4524691  )
        18           O   tau(  18) = (   0.5015660   0.7947404   0.5475308  )
        19           O   tau(  19) = (  -0.0076380   0.2857727   0.9524692  )
        20           O   tau(  20) = (  -0.0015660   0.7606829   0.0475309  )
        21           O   tau(  21) = (   0.4923620   0.2327017   0.0475309  )
        22           O   tau(  22) = (   0.4984340   0.7947404   0.9524692  )
        23           O   tau(  23) = (   0.0076380   0.2857727   0.5475308  )
        24           O   tau(  24) = (   0.0015660   0.7606829   0.4524691  )
        25           O   tau(  25) = (   0.7024692   0.2762659   0.7484340  )
        26           O   tau(  26) = (   0.2975308   0.8042471   0.2576380  )
        27           O   tau(  27) = (   0.7975308   0.2422084   0.2484341  )
        28           O   tau(  28) = (   0.2024692   0.7511761   0.7576380  )
        29           O   tau(  29) = (   0.2975308   0.2762659   0.7515660  )
        30           O   tau(  30) = (   0.7024692   0.8042471   0.2423620  )
        31           O   tau(  31) = (   0.2024692   0.2422084   0.2515660  )
        32           O   tau(  32) = (   0.7975308   0.7511761   0.7423620  )

     number of k points=    40  gaussian smearing, width (Ry)=  0.0007
                       cart. coord. in units 2pi/alat
        k(    1) = (   0.0000000   0.0000000   0.0000000), wk =   0.0092593
        k(    2) = (   0.0000000   0.0000000   0.1666667), wk =   0.0370370
        k(    3) = (   0.0000000   0.0000000   0.3333333), wk =   0.0370370
        k(    4) = (   0.0000000   0.0000000  -0.5000000), wk =   0.0185185
        k(    5) = (   0.0000000   0.1607280   0.0000000), wk =   0.0185185
        k(    6) = (   0.0000000   0.1607280   0.1666667), wk =   0.0740741
        k(    7) = (   0.0000000   0.1607280   0.3333333), wk =   0.0740741
        k(    8) = (   0.0000000   0.1607280  -0.5000000), wk =   0.0370370
        k(    9) = (   0.0000000   0.3214559   0.0000000), wk =   0.0185185
        k(   10) = (   0.0000000   0.3214559   0.1666667), wk =   0.0740741
        k(   11) = (   0.0000000   0.3214559   0.3333333), wk =   0.0740741
        k(   12) = (   0.0000000   0.3214559  -0.5000000), wk =   0.0370370
        k(   13) = (   0.0000000  -0.4821839   0.0000000), wk =   0.0092593
        k(   14) = (   0.0000000  -0.4821839   0.1666667), wk =   0.0370370
        k(   15) = (   0.0000000  -0.4821839   0.3333333), wk =   0.0370370
        k(   16) = (   0.0000000  -0.4821839  -0.5000000), wk =   0.0185185
        k(   17) = (   0.1666667   0.0000000   0.1666667), wk =   0.0370370
        k(   18) = (   0.1666667   0.0000000   0.3333333), wk =   0.0740741
        k(   19) = (   0.1666667   0.0000000  -0.5000000), wk =   0.0370370
        k(   20) = (   0.1666667   0.1607280   0.1666667), wk =   0.0740741
        k(   21) = (   0.1666667   0.1607280   0.3333333), wk =   0.1481481
        k(   22) = (   0.1666667   0.1607280  -0.5000000), wk =   0.0740741
        k(   23) = (   0.1666667   0.3214559   0.1666667), wk =   0.0740741
        k(   24) = (   0.1666667   0.3214559   0.3333333), wk =   0.1481481
        k(   25) = (   0.1666667   0.3214559  -0.5000000), wk =   0.0740741
        k(   26) = (   0.1666667  -0.4821839   0.1666667), wk =   0.0370370
        k(   27) = (   0.1666667  -0.4821839   0.3333333), wk =   0.0740741
        k(   28) = (   0.1666667  -0.4821839  -0.5000000), wk =   0.0370370
        k(   29) = (   0.3333333   0.0000000   0.3333333), wk =   0.0370370
        k(   30) = (   0.3333333   0.0000000  -0.5000000), wk =   0.0370370
        k(   31) = (   0.3333333   0.1607280   0.3333333), wk =   0.0740741
        k(   32) = (   0.3333333   0.1607280  -0.5000000), wk =   0.0740741
        k(   33) = (   0.3333333   0.3214559   0.3333333), wk =   0.0740741
        k(   34) = (   0.3333333   0.3214559  -0.5000000), wk =   0.0740741
        k(   35) = (   0.3333333  -0.4821839   0.3333333), wk =   0.0370370
        k(   36) = (   0.3333333  -0.4821839  -0.5000000), wk =   0.0370370
        k(   37) = (  -0.5000000   0.0000000  -0.5000000), wk =   0.0092593
        k(   38) = (  -0.5000000   0.1607280  -0.5000000), wk =   0.0185185
        k(   39) = (  -0.5000000   0.3214559  -0.5000000), wk =   0.0185185
        k(   40) = (  -0.5000000  -0.4821839  -0.5000000), wk =   0.0092593

     Dense  grid:   494845 G-vectors     FFT dimensions: ( 100, 108, 100)

     Estimated max dynamical RAM per process >       2.70 GB

     Estimated total dynamical RAM >     107.99 GB

     Initial potential from superposition of free atoms

     starting charge  367.99656, renormalised to  368.60000
     Starting wfc are  232 randomized atomic wfcs

     total cpu time spent up to now is       26.2 secs

     Self-consistent Calculation

     iteration #  1     ecut=   120.00 Ry     beta= 0.70
     Davidson diagonalization with overlap
     ethr =  1.00E-02,  avg # of iterations =  5.1

     total cpu time spent up to now is      104.0 secs

     total energy              =   -6253.45400642 Ry
     Harris-Foulkes estimate   =   -6264.21712059 Ry
     estimated scf accuracy    <      13.56174584 Ry

     iteration #  2     ecut=   120.00 Ry     beta= 0.70
     Davidson diagonalization with overlap
     ethr =  3.68E-03,  avg # of iterations =  3.6

     total cpu time spent up to now is      183.7 secs

     total energy              =   -6250.41623504 Ry
     Harris-Foulkes estimate   =   -6270.19833816 Ry
     estimated scf accuracy    <      52.62530252 Ry

     iteration #  3     ecut=   120.00 Ry     beta= 0.70
     Davidson diagonalization with overlap
     ethr =  3.68E-03,  avg # of iterations =  3.5

     total cpu time spent up to now is      258.1 secs

     total energy              =   -6260.64685839 Ry
     Harris-Foulkes estimate   =   -6260.91650534 Ry
     estimated scf accuracy    <       0.89364200 Ry

     iteration #  4     ecut=   120.00 Ry     beta= 0.70
     Davidson diagonalization with overlap
     ethr =  2.42E-04,  avg # of iterations =  2.7

     total cpu time spent up to now is      316.9 secs

     total energy              =   -6260.64331073 Ry
     Harris-Foulkes estimate   =   -6260.71468603 Ry
     estimated scf accuracy    <       0.22525523 Ry

     iteration #  5     ecut=   120.00 Ry     beta= 0.70
     Davidson diagonalization with overlap
     ethr =  6.11E-05,  avg # of iterations =  5.2

     total cpu time spent up to now is      380.5 secs

     total energy              =   -6260.64485823 Ry
     Harris-Foulkes estimate   =   -6260.67576637 Ry
     estimated scf accuracy    <       0.06804554 Ry

     iteration #  6     ecut=   120.00 Ry     beta= 0.70
     Davidson diagonalization with overlap
     ethr =  1.85E-05,  avg # of iterations =  5.5

     total cpu time spent up to now is      448.1 secs

     total energy              =   -6260.65981169 Ry
     Harris-Foulkes estimate   =   -6260.66226155 Ry
     estimated scf accuracy    <       0.00656391 Ry

     iteration #  7     ecut=   120.00 Ry     beta= 0.70
     Davidson diagonalization with overlap
     ethr =  1.78E-06,  avg # of iterations =  5.3

     total cpu time spent up to now is      511.1 secs

     total energy              =   -6260.66058647 Ry
     Harris-Foulkes estimate   =   -6260.66070373 Ry
     estimated scf accuracy    <       0.00021808 Ry

     iteration #  8     ecut=   120.00 Ry     beta= 0.70
     Davidson diagonalization with overlap
     ethr =  5.92E-08,  avg # of iterations =  3.0

     total cpu time spent up to now is      590.0 secs

     total energy              =   -6260.66066828 Ry
     Harris-Foulkes estimate   =   -6260.66068082 Ry
     estimated scf accuracy    <       0.00004739 Ry

     iteration #  9     ecut=   120.00 Ry     beta= 0.70
     Davidson diagonalization with overlap
     ethr =  1.29E-08,  avg # of iterations =  2.0

     total cpu time spent up to now is      648.6 secs

     total energy              =   -6260.66066927 Ry
     Harris-Foulkes estimate   =   -6260.66067327 Ry
     estimated scf accuracy    <       0.00001896 Ry

     iteration # 10     ecut=   120.00 Ry     beta= 0.70
     Davidson diagonalization with overlap
     ethr =  5.14E-09,  avg # of iterations =  1.4

     total cpu time spent up to now is      705.5 secs

     total energy              =   -6260.66066759 Ry
     Harris-Foulkes estimate   =   -6260.66067060 Ry
     estimated scf accuracy    <       0.00000709 Ry

     iteration # 11     ecut=   120.00 Ry     beta= 0.70
     Davidson diagonalization with overlap
     ethr =  1.92E-09,  avg # of iterations =  3.0

     total cpu time spent up to now is      766.3 secs

     total energy              =   -6260.66066903 Ry
     Harris-Foulkes estimate   =   -6260.66066907 Ry
     estimated scf accuracy    <       0.00000008 Ry

     iteration # 12     ecut=   120.00 Ry     beta= 0.70
     Davidson diagonalization with overlap
     ethr =  2.20E-11,  avg # of iterations =  3.0

     total cpu time spent up to now is      848.8 secs

     total energy              =   -6260.66066906 Ry
     Harris-Foulkes estimate   =   -6260.66066907 Ry
     estimated scf accuracy    <       0.00000002 Ry

     iteration # 13     ecut=   120.00 Ry     beta= 0.70
     Davidson diagonalization with overlap
     ethr =  5.24E-12,  avg # of iterations =  2.0

     total cpu time spent up to now is      917.3 secs

     End of self-consistent calculation

          k = 0.0000 0.0000 0.0000 ( 61831 PWs)   bands (ev):

   -65.9053 -65.9048 -65.9044 -65.9044 -65.9038 -65.9038 -65.9034 -65.9029
   -30.3618 -30.3509 -30.3509 -30.3420 -30.3291 -30.3110 -30.3110 -30.2881
   -30.2754 -30.2546 -30.2546 -30.2367 -30.2175 -30.2175 -30.2146 -30.2141
   -30.2123 -30.1987 -30.1949 -30.1949 -30.1221 -30.1221 -30.1174 -30.1159
   -20.0505 -20.0503 -20.0503 -20.0503 -20.0496 -20.0496 -20.0496 -20.0495
   -20.0457 -20.0452 -20.0452 -20.0447 -20.0428 -20.0420 -20.0420 -20.0412
   -20.0379 -20.0372 -20.0371 -20.0363 -20.0361 -20.0355 -20.0355 -20.0348
   -20.0347 -20.0336 -20.0335 -20.0335 -20.0325 -20.0325 -20.0324 -20.0314
   -20.0257 -20.0254 -20.0244 -20.0244 -20.0238 -20.0238 -20.0230 -20.0225
   -20.0054 -20.0053 -20.0043 -20.0043 -20.0020 -20.0020 -20.0019 -20.0019
   -20.0003 -20.0002 -19.9999 -19.9998 -19.9968 -19.9968 -19.9954 -19.9953
    -9.8121  -9.4940  -9.3907  -9.3907  -9.0347  -9.0347  -8.9628  -8.8318
    -8.8086  -8.7120  -8.6853  -8.6853  -7.8130  -7.7443  -7.6747  -7.6747
    -7.6565  -7.5777  -7.5777  -7.5764  -7.5574  -7.5426  -7.4197  -7.4197
     1.4284   1.4516   1.4785   1.4785   1.5732   1.6098   1.6098   1.7306
     1.7931   1.7931   1.8639   2.0609   2.5461   2.6341   2.6525   2.7423
     2.8372   2.8372   4.3164   4.3164   4.5984   4.5986   4.7479   4.8710
     4.8710   4.9439   4.9439   4.9487   5.1991   5.1991   5.3726   5.5387
     5.5496   5.6076   5.6076   5.7411   5.7411   5.8449   5.8585   5.8585
     5.9349   5.9631   5.9880   5.9880   6.0050   6.0948   6.0977   6.2436
     6.2727   6.4946   6.5420   6.5816   6.5816   6.7438   6.9903   6.9903
     7.0378   7.0384   7.0423   7.1660   7.1660   7.2037   7.2578   7.2578
     7.5553   7.5553   7.9116   7.9368   8.1272   8.1481   8.1481   8.2754
     9.8051   9.8493  10.2322  10.2499  10.2499  10.2653  12.4296  12.4296
    12.4867  12.4867  12.6532  12.7424  12.8107  12.8107  12.8928  12.9390
    13.2939  13.4272  13.4272  13.5326  13.8475  14.0155  14.0155  14.2323
    14.6781  14.8723  14.8723  14.9934  15.5469  15.5993  15.7903  16.1350
    16.1350  16.9051  17.1303  17.1303  17.5936

          k = 0.0000 0.0000 0.1667 ( 61813 PWs)   bands (ev):

   -65.9052 -65.9047 -65.9044 -65.9043 -65.9039 -65.9038 -65.9035 -65.9029
   -30.3602 -30.3513 -30.3479 -30.3390 -30.3298 -30.3120 -30.3086 -30.2863
   -30.2769 -30.2563 -30.2531 -30.2361 -30.2193 -30.2174 -30.2154 -30.2127
   -30.2064 -30.2007 -30.1978 -30.1915 -30.1281 -30.1227 -30.1217 -30.1170
   -20.0505 -20.0503 -20.0503 -20.0502 -20.0497 -20.0497 -20.0496 -20.0495
   -20.0456 -20.0452 -20.0452 -20.0447 -20.0428 -20.0421 -20.0420 -20.0413
   -20.0379 -20.0372 -20.0371 -20.0364 -20.0361 -20.0356 -20.0355 -20.0347
   -20.0347 -20.0336 -20.0335 -20.0334 -20.0326 -20.0325 -20.0324 -20.0314
   -20.0256 -20.0252 -20.0245 -20.0243 -20.0239 -20.0237 -20.0230 -20.0226
   -20.0053 -20.0051 -20.0044 -20.0040 -20.0021 -20.0020 -20.0019 -20.0014
   -20.0006 -20.0004 -20.0000 -19.9996 -19.9972 -19.9967 -19.9957 -19.9954
    -9.7678  -9.4420  -9.4074  -9.3320  -9.0496  -8.9726  -8.9593  -8.8046
    -8.7743  -8.6907  -8.6861  -8.6471  -7.8860  -7.7714  -7.7563  -7.6805
    -7.6680  -7.6597  -7.6126  -7.5846  -7.5801  -7.5415  -7.5371  -7.4280
     1.4645   1.4769   1.5855   1.6115   1.6212   1.6371   1.7258   1.7897
     1.7911   1.9402   2.0217   2.1910   2.6263   2.6730   2.7411   2.8030
     2.8279   2.9270   4.2227   4.3099   4.4660   4.5750   4.5908   4.6249
     4.6418   4.8998   4.9282   4.9346   4.9483   5.1867   5.3488   5.3997
     5.5565   5.5912   5.6208   5.6565   5.6967   5.7448   5.8284   5.8462
     5.8576   5.9264   5.9698   5.9981   6.0396   6.1322   6.1528   6.2638
     6.2712   6.5504   6.5613   6.6691   6.7690   6.8384   6.8692   6.8938
     6.9766   7.0122   7.0246   7.0690   7.1242   7.1938   7.2008   7.2284
     7.3653   7.4310   7.9198   7.9368   8.1092   8.1116   8.1643   8.2616
    10.0548  10.1047  10.2474  10.2845  10.4738  10.5407  12.3658  12.4160
    12.4706  12.5457  12.6674  12.7450  12.7705  12.8416  12.9155  12.9886
    13.2041  13.3861  13.4353  13.5025  13.8614  13.9874  14.0157  14.1597
    14.6810  14.8670  14.9251  15.0922  15.5810  15.6378  15.7544  16.1020
    16.4097  16.8889  17.0634  17.3055  17.6730

          k = 0.0000 0.0000 0.3333 ( 61844 PWs)   bands (ev):

   -65.9051 -65.9046 -65.9045 -65.9041 -65.9040 -65.9037 -65.9036 -65.9031
   -30.3572 -30.3526 -30.3415 -30.3318 -30.3310 -30.3155 -30.3013 -30.2819
   -30.2806 -30.2620 -30.2483 -30.2340 -30.2278 -30.2232 -30.2115 -30.2103
   -30.2046 -30.2031 -30.1895 -30.1796 -30.1446 -30.1386 -30.1208 -30.1181
   -20.0504 -20.0504 -20.0501 -20.0501 -20.0498 -20.0498 -20.0496 -20.0495
   -20.0456 -20.0453 -20.0451 -20.0448 -20.0427 -20.0422 -20.0418 -20.0414
   -20.0377 -20.0373 -20.0370 -20.0365 -20.0360 -20.0357 -20.0353 -20.0349
   -20.0345 -20.0338 -20.0333 -20.0332 -20.0328 -20.0327 -20.0322 -20.0316
   -20.0254 -20.0250 -20.0247 -20.0242 -20.0240 -20.0235 -20.0233 -20.0228
   -20.0051 -20.0046 -20.0045 -20.0034 -20.0027 -20.0018 -20.0015 -20.0014
   -20.0008 -20.0005 -20.0004 -19.9989 -19.9980 -19.9966 -19.9965 -19.9957
    -9.6606  -9.4583  -9.3146  -9.1954  -9.0964  -9.0050  -8.7586  -8.7457
    -8.7052  -8.6713  -8.5518  -8.5049  -8.1539  -8.0541  -7.9522  -7.8721
    -7.7314  -7.6967  -7.6485  -7.6161  -7.6030  -7.5905  -7.5160  -7.4511
     1.4751   1.4763   1.6166   1.6238   1.6964   1.7161   1.7609   1.7893
     2.4158   2.5422   2.6217   2.7067   2.7525   2.8171   2.8766   2.9941
     3.0272   3.1694   3.8601   3.9479   4.0295   4.1162   4.2101   4.4707
     4.5669   4.6221   4.7200   4.7950   4.8232   4.9224   5.1133   5.2212
     5.2785   5.3474   5.4787   5.5057   5.5940   5.6355   5.7832   5.8679
     5.8878   5.8939   5.9750   6.0384   6.1561   6.1716   6.2723   6.3412
     6.3505   6.4560   6.5357   6.6089   6.6768   6.7054   6.7868   6.8456
     6.9275   7.0109   7.0222   7.0965   7.1735   7.1837   7.2307   7.2944
     7.4232   7.4769   7.8591   7.8716   7.9919   8.0201   8.1966   8.2348
    10.1969  10.2378  10.6876  10.8364  11.0257  11.1840  12.0236  12.1410
    12.2923  12.5401  12.5879  12.7311  12.8336  12.8488  12.9340  12.9971
    13.1730  13.2988  13.3501  13.4738  13.7556  13.8398  14.0188  14.0644
    14.7514  14.8505  15.1452  15.3392  15.6400  15.7965  15.9485  15.9847
    16.4104  17.1868  17.4422  17.5766  17.8375

          k = 0.0000 0.0000-0.5000 ( 61784 PWs)   bands (ev):

   -65.9048 -65.9048 -65.9043 -65.9043 -65.9039 -65.9039 -65.9033 -65.9033
   -30.3545 -30.3545 -30.3356 -30.3356 -30.3219 -30.3219 -30.2908 -30.2908
   -30.2713 -30.2713 -30.2395 -30.2395 -30.2295 -30.2295 -30.2087 -30.2087
   -30.2067 -30.2067 -30.1671 -30.1671 -30.1598 -30.1598 -30.1195 -30.1195
   -20.0504 -20.0504 -20.0500 -20.0500 -20.0499 -20.0499 -20.0496 -20.0496
   -20.0455 -20.0455 -20.0450 -20.0450 -20.0425 -20.0425 -20.0416 -20.0416
   -20.0375 -20.0375 -20.0368 -20.0368 -20.0358 -20.0358 -20.0351 -20.0351
   -20.0342 -20.0342 -20.0330 -20.0330 -20.0329 -20.0329 -20.0319 -20.0319
   -20.0250 -20.0250 -20.0246 -20.0246 -20.0236 -20.0236 -20.0231 -20.0231
   -20.0049 -20.0049 -20.0036 -20.0036 -20.0024 -20.0024 -20.0013 -20.0013
   -20.0011 -20.0011 -19.9992 -19.9992 -19.9978 -19.9978 -19.9961 -19.9961
    -9.5452  -9.5452  -9.1838  -9.1838  -9.0734  -9.0734  -8.7259  -8.7259
    -8.4692  -8.4692  -8.4153  -8.4153  -8.2848  -8.2848  -8.2219  -8.2218
    -7.7192  -7.7192  -7.6268  -7.6268  -7.6042  -7.6042  -7.4832  -7.4832
     1.4758   1.4758   1.6231   1.6231   1.7073   1.7073   1.7874   1.7874
     2.7455   2.7456   3.1229   3.1229   3.2404   3.2404   3.2955   3.2955
     3.4101   3.4101   3.4740   3.4740   3.6917   3.6917   3.9309   3.9309
     3.9729   3.9729   4.6551   4.6551   4.7685   4.7685   5.1460   5.1461
     5.3533   5.3533   5.4611   5.4611   5.5419   5.5420   5.8265   5.8265
     5.9482   5.9482   6.0838   6.0838   6.1407   6.1407   6.2870   6.2870
     6.3967   6.3967   6.4875   6.4875   6.6169   6.6169   6.7280   6.7280
     6.9578   6.9578   7.0166   7.0166   7.1385   7.1385   7.6117   7.6117
     7.6539   7.6539   7.7623   7.7623   7.8101   7.8101   8.2168   8.2168
    10.2208  10.2208  11.3974  11.3974  11.5710  11.5710  11.6806  11.6806
    11.9260  11.9260  12.7420  12.7420  12.8852  12.8852  13.0394  13.0394
    13.1207  13.1207  13.4717  13.4717  13.5967  13.5967  14.0321  14.0321
    14.8180  14.8180  15.4313  15.4313  15.6954  15.6954  16.0345  16.0345
    16.7053  16.7053  17.9741  17.9741  18.2346

          k = 0.0000 0.1607 0.0000 ( 61902 PWs)   bands (ev):

   -65.9053 -65.9048 -65.9043 -65.9043 -65.9039 -65.9038 -65.9034 -65.9029
   -30.3598 -30.3491 -30.3491 -30.3427 -30.3251 -30.3098 -30.3098 -30.2854
   -30.2785 -30.2561 -30.2561 -30.2407 -30.2187 -30.2187 -30.2140 -30.2140
   -30.2124 -30.2004 -30.1952 -30.1952 -30.1221 -30.1221 -30.1173 -30.1160
   -20.0505 -20.0503 -20.0503 -20.0503 -20.0496 -20.0496 -20.0496 -20.0495
   -20.0454 -20.0450 -20.0449 -20.0444 -20.0430 -20.0421 -20.0421 -20.0414
   -20.0378 -20.0371 -20.0371 -20.0362 -20.0362 -20.0357 -20.0356 -20.0348
   -20.0348 -20.0338 -20.0335 -20.0335 -20.0327 -20.0326 -20.0324 -20.0315
   -20.0257 -20.0254 -20.0244 -20.0243 -20.0238 -20.0238 -20.0229 -20.0225
   -20.0054 -20.0053 -20.0043 -20.0043 -20.0020 -20.0020 -20.0019 -20.0019
   -20.0003 -20.0002 -19.9999 -19.9998 -19.9969 -19.9968 -19.9954 -19.9953
    -9.7797  -9.5068  -9.3544  -9.3544  -9.0340  -9.0340  -8.8863  -8.8195
    -8.8078  -8.6791  -8.6526  -8.6526  -7.8557  -7.7548  -7.7548  -7.7450
    -7.7112  -7.6874  -7.6008  -7.6008  -7.5569  -7.5441  -7.4201  -7.4200
     1.4355   1.4499   1.4872   1.4872   1.6292   1.6292   1.7035   1.8635
     1.9271   1.9997   1.9997   2.1954   2.5551   2.6453   2.7063   2.8262
     2.9131   2.9131   4.1836   4.1836   4.2970   4.3077   4.7014   4.8584
     4.8584   4.9396   4.9396   5.0173   5.1240   5.1240   5.2584   5.4769
     5.4769   5.6373   5.6373   5.6598   5.7113   5.7804   5.8428   5.8428
     5.8471   5.9036   5.9522   6.0524   6.0524   6.0734   6.1777   6.2178
     6.2445   6.4801   6.5093   6.6321   6.6321   6.7219   6.9764   6.9764
     7.0169   7.0423   7.0864   7.1116   7.1380   7.1380   7.2513   7.2513
     7.5598   7.5598   7.9110   7.9343   8.0933   8.1228   8.1228   8.2010
     9.8237   9.8512  10.4189  10.4189  10.4266  10.4431  12.3908  12.3908
    12.4533  12.4533  12.5797  12.6412  12.7971  12.7986  12.7986  12.9045
    13.3107  13.4024  13.4024  13.5531  13.9436  13.9910  13.9910  14.1465
    14.7569  15.0343  15.0343  15.1647  15.5374  15.5919  16.1143  16.1143
    16.1837  16.6491  17.2688  17.2688  17.6456

          k = 0.0000 0.1607 0.1667 ( 61862 PWs)   bands (ev):

   -65.9052 -65.9047 -65.9044 -65.9043 -65.9039 -65.9038 -65.9034 -65.9030
   -30.3581 -30.3495 -30.3459 -30.3398 -30.3258 -30.3110 -30.3079 -30.2838
   -30.2799 -30.2575 -30.2545 -30.2401 -30.2206 -30.2171 -30.2165 -30.2127
   -30.2065 -30.2024 -30.1981 -30.1917 -30.1281 -30.1226 -30.1217 -30.1170
   -20.0505 -20.0503 -20.0503 -20.0502 -20.0497 -20.0496 -20.0496 -20.0495
   -20.0454 -20.0450 -20.0449 -20.0444 -20.0429 -20.0422 -20.0421 -20.0414
   -20.0378 -20.0371 -20.0370 -20.0363 -20.0362 -20.0357 -20.0356 -20.0349
   -20.0347 -20.0337 -20.0336 -20.0334 -20.0327 -20.0326 -20.0325 -20.0316
   -20.0256 -20.0253 -20.0244 -20.0243 -20.0239 -20.0237 -20.0230 -20.0226
   -20.0053 -20.0051 -20.0044 -20.0040 -20.0021 -20.0021 -20.0019 -20.0014
   -20.0006 -20.0004 -20.0000 -19.9996 -19.9972 -19.9967 -19.9957 -19.9954
    -9.7343  -9.4547  -9.3710  -9.2908  -9.0496  -8.9585  -8.8960  -8.7881
    -8.7724  -8.6598  -8.6576  -8.6197  -7.9003  -7.8047  -7.7820  -7.7593
    -7.7144  -7.7065  -7.6821  -7.6588  -7.6085  -7.5416  -7.5361  -7.4284
     1.4764   1.4868   1.5895   1.6336   1.7060   1.7744   1.8418   1.9349
     1.9955   2.0309   2.0445   2.2725   2.6399   2.7334   2.7435   2.8853
     2.9059   3.0015   4.1344   4.1871   4.2961   4.3456   4.4961   4.5638
     4.6450   4.8350   4.9039   4.9273   4.9471   5.1292   5.2160   5.3526
     5.4186   5.5308   5.5775   5.6222   5.6849   5.7028   5.7754   5.7971
     5.8619   5.9346   5.9470   6.0096   6.0269   6.0912   6.1559   6.2282
     6.3239   6.4833   6.6175   6.6531   6.7498   6.8453   6.8888   6.9402
     6.9563   7.0307   7.0657   7.0837   7.1023   7.1658   7.1939   7.2131
     7.3651   7.4382   7.9168   7.9352   8.0793   8.0880   8.1275   8.1907
    10.0896  10.1273  10.4174  10.4443  10.6241  10.6803  12.3510  12.3694
    12.4567  12.4979  12.6134  12.6615  12.7273  12.8089  12.8666  12.9402
    13.1867  13.3693  13.4073  13.5105  13.8814  13.9608  13.9922  14.0906
    14.8103  15.0289  15.1328  15.2420  15.5748  15.6366  16.0658  16.1663
    16.3869  16.7991  17.0213  17.4146  17.7191

          k = 0.0000 0.1607 0.3333 ( 61838 PWs)   bands (ev):

   -65.9050 -65.9046 -65.9046 -65.9041 -65.9041 -65.9036 -65.9036 -65.9032
   -30.3551 -30.3507 -30.3387 -30.3315 -30.3280 -30.3148 -30.3017 -30.2844
   -30.2786 -30.2622 -30.2494 -30.2377 -30.2279 -30.2252 -30.2122 -30.2110
   -30.2057 -30.2037 -30.1896 -30.1797 -30.1446 -30.1386 -30.1208 -30.1182
   -20.0504 -20.0503 -20.0501 -20.0501 -20.0498 -20.0497 -20.0496 -20.0495
   -20.0453 -20.0451 -20.0448 -20.0445 -20.0428 -20.0424 -20.0420 -20.0416
   -20.0376 -20.0373 -20.0369 -20.0365 -20.0361 -20.0358 -20.0354 -20.0350
   -20.0345 -20.0338 -20.0335 -20.0332 -20.0329 -20.0326 -20.0323 -20.0317
   -20.0253 -20.0250 -20.0246 -20.0242 -20.0240 -20.0235 -20.0233 -20.0229
   -20.0051 -20.0046 -20.0045 -20.0034 -20.0027 -20.0018 -20.0015 -20.0014
   -20.0008 -20.0005 -20.0004 -19.9989 -19.9980 -19.9966 -19.9965 -19.9957
    -9.6249  -9.4218  -9.3256  -9.1391  -9.0988  -8.9294  -8.7521  -8.7186
    -8.6749  -8.6673  -8.5447  -8.4925  -8.1556  -8.0586  -7.9563  -7.8861
    -7.7795  -7.7658  -7.7180  -7.6936  -7.6870  -7.6308  -7.5165  -7.4515
     1.4884   1.4952   1.6454   1.6640   1.8862   1.9054   1.9749   1.9955
     2.4186   2.5480   2.6260   2.7565   2.7876   2.8860   2.8902   2.9908
     3.1092   3.2359   3.8634   3.9596   4.0161   4.0657   4.2371   4.3528
     4.3697   4.5217   4.6199   4.7161   4.7978   4.8976   4.9877   5.1201
     5.1694   5.2555   5.3275   5.4659   5.5452   5.5748   5.6471   5.7910
     5.8628   5.8793   5.9697   5.9892   6.0355   6.1032   6.2523   6.3462
     6.4090   6.4638   6.5553   6.6913   6.7627   6.7959   6.8150   6.9176
     6.9377   7.0048   7.0194   7.0774   7.1388   7.1941   7.2498   7.3053
     7.4268   7.4828   7.8561   7.8713   7.9758   7.9988   8.1450   8.1708
    10.3790  10.4134  10.7069  10.8522  11.1345  11.2645  12.0242  12.1507
    12.2957  12.5655  12.5732  12.6792  12.6918  12.8361  12.8843  12.9384
    13.0658  13.2809  13.3439  13.4347  13.6672  13.7728  13.9944  14.0405
    14.9288  15.0124  15.3976  15.4824  15.8077  15.9310  15.9774  16.0865
    16.5167  17.1566  17.2652  17.5221  17.8596

          k = 0.0000 0.1607-0.5000 ( 61866 PWs)   bands (ev):

   -65.9048 -65.9048 -65.9043 -65.9043 -65.9039 -65.9039 -65.9034 -65.9034
   -30.3526 -30.3526 -30.3322 -30.3322 -30.3218 -30.3218 -30.2925 -30.2925
   -30.2702 -30.2702 -30.2400 -30.2400 -30.2327 -30.2327 -30.2091 -30.2091
   -30.2077 -30.2077 -30.1671 -30.1671 -30.1598 -30.1598 -30.1195 -30.1195
   -20.0504 -20.0504 -20.0500 -20.0500 -20.0499 -20.0499 -20.0496 -20.0496
   -20.0452 -20.0452 -20.0447 -20.0447 -20.0426 -20.0426 -20.0418 -20.0418
   -20.0374 -20.0374 -20.0367 -20.0367 -20.0359 -20.0359 -20.0352 -20.0352
   -20.0342 -20.0341 -20.0332 -20.0332 -20.0329 -20.0329 -20.0320 -20.0320
   -20.0250 -20.0250 -20.0246 -20.0246 -20.0236 -20.0236 -20.0232 -20.0232
   -20.0049 -20.0049 -20.0036 -20.0036 -20.0024 -20.0024 -20.0013 -20.0013
   -20.0011 -20.0011 -19.9992 -19.9992 -19.9978 -19.9978 -19.9961 -19.9961
    -9.5085  -9.5085  -9.1904  -9.1904  -9.0025  -9.0025  -8.6916  -8.6916
    -8.4691  -8.4691  -8.4175  -8.4175  -8.2848  -8.2848  -8.2222  -8.2222
    -7.7818  -7.7818  -7.7073  -7.7073  -7.6611  -7.6611  -7.4836  -7.4836
     1.4931   1.4931   1.6597   1.6597   1.9051   1.9051   1.9948   1.9948
     2.8194   2.8194   3.1355   3.1355   3.2401   3.2401   3.3327   3.3327
     3.4152   3.4152   3.4771   3.4771   3.6976   3.6976   3.9576   3.9576
     3.9980   3.9980   4.4196   4.4196   4.7041   4.7041   4.9356   4.9356
     5.2281   5.2281   5.4214   5.4214   5.5022   5.5022   5.6784   5.6784
     5.8523   5.8523   6.0042   6.0042   6.1248   6.1249   6.2644   6.2644
     6.4527   6.4527   6.5739   6.5739   6.6999   6.6999   6.8223   6.8223
     6.9819   6.9819   7.0048   7.0048   7.1218   7.1218   7.6188   7.6188
     7.6467   7.6467   7.7599   7.7599   7.8023   7.8023   8.1584   8.1584
    10.4043  10.4043  11.4086  11.4086  11.5797  11.5797  11.7467  11.7467
    11.9751  11.9751  12.6866  12.6866  12.7989  12.7989  13.0207  13.0207
    13.0884  13.0884  13.3604  13.3604  13.5393  13.5393  14.0069  14.0069
    14.9849  14.9849  15.6715  15.6715  15.8754  15.8754  16.0880  16.0880
    16.7491  16.7491  17.7971  17.7971  18.1835

          k = 0.0000 0.3215 0.0000 ( 61902 PWs)   bands (ev):

   -65.9052 -65.9049 -65.9042 -65.9042 -65.9040 -65.9039 -65.9033 -65.9030
   -30.3548 -30.3455 -30.3455 -30.3452 -30.3144 -30.3068 -30.3068 -30.2873
   -30.2774 -30.2600 -30.2600 -30.2514 -30.2210 -30.2210 -30.2137 -30.2130
   -30.2118 -30.2044 -30.1957 -30.1957 -30.1221 -30.1221 -30.1170 -30.1163
   -20.0505 -20.0503 -20.0503 -20.0503 -20.0496 -20.0496 -20.0496 -20.0495
   -20.0448 -20.0443 -20.0443 -20.0436 -20.0433 -20.0425 -20.0425 -20.0419
   -20.0375 -20.0368 -20.0368 -20.0365 -20.0360 -20.0360 -20.0360 -20.0352
   -20.0348 -20.0342 -20.0335 -20.0335 -20.0330 -20.0330 -20.0323 -20.0318
   -20.0256 -20.0255 -20.0243 -20.0243 -20.0239 -20.0239 -20.0229 -20.0226
   -20.0054 -20.0053 -20.0043 -20.0043 -20.0020 -20.0020 -20.0019 -20.0019
   -20.0003 -20.0003 -19.9999 -19.9998 -19.9968 -19.9968 -19.9954 -19.9953
    -9.7005  -9.5462  -9.2811  -9.2811  -9.0325  -9.0325  -8.8064  -8.8057
    -8.6706  -8.5501  -8.5340  -8.5340  -8.0658  -8.0040  -8.0040  -7.9706
    -7.7468  -7.7462  -7.6105  -7.6105  -7.5551  -7.5476  -7.4208  -7.4208
     1.4394   1.4461   1.4914   1.4914   1.6385   1.6385   1.8265   1.8618
     2.4667   2.5745   2.6087   2.6087   2.6262   2.7721   2.9157   3.0997
     3.1463   3.1463   3.7880   3.8278   3.8309   3.8309   4.2523   4.6327
     4.6327   4.8674   4.8674   4.8997   4.9475   4.9475   5.1901   5.2357
     5.2357   5.2425   5.5549   5.5549   5.6723   5.6857   5.8499   5.8792
     5.8792   5.8912   5.9948   6.0282   6.0282   6.1686   6.2101   6.2369
     6.3179   6.4186   6.4449   6.6365   6.6685   6.6685   7.0104   7.0104
     7.0149   7.0738   7.2219   7.2219   7.2237   7.2255   7.2848   7.2848
     7.5694   7.5694   7.8715   7.9144   7.9761   7.9859   7.9859   7.9966
     9.8445   9.8536  10.8784  10.8784  10.8893  10.9713  12.0703  12.0703
    12.1463  12.2866  12.4588  12.4588  12.7608  12.7920  12.7920  12.9012
    13.3861  13.4281  13.4281  13.5870  13.8184  13.8184  13.8793  13.9551
    15.0649  15.4290  15.4290  15.5121  15.5762  15.8317  16.0450  16.0450
    16.1484  17.1344  17.3938  17.7436  17.7436

          k = 0.0000 0.3215 0.1667 ( 61833 PWs)   bands (ev):

   -65.9051 -65.9048 -65.9043 -65.9042 -65.9040 -65.9039 -65.9033 -65.9031
   -30.3530 -30.3459 -30.3424 -30.3414 -30.3152 -30.3083 -30.3059 -30.2884
   -30.2761 -30.2607 -30.2581 -30.2506 -30.2233 -30.2189 -30.2154 -30.2127
   -30.2068 -30.2061 -30.1986 -30.1921 -30.1281 -30.1226 -30.1218 -30.1171
   -20.0504 -20.0503 -20.0503 -20.0502 -20.0497 -20.0496 -20.0496 -20.0495
   -20.0447 -20.0443 -20.0443 -20.0437 -20.0433 -20.0426 -20.0425 -20.0419
   -20.0374 -20.0369 -20.0368 -20.0365 -20.0361 -20.0360 -20.0359 -20.0353
   -20.0347 -20.0341 -20.0335 -20.0334 -20.0330 -20.0329 -20.0323 -20.0318
   -20.0255 -20.0253 -20.0244 -20.0242 -20.0240 -20.0238 -20.0229 -20.0227
   -20.0053 -20.0051 -20.0044 -20.0040 -20.0021 -20.0021 -20.0019 -20.0014
   -20.0006 -20.0004 -20.0000 -19.9996 -19.9972 -19.9967 -19.9957 -19.9955
    -9.6527  -9.4938  -9.2969  -9.2054  -9.0500  -8.9561  -8.7764  -8.7619
    -8.6801  -8.5416  -8.5387  -8.5150  -8.0684  -8.0128  -8.0018  -7.9784
    -7.8529  -7.7395  -7.7275  -7.6622  -7.6189  -7.5423  -7.5369  -7.4292
     1.4799   1.4915   1.5888   1.6438   1.7279   1.8761   1.9451   2.0503
     2.4745   2.5911   2.6119   2.6643   2.7141   2.7667   2.9613   3.1258
     3.1677   3.2313   3.7991   3.8144   3.8436   3.9069   4.2281   4.5236
     4.5295   4.6393   4.6683   4.8568   4.8763   4.9268   5.0162   5.0402
     5.2206   5.2311   5.3305   5.4976   5.5051   5.6604   5.7050   5.8032
     5.8451   5.8904   5.9120   5.9407   6.0326   6.1355   6.1733   6.2316
     6.4196   6.4412   6.6037   6.6612   6.7258   6.8630   6.9898   7.0402
     7.0592   7.0974   7.1226   7.1466   7.2297   7.2397   7.2581   7.2923
     7.3876   7.4591   7.8687   7.9155   7.9603   7.9761   7.9806   7.9936
    10.1112  10.1543  10.8804  10.9148  11.0370  11.1069  12.0604  12.1424
    12.1818  12.3269  12.3899  12.5202  12.6754  12.8229  12.8309  12.9540
    13.2376  13.3679  13.4283  13.5189  13.6994  13.8148  13.8229  13.9324
    15.1664  15.4163  15.5341  15.5732  15.6881  15.8901  16.0180  16.2897
    16.3238  17.0993  17.4018  17.4957  17.8290

          k = 0.0000 0.3215 0.3333 ( 61865 PWs)   bands (ev):

   -65.9049 -65.9047 -65.9045 -65.9042 -65.9040 -65.9037 -65.9035 -65.9033
   -30.3505 -30.3470 -30.3333 -30.3319 -30.3179 -30.3129 -30.3028 -30.2920
   -30.2722 -30.2629 -30.2521 -30.2474 -30.2308 -30.2266 -30.2146 -30.2113
   -30.2086 -30.2041 -30.1897 -30.1798 -30.1447 -30.1386 -30.1208 -30.1182
   -20.0504 -20.0503 -20.0502 -20.0501 -20.0498 -20.0497 -20.0496 -20.0496
   -20.0447 -20.0444 -20.0441 -20.0438 -20.0432 -20.0428 -20.0424 -20.0421
   -20.0373 -20.0370 -20.0366 -20.0364 -20.0362 -20.0361 -20.0358 -20.0354
   -20.0344 -20.0339 -20.0337 -20.0332 -20.0331 -20.0326 -20.0325 -20.0320
   -20.0253 -20.0251 -20.0246 -20.0243 -20.0239 -20.0235 -20.0232 -20.0229
   -20.0051 -20.0046 -20.0045 -20.0034 -20.0027 -20.0018 -20.0015 -20.0014
   -20.0008 -20.0005 -20.0004 -19.9989 -19.9980 -19.9966 -19.9965 -19.9957
    -9.5410  -9.3601  -9.3441  -9.1057  -9.0089  -8.7513  -8.7140  -8.6746
    -8.6410  -8.5528  -8.4908  -8.4352  -8.1765  -8.1126  -8.0337  -8.0168
    -7.9885  -7.9518  -7.9141  -7.8249  -7.7025  -7.6422  -7.5174  -7.4523
     1.4943   1.5023   1.6577   1.6762   2.3232   2.4125   2.4446   2.5390
     2.6031   2.6525   2.6721   2.8592   2.9140   2.9632   3.0276   3.1187
     3.3564   3.4284   3.7665   3.7958   3.8702   3.9549   3.9905   4.0574
     4.1895   4.3677   4.4782   4.5739   4.6078   4.7022   4.7348   4.8396
     4.9835   5.0443   5.1463   5.2188   5.2736   5.3775   5.4368   5.4941
     5.5634   5.7264   5.7818   5.9349   6.0947   6.1778   6.2632   6.3583
     6.5232   6.5373   6.6285   6.7412   6.7981   6.8941   6.9530   7.0160
     7.0824   7.1030   7.1561   7.1834   7.2091   7.2483   7.3004   7.3691
     7.4615   7.5080   7.8117   7.8686   7.8849   7.9144   7.9713   7.9829
    10.6989  10.7814  10.8911  10.9839  11.4440  11.5393  11.9792  12.0871
    12.2175  12.2706  12.4056  12.4849  12.6795  12.7385  12.7431  12.9646
    12.9869  13.1537  13.3437  13.4122  13.4398  13.6636  13.8182  13.8810
    15.2615  15.3807  15.6532  15.9156  16.0604  16.1096  16.2024  16.7653
    16.9376  16.9792  17.0640  17.6591  17.6991

          k = 0.0000 0.3215-0.5000 ( 61862 PWs)   bands (ev):

   -65.9047 -65.9047 -65.9044 -65.9044 -65.9038 -65.9038 -65.9035 -65.9035
   -30.3485 -30.3485 -30.3235 -30.3235 -30.3213 -30.3213 -30.2975 -30.2975
   -30.2671 -30.2671 -30.2416 -30.2415 -30.2399 -30.2399 -30.2113 -30.2113
   -30.2083 -30.2083 -30.1672 -30.1671 -30.1599 -30.1599 -30.1196 -30.1196
   -20.0504 -20.0504 -20.0500 -20.0500 -20.0499 -20.0499 -20.0496 -20.0496
   -20.0445 -20.0445 -20.0440 -20.0440 -20.0430 -20.0430 -20.0422 -20.0422
   -20.0371 -20.0371 -20.0364 -20.0364 -20.0363 -20.0363 -20.0356 -20.0356
   -20.0341 -20.0341 -20.0335 -20.0335 -20.0328 -20.0328 -20.0323 -20.0323
   -20.0249 -20.0249 -20.0247 -20.0247 -20.0236 -20.0236 -20.0232 -20.0232
   -20.0049 -20.0049 -20.0036 -20.0036 -20.0024 -20.0024 -20.0013 -20.0013
   -20.0011 -20.0011 -19.9992 -19.9992 -19.9978 -19.9978 -19.9961 -19.9961
    -9.4275  -9.4275  -9.2098  -9.2098  -8.8110  -8.8110  -8.5836  -8.5836
    -8.4697  -8.4696  -8.4289  -8.4289  -8.2840  -8.2840  -8.2233  -8.2233
    -8.0033  -8.0033  -7.9527  -7.9527  -7.6742  -7.6742  -7.4845  -7.4845
     1.5004   1.5004   1.6739   1.6739   2.4730   2.4730   2.6153   2.6153
     3.0332   3.0332   3.1694   3.1694   3.2278   3.2278   3.3968   3.3968
     3.4280   3.4280   3.4990   3.4990   3.7075   3.7075   3.8452   3.8452
     4.0821   4.0821   4.1817   4.1817   4.3556   4.3556   4.5020   4.5020
     4.9961   4.9961   5.0926   5.0926   5.2764   5.2764   5.4100   5.4100
     5.5658   5.5658   5.8662   5.8662   6.2238   6.2238   6.2742   6.2742
     6.5638   6.5638   6.6638   6.6638   6.7577   6.7577   6.8973   6.8973
     7.1795   7.1796   7.1950   7.1950   7.2154   7.2154   7.6100   7.6100
     7.6410   7.6410   7.7244   7.7244   7.7630   7.7630   7.9736   7.9736
    10.8813  10.8813  11.4316  11.4316  11.5943  11.5943  11.8987  11.8987
    12.1452  12.1452  12.3469  12.3469  12.7488  12.7488  12.8018  12.8018
    13.0280  13.0280  13.1706  13.1706  13.5032  13.5032  13.8330  13.8330
    15.3232  15.3232  15.7971  15.7971  16.4391  16.4391  16.6963  16.6963
    16.9102  16.9102  17.4383  17.4384  18.0112

          k = 0.0000-0.4822 0.0000 ( 61898 PWs)   bands (ev):

   -65.9050 -65.9050 -65.9041 -65.9041 -65.9041 -65.9040 -65.9032 -65.9031
   -30.3493 -30.3493 -30.3438 -30.3438 -30.3048 -30.3048 -30.3004 -30.3004
   -30.2651 -30.2651 -30.2625 -30.2625 -30.2222 -30.2222 -30.2133 -30.2133
   -30.2087 -30.2087 -30.1959 -30.1959 -30.1221 -30.1221 -30.1167 -30.1167
   -20.0504 -20.0504 -20.0503 -20.0503 -20.0496 -20.0496 -20.0495 -20.0495
   -20.0440 -20.0440 -20.0438 -20.0438 -20.0429 -20.0429 -20.0427 -20.0427
   -20.0370 -20.0370 -20.0365 -20.0365 -20.0363 -20.0363 -20.0356 -20.0356
   -20.0346 -20.0346 -20.0334 -20.0334 -20.0332 -20.0332 -20.0321 -20.0321
   -20.0256 -20.0256 -20.0243 -20.0243 -20.0239 -20.0239 -20.0227 -20.0227
   -20.0054 -20.0053 -20.0043 -20.0043 -20.0020 -20.0020 -20.0019 -20.0019
   -20.0003 -20.0003 -19.9999 -19.9998 -19.9968 -19.9968 -19.9954 -19.9953
    -9.6133  -9.6133  -9.2450  -9.2450  -9.0316  -9.0316  -8.8040  -8.8039
    -8.3668  -8.3668  -8.3131  -8.3131  -8.3031  -8.3031  -8.2924  -8.2924
    -7.7489  -7.7489  -7.6118  -7.6118  -7.5518  -7.5518  -7.4212  -7.4212
     1.4423   1.4423   1.4921   1.4921   1.6402   1.6402   1.8547   1.8547
     2.5997   2.5997   3.0700   3.0700   3.1503   3.1503   3.4132   3.4132
     3.4876   3.4876   3.5051   3.5051   3.6008   3.6008   3.8544   3.8544
     3.8900   3.8900   4.8678   4.8678   4.9224   4.9224   5.3673   5.3673
     5.4264   5.4264   5.4374   5.4374   5.4536   5.4536   5.8781   5.8781
     5.9254   5.9254   5.9393   5.9393   6.1346   6.1346   6.2262   6.2262
     6.3638   6.3638   6.4853   6.4853   6.6777   6.6777   6.9630   6.9630
     7.0433   7.0433   7.2452   7.2452   7.5160   7.5160   7.5168   7.5169
     7.6450   7.6450   7.6814   7.6814   7.7495   7.7495   7.9432   7.9432
     9.8527   9.8527  11.3783  11.3783  11.4518  11.4518  11.6198  11.6198
    11.7252  11.7252  12.4642  12.4642  12.7937  12.7937  12.8418  12.8418
    13.5377  13.5377  13.5809  13.5810  13.5871  13.5871  13.8040  13.8040
    15.4153  15.4153  15.6642  15.6642  15.6990  15.6990  15.9654  15.9654
    16.6982  16.6982  18.1421  18.1421  18.1826

          k = 0.0000-0.4822 0.1667 ( 61870 PWs)   bands (ev):

   -65.9050 -65.9050 -65.9042 -65.9041 -65.9041 -65.9040 -65.9032 -65.9032
   -30.3489 -30.3449 -30.3441 -30.3395 -30.3064 -30.3045 -30.3020 -30.3007
   -30.2651 -30.2631 -30.2627 -30.2604 -30.2247 -30.2200 -30.2137 -30.2128
   -30.2091 -30.2067 -30.1987 -30.1922 -30.1282 -30.1226 -30.1218 -30.1171
   -20.0504 -20.0503 -20.0503 -20.0502 -20.0497 -20.0496 -20.0496 -20.0496
   -20.0440 -20.0439 -20.0438 -20.0437 -20.0430 -20.0429 -20.0428 -20.0427
   -20.0369 -20.0369 -20.0365 -20.0365 -20.0364 -20.0363 -20.0357 -20.0357
   -20.0345 -20.0345 -20.0334 -20.0333 -20.0333 -20.0331 -20.0321 -20.0321
   -20.0255 -20.0254 -20.0244 -20.0242 -20.0240 -20.0238 -20.0228 -20.0228
   -20.0053 -20.0051 -20.0044 -20.0040 -20.0021 -20.0021 -20.0019 -20.0014
   -20.0006 -20.0004 -20.0000 -19.9996 -19.9972 -19.9967 -19.9957 -19.9955
    -9.5736  -9.5515  -9.2599  -9.1626  -9.0504  -8.9546  -8.7751  -8.7575
    -8.3735  -8.3734  -8.3223  -8.3077  -8.3074  -8.2976  -8.2947  -8.2826
    -7.8586  -7.7417  -7.7309  -7.6627  -7.6203  -7.5426  -7.5373  -7.4296
     1.4801   1.4922   1.5884   1.6456   1.7301   1.8801   1.9666   2.0598
     2.6851   2.6884   3.0685   3.0770   3.1712   3.1967   3.4018   3.4188
     3.4382   3.4933   3.5219   3.5409   3.6334   3.6805   3.8394   3.8857
     3.9123   3.9270   4.5431   4.5566   4.8684   4.8832   5.1348   5.1878
     5.2570   5.2577   5.3465   5.3831   5.4301   5.4914   5.6423   5.7310
     5.8552   5.8870   5.8888   5.9130   5.9778   6.1796   6.1819   6.2289
     6.4452   6.4897   6.5355   6.6710   6.6834   6.8665   6.9491   7.0653
     7.0799   7.1293   7.1462   7.1758   7.3320   7.3879   7.5147   7.5294
     7.6011   7.6268   7.6834   7.6921   7.7387   7.7442   7.9444   7.9486
    10.1166  10.1615  11.3809  11.4474  11.4851  11.5693  11.6203  11.7246
    11.7284  11.8292  12.3903  12.5195  12.6812  12.8282  12.9066  12.9134
    13.3909  13.4325  13.4490  13.4991  13.5789  13.5864  13.7394  13.8159
    15.3911  15.5479  15.6413  15.7280  15.8676  15.9510  15.9629  16.1998
    16.7520  16.7631  17.9399  18.0377  18.1608

          k = 0.0000-0.4822 0.3333 ( 61860 PWs)   bands (ev):

   -65.9048 -65.9048 -65.9044 -65.9043 -65.9039 -65.9038 -65.9034 -65.9034
   -30.3479 -30.3451 -30.3339 -30.3286 -30.3118 -30.3071 -30.3036 -30.3015
   -30.2649 -30.2635 -30.2565 -30.2536 -30.2332 -30.2264 -30.2158 -30.2115
   -30.2101 -30.2042 -30.1898 -30.1798 -30.1447 -30.1386 -30.1209 -30.1182
   -20.0504 -20.0503 -20.0502 -20.0501 -20.0498 -20.0497 -20.0496 -20.0496
   -20.0439 -20.0438 -20.0438 -20.0435 -20.0432 -20.0430 -20.0429 -20.0428
   -20.0369 -20.0368 -20.0366 -20.0365 -20.0364 -20.0361 -20.0359 -20.0358
   -20.0342 -20.0342 -20.0336 -20.0335 -20.0330 -20.0328 -20.0324 -20.0323
   -20.0252 -20.0251 -20.0246 -20.0243 -20.0239 -20.0236 -20.0231 -20.0230
   -20.0051 -20.0046 -20.0045 -20.0034 -20.0027 -20.0018 -20.0015 -20.0014
   -20.0008 -20.0005 -20.0004 -19.9989 -19.9980 -19.9966 -19.9965 -19.9957
    -9.4790  -9.3958  -9.3044  -9.1110  -8.9332  -8.7473  -8.6752  -8.6138
    -8.4215  -8.4032  -8.3456  -8.3275  -8.2950  -8.2908  -8.2805  -8.2467
    -8.1118  -8.0084  -7.9345  -7.8380  -7.7038  -7.6437  -7.5179  -7.4527
     1.4952   1.5031   1.6599   1.6778   2.3729   2.5057   2.5540   2.6786
     2.9305   2.9364   3.0713   3.0922   3.2368   3.2903   3.3535   3.4299
     3.4335   3.5012   3.5135   3.5358   3.7141   3.8023   3.8825   3.9473
     3.9661   3.9790   4.0077   4.0346   4.5166   4.5521   4.7114   4.7766
     4.8463   4.9399   5.0350   5.0740   5.2917   5.3786   5.3849   5.4391
     5.4767   5.6021   5.7766   5.8138   6.1030   6.2112   6.2693   6.3667
     6.5529   6.5751   6.6371   6.7451   6.7624   6.9054   6.9171   7.0928
     7.1513   7.1638   7.2191   7.2723   7.3470   7.3772   7.4920   7.5542
     7.5820   7.6367   7.6717   7.7136   7.7170   7.7314   7.8915   7.8927
    10.7232  10.8285  11.3873  11.4417  11.6257  11.6671  11.8564  11.9147
    12.0262  12.0697  12.1173  12.2779  12.6911  12.8024  12.8525  12.9490
    12.9631  13.0628  13.2028  13.3438  13.5785  13.5924  13.6654  13.7370
    15.3861  15.5703  15.6762  15.8783  16.2324  16.4542  16.6752  16.8548
    16.9290  16.9781  17.5057  17.5258  18.0079

          k = 0.0000-0.4822-0.5000 ( 61876 PWs)   bands (ev):

   -65.9046 -65.9046 -65.9045 -65.9045 -65.9036 -65.9036 -65.9036 -65.9036
   -30.3465 -30.3465 -30.3213 -30.3213 -30.3163 -30.3163 -30.3025 -30.3025
   -30.2643 -30.2643 -30.2456 -30.2456 -30.2416 -30.2416 -30.2126 -30.2126
   -30.2084 -30.2084 -30.1672 -30.1672 -30.1599 -30.1599 -30.1196 -30.1196
   -20.0504 -20.0504 -20.0500 -20.0500 -20.0499 -20.0499 -20.0496 -20.0496
   -20.0439 -20.0439 -20.0435 -20.0435 -20.0433 -20.0433 -20.0428 -20.0428
   -20.0367 -20.0367 -20.0367 -20.0367 -20.0362 -20.0362 -20.0359 -20.0359
   -20.0339 -20.0339 -20.0338 -20.0338 -20.0327 -20.0327 -20.0325 -20.0325
   -20.0249 -20.0249 -20.0247 -20.0247 -20.0235 -20.0235 -20.0233 -20.0233
   -20.0049 -20.0049 -20.0036 -20.0036 -20.0024 -20.0024 -20.0013 -20.0013
   -20.0011 -20.0011 -19.9992 -19.9992 -19.9978 -19.9978 -19.9961 -19.9961
    -9.3795  -9.3795  -9.2264  -9.2264  -8.6282  -8.6282  -8.5125  -8.5125
    -8.4805  -8.4805  -8.4182  -8.4182  -8.2754  -8.2754  -8.2271  -8.2271
    -8.1922  -8.1921  -8.1160  -8.1160  -7.6758  -7.6758  -7.4849  -7.4849
     1.5013   1.5013   1.6761   1.6761   2.9800   2.9800   3.1592   3.1592
     3.2107   3.2107   3.2343   3.2343   3.3057   3.3057   3.3928   3.3928
     3.4376   3.4376   3.5307   3.5307   3.5766   3.5766   3.6488   3.6488
     3.8100   3.8100   3.9711   3.9711   4.4069   4.4069   4.4856   4.4856
     4.5071   4.5071   4.6105   4.6105   5.3272   5.3272   5.3842   5.3842
     5.5791   5.5791   5.7236   5.7236   6.2596   6.2596   6.2710   6.2710
     6.5928   6.5928   6.6769   6.6769   6.7897   6.7897   6.8524   6.8524
     7.3369   7.3369   7.3683   7.3683   7.4550   7.4550   7.5586   7.5586
     7.6562   7.6562   7.6701   7.6701   7.7123   7.7123   7.7777   7.7777
    11.3080  11.3080  11.5004  11.5004  11.5682  11.5682  11.7291  11.7291
    12.3229  12.3230  12.3802  12.3802  12.5206  12.5206  12.5750  12.5750
    12.9606  12.9606  13.1512  13.1512  13.6002  13.6002  13.6314  13.6314
    15.4680  15.4680  15.7853  15.7854  16.8929  16.8929  17.0562  17.0562
    17.3940  17.3940  17.4908  17.4908  17.6399

          k = 0.1667 0.0000 0.1667 ( 61812 PWs)   bands (ev):

   -65.9052 -65.9046 -65.9044 -65.9044 -65.9038 -65.9038 -65.9035 -65.9030
   -30.3583 -30.3484 -30.3483 -30.3363 -30.3304 -30.3098 -30.3096 -30.2846
   -30.2784 -30.2548 -30.2547 -30.2356 -30.2208 -30.2172 -30.2169 -30.2068
   -30.2053 -30.2030 -30.1940 -30.1939 -30.1278 -30.1278 -30.1237 -30.1223
   -20.0505 -20.0503 -20.0503 -20.0502 -20.0497 -20.0497 -20.0497 -20.0495
   -20.0456 -20.0452 -20.0452 -20.0448 -20.0427 -20.0420 -20.0420 -20.0413
   -20.0378 -20.0372 -20.0371 -20.0364 -20.0360 -20.0355 -20.0355 -20.0348
   -20.0347 -20.0336 -20.0335 -20.0334 -20.0326 -20.0325 -20.0325 -20.0315
   -20.0255 -20.0251 -20.0244 -20.0243 -20.0238 -20.0238 -20.0231 -20.0227
   -20.0051 -20.0050 -20.0041 -20.0041 -20.0022 -20.0021 -20.0014 -20.0014
   -20.0007 -20.0007 -19.9998 -19.9998 -19.9971 -19.9971 -19.9958 -19.9958
    -9.7215  -9.3867  -9.3497  -9.3476  -8.9831  -8.9753  -8.9718  -8.7823
    -8.7354  -8.6665  -8.6545  -8.6508  -7.8962  -7.8510  -7.7672  -7.7660
    -7.6729  -7.6657  -7.6527  -7.6165  -7.6164  -7.5841  -7.5479  -7.5394
     1.5856   1.6270   1.6286   1.7018   1.7144   1.7207   1.7899   1.7926
     1.9445   1.9461   2.1152   2.2645   2.7044   2.7383   2.8311   2.8390
     2.9046   2.9377   4.2018   4.2401   4.4660   4.4784   4.5780   4.5962
     4.6299   4.6639   4.7030   4.8095   4.9162   4.9833   5.3141   5.3605
     5.3667   5.5060   5.5197   5.6475   5.6837   5.6946   5.7675   5.8114
     5.8771   5.8889   5.8937   5.9153   5.9636   6.2008   6.2108   6.2435
     6.3734   6.6505   6.6953   6.7580   6.7764   6.7792   6.8566   6.8785
     6.8985   6.9133   6.9847   7.0162   7.0618   7.1131   7.1655   7.2405
     7.3807   7.4056   7.9188   7.9300   8.0963   8.1114   8.1514   8.2424
    10.2528  10.2786  10.4454  10.4818  10.5497  10.6303  12.4089  12.4194
    12.4620  12.4734  12.6925  12.7189  12.8021  12.8255  12.9182  13.0108
    13.1900  13.2981  13.4564  13.4651  13.8642  13.9355  14.0249  14.0820
    14.6878  14.9180  14.9191  15.2031  15.6251  15.7114  15.7254  16.3560
    16.3818  17.0284  17.0595  17.2172  17.7446

          k = 0.1667 0.0000 0.3333 ( 61827 PWs)   bands (ev):

   -65.9050 -65.9045 -65.9045 -65.9042 -65.9040 -65.9037 -65.9036 -65.9032
   -30.3548 -30.3497 -30.3420 -30.3325 -30.3287 -30.3132 -30.3024 -30.2833
   -30.2790 -30.2604 -30.2499 -30.2335 -30.2296 -30.2225 -30.2135 -30.2071
   -30.2048 -30.1987 -30.1892 -30.1810 -30.1443 -30.1391 -30.1269 -30.1241
   -20.0504 -20.0503 -20.0501 -20.0501 -20.0498 -20.0498 -20.0496 -20.0496
   -20.0455 -20.0453 -20.0451 -20.0449 -20.0426 -20.0422 -20.0419 -20.0415
   -20.0377 -20.0373 -20.0370 -20.0366 -20.0359 -20.0356 -20.0354 -20.0350
   -20.0344 -20.0338 -20.0333 -20.0332 -20.0328 -20.0326 -20.0322 -20.0317
   -20.0253 -20.0249 -20.0246 -20.0241 -20.0241 -20.0236 -20.0234 -20.0229
   -20.0049 -20.0044 -20.0044 -20.0035 -20.0027 -20.0019 -20.0015 -20.0012
   -20.0010 -20.0004 -20.0002 -19.9990 -19.9980 -19.9968 -19.9967 -19.9961
    -9.6092  -9.4002  -9.2500  -9.2112  -9.0215  -9.0150  -8.7639  -8.7284
    -8.6701  -8.6408  -8.5408  -8.5143  -8.1459  -8.0636  -7.9433  -7.9106
    -7.8163  -7.7625  -7.6658  -7.6440  -7.6205  -7.6178  -7.5945  -7.5648
     1.6026   1.6173   1.6890   1.7103   1.7953   1.8005   1.9320   1.9588
     2.4200   2.5499   2.6080   2.7386   2.7869   2.8913   2.9789   3.0376
     3.1062   3.1775   3.8858   3.9744   4.0751   4.0964   4.2013   4.4471
     4.5193   4.5812   4.6319   4.6649   4.7387   4.8364   4.9562   5.0252
     5.2096   5.2632   5.2692   5.3311   5.4209   5.5823   5.7123   5.7553
     5.8536   5.8642   5.9453   5.9777   6.0118   6.0681   6.1470   6.2414
     6.4683   6.5924   6.5998   6.6522   6.6737   6.7557   6.8424   6.8588
     6.8880   6.9781   7.0282   7.0537   7.1998   7.2294   7.2896   7.3654
     7.4342   7.4890   7.8633   7.8677   8.0057   8.0197   8.1672   8.2043
    10.4326  10.4474  10.8227  10.9505  11.0481  11.2260  12.0855  12.1790
    12.3173  12.5432  12.5631  12.6385  12.7870  12.8879  12.9078  13.0311
    13.1590  13.2666  13.2996  13.4303  13.7533  13.7808  13.9788  13.9943
    14.7719  14.8983  15.1393  15.4831  15.6183  15.9415  16.0114  16.2196
    16.5770  17.1265  17.5134  17.5267  17.6639

          k = 0.1667 0.0000-0.5000 ( 61840 PWs)   bands (ev):

   -65.9048 -65.9048 -65.9042 -65.9042 -65.9040 -65.9040 -65.9034 -65.9034
   -30.3518 -30.3518 -30.3362 -30.3362 -30.3196 -30.3196 -30.2920 -30.2920
   -30.2698 -30.2698 -30.2412 -30.2412 -30.2291 -30.2291 -30.2104 -30.2104
   -30.2024 -30.2024 -30.1667 -30.1667 -30.1606 -30.1606 -30.1256 -30.1255
   -20.0503 -20.0503 -20.0500 -20.0499 -20.0499 -20.0499 -20.0496 -20.0496
   -20.0454 -20.0454 -20.0450 -20.0450 -20.0424 -20.0424 -20.0417 -20.0417
   -20.0375 -20.0375 -20.0368 -20.0368 -20.0358 -20.0358 -20.0352 -20.0352
   -20.0341 -20.0341 -20.0331 -20.0331 -20.0329 -20.0329 -20.0319 -20.0319
   -20.0249 -20.0249 -20.0245 -20.0245 -20.0237 -20.0237 -20.0232 -20.0232
   -20.0047 -20.0046 -20.0035 -20.0035 -20.0025 -20.0025 -20.0015 -20.0015
   -20.0007 -20.0007 -19.9992 -19.9992 -19.9979 -19.9979 -19.9965 -19.9965
    -9.4891  -9.4891  -9.1105  -9.1105  -9.0864  -9.0864  -8.6940  -8.6940
    -8.4741  -8.4741  -8.4076  -8.4076  -8.2875  -8.2875  -8.2243  -8.2243
    -7.8046  -7.8046  -7.6525  -7.6525  -7.6086  -7.6086  -7.5943  -7.5943
     1.6082   1.6082   1.7007   1.7007   1.8048   1.8048   1.9652   1.9652
     2.8228   2.8228   3.1407   3.1407   3.2249   3.2249   3.3329   3.3329
     3.4261   3.4261   3.5305   3.5305   3.7329   3.7329   3.9250   3.9250
     3.9947   3.9947   4.5536   4.5536   4.6596   4.6596   5.0727   5.0727
     5.1360   5.1360   5.2336   5.2336   5.4361   5.4361   5.7919   5.7919
     5.8245   5.8245   5.9198   5.9198   6.0095   6.0095   6.1868   6.1868
     6.4504   6.4504   6.5839   6.5839   6.6842   6.6842   6.8556   6.8556
     6.9704   6.9704   7.0738   7.0738   7.1422   7.1422   7.6328   7.6328
     7.6693   7.6693   7.7751   7.7751   7.8166   7.8166   8.1833   8.1833
    10.4528  10.4528  11.4754  11.4754  11.6407  11.6407  11.6928  11.6928
    11.9559  11.9559  12.6832  12.6833  12.9058  12.9058  12.9791  12.9791
    13.1277  13.1277  13.4600  13.4600  13.5193  13.5193  13.9732  13.9732
    14.8558  14.8558  15.4211  15.4211  15.8617  15.8617  16.2294  16.2294
    16.7807  16.7807  17.8846  17.8846  18.1070

          k = 0.1667 0.1607 0.1667 ( 61827 PWs)   bands (ev):

   -65.9051 -65.9047 -65.9043 -65.9043 -65.9039 -65.9038 -65.9035 -65.9030
   -30.3561 -30.3464 -30.3462 -30.3372 -30.3265 -30.3091 -30.3090 -30.2821
   -30.2813 -30.2559 -30.2559 -30.2395 -30.2204 -30.2187 -30.2181 -30.2069
   -30.2055 -30.2048 -30.1942 -30.1941 -30.1278 -30.1278 -30.1236 -30.1224
   -20.0505 -20.0503 -20.0503 -20.0502 -20.0497 -20.0497 -20.0497 -20.0495
   -20.0454 -20.0450 -20.0449 -20.0445 -20.0429 -20.0422 -20.0422 -20.0415
   -20.0377 -20.0371 -20.0371 -20.0364 -20.0361 -20.0356 -20.0356 -20.0349
   -20.0346 -20.0336 -20.0335 -20.0335 -20.0326 -20.0326 -20.0325 -20.0316
   -20.0255 -20.0252 -20.0243 -20.0243 -20.0238 -20.0238 -20.0231 -20.0227
   -20.0051 -20.0050 -20.0041 -20.0041 -20.0022 -20.0021 -20.0014 -20.0014
   -20.0007 -20.0007 -19.9998 -19.9998 -19.9971 -19.9971 -19.9958 -19.9958
    -9.6865  -9.3995  -9.3086  -9.3063  -8.9758  -8.9716  -8.9061  -8.7619
    -8.7346  -8.6440  -8.6266  -8.6235  -7.9124  -7.8532  -7.7965  -7.7885
    -7.7533  -7.7180  -7.7053  -7.6811  -7.6544  -7.6435  -7.5456  -7.5401
     1.6701   1.6942   1.7056   1.7115   1.8109   1.8454   1.8486   1.9366
     2.0422   2.0464   2.1154   2.3287   2.7266   2.8031   2.8259   2.9213
     2.9840   3.0072   4.1307   4.1497   4.3190   4.3383   4.4987   4.5359
     4.6014   4.6460   4.6555   4.8289   4.8556   4.8988   5.1635   5.2846
     5.3020   5.4631   5.4708   5.5596   5.5833   5.6240   5.6491   5.7392
     5.8598   5.8831   5.9106   5.9805   6.0143   6.0499   6.2055   6.2070
     6.4363   6.5843   6.6482   6.7527   6.8005   6.8076   6.8643   6.8791
     6.9531   6.9536   7.0259   7.0457   7.0960   7.1226   7.1913   7.2351
     7.3821   7.4043   7.9149   7.9296   8.0688   8.0785   8.1153   8.1741
    10.2987  10.3230  10.6060  10.6080  10.6719  10.7540  12.3873  12.4018
    12.4329  12.4478  12.6398  12.6785  12.7387  12.7874  12.8799  12.9508
    13.1512  13.2519  13.4486  13.4544  13.8718  13.8757  13.9980  14.0013
    14.8709  15.1236  15.1344  15.3303  15.6185  15.7178  16.1088  16.3499
    16.3595  16.9204  17.1589  17.1628  17.7809

          k = 0.1667 0.1607 0.3333 ( 61839 PWs)   bands (ev):

   -65.9050 -65.9045 -65.9045 -65.9042 -65.9040 -65.9037 -65.9037 -65.9032
   -30.3524 -30.3475 -30.3392 -30.3294 -30.3287 -30.3129 -30.3029 -30.2858
   -30.2770 -30.2606 -30.2507 -30.2372 -30.2292 -30.2247 -30.2151 -30.2090
   -30.2048 -30.1988 -30.1892 -30.1810 -30.1443 -30.1391 -30.1269 -30.1241
   -20.0504 -20.0503 -20.0501 -20.0501 -20.0498 -20.0498 -20.0497 -20.0496
   -20.0453 -20.0450 -20.0449 -20.0446 -20.0427 -20.0423 -20.0420 -20.0416
   -20.0376 -20.0372 -20.0369 -20.0365 -20.0360 -20.0357 -20.0355 -20.0351
   -20.0344 -20.0338 -20.0334 -20.0333 -20.0328 -20.0327 -20.0324 -20.0318
   -20.0252 -20.0249 -20.0246 -20.0241 -20.0241 -20.0236 -20.0233 -20.0229
   -20.0049 -20.0044 -20.0044 -20.0035 -20.0027 -20.0019 -20.0015 -20.0012
   -20.0010 -20.0004 -20.0002 -19.9990 -19.9980 -19.9968 -19.9967 -19.9961
    -9.5710  -9.3592  -9.2616  -9.1554  -9.0228  -8.9408  -8.7639  -8.6964
    -8.6442  -8.6373  -8.5345  -8.5012  -8.1480  -8.0684  -7.9481  -7.9213
    -7.8258  -7.7814  -7.7523  -7.7233  -7.7095  -7.6934  -7.6266  -7.5645
     1.7064   1.7151   1.8515   1.8630   1.9027   1.9143   2.0016   2.0469
     2.4229   2.5551   2.6116   2.7446   2.8654   2.9570   3.0056   3.0926
     3.1277   3.2384   3.8894   3.9881   4.0370   4.0817   4.2306   4.3392
     4.4107   4.5168   4.5505   4.6407   4.6733   4.7814   4.9222   4.9420
     5.0832   5.1028   5.1782   5.2406   5.3820   5.4205   5.5343   5.6724
     5.7757   5.7999   5.8984   5.9340   5.9910   6.0409   6.0954   6.1311
     6.4944   6.5853   6.6791   6.7313   6.7475   6.8106   6.8659   6.9340
     6.9546   6.9852   7.0599   7.1187   7.1978   7.2360   7.2908   7.3684
     7.4417   7.4951   7.8606   7.8668   7.9821   7.9973   8.1198   8.1436
    10.5818  10.5919  10.8591  10.9766  11.1478  11.2965  12.0869  12.1924
    12.3245  12.5416  12.5740  12.6361  12.7227  12.7902  12.8845  12.9463
    13.0410  13.2124  13.2761  13.4129  13.6627  13.6976  13.9284  13.9504
    15.0083  15.1143  15.4268  15.5790  15.9346  16.0030  16.0370  16.2447
    16.6533  17.1095  17.3278  17.5718  17.6075

          k = 0.1667 0.1607-0.5000 ( 61818 PWs)   bands (ev):

   -65.9047 -65.9047 -65.9043 -65.9043 -65.9039 -65.9039 -65.9034 -65.9034
   -30.3495 -30.3495 -30.3327 -30.3327 -30.3199 -30.3199 -30.2937 -30.2937
   -30.2686 -30.2686 -30.2414 -30.2414 -30.2323 -30.2323 -30.2120 -30.2120
   -30.2024 -30.2024 -30.1668 -30.1668 -30.1606 -30.1606 -30.1256 -30.1256
   -20.0503 -20.0503 -20.0500 -20.0500 -20.0499 -20.0499 -20.0496 -20.0496
   -20.0452 -20.0452 -20.0447 -20.0447 -20.0425 -20.0425 -20.0419 -20.0418
   -20.0374 -20.0374 -20.0367 -20.0367 -20.0359 -20.0359 -20.0353 -20.0353
   -20.0341 -20.0341 -20.0331 -20.0331 -20.0330 -20.0330 -20.0321 -20.0321
   -20.0249 -20.0249 -20.0245 -20.0245 -20.0237 -20.0237 -20.0233 -20.0233
   -20.0047 -20.0046 -20.0035 -20.0035 -20.0025 -20.0025 -20.0015 -20.0015
   -20.0007 -20.0007 -19.9992 -19.9992 -19.9979 -19.9979 -19.9965 -19.9965
    -9.4487  -9.4487  -9.1173  -9.1173  -9.0164  -9.0164  -8.6628  -8.6627
    -8.4749  -8.4748  -8.4098  -8.4098  -8.2868  -8.2868  -8.2248  -8.2248
    -7.8196  -7.8196  -7.7356  -7.7356  -7.7095  -7.7095  -7.5953  -7.5953
     1.7114   1.7115   1.8643   1.8643   1.9133   1.9133   2.0465   2.0465
     2.8955   2.8955   3.1548   3.1548   3.2374   3.2374   3.3540   3.3540
     3.4297   3.4298   3.5415   3.5415   3.7387   3.7387   3.9642   3.9642
     4.0061   4.0061   4.4326   4.4326   4.5814   4.5814   4.8841   4.8841
     5.0472   5.0472   5.1890   5.1890   5.2662   5.2662   5.6267   5.6267
     5.7882   5.7882   5.8489   5.8489   5.9666   5.9666   6.0432   6.0432
     6.5656   6.5656   6.7077   6.7077   6.7692   6.7692   6.8722   6.8722
     7.0123   7.0123   7.0745   7.0745   7.1784   7.1785   7.6348   7.6348
     7.6629   7.6629   7.7694   7.7694   7.8070   7.8070   8.1294   8.1294
    10.6076  10.6076  11.4909  11.4909  11.6501  11.6501  11.7599  11.7599
    12.0010  12.0010  12.6835  12.6835  12.7897  12.7897  12.9447  12.9447
    13.1054  13.1054  13.3446  13.3447  13.4404  13.4404  13.9237  13.9237
    15.0819  15.0819  15.7380  15.7380  15.9707  15.9707  16.2561  16.2561
    16.8168  16.8168  17.7847  17.7847  18.0324

          k = 0.1667 0.3215 0.1667 ( 61848 PWs)   bands (ev):

   -65.9050 -65.9048 -65.9042 -65.9042 -65.9040 -65.9039 -65.9034 -65.9031
   -30.3505 -30.3421 -30.3420 -30.3398 -30.3160 -30.3074 -30.3073 -30.2896
   -30.2747 -30.2588 -30.2588 -30.2499 -30.2217 -30.2216 -30.2176 -30.2094
   -30.2065 -30.2058 -30.1945 -30.1944 -30.1278 -30.1278 -30.1234 -30.1226
   -20.0504 -20.0503 -20.0502 -20.0502 -20.0497 -20.0497 -20.0496 -20.0495
   -20.0447 -20.0443 -20.0443 -20.0437 -20.0433 -20.0426 -20.0425 -20.0420
   -20.0374 -20.0368 -20.0368 -20.0364 -20.0361 -20.0360 -20.0360 -20.0353
   -20.0346 -20.0340 -20.0335 -20.0334 -20.0329 -20.0329 -20.0324 -20.0319
   -20.0254 -20.0252 -20.0243 -20.0243 -20.0239 -20.0239 -20.0230 -20.0228
   -20.0051 -20.0050 -20.0041 -20.0041 -20.0022 -20.0021 -20.0014 -20.0014
   -20.0007 -20.0007 -19.9998 -19.9998 -19.9971 -19.9971 -19.9958 -19.9958
    -9.6012  -9.4394  -9.2226  -9.2205  -8.9754  -8.9721  -8.7376  -8.7327
    -8.6899  -8.5333  -8.5210  -8.5185  -8.0722  -8.0104  -8.0102  -7.9861
    -7.8491  -7.8414  -7.7406  -7.7341  -7.6564  -7.6497  -7.5451  -7.5420
     1.6859   1.6938   1.7293   1.7308   1.8822   1.8832   2.0480   2.1115
     2.4813   2.5914   2.6027   2.7488   2.7533   2.8177   3.0210   3.1848
     3.2218   3.2360   3.8217   3.8267   3.8621   3.9357   4.2082   4.5222
     4.5510   4.5769   4.5914   4.6724   4.7078   4.8987   4.9160   4.9918
     5.0183   5.0691   5.2714   5.2758   5.4784   5.5251   5.5667   5.5943
     5.8086   5.8100   5.8599   5.8742   5.9292   5.9856   6.2031   6.2057
     6.5214   6.6145   6.6626   6.7595   6.8606   6.8753   6.8929   6.9516
     7.0992   7.1001   7.1403   7.1406   7.2387   7.2407   7.2688   7.2853
     7.4172   7.4201   7.8653   7.9106   7.9492   7.9619   7.9807   7.9818
    10.3468  10.3582  11.0063  11.0333  11.0626  11.1643  12.1199  12.1530
    12.2193  12.3487  12.4465  12.4650  12.7111  12.7192  12.8790  12.9879
    13.1897  13.2475  13.4220  13.4463  13.6667  13.6881  13.8200  13.8558
    15.3020  15.5527  15.5788  15.6358  15.7435  15.9486  16.2773  16.2801
    16.4312  17.0668  17.4430  17.5233  17.5924

          k = 0.1667 0.3215 0.3333 ( 61861 PWs)   bands (ev):

   -65.9049 -65.9046 -65.9044 -65.9041 -65.9041 -65.9038 -65.9036 -65.9033
   -30.3470 -30.3431 -30.3330 -30.3313 -30.3186 -30.3120 -30.3042 -30.2933
   -30.2707 -30.2610 -30.2527 -30.2469 -30.2301 -30.2275 -30.2182 -30.2130
   -30.2049 -30.1989 -30.1894 -30.1811 -30.1443 -30.1391 -30.1269 -30.1241
   -20.0504 -20.0503 -20.0502 -20.0501 -20.0498 -20.0497 -20.0497 -20.0496
   -20.0446 -20.0444 -20.0442 -20.0439 -20.0431 -20.0427 -20.0425 -20.0421
   -20.0373 -20.0369 -20.0367 -20.0363 -20.0363 -20.0361 -20.0358 -20.0354
   -20.0343 -20.0338 -20.0337 -20.0332 -20.0331 -20.0327 -20.0326 -20.0321
   -20.0252 -20.0250 -20.0245 -20.0242 -20.0240 -20.0237 -20.0233 -20.0230
   -20.0049 -20.0044 -20.0044 -20.0035 -20.0027 -20.0019 -20.0015 -20.0012
   -20.0010 -20.0004 -20.0002 -19.9990 -19.9980 -19.9968 -19.9967 -19.9961
    -9.4799  -9.2988  -9.2704  -9.0310  -9.0252  -8.7672  -8.7266  -8.6411
    -8.6218  -8.5336  -8.4841  -8.4415  -8.1752  -8.1191  -8.0337  -8.0162
    -7.9937  -7.9603  -7.9082  -7.8500  -7.7985  -7.7440  -7.6288  -7.5655
     1.7353   1.7476   1.8904   1.9102   2.3271   2.4077   2.4515   2.5352
     2.5941   2.6425   2.6671   2.8400   3.0112   3.0762   3.1087   3.2068
     3.3697   3.4266   3.7842   3.8386   3.8824   3.9609   4.0433   4.1133
     4.1848   4.3763   4.4640   4.5285   4.5890   4.6749   4.6888   4.7953
     4.8930   4.9574   4.9998   5.0490   5.0797   5.1687   5.2687   5.3399
     5.4722   5.5086   5.5638   5.7711   5.8793   5.9552   6.1040   6.1281
     6.6582   6.6816   6.7784   6.8089   6.8947   6.9883   7.0589   7.0727
     7.1209   7.1485   7.1576   7.2266   7.2434   7.2794   7.3477   7.3854
     7.4739   7.5193   7.8155   7.8584   7.8860   7.9123   7.9555   7.9705
    10.8349  10.8948  11.0608  11.1268  11.4554  11.5581  12.0519  12.1382
    12.2616  12.3318  12.4066  12.4895  12.6423  12.7341  12.7600  12.8595
    13.0028  13.1263  13.2137  13.3730  13.4386  13.5300  13.7365  13.7714
    15.4577  15.5799  15.8057  16.0652  16.1266  16.1915  16.2528  16.8254
    16.9321  16.9863  17.0852  17.6594  17.7486

          k = 0.1667 0.3215-0.5000 ( 61838 PWs)   bands (ev):

   -65.9046 -65.9046 -65.9044 -65.9044 -65.9038 -65.9038 -65.9035 -65.9035
   -30.3447 -30.3447 -30.3239 -30.3239 -30.3204 -30.3204 -30.2989 -30.2989
   -30.2652 -30.2652 -30.2420 -30.2420 -30.2398 -30.2398 -30.2154 -30.2154
   -30.2025 -30.2025 -30.1668 -30.1668 -30.1606 -30.1606 -30.1256 -30.1256
   -20.0503 -20.0503 -20.0500 -20.0500 -20.0499 -20.0499 -20.0496 -20.0496
   -20.0445 -20.0445 -20.0440 -20.0440 -20.0429 -20.0429 -20.0423 -20.0423
   -20.0371 -20.0371 -20.0365 -20.0365 -20.0362 -20.0362 -20.0356 -20.0356
   -20.0340 -20.0340 -20.0334 -20.0334 -20.0329 -20.0329 -20.0324 -20.0324
   -20.0248 -20.0248 -20.0246 -20.0246 -20.0236 -20.0236 -20.0233 -20.0233
   -20.0047 -20.0046 -20.0035 -20.0035 -20.0025 -20.0025 -20.0015 -20.0015
   -20.0007 -20.0007 -19.9992 -19.9992 -19.9979 -19.9979 -19.9965 -19.9965
    -9.3576  -9.3576  -9.1395  -9.1395  -8.8265  -8.8265  -8.5620  -8.5620
    -8.4802  -8.4802  -8.4198  -8.4197  -8.2821  -8.2821  -8.2272  -8.2272
    -8.0007  -8.0007  -7.9584  -7.9584  -7.7824  -7.7824  -7.5967  -7.5967
     1.7452   1.7452   1.9119   1.9119   2.4796   2.4796   2.6010   2.6010
     3.0926   3.0926   3.1964   3.1964   3.2432   3.2432   3.4122   3.4122
     3.4360   3.4360   3.5720   3.5720   3.7452   3.7452   3.8903   3.8903
     4.0754   4.0754   4.1930   4.1930   4.3453   4.3453   4.5052   4.5052
     4.8812   4.8812   4.9949   4.9949   5.1443   5.1443   5.1863   5.1863
     5.2920   5.2920   5.6449   5.6449   5.9409   5.9409   5.9878   5.9879
     6.7087   6.7087   6.8783   6.8783   6.9430   6.9430   7.0029   7.0029
     7.1620   7.1620   7.2072   7.2072   7.2928   7.2928   7.6224   7.6224
     7.6515   7.6515   7.7274   7.7274   7.7677   7.7677   7.9580   7.9580
    11.0251  11.0251  11.5215  11.5215  11.6669  11.6669  11.9326  11.9326
    12.1634  12.1634  12.3894  12.3894  12.7219  12.7219  12.7926  12.7926
    13.0026  13.0026  13.1155  13.1155  13.3774  13.3774  13.7228  13.7228
    15.5329  15.5329  16.0069  16.0069  16.5107  16.5107  16.6893  16.6893
    16.9521  16.9521  17.4710  17.4710  17.9468

          k = 0.1667-0.4822 0.1667 ( 61860 PWs)   bands (ev):

   -65.9049 -65.9049 -65.9041 -65.9041 -65.9041 -65.9041 -65.9033 -65.9033
   -30.3445 -30.3445 -30.3398 -30.3398 -30.3061 -30.3061 -30.3023 -30.3023
   -30.2630 -30.2630 -30.2606 -30.2606 -30.2231 -30.2231 -30.2141 -30.2141
   -30.2062 -30.2062 -30.1945 -30.1945 -30.1278 -30.1278 -30.1230 -30.1230
   -20.0503 -20.0503 -20.0502 -20.0502 -20.0497 -20.0497 -20.0496 -20.0496
   -20.0439 -20.0439 -20.0437 -20.0437 -20.0430 -20.0430 -20.0428 -20.0428
   -20.0369 -20.0369 -20.0365 -20.0365 -20.0363 -20.0363 -20.0357 -20.0357
   -20.0344 -20.0344 -20.0333 -20.0333 -20.0332 -20.0332 -20.0322 -20.0322
   -20.0253 -20.0253 -20.0243 -20.0242 -20.0239 -20.0239 -20.0229 -20.0229
   -20.0051 -20.0051 -20.0041 -20.0041 -20.0022 -20.0022 -20.0014 -20.0014
   -20.0007 -20.0007 -19.9998 -19.9998 -19.9971 -19.9971 -19.9958 -19.9958
    -9.5088  -9.5088  -9.1777  -9.1777  -8.9739  -8.9739  -8.7317  -8.7317
    -8.3819  -8.3819  -8.3168  -8.3168  -8.2993  -8.2993  -8.2858  -8.2858
    -7.8507  -7.8507  -7.7406  -7.7406  -7.6537  -7.6537  -7.5439  -7.5439
     1.6900   1.6900   1.7323   1.7323   1.8868   1.8868   2.1003   2.1003
     2.7763   2.7763   3.0836   3.0836   3.2071   3.2071   3.4043   3.4043
     3.4410   3.4410   3.5975   3.5975   3.6866   3.6866   3.8732   3.8732
     3.9414   3.9414   4.5536   4.5536   4.6294   4.6294   5.0750   5.0750
     5.1407   5.1407   5.2294   5.2294   5.2947   5.2947   5.6075   5.6075
     5.6597   5.6597   5.8636   5.8636   5.9126   5.9126   6.2114   6.2114
     6.6049   6.6049   6.7072   6.7072   6.8645   6.8646   6.9499   6.9499
     7.1283   7.1283   7.1906   7.1906   7.3414   7.3414   7.5163   7.5163
     7.6081   7.6081   7.6909   7.6909   7.7389   7.7389   7.9425   7.9425
    10.3625  10.3625  11.4895  11.4895  11.5623  11.5624  11.7273  11.7273
    11.8314  11.8314  12.4490  12.4490  12.7200  12.7200  12.9610  12.9610
    13.3659  13.3659  13.4200  13.4200  13.4527  13.4527  13.7397  13.7397
    15.5457  15.5457  15.8566  15.8566  15.9787  15.9787  16.1851  16.1851
    16.8121  16.8121  17.9522  17.9522  18.0482

          k = 0.1667-0.4822 0.3333 ( 61880 PWs)   bands (ev):

   -65.9047 -65.9047 -65.9043 -65.9042 -65.9039 -65.9039 -65.9035 -65.9034
   -30.3435 -30.3408 -30.3335 -30.3289 -30.3115 -30.3075 -30.3052 -30.3031
   -30.2628 -30.2614 -30.2565 -30.2539 -30.2324 -30.2268 -30.2198 -30.2152
   -30.2049 -30.1990 -30.1894 -30.1812 -30.1443 -30.1391 -30.1269 -30.1242
   -20.0503 -20.0503 -20.0502 -20.0501 -20.0498 -20.0497 -20.0497 -20.0496
   -20.0439 -20.0438 -20.0437 -20.0435 -20.0432 -20.0430 -20.0429 -20.0428
   -20.0368 -20.0368 -20.0366 -20.0365 -20.0364 -20.0362 -20.0359 -20.0358
   -20.0341 -20.0341 -20.0335 -20.0334 -20.0331 -20.0329 -20.0324 -20.0324
   -20.0251 -20.0250 -20.0245 -20.0242 -20.0240 -20.0237 -20.0232 -20.0231
   -20.0049 -20.0044 -20.0044 -20.0035 -20.0027 -20.0019 -20.0015 -20.0012
   -20.0010 -20.0004 -20.0002 -19.9990 -19.9980 -19.9968 -19.9967 -19.9961
    -9.4071  -9.3433  -9.2232  -9.0370  -8.9488  -8.7681  -8.6422  -8.5958
    -8.4338  -8.4162  -8.3383  -8.3154  -8.2966  -8.2893  -8.2787  -8.2512
    -8.1040  -8.0158  -7.9256  -7.8692  -7.8021  -7.7460  -7.6294  -7.5659
     1.7381   1.7502   1.8942   1.9134   2.3772   2.5131   2.5434   2.6636
     3.0259   3.0273   3.0958   3.1112   3.2597   3.2909   3.3589   3.4027
     3.4318   3.4460   3.6055   3.6573   3.7450   3.8376   3.8779   3.9463
     3.9647   3.9835   4.0571   4.1239   4.4849   4.5104   4.7102   4.7332
     4.7926   4.8545   4.9606   5.0390   5.0799   5.1472   5.1753   5.2277
     5.2769   5.3590   5.5003   5.5890   5.8766   5.9131   6.1045   6.1294
     6.7115   6.7179   6.7998   6.8308   6.9034   7.0618   7.1169   7.1448
     7.1725   7.2267   7.2539   7.3069   7.3621   7.3756   7.4934   7.5537
     7.5819   7.6297   7.6723   7.7013   7.7313   7.7372   7.8854   7.8947
    10.8706  10.9427  11.4966  11.5577  11.7073  11.7573  11.8624  11.9397
    12.0397  12.0992  12.1526  12.3276  12.6291  12.8146  12.8548  12.8839
    12.9666  13.0637  13.1720  13.2474  13.4261  13.4627  13.5969  13.6375
    15.6003  15.8299  15.8482  16.1017  16.2990  16.5031  16.6546  16.8393
    16.9740  17.0102  17.5370  17.5825  17.9080

          k = 0.1667-0.4822-0.5000 ( 61856 PWs)   bands (ev):

   -65.9045 -65.9045 -65.9045 -65.9045 -65.9037 -65.9037 -65.9037 -65.9037
   -30.3421 -30.3421 -30.3210 -30.3210 -30.3166 -30.3166 -30.3042 -30.3042
   -30.2622 -30.2622 -30.2454 -30.2454 -30.2419 -30.2419 -30.2171 -30.2171
   -30.2025 -30.2025 -30.1668 -30.1668 -30.1606 -30.1606 -30.1256 -30.1256
   -20.0503 -20.0503 -20.0500 -20.0500 -20.0499 -20.0499 -20.0497 -20.0496
   -20.0438 -20.0438 -20.0435 -20.0435 -20.0433 -20.0433 -20.0429 -20.0429
   -20.0367 -20.0367 -20.0367 -20.0367 -20.0362 -20.0362 -20.0360 -20.0360
   -20.0338 -20.0338 -20.0337 -20.0337 -20.0328 -20.0328 -20.0326 -20.0326
   -20.0248 -20.0248 -20.0246 -20.0246 -20.0236 -20.0236 -20.0234 -20.0234
   -20.0047 -20.0046 -20.0035 -20.0035 -20.0025 -20.0025 -20.0015 -20.0015
   -20.0007 -20.0007 -19.9992 -19.9992 -19.9979 -19.9979 -19.9965 -19.9965
    -9.3014  -9.3014  -9.1603  -9.1603  -8.6454  -8.6454  -8.5323  -8.5323
    -8.4604  -8.4604  -8.4050  -8.4050  -8.2715  -8.2715  -8.2290  -8.2289
    -8.1909  -8.1909  -8.1183  -8.1183  -7.7857  -7.7857  -7.5972  -7.5972
     1.7483   1.7483   1.9164   1.9164   2.9983   2.9983   3.1584   3.1584
     3.2198   3.2198   3.2444   3.2444   3.3030   3.3030   3.3903   3.3903
     3.5025   3.5025   3.5523   3.5523   3.6155   3.6156   3.7327   3.7327
     3.8387   3.8387   3.9953   3.9953   4.4071   4.4071   4.4651   4.4651
     4.5163   4.5164   4.5996   4.5996   5.0173   5.0173   5.1741   5.1741
     5.2870   5.2870   5.4636   5.4636   5.9355   5.9355   5.9689   5.9689
     6.7461   6.7461   6.9273   6.9273   6.9516   6.9516   7.0564   7.0564
     7.3439   7.3440   7.3741   7.3741   7.4744   7.4744   7.5661   7.5661
     7.6402   7.6402   7.6749   7.6749   7.7279   7.7279   7.7822   7.7822
    11.4010  11.4010  11.5760  11.5760  11.6697  11.6697  11.8267  11.8267
    12.3236  12.3236  12.3931  12.3931  12.5262  12.5263  12.5759  12.5759
    12.9254  12.9254  13.0675  13.0675  13.4646  13.4646  13.5171  13.5171
    15.7206  15.7206  16.0046  16.0046  16.9448  16.9448  17.0980  17.0980
    17.4026  17.4026  17.4973  17.4973  17.6264

          k = 0.3333 0.0000 0.3333 ( 61836 PWs)   bands (ev):

   -65.9048 -65.9044 -65.9044 -65.9043 -65.9039 -65.9038 -65.9038 -65.9034
   -30.3500 -30.3436 -30.3433 -30.3344 -30.3216 -30.3062 -30.3058 -30.2878
   -30.2738 -30.2556 -30.2555 -30.2364 -30.2317 -30.2208 -30.2204 -30.2132
   -30.1889 -30.1874 -30.1839 -30.1836 -30.1434 -30.1432 -30.1411 -30.1396
   -20.0503 -20.0502 -20.0501 -20.0500 -20.0498 -20.0498 -20.0498 -20.0496
   -20.0455 -20.0452 -20.0452 -20.0450 -20.0425 -20.0421 -20.0420 -20.0417
   -20.0376 -20.0372 -20.0372 -20.0368 -20.0358 -20.0355 -20.0355 -20.0351
   -20.0342 -20.0336 -20.0335 -20.0330 -20.0330 -20.0324 -20.0324 -20.0318
   -20.0250 -20.0246 -20.0243 -20.0243 -20.0239 -20.0238 -20.0236 -20.0232
   -20.0043 -20.0042 -20.0037 -20.0037 -20.0025 -20.0025 -20.0018 -20.0017
   -20.0002 -20.0002 -19.9994 -19.9994 -19.9977 -19.9977 -19.9970 -19.9970
    -9.4845  -9.2656  -9.2584  -9.0822  -9.0541  -8.8156  -8.7978  -8.6702
    -8.5518  -8.5366  -8.5271  -8.4855  -8.1640  -8.1171  -8.0942  -8.0740
    -7.9237  -7.9105  -7.8616  -7.8298  -7.6575  -7.6309  -7.6307  -7.6049
     1.6472   1.6717   1.6768   1.6986   2.3606   2.3618   2.4285   2.4379
     2.5736   2.5757   2.7116   2.8173   2.9677   3.0723   3.1155   3.1275
     3.3451   3.3908   3.8374   3.9426   4.0140   4.0396   4.1672   4.2218
     4.2481   4.3099   4.4051   4.4732   4.5717   4.6153   4.7211   4.7518
     4.8667   4.9952   5.1378   5.1670   5.2051   5.2237   5.3140   5.5490
     5.5578   5.6302   5.6473   5.8060   6.0602   6.0789   6.0804   6.2493
     6.5490   6.5974   6.5996   6.6365   6.6500   6.6644   6.6693   6.7162
     7.0960   7.2077   7.2683   7.2965   7.3653   7.3909   7.4524   7.4633
     7.4926   7.5730   7.8196   7.8245   7.9773   7.9865   8.0968   8.1220
    10.8924  10.9522  11.0714  11.0909  11.3705  11.5024  12.2166  12.2186
    12.2704  12.3083  12.4170  12.4490  12.6545  12.6716  13.0182  13.0422
    13.0874  13.1811  13.2350  13.2766  13.6614  13.7433  13.7639  13.8616
    14.8929  15.1044  15.1101  15.5313  15.8941  16.3189  16.3903  16.6891
    16.9512  17.0546  17.3019  17.7264  17.7378

          k = 0.3333 0.0000-0.5000 ( 61870 PWs)   bands (ev):

   -65.9046 -65.9046 -65.9041 -65.9041 -65.9041 -65.9041 -65.9036 -65.9036
   -30.3460 -30.3460 -30.3380 -30.3380 -30.3127 -30.3127 -30.2960 -30.2960
   -30.2649 -30.2649 -30.2469 -30.2469 -30.2275 -30.2275 -30.2177 -30.2177
   -30.1863 -30.1863 -30.1657 -30.1657 -30.1623 -30.1623 -30.1419 -30.1419
   -20.0502 -20.0502 -20.0500 -20.0500 -20.0499 -20.0499 -20.0497 -20.0497
   -20.0454 -20.0453 -20.0451 -20.0451 -20.0423 -20.0423 -20.0419 -20.0419
   -20.0374 -20.0374 -20.0370 -20.0370 -20.0357 -20.0356 -20.0353 -20.0353
   -20.0339 -20.0339 -20.0333 -20.0333 -20.0327 -20.0327 -20.0321 -20.0321
   -20.0246 -20.0246 -20.0242 -20.0242 -20.0239 -20.0239 -20.0235 -20.0235
   -20.0040 -20.0040 -20.0034 -20.0034 -20.0027 -20.0027 -20.0021 -20.0021
   -19.9998 -19.9998 -19.9990 -19.9990 -19.9982 -19.9982 -19.9974 -19.9974
    -9.3540  -9.3539  -9.1315  -9.1315  -8.9057  -8.9057  -8.5953  -8.5953
    -8.5012  -8.5011  -8.3666  -8.3666  -8.3193  -8.3193  -8.2263  -8.2263
    -8.0431  -8.0431  -7.8832  -7.8832  -7.6452  -7.6452  -7.6188  -7.6188
     1.6602   1.6602   1.6875   1.6876   2.4382   2.4382   2.5751   2.5751
     3.0121   3.0121   3.1757   3.1757   3.2335   3.2335   3.3713   3.3713
     3.4553   3.4553   3.6786   3.6786   3.8473   3.8473   3.9258   3.9258
     4.0871   4.0872   4.1449   4.1449   4.3657   4.3657   4.5692   4.5692
     4.8439   4.8439   5.0791   5.0791   5.1888   5.1888   5.2719   5.2719
     5.4443   5.4443   5.7002   5.7002   6.1008   6.1008   6.2115   6.2115
     6.5053   6.5053   6.5568   6.5568   6.6396   6.6396   6.6585   6.6585
     7.2516   7.2516   7.3772   7.3772   7.4487   7.4487   7.6450   7.6450
     7.6774   7.6774   7.7897   7.7898   7.8161   7.8161   8.0781   8.0781
    11.0098  11.0098  11.6361  11.6361  11.7060  11.7060  11.8884  11.8884
    12.0973  12.0973  12.3301  12.3301  12.6965  12.6965  12.9054  12.9054
    13.0955  13.0955  13.4079  13.4079  13.4478  13.4478  13.7733  13.7733
    15.0285  15.0285  15.3605  15.3605  16.3372  16.3373  16.7878  16.7878
    17.0666  17.0666  17.5308  17.5308  18.0711

          k = 0.3333 0.1607 0.3333 ( 61843 PWs)   bands (ev):

   -65.9048 -65.9043 -65.9043 -65.9043 -65.9039 -65.9039 -65.9038 -65.9034
   -30.3472 -30.3407 -30.3405 -30.3307 -30.3227 -30.3069 -30.3065 -30.2901
   -30.2719 -30.2554 -30.2554 -30.2355 -30.2353 -30.2231 -30.2227 -30.2156
   -30.1888 -30.1875 -30.1839 -30.1836 -30.1434 -30.1433 -30.1410 -30.1397
   -20.0503 -20.0501 -20.0501 -20.0501 -20.0498 -20.0498 -20.0498 -20.0497
   -20.0452 -20.0450 -20.0450 -20.0447 -20.0426 -20.0422 -20.0422 -20.0418
   -20.0374 -20.0371 -20.0371 -20.0367 -20.0359 -20.0356 -20.0356 -20.0352
   -20.0342 -20.0336 -20.0335 -20.0331 -20.0329 -20.0326 -20.0325 -20.0320
   -20.0250 -20.0246 -20.0243 -20.0243 -20.0239 -20.0238 -20.0236 -20.0232
   -20.0043 -20.0042 -20.0037 -20.0037 -20.0025 -20.0025 -20.0018 -20.0017
   -20.0002 -20.0002 -19.9994 -19.9994 -19.9977 -19.9977 -19.9970 -19.9970
    -9.4397  -9.2118  -9.2034  -9.0949  -8.9801  -8.8193  -8.8009  -8.6412
    -8.5390  -8.5235  -8.5206  -8.4815  -8.1744  -8.1160  -8.0978  -8.0734
    -7.9276  -7.9150  -7.8684  -7.8310  -7.7520  -7.7265  -7.7262  -7.6999
     1.8613   1.8910   1.8954   1.9286   2.3606   2.3639   2.4278   2.4440
     2.5773   2.5800   2.7138   2.8199   3.0432   3.1575   3.1773   3.1946
[...]
    11.1136  11.1136  11.6752  11.6752  11.7760  11.7760  11.8931  11.8931
    12.1232  12.1232  12.3684  12.3684  12.6874  12.6874  12.8974  12.8974
    12.9664  12.9664  13.2816  13.2816  13.3266  13.3266  13.6800  13.6800
    15.3494  15.3494  15.7131  15.7131  16.4097  16.4097  16.7919  16.7919
    17.0759  17.0759  17.5495  17.5495  17.9463

          k = 0.3333 0.3215 0.3333 ( 61855 PWs)   bands (ev):

   -65.9047 -65.9044 -65.9042 -65.9042 -65.9040 -65.9039 -65.9038 -65.9035
   -30.3403 -30.3341 -30.3338 -30.3262 -30.3208 -30.3090 -30.3087 -30.2971
   -30.2660 -30.2550 -30.2549 -30.2446 -30.2328 -30.2281 -30.2278 -30.2214
   -30.1886 -30.1879 -30.1839 -30.1838 -30.1434 -30.1433 -30.1408 -30.1400
   -20.0502 -20.0501 -20.0501 -20.0501 -20.0498 -20.0498 -20.0498 -20.0497
   -20.0445 -20.0443 -20.0443 -20.0440 -20.0430 -20.0426 -20.0426 -20.0423
   -20.0371 -20.0368 -20.0368 -20.0364 -20.0362 -20.0359 -20.0359 -20.0356
   -20.0341 -20.0335 -20.0334 -20.0334 -20.0329 -20.0329 -20.0328 -20.0323
   -20.0249 -20.0247 -20.0242 -20.0242 -20.0240 -20.0239 -20.0235 -20.0233
   -20.0043 -20.0042 -20.0037 -20.0037 -20.0025 -20.0025 -20.0018 -20.0018
   -20.0002 -20.0002 -19.9994 -19.9994 -19.9977 -19.9977 -19.9970 -19.9970
    -9.3307  -9.1383  -9.0830  -9.0742  -8.8346  -8.8143  -8.7698  -8.5650
    -8.5296  -8.4654  -8.4566  -8.4439  -8.2415  -8.1202  -8.1198  -8.0762
    -8.0135  -7.9974  -7.9797  -7.9422  -7.8865  -7.8862  -7.8330  -7.8258
     2.3014   2.3192   2.3428   2.3808   2.4426   2.4817   2.4860   2.5509
     2.6644   2.6864   2.7152   2.8859   3.2321   3.2839   3.3503   3.3984
     3.4492   3.4629   3.7770   3.8441   3.9204   4.0159   4.0566   4.1639
     4.1771   4.2891   4.3130   4.3702   4.4376   4.4644   4.5311   4.6160
     4.6527   4.7222   4.7894   4.8795   4.9089   4.9096   4.9489   5.0302
     5.0980   5.1473   5.2988   5.3830   5.4733   5.5336   5.5953   5.6177
     6.8488   6.8901   6.9722   6.9731   7.0602   7.1010   7.1480   7.1554
     7.2080   7.2522   7.3171   7.3292   7.3697   7.4007   7.4665   7.4772
     7.5273   7.5798   7.7901   7.8109   7.8553   7.8778   7.9133   7.9385
    11.1796  11.2457  11.4239  11.4765  11.5210  11.7060  12.2319  12.2446
    12.3002  12.3683  12.3720  12.4568  12.5667  12.6455  12.7367  12.7551
    12.8424  12.8550  13.0096  13.2174  13.2973  13.3977  13.4131  13.5678
    15.9501  16.0564  16.1145  16.2725  16.3013  16.4848  16.7511  16.9127
    16.9280  17.0728  17.2662  17.3705  17.7993

          k = 0.3333 0.3215-0.5000 ( 61856 PWs)   bands (ev):

   -65.9045 -65.9045 -65.9042 -65.9042 -65.9040 -65.9040 -65.9037 -65.9037
   -30.3362 -30.3362 -30.3256 -30.3256 -30.3169 -30.3169 -30.3031 -30.3031
   -30.2596 -30.2596 -30.2443 -30.2443 -30.2386 -30.2386 -30.2257 -30.2257
   -30.1864 -30.1864 -30.1658 -30.1658 -30.1624 -30.1624 -30.1420 -30.1420
   -20.0502 -20.0502 -20.0500 -20.0500 -20.0499 -20.0499 -20.0498 -20.0498
   -20.0444 -20.0444 -20.0441 -20.0441 -20.0428 -20.0428 -20.0425 -20.0425
   -20.0370 -20.0370 -20.0366 -20.0366 -20.0361 -20.0361 -20.0358 -20.0358
   -20.0337 -20.0337 -20.0332 -20.0332 -20.0331 -20.0331 -20.0326 -20.0326
   -20.0245 -20.0245 -20.0243 -20.0243 -20.0239 -20.0239 -20.0236 -20.0236
   -20.0040 -20.0040 -20.0034 -20.0034 -20.0027 -20.0027 -20.0021 -20.0021
   -19.9998 -19.9998 -19.9990 -19.9990 -19.9982 -19.9982 -19.9974 -19.9974
    -9.1797  -9.1797  -8.9493  -8.9493  -8.8782  -8.8782  -8.5362  -8.5362
    -8.4889  -8.4889  -8.3733  -8.3733  -8.2938  -8.2938  -8.2311  -8.2311
    -8.0496  -8.0496  -7.9884  -7.9884  -7.9616  -7.9616  -7.8596  -7.8596
     2.3454   2.3454   2.4714   2.4714   2.5307   2.5307   2.6574   2.6574
     3.1658   3.1658   3.2482   3.2482   3.3058   3.3058   3.4305   3.4306
     3.5137   3.5137   3.7414   3.7415   3.8769   3.8769   3.9810   3.9810
     4.0531   4.0531   4.2239   4.2240   4.2709   4.2709   4.4053   4.4053
     4.5090   4.5090   4.6781   4.6781   4.7642   4.7642   5.0021   5.0021
     5.0770   5.0770   5.1702   5.1702   5.2390   5.2390   5.4852   5.4852
     6.9126   6.9126   7.0362   7.0362   7.0778   7.0778   7.1642   7.1642
     7.3128   7.3128   7.3822   7.3822   7.4702   7.4702   7.6319   7.6319
     7.6580   7.6580   7.7344   7.7344   7.7670   7.7670   7.9078   7.9078
    11.4083  11.4083  11.7598  11.7598  11.9018  11.9018  11.9856  11.9856
    12.2356  12.2356  12.4604  12.4604  12.5631  12.5631  12.6676  12.6676
    12.8906  12.8906  13.0027  13.0027  13.0631  13.0631  13.4240  13.4240
    16.0808  16.0808  16.5030  16.5030  16.6719  16.6719  16.8424  16.8424
    17.1206  17.1206  17.5071  17.5071  17.7645

          k = 0.3333-0.4822 0.3333 ( 61846 PWs)   bands (ev):

   -65.9046 -65.9046 -65.9041 -65.9041 -65.9041 -65.9041 -65.9036 -65.9036
   -30.3325 -30.3325 -30.3298 -30.3298 -30.3106 -30.3106 -30.3082 -30.3082
   -30.2563 -30.2563 -30.2545 -30.2545 -30.2309 -30.2308 -30.2277 -30.2277
   -30.1883 -30.1883 -30.1839 -30.1839 -30.1434 -30.1434 -30.1404 -30.1404
   -20.0502 -20.0502 -20.0501 -20.0501 -20.0498 -20.0498 -20.0497 -20.0497
   -20.0437 -20.0437 -20.0436 -20.0436 -20.0432 -20.0432 -20.0431 -20.0430
   -20.0367 -20.0367 -20.0365 -20.0365 -20.0363 -20.0363 -20.0360 -20.0360
   -20.0339 -20.0339 -20.0333 -20.0333 -20.0332 -20.0331 -20.0326 -20.0326
   -20.0248 -20.0248 -20.0242 -20.0242 -20.0240 -20.0240 -20.0234 -20.0234
   -20.0043 -20.0043 -20.0037 -20.0037 -20.0025 -20.0025 -20.0018 -20.0018
   -20.0002 -20.0002 -19.9994 -19.9994 -19.9977 -19.9977 -19.9970 -19.9970
    -9.2165  -9.2164  -8.9981  -8.9981  -8.8391  -8.8391  -8.5380  -8.5380
    -8.4741  -8.4741  -8.3131  -8.3131  -8.2767  -8.2767  -8.2647  -8.2647
    -8.0856  -8.0856  -8.0357  -8.0357  -7.9013  -7.9013  -7.8350  -7.8350
     2.3443   2.3443   2.3931   2.3931   2.5350   2.5350   2.6885   2.6885
     3.1370   3.1370   3.2169   3.2169   3.3402   3.3402   3.4016   3.4016
     3.4307   3.4307   3.7580   3.7580   3.8792   3.8792   3.9194   3.9194
     3.9716   3.9716   4.1956   4.1956   4.3249   4.3249   4.5045   4.5045
     4.6765   4.6765   4.7465   4.7465   4.8466   4.8466   4.9457   4.9457
     5.0586   5.0586   5.1200   5.1201   5.1758   5.1758   5.5832   5.5832
     6.9521   6.9521   7.0950   7.0950   7.1975   7.1975   7.2456   7.2456
     7.3269   7.3269   7.3641   7.3641   7.4201   7.4201   7.5481   7.5481
     7.6079   7.6079   7.6797   7.6797   7.7449   7.7449   7.8530   7.8530
    11.2718  11.2718  11.8055  11.8055  11.8607  11.8607  12.0516  12.0516
    12.1307  12.1307  12.3498  12.3498  12.4991  12.4991  12.7792  12.7792
    12.9243  12.9243  13.0502  13.0502  13.1104  13.1104  13.3888  13.3888
    16.2388  16.2388  16.5269  16.5269  16.6568  16.6568  16.8111  16.8111
    17.1180  17.1180  17.6134  17.6135  17.7055

          k = 0.3333-0.4822-0.5000 ( 61816 PWs)   bands (ev):

   -65.9043 -65.9043 -65.9043 -65.9043 -65.9039 -65.9039 -65.9039 -65.9038
   -30.3311 -30.3311 -30.3200 -30.3200 -30.3175 -30.3175 -30.3094 -30.3094
   -30.2555 -30.2555 -30.2448 -30.2448 -30.2427 -30.2427 -30.2291 -30.2291
   -30.1864 -30.1864 -30.1658 -30.1658 -30.1624 -30.1624 -30.1420 -30.1420
   -20.0502 -20.0501 -20.0500 -20.0500 -20.0499 -20.0499 -20.0498 -20.0498
   -20.0437 -20.0437 -20.0434 -20.0434 -20.0433 -20.0433 -20.0431 -20.0431
   -20.0366 -20.0366 -20.0365 -20.0365 -20.0363 -20.0363 -20.0362 -20.0362
   -20.0336 -20.0336 -20.0335 -20.0335 -20.0330 -20.0329 -20.0328 -20.0328
   -20.0245 -20.0245 -20.0244 -20.0244 -20.0238 -20.0238 -20.0237 -20.0237
   -20.0040 -20.0040 -20.0034 -20.0034 -20.0027 -20.0027 -20.0021 -20.0021
   -19.9998 -19.9998 -19.9990 -19.9990 -19.9982 -19.9982 -19.9974 -19.9974
    -9.0875  -9.0875  -8.9914  -8.9914  -8.6996  -8.6996  -8.6112  -8.6112
    -8.3959  -8.3959  -8.3557  -8.3557  -8.2610  -8.2610  -8.2342  -8.2342
    -8.1877  -8.1877  -8.1269  -8.1269  -8.0328  -8.0328  -7.8697  -7.8697
     2.4005   2.4005   2.5423   2.5423   3.0381   3.0381   3.1337   3.1337
     3.2289   3.2289   3.2886   3.2886   3.3195   3.3195   3.3941   3.3941
     3.5717   3.5717   3.6026   3.6026   3.7443   3.7443   3.9029   3.9029
     3.9816   3.9816   4.0933   4.0933   4.3052   4.3052   4.4125   4.4125
     4.5228   4.5228   4.5407   4.5407   4.6403   4.6403   4.7124   4.7124
     4.8296   4.8296   4.9866   4.9866   5.2003   5.2003   5.2341   5.2341
     7.0153   7.0153   7.1892   7.1892   7.2485   7.2485   7.2868   7.2868
     7.3868   7.3868   7.4250   7.4250   7.5347   7.5347   7.5620   7.5620
     7.6336   7.6336   7.6866   7.6866   7.7305   7.7305   7.7914   7.7914
    11.6744  11.6744  11.7912  11.7912  11.9662  11.9662  12.0929  12.0929
    12.3103  12.3103  12.4275  12.4275  12.4985  12.4985  12.5692  12.5692
    12.6971  12.6971  12.8161  12.8161  13.1133  13.1133  13.1927  13.1927
    16.4510  16.4510  16.6491  16.6491  17.0892  17.0892  17.2123  17.2123
    17.4002  17.4002  17.5047  17.5047  17.6227

          k =-0.5000 0.0000-0.5000 ( 61980 PWs)   bands (ev):

   -65.9044 -65.9044 -65.9044 -65.9044 -65.9038 -65.9038 -65.9038 -65.9038
   -30.3413 -30.3413 -30.3410 -30.3409 -30.3036 -30.3036 -30.3031 -30.3030
   -30.2564 -30.2564 -30.2563 -30.2562 -30.2243 -30.2243 -30.2237 -30.2237
   -30.1651 -30.1651 -30.1648 -30.1648 -30.1636 -30.1636 -30.1633 -30.1632
   -20.0501 -20.0501 -20.0501 -20.0500 -20.0499 -20.0498 -20.0498 -20.0498
   -20.0452 -20.0452 -20.0452 -20.0452 -20.0421 -20.0421 -20.0421 -20.0421
   -20.0372 -20.0372 -20.0372 -20.0372 -20.0355 -20.0355 -20.0355 -20.0355
   -20.0336 -20.0336 -20.0335 -20.0335 -20.0324 -20.0324 -20.0324 -20.0323
   -20.0243 -20.0243 -20.0243 -20.0242 -20.0239 -20.0239 -20.0238 -20.0238
   -20.0032 -20.0032 -20.0031 -20.0031 -20.0030 -20.0030 -20.0030 -20.0029
   -19.9987 -19.9987 -19.9987 -19.9987 -19.9986 -19.9986 -19.9986 -19.9985
    -9.2234  -9.2234  -9.2139  -9.2138  -8.6646  -8.6646  -8.6115  -8.6115
    -8.4915  -8.4915  -8.4271  -8.4270  -8.2395  -8.2395  -8.2099  -8.2099
    -8.1795  -8.1795  -8.1389  -8.1389  -7.6334  -7.6334  -7.6327  -7.6327
     1.6708   1.6708   1.6780   1.6780   3.0457   3.0457   3.0658   3.0658
     3.2090   3.2090   3.2178   3.2178   3.3200   3.3200   3.3856   3.3856
     3.5410   3.5410   3.5531   3.5531   3.7476   3.7476   3.8608   3.8608
     3.8708   3.8708   4.0496   4.0496   4.3566   4.3566   4.4132   4.4132
     4.4373   4.4373   4.5491   4.5491   5.1019   5.1019   5.1357   5.1357
     5.5210   5.5210   5.5670   5.5670   6.1980   6.1980   6.1987   6.1987
     6.5094   6.5094   6.5350   6.5350   6.5559   6.5559   6.5718   6.5718
     7.5288   7.5288   7.5377   7.5377   7.5379   7.5379   7.6374   7.6374
     7.7057   7.7057   7.7521   7.7521   7.8251   7.8251   7.9706   7.9706
    11.5573  11.5573  11.6684  11.6684  11.7481  11.7481  11.8400  11.8401
    12.2734  12.2734  12.3146  12.3147  12.4445  12.4445  12.4795  12.4795
    13.2659  13.2659  13.3620  13.3620  13.4652  13.4652  13.5536  13.5536
    15.2272  15.2272  15.2327  15.2327  16.7537  16.7537  16.9491  16.9491
    17.5967  17.5967  17.6324  17.6324  17.7588

          k =-0.5000 0.1607-0.5000 ( 61864 PWs)   bands (ev):

   -65.9043 -65.9043 -65.9043 -65.9043 -65.9039 -65.9039 -65.9039 -65.9038
   -30.3380 -30.3380 -30.3376 -30.3376 -30.3052 -30.3052 -30.3047 -30.3047
   -30.2551 -30.2551 -30.2549 -30.2549 -30.2274 -30.2273 -30.2268 -30.2268
   -30.1650 -30.1650 -30.1647 -30.1647 -30.1637 -30.1637 -30.1634 -30.1634
   -20.0501 -20.0500 -20.0500 -20.0500 -20.0499 -20.0499 -20.0499 -20.0498
   -20.0450 -20.0450 -20.0450 -20.0449 -20.0422 -20.0422 -20.0422 -20.0422
   -20.0371 -20.0371 -20.0371 -20.0371 -20.0356 -20.0356 -20.0356 -20.0356
   -20.0336 -20.0336 -20.0335 -20.0335 -20.0325 -20.0325 -20.0325 -20.0325
   -20.0243 -20.0243 -20.0242 -20.0242 -20.0239 -20.0239 -20.0238 -20.0238
   -20.0032 -20.0032 -20.0031 -20.0031 -20.0030 -20.0030 -20.0030 -20.0030
   -19.9987 -19.9987 -19.9987 -19.9987 -19.9986 -19.9986 -19.9986 -19.9985
    -9.1614  -9.1614  -9.1503  -9.1502  -8.6767  -8.6767  -8.6255  -8.6254
    -8.4764  -8.4764  -8.4125  -8.4125  -8.2385  -8.2385  -8.2110  -8.2109
    -8.1807  -8.1807  -8.1390  -8.1390  -7.7316  -7.7316  -7.7301  -7.7301
     1.8969   1.8970   1.9043   1.9043   3.0604   3.0604   3.0872   3.0872
     3.2131   3.2131   3.2195   3.2195   3.3426   3.3426   3.4175   3.4175
     3.5364   3.5364   3.5482   3.5482   3.7951   3.7951   3.9044   3.9044
     3.9129   3.9129   4.0944   4.0944   4.3351   4.3351   4.3926   4.3926
     4.4353   4.4353   4.5478   4.5479   4.8818   4.8818   4.9098   4.9098
     5.2775   5.2775   5.3064   5.3064   5.9286   5.9286   5.9304   5.9304
     6.6682   6.6682   6.7261   6.7261   6.7569   6.7569   6.7883   6.7883
     7.5343   7.5343   7.5347   7.5347   7.5393   7.5394   7.6382   7.6382
     7.7032   7.7032   7.7365   7.7365   7.8213   7.8213   7.9379   7.9379
    11.6245  11.6245  11.7413  11.7413  11.7976  11.7976  11.9042  11.9042
    12.2746  12.2746  12.3110  12.3110  12.4583  12.4583  12.4892  12.4892
    13.1327  13.1327  13.2231  13.2231  13.3516  13.3516  13.4332  13.4332
    15.5824  15.5824  15.5855  15.5855  16.8159  16.8159  16.9970  16.9970
    17.5500  17.5500  17.6267  17.6268  17.7655

          k =-0.5000 0.3215-0.5000 ( 61780 PWs)   bands (ev):

   -65.9042 -65.9042 -65.9042 -65.9042 -65.9040 -65.9040 -65.9039 -65.9039
   -30.3294 -30.3294 -30.3289 -30.3289 -30.3104 -30.3103 -30.3099 -30.3098
   -30.2510 -30.2510 -30.2508 -30.2508 -30.2351 -30.2350 -30.2346 -30.2346
   -30.1647 -30.1647 -30.1646 -30.1645 -30.1639 -30.1639 -30.1637 -30.1637
   -20.0500 -20.0500 -20.0500 -20.0500 -20.0499 -20.0499 -20.0499 -20.0499
   -20.0443 -20.0443 -20.0443 -20.0443 -20.0427 -20.0427 -20.0427 -20.0427
   -20.0368 -20.0368 -20.0368 -20.0368 -20.0359 -20.0359 -20.0359 -20.0359
   -20.0335 -20.0335 -20.0334 -20.0334 -20.0329 -20.0329 -20.0328 -20.0328
   -20.0242 -20.0242 -20.0241 -20.0241 -20.0240 -20.0240 -20.0239 -20.0239
   -20.0032 -20.0032 -20.0031 -20.0031 -20.0030 -20.0030 -20.0030 -20.0030
   -19.9987 -19.9987 -19.9987 -19.9987 -19.9986 -19.9986 -19.9986 -19.9985
    -9.0018  -9.0018  -8.9837  -8.9837  -8.7203  -8.7202  -8.6764  -8.6764
    -8.4214  -8.4214  -8.3588  -8.3588  -8.2367  -8.2367  -8.2123  -8.2123
    -8.1904  -8.1904  -8.1378  -8.1378  -7.9671  -7.9671  -7.9586  -7.9586
     2.4904   2.4904   2.4970   2.4970   3.0888   3.0888   3.1257   3.1257
     3.2223   3.2223   3.2249   3.2249   3.3970   3.3970   3.4949   3.4949
     3.5130   3.5130   3.5313   3.5313   3.9221   3.9221   3.9690   3.9690
     4.0715   4.0716   4.1200   4.1200   4.2634   4.2634   4.2996   4.2996
     4.4208   4.4208   4.5449   4.5449   4.5715   4.5715   4.5901   4.5901
     4.8659   4.8659   4.8671   4.8672   5.2366   5.2366   5.2521   5.2521
     6.9755   6.9755   7.0587   7.0587   7.0991   7.0991   7.1743   7.1743
     7.5169   7.5169   7.5197   7.5197   7.5324   7.5324   7.6311   7.6312
     7.6886   7.6886   7.6985   7.6985   7.7787   7.7787   7.8475   7.8475
    11.8308  11.8308  11.9279  11.9279  11.9593  11.9593  12.0659  12.0659
    12.2774  12.2774  12.3009  12.3009  12.5141  12.5141  12.5338  12.5338
    12.8082  12.8083  12.8853  12.8853  13.0550  13.0550  13.1137  13.1137
    16.4539  16.4539  16.4568  16.4568  16.9922  16.9922  17.1200  17.1200
    17.4039  17.4039  17.6011  17.6011  17.7904

          k =-0.5000-0.4822-0.5000 ( 61816 PWs)   bands (ev):

   -65.9041 -65.9041 -65.9041 -65.9041 -65.9041 -65.9041 -65.9041 -65.9041
   -30.3197 -30.3197 -30.3185 -30.3185 -30.3185 -30.3185 -30.3182 -30.3182
   -30.2443 -30.2443 -30.2440 -30.2439 -30.2439 -30.2439 -30.2429 -30.2429
   -30.1643 -30.1643 -30.1643 -30.1643 -30.1643 -30.1643 -30.1641 -30.1641
   -20.0500 -20.0500 -20.0500 -20.0499 -20.0499 -20.0499 -20.0499 -20.0499
   -20.0435 -20.0435 -20.0434 -20.0434 -20.0434 -20.0434 -20.0433 -20.0433
   -20.0364 -20.0364 -20.0364 -20.0364 -20.0364 -20.0364 -20.0364 -20.0364
   -20.0333 -20.0333 -20.0332 -20.0332 -20.0332 -20.0332 -20.0331 -20.0331
   -20.0241 -20.0241 -20.0241 -20.0241 -20.0241 -20.0240 -20.0240 -20.0240
   -20.0032 -20.0032 -20.0032 -20.0031 -20.0030 -20.0030 -20.0030 -20.0030
   -19.9987 -19.9987 -19.9987 -19.9987 -19.9986 -19.9986 -19.9986 -19.9986
    -8.8479  -8.8479  -8.8041  -8.8041  -8.7951  -8.7951  -8.7951  -8.7951
    -8.3316  -8.3316  -8.2552  -8.2552  -8.2551  -8.2551  -8.2436  -8.2436
    -8.1833  -8.1833  -8.1833  -8.1833  -8.1261  -8.1261  -8.1090  -8.1090
     3.0506   3.0506   3.0506   3.0506   3.0572   3.0572   3.0838   3.0838
     3.3046   3.3046   3.3639   3.3639   3.3639   3.3639   3.4099   3.4099
     3.4894   3.4894   3.6251   3.6251   3.6251   3.6251   3.6765   3.6765
     4.2523   4.2523   4.2549   4.2549   4.3133   4.3133   4.3133   4.3133
     4.4908   4.4908   4.4908   4.4908   4.5280   4.5280   4.5877   4.5877
     4.6388   4.6388   4.6727   4.6727   4.7016   4.7016   4.7016   4.7016
     7.1287   7.1287   7.2594   7.2594   7.2594   7.2594   7.4108   7.4108
     7.4930   7.4930   7.4930   7.4930   7.4969   7.4969   7.5738   7.5738
     7.6784   7.6784   7.7072   7.7072   7.7072   7.7072   7.7800   7.7800
    12.0689  12.0689  12.0788  12.0788  12.0788  12.0788  12.0903  12.0903
    12.3482  12.3482  12.3986  12.3986  12.3986  12.3986  12.6059  12.6059
    12.6483  12.6483  12.7637  12.7637  12.7637  12.7637  12.7949  12.7949
    17.1678  17.1678  17.1678  17.1678  17.1749  17.1749  17.2760  17.2760
    17.5097  17.5097  17.5097  17.5097  17.6051

     the Fermi energy is    10.2149 ev

!    total energy              =   -6260.66066906 Ry
     Harris-Foulkes estimate   =   -6260.66066906 Ry
     estimated scf accuracy    <          1.1E-09 Ry

     The total energy is the sum of the following terms:

     one-electron contribution =   -4684.12383417 Ry
     hartree contribution      =    2582.17722601 Ry
     xc contribution           =    -966.31743985 Ry
     ewald contribution        =   -3192.39661518 Ry
     smearing contrib. (-TS)   =      -0.00000587 Ry

     convergence has been achieved in  13 iterations

     Writing output data file Landau_12.save
 
     init_run     :     21.47s CPU     22.58s WALL (       1 calls)
     electrons    :    875.52s CPU    891.30s WALL (       1 calls)

     Called by init_run:
     wfcinit      :     19.52s CPU     20.49s WALL (       1 calls)
     potinit      :      0.74s CPU      0.77s WALL (       1 calls)

     Called by electrons:
     c_bands      :    763.06s CPU    777.67s WALL (      13 calls)
     sum_band     :    103.07s CPU    103.59s WALL (      13 calls)
     v_of_rho     :      1.87s CPU      1.90s WALL (      14 calls)
     mix_rho      :      2.81s CPU      3.22s WALL (      13 calls)

     Called by c_bands:
     init_us_2    :      6.33s CPU      6.86s WALL (      27 calls)
     cegterg      :    630.20s CPU    644.61s WALL (      13 calls)

     Called by sum_band:

     Called by *egterg:
     h_psi        :    491.05s CPU    493.19s WALL (      55 calls)
     g_psi        :      2.12s CPU      2.12s WALL (      41 calls)
     cdiaghg      :      7.34s CPU      7.38s WALL (      54 calls)

     Called by h_psi:
     h_psi:pot    :    487.66s CPU    489.60s WALL (      55 calls)
     h_psi:calbec :     59.99s CPU     61.14s WALL (      55 calls)
     vloc_psi     :    364.33s CPU    364.83s WALL (      55 calls)
     add_vuspsi   :     63.34s CPU     63.63s WALL (      55 calls)

     General routines
     calbec       :     59.99s CPU     61.14s WALL (      55 calls)
     fft          :      1.17s CPU      1.17s WALL (      56 calls)
     fftw         :    366.34s CPU    366.55s WALL (   17067 calls)
 
     Parallel routines
 
     PWSCF        : 15m 0.67s CPU    15m20.29s WALL

 
   This run was terminated on:  20:36:55  25Mar2020            

=------------------------------------------------------------------------------=
   JOB DONE.
=------------------------------------------------------------------------------=
