
     Program PWSCF v.6.2 (svn rev. 14038) starts on 13Mar2020 at 15:40:46 

     This program is part of the open-source Quantum ESPRESSO suite
     for quantum simulation of materials; please cite
         "P. Giannozzi et al., J. Phys.:Condens. Matter 21 395502 (2009);
         "P. Giannozzi et al., J. Phys.:Condens. Matter 29 465901 (2017);
          URL http://www.quantum-espresso.org", 
     in publications or presentations arising from this work. More details at
     http://www.quantum-espresso.org/quote

     Parallel version (MPI), running on    40 processors

     MPI processes distributed on     8 nodes
     K-points division:     npool     =      40
     Reading input from rscf.in

     Current dimensions of program PWSCF are:
     Max number of different atomic species (ntypx) = 10
     Max number of k-points (npk) =  40000
     Max angular momentum in pseudopotentials (lmaxx) =  3

     Subspace diagonalization in iterative solution of the eigenvalue problem:
     a serial algorithm will be used

 
     G-vector sticks info
     --------------------
     sticks:   dense  smooth     PW     G-vecs:    dense   smooth      PW
     Sum        7747    7747   2077               498127   498127   69057
 


     bravais-lattice index     =            0
     lattice parameter (alat)  =      13.8397  a.u.
     unit-cell volume          =    2804.9816 (a.u.)^3
     number of atoms/cell      =           32
     number of atomic types    =            2
     number of electrons       =       368.00
     number of Kohn-Sham states=          221
     kinetic-energy cutoff     =     120.0000  Ry
     charge density cutoff     =     480.0000  Ry
     convergence threshold     =      1.0E-08
     mixing beta               =       0.7000
     number of iterations used =            8  plain     mixing
     Exchange-correlation      = SLA PW NOGX NOGC ( 1  4  0  0 0 0)
     nstep                     =           50


     celldm(1)=  13.839685  celldm(2)=   0.000000  celldm(3)=   0.000000
     celldm(4)=   0.000000  celldm(5)=   0.000000  celldm(6)=   0.000000

     crystal axes: (cart. coord. in units of alat)
               a(1) = (   1.000000   0.000000   0.000000 )  
               a(2) = (   0.000000   1.058160   0.000000 )  
               a(3) = (   0.000000   0.000000   1.000000 )  

     reciprocal axes: (cart. coord. in units 2 pi/alat)
               b(1) = (  1.000000  0.000000  0.000000 )  
               b(2) = (  0.000000  0.945037  0.000000 )  
               b(3) = (  0.000000  0.000000  1.000000 )  


     PseudoPot. # 1 for W  read from file:
     /cluster/scratch/mnoe/QE/pps/W_ONCV_LDA-4.0.upf
     MD5 check sum: ba0307d5d4cd419d6f1d13dc49d7c13a
     Pseudo is Norm-conserving + core correction, Zval = 28.0
     Generated using ONCVPSP code by D. R. Hamann
     Using radial grid of 1380 points,  8 beta functions with: 
                l(1) =   0
                l(2) =   0
                l(3) =   1
                l(4) =   1
                l(5) =   2
                l(6) =   2
                l(7) =   3
                l(8) =   3

     PseudoPot. # 2 for O  read from file:
     /cluster/scratch/mnoe/QE/pps/O_ONCV_LDA-3.0.upf
     MD5 check sum: a1bd6164e7280c17a38c229939bfbd54
     Pseudo is Norm-conserving + core correction, Zval =  6.0
     Generated using ONCVPSP code by D. R. Hamann
     Using radial grid of  926 points,  5 beta functions with: 
                l(1) =   0
                l(2) =   0
                l(3) =   1
                l(4) =   1
                l(5) =   2

     atomic species   valence    mass     pseudopotential
        W             28.00   183.84000     W ( 1.00)
        O              6.00    15.99940     O ( 1.00)

      8 Sym. Ops., with inversion, found ( 6 have fractional translation)



   Cartesian axes

     site n.     atom                  positions (alat units)
         1           W   tau(   1) = (   0.2495400   0.2979910   0.0004400  )
         2           W   tau(   2) = (   0.7504600   0.7601691   0.9995600  )
         3           W   tau(   3) = (   0.2504600   0.2310891   0.5004400  )
         4           W   tau(   4) = (   0.7495400   0.8270710   0.4995600  )
         5           W   tau(   5) = (   0.7504600   0.2979910   0.4995600  )
         6           W   tau(   6) = (   0.2495400   0.7601691   0.5004400  )
         7           W   tau(   7) = (   0.7495400   0.2310891   0.9995600  )
         8           W   tau(   8) = (   0.2504600   0.8270710   0.0004400  )
         9           O   tau(   9) = (   0.2491500   0.0087325   0.0001400  )
        10           O   tau(  10) = (   0.7508500   1.0494276   0.9998600  )
        11           O   tau(  11) = (   0.2508500   0.5203475   0.5001400  )
        12           O   tau(  12) = (   0.7491500   0.5378125   0.4998600  )
        13           O   tau(  13) = (   0.7508500   0.0087325   0.4998600  )
        14           O   tau(  14) = (   0.2491500   1.0494276   0.5001400  )
        15           O   tau(  15) = (   0.7491500   0.5203475   0.9998600  )
        16           O   tau(  16) = (   0.2508500   0.5378125   0.0001400  )
        17           O   tau(  17) = (   0.5001300   0.2636088   0.4501455  )
        18           O   tau(  18) = (   0.4998700   0.7945513   0.5498545  )
        19           O   tau(  19) = (   0.9998700   0.2654712   0.9501455  )
        20           O   tau(  20) = (   0.0001299   0.7926889   0.0498545  )
        21           O   tau(  21) = (   0.4998700   0.2636088   0.0498545  )
        22           O   tau(  22) = (   0.5001300   0.7945513   0.9501455  )
        23           O   tau(  23) = (   0.0001299   0.2654712   0.5498545  )
        24           O   tau(  24) = (   0.9998700   0.7926889   0.4501455  )
        25           O   tau(  25) = (   0.7001455   0.2643390   0.7498100  )
        26           O   tau(  26) = (   0.2998545   0.7938211   0.2501900  )
        27           O   tau(  27) = (   0.7998545   0.2647411   0.2498100  )
        28           O   tau(  28) = (   0.2001455   0.7934190   0.7501900  )
        29           O   tau(  29) = (   0.2998545   0.2643390   0.7501900  )
        30           O   tau(  30) = (   0.7001455   0.7938211   0.2498100  )
        31           O   tau(  31) = (   0.2001455   0.2647411   0.2501900  )
        32           O   tau(  32) = (   0.7998545   0.7934190   0.7498100  )

     number of k points=    64  gaussian smearing, width (Ry)=  0.0007
                       cart. coord. in units 2pi/alat
        k(    1) = (   0.0000000   0.0000000   0.0000000), wk =   0.0092593
        k(    2) = (   0.0000000   0.0000000   0.1666667), wk =   0.0185185
        k(    3) = (   0.0000000   0.0000000   0.3333333), wk =   0.0185185
        k(    4) = (   0.0000000   0.0000000  -0.5000000), wk =   0.0092593
        k(    5) = (   0.0000000   0.1575061   0.0000000), wk =   0.0185185
        k(    6) = (   0.0000000   0.1575061   0.1666667), wk =   0.0370370
        k(    7) = (   0.0000000   0.1575061   0.3333333), wk =   0.0370370
        k(    8) = (   0.0000000   0.1575061  -0.5000000), wk =   0.0185185
        k(    9) = (   0.0000000   0.3150122   0.0000000), wk =   0.0185185
        k(   10) = (   0.0000000   0.3150122   0.1666667), wk =   0.0370370
        k(   11) = (   0.0000000   0.3150122   0.3333333), wk =   0.0370370
        k(   12) = (   0.0000000   0.3150122  -0.5000000), wk =   0.0185185
        k(   13) = (   0.0000000  -0.4725183   0.0000000), wk =   0.0092593
        k(   14) = (   0.0000000  -0.4725183   0.1666667), wk =   0.0185185
        k(   15) = (   0.0000000  -0.4725183   0.3333333), wk =   0.0185185
        k(   16) = (   0.0000000  -0.4725183  -0.5000000), wk =   0.0092593
        k(   17) = (   0.1666667   0.0000000   0.1666667), wk =   0.0370370
        k(   18) = (   0.1666667   0.0000000   0.3333333), wk =   0.0370370
        k(   19) = (   0.1666667   0.0000000  -0.5000000), wk =   0.0185185
        k(   20) = (   0.1666667   0.1575061   0.1666667), wk =   0.0740741
        k(   21) = (   0.1666667   0.1575061   0.3333333), wk =   0.0740741
        k(   22) = (   0.1666667   0.1575061  -0.5000000), wk =   0.0370370
        k(   23) = (   0.1666667   0.3150122   0.1666667), wk =   0.0740741
        k(   24) = (   0.1666667   0.3150122   0.3333333), wk =   0.0740741
        k(   25) = (   0.1666667   0.3150122  -0.5000000), wk =   0.0370370
        k(   26) = (   0.1666667  -0.4725183   0.1666667), wk =   0.0370370
        k(   27) = (   0.1666667  -0.4725183   0.3333333), wk =   0.0370370
        k(   28) = (   0.1666667  -0.4725183  -0.5000000), wk =   0.0185185
        k(   29) = (   0.3333333   0.0000000   0.3333333), wk =   0.0370370
        k(   30) = (   0.3333333   0.0000000  -0.5000000), wk =   0.0185185
        k(   31) = (   0.3333333   0.1575061   0.3333333), wk =   0.0740741
        k(   32) = (   0.3333333   0.1575061  -0.5000000), wk =   0.0370370
        k(   33) = (   0.3333333   0.3150122   0.3333333), wk =   0.0740741
        k(   34) = (   0.3333333   0.3150122  -0.5000000), wk =   0.0370370
        k(   35) = (   0.3333333  -0.4725183   0.3333333), wk =   0.0370370
        k(   36) = (   0.3333333  -0.4725183  -0.5000000), wk =   0.0185185
        k(   37) = (  -0.5000000   0.0000000  -0.5000000), wk =   0.0092593
        k(   38) = (  -0.5000000   0.1575061  -0.5000000), wk =   0.0185185
        k(   39) = (  -0.5000000   0.3150122  -0.5000000), wk =   0.0185185
        k(   40) = (  -0.5000000  -0.4725183  -0.5000000), wk =   0.0092593
        k(   41) = (   0.1666667   0.0000000   0.0000000), wk =   0.0185185
        k(   42) = (   0.3333333   0.0000000   0.0000000), wk =   0.0185185
        k(   43) = (  -0.5000000   0.0000000   0.0000000), wk =   0.0092593
        k(   44) = (   0.1666667  -0.1575061   0.0000000), wk =   0.0370370
        k(   45) = (   0.3333333  -0.1575061   0.0000000), wk =   0.0370370
        k(   46) = (  -0.5000000  -0.1575061   0.0000000), wk =   0.0185185
        k(   47) = (   0.1666667  -0.3150122   0.0000000), wk =   0.0370370
        k(   48) = (   0.3333333  -0.3150122   0.0000000), wk =   0.0370370
        k(   49) = (  -0.5000000  -0.3150122   0.0000000), wk =   0.0185185
        k(   50) = (   0.1666667   0.4725183   0.0000000), wk =   0.0185185
        k(   51) = (   0.3333333   0.4725183   0.0000000), wk =   0.0185185
        k(   52) = (  -0.5000000   0.4725183   0.0000000), wk =   0.0092593
        k(   53) = (   0.3333333   0.0000000   0.1666667), wk =   0.0370370
        k(   54) = (  -0.5000000   0.0000000   0.1666667), wk =   0.0185185
        k(   55) = (   0.3333333  -0.1575061   0.1666667), wk =   0.0740741
        k(   56) = (  -0.5000000  -0.1575061   0.1666667), wk =   0.0370370
        k(   57) = (   0.3333333  -0.3150122   0.1666667), wk =   0.0740741
        k(   58) = (  -0.5000000  -0.3150122   0.1666667), wk =   0.0370370
        k(   59) = (   0.3333333   0.4725183   0.1666667), wk =   0.0370370
        k(   60) = (  -0.5000000   0.4725183   0.1666667), wk =   0.0185185
        k(   61) = (  -0.5000000   0.0000000   0.3333333), wk =   0.0185185
        k(   62) = (  -0.5000000  -0.1575061   0.3333333), wk =   0.0370370
        k(   63) = (  -0.5000000  -0.3150122   0.3333333), wk =   0.0370370
        k(   64) = (  -0.5000000   0.4725183   0.3333333), wk =   0.0185185

     Dense  grid:   498127 G-vectors     FFT dimensions: ( 100, 108, 100)

     Estimated max dynamical RAM per process >       3.15 GB

     Estimated total dynamical RAM >     125.81 GB

     Initial potential from superposition of free atoms

     starting charge  367.99656, renormalised to  368.00000
     Starting wfc are  232 randomized atomic wfcs

     total cpu time spent up to now is       46.3 secs

     Self-consistent Calculation

     iteration #  1     ecut=   120.00 Ry     beta= 0.70
     Davidson diagonalization with overlap
     ethr =  1.00E-02,  avg # of iterations =  5.0

     total cpu time spent up to now is      156.6 secs

     total energy              =   -6253.98404636 Ry
     Harris-Foulkes estimate   =   -6264.58743022 Ry
     estimated scf accuracy    <      13.42712565 Ry

     iteration #  2     ecut=   120.00 Ry     beta= 0.70
     Davidson diagonalization with overlap
     ethr =  3.65E-03,  avg # of iterations =  3.5

     total cpu time spent up to now is      263.0 secs

     total energy              =   -6250.82392414 Ry
     Harris-Foulkes estimate   =   -6270.82511451 Ry
     estimated scf accuracy    <      53.79085787 Ry

     iteration #  3     ecut=   120.00 Ry     beta= 0.70
     Davidson diagonalization with overlap
     ethr =  3.65E-03,  avg # of iterations =  3.3

     total cpu time spent up to now is      364.9 secs

     total energy              =   -6261.08631358 Ry
     Harris-Foulkes estimate   =   -6261.38196801 Ry
     estimated scf accuracy    <       0.96519822 Ry

     iteration #  4     ecut=   120.00 Ry     beta= 0.70
     Davidson diagonalization with overlap
     ethr =  2.62E-04,  avg # of iterations =  3.2

     total cpu time spent up to now is      451.3 secs

     total energy              =   -6261.09625069 Ry
     Harris-Foulkes estimate   =   -6261.16673234 Ry
     estimated scf accuracy    <       0.23792181 Ry

     iteration #  5     ecut=   120.00 Ry     beta= 0.70
     Davidson diagonalization with overlap
     ethr =  6.47E-05,  avg # of iterations =  4.5

     total cpu time spent up to now is      542.1 secs

     total energy              =   -6261.09183758 Ry
     Harris-Foulkes estimate   =   -6261.12621223 Ry
     estimated scf accuracy    <       0.07556266 Ry

     iteration #  6     ecut=   120.00 Ry     beta= 0.70
     Davidson diagonalization with overlap
     ethr =  2.05E-05,  avg # of iterations =  4.6

     total cpu time spent up to now is      635.7 secs

     total energy              =   -6261.10853689 Ry
     Harris-Foulkes estimate   =   -6261.11064679 Ry
     estimated scf accuracy    <       0.00569929 Ry

     iteration #  7     ecut=   120.00 Ry     beta= 0.70
     Davidson diagonalization with overlap
     ethr =  1.55E-06,  avg # of iterations =  3.9

     total cpu time spent up to now is      723.7 secs

     total energy              =   -6261.10925388 Ry
     Harris-Foulkes estimate   =   -6261.10933522 Ry
     estimated scf accuracy    <       0.00016505 Ry

     iteration #  8     ecut=   120.00 Ry     beta= 0.70
     Davidson diagonalization with overlap
     ethr =  4.49E-08,  avg # of iterations =  3.2

     total cpu time spent up to now is      832.5 secs

     total energy              =   -6261.10931389 Ry
     Harris-Foulkes estimate   =   -6261.10931814 Ry
     estimated scf accuracy    <       0.00002009 Ry

     iteration #  9     ecut=   120.00 Ry     beta= 0.70
     Davidson diagonalization with overlap
     ethr =  5.46E-09,  avg # of iterations =  2.0

     total cpu time spent up to now is      917.4 secs

     total energy              =   -6261.10931092 Ry
     Harris-Foulkes estimate   =   -6261.10931548 Ry
     estimated scf accuracy    <       0.00001166 Ry

     iteration # 10     ecut=   120.00 Ry     beta= 0.70
     Davidson diagonalization with overlap
     ethr =  3.17E-09,  avg # of iterations =  2.0

     total cpu time spent up to now is     1001.2 secs

     total energy              =   -6261.10931277 Ry
     Harris-Foulkes estimate   =   -6261.10931285 Ry
     estimated scf accuracy    <       0.00000017 Ry

     iteration # 11     ecut=   120.00 Ry     beta= 0.70
     Davidson diagonalization with overlap
     ethr =  4.58E-11,  avg # of iterations =  3.0

     total cpu time spent up to now is     1107.3 secs

     total energy              =   -6261.10931283 Ry
     Harris-Foulkes estimate   =   -6261.10931285 Ry
     estimated scf accuracy    <       0.00000005 Ry

     iteration # 12     ecut=   120.00 Ry     beta= 0.70
     Davidson diagonalization with overlap
     ethr =  1.35E-11,  avg # of iterations =  2.0

     total cpu time spent up to now is     1190.3 secs

     total energy              =   -6261.10931282 Ry
     Harris-Foulkes estimate   =   -6261.10931283 Ry
     estimated scf accuracy    <       0.00000002 Ry

     iteration # 13     ecut=   120.00 Ry     beta= 0.70
     Davidson diagonalization with overlap
     ethr =  6.03E-12,  avg # of iterations =  2.0

     total cpu time spent up to now is     1288.8 secs

     End of self-consistent calculation

          k = 0.0000 0.0000 0.0000 ( 62239 PWs)   bands (ev):

   -66.1752 -66.1748 -66.1742 -66.1742 -66.1738 -66.1738 -66.1732 -66.1728
   -30.5665 -30.5632 -30.5631 -30.5599 -30.5226 -30.5225 -30.5193 -30.5192
   -30.5172 -30.5171 -30.5140 -30.5140 -30.5072 -30.5046 -30.5046 -30.5020
   -30.4214 -30.4214 -30.4188 -30.4187 -30.4170 -30.4170 -30.4144 -30.4143
   -20.3350 -20.3349 -20.3349 -20.3349 -20.3349 -20.3349 -20.3349 -20.3348
   -20.3172 -20.3169 -20.3169 -20.3167 -20.3121 -20.3121 -20.3117 -20.3117
   -20.3117 -20.3116 -20.3115 -20.3114 -20.3114 -20.3111 -20.3110 -20.3110
   -20.3105 -20.3105 -20.3103 -20.3103 -20.3098 -20.3098 -20.3095 -20.3095
   -20.3030 -20.3030 -20.3026 -20.3026 -20.3023 -20.3023 -20.3021 -20.3021
   -20.3015 -20.3014 -20.3012 -20.3011 -20.3011 -20.3011 -20.3008 -20.3007
   -20.2950 -20.2950 -20.2944 -20.2944 -20.2944 -20.2944 -20.2939 -20.2939
    -9.9562  -9.6850  -9.5139  -9.5138  -9.2557  -9.2556  -9.0674  -9.0656
    -9.0535  -8.8754  -8.8524  -8.8524  -7.8485  -7.7895  -7.7894  -7.7832
    -7.7831  -7.7574  -7.7574  -7.7379  -7.6306  -7.6305  -7.6095  -7.6094
     1.1659   1.1663   1.2530   1.2531   1.2696   1.2698   1.3634   1.6214
     1.6307   1.6307   1.6373   1.8475   2.3772   2.4504   2.5779   2.5779
     2.7251   2.7251   4.1323   4.1324   4.3452   4.3455   4.8281   4.8282
     4.8442   4.8445   4.8555   4.8556   5.0336   5.0336   5.0627   5.4478
     5.4479   5.5140   5.5144   5.5285   5.5285   5.5785   5.5788   5.8175
     5.8177   5.8794   5.8794   5.9340   5.9655   6.0352   6.0353   6.1046
     6.1047   6.2477   6.2478   6.5658   6.5659   6.8094   6.8095   6.8376
     6.8377   6.8768   7.0163   7.0227   7.0867   7.0868   7.3829   7.3831
     7.4253   7.4255   7.7891   7.8028   8.0770   8.0771   8.1476   8.1478
     9.2185   9.2249   9.9741   9.9742  10.0111  10.0112  12.2357  12.2362
    12.2808  12.2816  12.3052  12.3056  12.4883  12.4884  12.8751  12.8784
    13.2293  13.2296  13.4014  13.4016  13.7749  14.1499  14.1504  14.1536
    14.1550  14.3337  14.3349  14.9112  15.4079  15.4190  15.4545  16.0517
    16.0517  16.8237  17.0611  17.0612  17.4890

          k = 0.0000 0.0000 0.1667 ( 62262 PWs)   bands (ev):

   -66.1752 -66.1748 -66.1743 -66.1741 -66.1739 -66.1738 -66.1733 -66.1729
   -30.5665 -30.5635 -30.5632 -30.5602 -30.5221 -30.5189 -30.5175 -30.5169
   -30.5143 -30.5128 -30.5123 -30.5071 -30.5049 -30.5049 -30.5034 -30.5024
   -30.4281 -30.4255 -30.4236 -30.4211 -30.4210 -30.4184 -30.4173 -30.4146
   -20.3350 -20.3349 -20.3349 -20.3349 -20.3349 -20.3349 -20.3349 -20.3348
   -20.3172 -20.3170 -20.3169 -20.3167 -20.3121 -20.3120 -20.3117 -20.3117
   -20.3116 -20.3116 -20.3115 -20.3114 -20.3113 -20.3111 -20.3110 -20.3109
   -20.3106 -20.3105 -20.3104 -20.3103 -20.3099 -20.3098 -20.3096 -20.3095
   -20.3030 -20.3028 -20.3027 -20.3026 -20.3023 -20.3022 -20.3022 -20.3021
   -20.3013 -20.3012 -20.3010 -20.3009 -20.3008 -20.3008 -20.3008 -20.3007
   -20.2955 -20.2950 -20.2949 -20.2949 -20.2945 -20.2944 -20.2944 -20.2939
    -9.9088  -9.6310  -9.5307  -9.4505  -9.2700  -9.1655  -9.0761  -9.0261
    -9.0114  -8.8642  -8.8569  -8.8236  -7.9047  -7.8899  -7.8500  -7.7932
    -7.7835  -7.7710  -7.7616  -7.7479  -7.7425  -7.7413  -7.6402  -7.6190
     1.2470   1.2563   1.2580   1.2762   1.4308   1.4528   1.5291   1.6233
     1.6294   1.6916   1.7934   1.9640   2.4648   2.5419   2.5872   2.6665
     2.7166   2.8132   4.0742   4.1324   4.3315   4.3577   4.3652   4.4593
     4.6729   4.7789   4.8381   4.8985   4.9102   5.0190   5.0434   5.2771
     5.3400   5.4283   5.5001   5.5224   5.5638   5.5968   5.6222   5.6338
     5.7261   5.7672   5.8089   5.9190   5.9788   6.0930   6.1029   6.1275
     6.2692   6.4067   6.4824   6.5549   6.6745   6.7038   6.7808   6.8295
     6.8426   6.8515   6.9770   7.0104   7.0203   7.0963   7.1510   7.1522
     7.1999   7.2645   7.8068   7.8088   8.0365   8.0934   8.1049   8.1484
     9.5747   9.6082   9.9756  10.0086  10.2378  10.2911  12.1645  12.2093
    12.2485  12.2859  12.3292  12.3571  12.4910  12.5833  12.8854  12.9361
    13.0300  13.2208  13.2818  13.4014  13.9027  14.0075  14.0249  14.1469
    14.1523  14.3285  14.4579  15.0225  15.4199  15.4426  15.4725  16.0235
    16.3641  16.8028  16.9938  17.2504  17.5396

          k = 0.0000 0.0000 0.3333 ( 62268 PWs)   bands (ev):

   -66.1750 -66.1746 -66.1745 -66.1741 -66.1740 -66.1736 -66.1735 -66.1731
   -30.5662 -30.5643 -30.5629 -30.5611 -30.5212 -30.5185 -30.5180 -30.5153
   -30.5089 -30.5077 -30.5058 -30.5033 -30.4938 -30.4938 -30.4901 -30.4888
   -30.4463 -30.4438 -30.4417 -30.4392 -30.4203 -30.4181 -30.4176 -30.4154
   -20.3350 -20.3350 -20.3349 -20.3349 -20.3349 -20.3349 -20.3348 -20.3348
   -20.3172 -20.3170 -20.3169 -20.3168 -20.3120 -20.3118 -20.3117 -20.3117
   -20.3116 -20.3115 -20.3114 -20.3113 -20.3113 -20.3111 -20.3110 -20.3109
   -20.3106 -20.3106 -20.3104 -20.3103 -20.3102 -20.3099 -20.3097 -20.3096
   -20.3029 -20.3027 -20.3024 -20.3023 -20.3022 -20.3021 -20.3021 -20.3020
   -20.3016 -20.3015 -20.3012 -20.3012 -20.2998 -20.2997 -20.2995 -20.2993
   -20.2967 -20.2962 -20.2961 -20.2957 -20.2949 -20.2946 -20.2943 -20.2940
    -9.7941  -9.5825  -9.5069  -9.3135  -9.3021  -9.1058  -8.9353  -8.9084
    -8.8696  -8.8625  -8.7911  -8.7095  -8.2083  -8.2068  -8.1041  -8.0855
    -7.8280  -7.8031  -7.7752  -7.7505  -7.7424  -7.7199  -7.6671  -7.6455
     1.2644   1.2774   1.2930   1.3166   1.5538   1.5739   1.6085   1.6123
     2.2252   2.2607   2.4359   2.5149   2.6123   2.7048   2.7184   2.8098
     2.9076   3.0455   3.7423   3.8302   3.8370   3.9407   4.1853   4.2496
     4.2825   4.4963   4.5387   4.7994   4.8066   4.8180   4.9362   4.9824
     5.1623   5.1736   5.1798   5.3479   5.4484   5.4636   5.6424   5.6567
     5.7243   5.7547   5.7862   5.9824   6.0029   6.1517   6.2501   6.2890
     6.3191   6.3968   6.5183   6.5431   6.5775   6.5823   6.6798   6.7095
     6.8230   6.8393   6.8455   6.9902   7.0088   7.0504   7.0900   7.1057
     7.3235   7.3580   7.7448   7.7659   7.9115   7.9673   8.1302   8.1498
     9.9809  10.0011  10.3062  10.3723  10.8532  10.9638  11.7891  11.8308
    12.0644  12.4391  12.4408  12.5005  12.5133  12.5855  12.6700  12.8471
    12.8857  13.0806  13.1635  13.4078  13.6791  13.6860  14.1268  14.1491
    14.1544  14.3077  14.7787  15.3036  15.3085  15.5925  15.8696  15.9374
    16.2725  17.2133  17.3849  17.5330  17.8247

          k = 0.0000 0.0000-0.5000 ( 62264 PWs)   bands (ev):

   -66.1747 -66.1747 -66.1743 -66.1743 -66.1737 -66.1737 -66.1733 -66.1733
   -30.5653 -30.5653 -30.5621 -30.5621 -30.5198 -30.5198 -30.5166 -30.5166
   -30.5072 -30.5072 -30.5049 -30.5049 -30.4708 -30.4708 -30.4687 -30.4687
   -30.4662 -30.4662 -30.4640 -30.4640 -30.4192 -30.4192 -30.4165 -30.4165
   -20.3350 -20.3350 -20.3349 -20.3349 -20.3349 -20.3349 -20.3348 -20.3348
   -20.3171 -20.3171 -20.3169 -20.3169 -20.3119 -20.3119 -20.3117 -20.3117
   -20.3114 -20.3114 -20.3113 -20.3113 -20.3112 -20.3112 -20.3109 -20.3109
   -20.3106 -20.3106 -20.3104 -20.3104 -20.3102 -20.3102 -20.3097 -20.3097
   -20.3028 -20.3028 -20.3022 -20.3022 -20.3019 -20.3019 -20.3019 -20.3019
   -20.3017 -20.3017 -20.3016 -20.3016 -20.2983 -20.2983 -20.2979 -20.2979
   -20.2978 -20.2978 -20.2975 -20.2975 -20.2947 -20.2947 -20.2942 -20.2942
    -9.6723  -9.6723  -9.3904  -9.3904  -9.1728  -9.1728  -8.8904  -8.8904
    -8.5769  -8.5769  -8.5485  -8.5485  -8.5277  -8.5277  -8.4506  -8.4506
    -7.8164  -7.8164  -7.7629  -7.7629  -7.7043  -7.7043  -7.6823  -7.6823
     1.2737   1.2737   1.3122   1.3122   1.5918   1.5918   1.5947   1.5947
     2.6441   2.6441   2.9563   2.9563   3.0927   3.0927   3.1397   3.1397
     3.2565   3.2565   3.3213   3.3213   3.4329   3.4329   3.7617   3.7617
     3.8908   3.8908   4.4222   4.4222   4.7548   4.7548   4.8898   4.8898
     5.2418   5.2418   5.3124   5.3125   5.3264   5.3264   5.6873   5.6873
     5.7381   5.7381   5.9379   5.9379   6.1725   6.1725   6.2516   6.2516
     6.3210   6.3210   6.4608   6.4608   6.4833   6.4833   6.5044   6.5044
     6.7823   6.7823   6.8232   6.8232   7.0709   7.0709   7.4769   7.4769
     7.5380   7.5380   7.6915   7.6915   7.7140   7.7140   8.1469   8.1469
     9.9906   9.9906  11.1069  11.1069  11.1719  11.1719  11.5456  11.5456
    11.7638  11.7638  12.5270  12.5270  12.6543  12.6543  12.7582  12.7582
    12.9241  12.9241  13.2457  13.2457  13.4563  13.4563  14.1449  14.1449
    14.2613  14.2613  15.0982  15.0982  15.7314  15.7314  15.7894  15.7894
    16.6368  16.6368  17.8456  17.8456  18.1732

          k = 0.0000 0.1575 0.0000 ( 62231 PWs)   bands (ev):

   -66.1752 -66.1749 -66.1742 -66.1742 -66.1739 -66.1738 -66.1732 -66.1728
   -30.5625 -30.5593 -30.5593 -30.5561 -30.5224 -30.5223 -30.5195 -30.5194
   -30.5170 -30.5169 -30.5143 -30.5142 -30.5112 -30.5085 -30.5085 -30.5059
   -30.4212 -30.4212 -30.4189 -30.4189 -30.4168 -30.4168 -30.4145 -30.4145
   -20.3350 -20.3350 -20.3349 -20.3349 -20.3349 -20.3349 -20.3349 -20.3348
   -20.3168 -20.3166 -20.3166 -20.3163 -20.3121 -20.3121 -20.3121 -20.3118
   -20.3118 -20.3116 -20.3116 -20.3116 -20.3116 -20.3115 -20.3110 -20.3110
   -20.3105 -20.3104 -20.3102 -20.3102 -20.3099 -20.3099 -20.3096 -20.3096
   -20.3030 -20.3030 -20.3026 -20.3026 -20.3024 -20.3023 -20.3021 -20.3021
   -20.3015 -20.3014 -20.3012 -20.3011 -20.3011 -20.3011 -20.3008 -20.3007
   -20.2950 -20.2950 -20.2944 -20.2944 -20.2944 -20.2944 -20.2939 -20.2939
    -9.9286  -9.6960  -9.4798  -9.4797  -9.2629  -9.2628  -9.0647  -9.0543
    -8.9939  -8.8279  -8.8118  -8.8118  -7.9439  -7.8893  -7.8893  -7.8443
    -7.7815  -7.7815  -7.7592  -7.7591  -7.6292  -7.6291  -7.6109  -7.6109
     1.1659   1.1663   1.2604   1.2606   1.2695   1.2697   1.4838   1.6207
     1.8128   1.8652   1.8653   2.0333   2.3819   2.4453   2.6490   2.6490
     2.7923   2.7923   4.0007   4.0009   4.0857   4.0859   4.8208   4.8304
     4.8304   4.8494   4.8495   4.9054   4.9063   4.9885   4.9886   5.2829
     5.2830   5.4511   5.4511   5.6098   5.6098   5.6228   5.6409   5.6415
     5.8074   5.8074   5.8832   5.8833   5.9727   6.0392   6.0393   6.1114
     6.1114   6.2392   6.2394   6.5873   6.5875   6.8381   6.8440   6.8441
     6.8730   6.8731   6.8866   7.0039   7.0040   7.0076   7.3911   7.3912
     7.4249   7.4250   7.7942   7.8023   8.0361   8.0362   8.0659   8.0660
     9.2188   9.2243  10.1747  10.1747  10.1820  10.1821  12.1548  12.1549
    12.2529  12.2529  12.3041  12.3042  12.3341  12.3342  12.8754  12.8782
    13.2649  13.2651  13.4090  13.4092  14.0503  14.0527  14.0647  14.0651
    14.1128  14.6121  14.6124  15.0732  15.4083  15.4177  15.8576  16.0176
    16.0176  16.5259  17.1938  17.1939  17.5195

          k = 0.0000 0.1575 0.1667 ( 62237 PWs)   bands (ev):

   -66.1751 -66.1748 -66.1743 -66.1741 -66.1739 -66.1738 -66.1732 -66.1729
   -30.5626 -30.5596 -30.5593 -30.5564 -30.5219 -30.5192 -30.5173 -30.5171
   -30.5146 -30.5142 -30.5125 -30.5088 -30.5073 -30.5073 -30.5068 -30.5063
   -30.4279 -30.4256 -30.4235 -30.4212 -30.4209 -30.4186 -30.4171 -30.4148
   -20.3350 -20.3349 -20.3349 -20.3349 -20.3349 -20.3349 -20.3349 -20.3348
   -20.3168 -20.3166 -20.3166 -20.3163 -20.3121 -20.3120 -20.3120 -20.3119
   -20.3118 -20.3116 -20.3116 -20.3115 -20.3115 -20.3114 -20.3111 -20.3109
   -20.3105 -20.3104 -20.3103 -20.3102 -20.3100 -20.3099 -20.3097 -20.3096
   -20.3029 -20.3028 -20.3026 -20.3025 -20.3023 -20.3023 -20.3022 -20.3021
   -20.3013 -20.3012 -20.3010 -20.3009 -20.3008 -20.3008 -20.3008 -20.3007
   -20.2954 -20.2949 -20.2949 -20.2949 -20.2945 -20.2944 -20.2944 -20.2940
    -9.8801  -9.6421  -9.4967  -9.4120  -9.2773  -9.1728  -9.0247  -9.0122
    -9.0025  -8.8184  -8.8163  -8.7874  -7.9439  -7.9162  -7.9031  -7.8888
    -7.8623  -7.8527  -7.7696  -7.7602  -7.7495  -7.7404  -7.6389  -7.6205
     1.2535   1.2579   1.2656   1.2761   1.4969   1.5288   1.5874   1.7926
     1.8213   1.8591   1.8834   2.0884   2.4703   2.5365   2.6581   2.7396
     2.7843   2.8803   3.9710   4.0168   4.0746   4.1201   4.3880   4.4572
     4.7195   4.7247   4.8033   4.8779   4.8903   4.9213   4.9940   5.2400
     5.2540   5.2869   5.2948   5.4761   5.5727   5.5801   5.6340   5.6888
     5.7212   5.7501   5.8205   5.8598   5.8645   6.1017   6.1019   6.1625
     6.2012   6.3985   6.4556   6.5765   6.7170   6.7801   6.7978   6.8186
     6.8528   6.8847   6.9587   6.9641   7.0135   7.0201   7.1503   7.1522
     7.2171   7.2642   7.8084   7.8097   7.9975   8.0284   8.0382   8.0670
     9.5798   9.6063  10.1757  10.1829  10.4061  10.4313  12.1359  12.1729
    12.2077  12.2360  12.3024  12.3027  12.3372  12.4586  12.8855  12.9339
    13.0709  13.2565  13.2889  13.4070  13.9076  13.9338  14.0488  14.0625
    14.2369  14.6072  14.7590  15.1712  15.4421  15.4732  15.8238  15.9900
    16.3277  16.6834  16.9288  17.3635  17.5834

          k = 0.0000 0.1575 0.3333 ( 62284 PWs)   bands (ev):

   -66.1750 -66.1746 -66.1744 -66.1741 -66.1739 -66.1736 -66.1734 -66.1731
   -30.5623 -30.5604 -30.5591 -30.5572 -30.5209 -30.5183 -30.5182 -30.5156
   -30.5124 -30.5107 -30.5097 -30.5072 -30.4945 -30.4939 -30.4903 -30.4890
   -30.4461 -30.4439 -30.4416 -30.4394 -30.4201 -30.4179 -30.4178 -30.4156
   -20.3350 -20.3350 -20.3349 -20.3349 -20.3349 -20.3349 -20.3349 -20.3348
   -20.3168 -20.3167 -20.3166 -20.3164 -20.3121 -20.3119 -20.3119 -20.3119
   -20.3117 -20.3116 -20.3116 -20.3114 -20.3112 -20.3112 -20.3111 -20.3108
   -20.3106 -20.3106 -20.3104 -20.3103 -20.3103 -20.3099 -20.3098 -20.3096
   -20.3029 -20.3027 -20.3024 -20.3023 -20.3022 -20.3022 -20.3021 -20.3020
   -20.3016 -20.3015 -20.3012 -20.3012 -20.2998 -20.2997 -20.2995 -20.2994
   -20.2966 -20.2962 -20.2962 -20.2958 -20.2948 -20.2945 -20.2943 -20.2941
    -9.7630  -9.5487  -9.5175  -9.3215  -9.2491  -9.0329  -8.9190  -8.9161
    -8.8641  -8.8294  -8.7627  -8.6876  -8.2142  -8.2048  -8.1185  -8.0835
    -7.9195  -7.8981  -7.8739  -7.8476  -7.7411  -7.7214  -7.6657  -7.6470
     1.2787   1.2929   1.2993   1.3165   1.7469   1.7724   1.8526   1.8573
     2.2237   2.2749   2.4374   2.5354   2.6825   2.7273   2.7623   2.8112
     2.9819   3.1062   3.7414   3.8253   3.8292   3.8912   4.0850   4.1172
     4.2446   4.3466   4.5570   4.7432   4.7687   4.8034   4.8064   4.8597
     5.0317   5.1212   5.1556   5.1624   5.3662   5.4110   5.4747   5.6161
     5.6909   5.7363   5.7935   5.8402   5.9608   6.1331   6.1933   6.2482
     6.3480   6.5402   6.5643   6.5733   6.6565   6.6714   6.6833   6.7931
     6.8070   6.8259   6.9171   6.9610   7.0032   7.0282   7.0517   7.0938
     7.3161   7.3517   7.7483   7.7643   7.8779   7.9076   8.0581   8.0694
    10.1777  10.1794  10.3146  10.3733  10.9686  11.0553  11.7909  11.8283
    12.0272  12.3477  12.4090  12.4668  12.4830  12.5522  12.6249  12.7359
    12.8738  13.0813  13.1844  13.4049  13.5858  13.5939  14.0488  14.0584
    14.4539  14.5898  15.1247  15.4252  15.5823  15.7165  15.8897  15.9063
    16.3998  17.1567  17.1692  17.4350  17.7983

          k = 0.0000 0.1575-0.5000 ( 62234 PWs)   bands (ev):

   -66.1747 -66.1747 -66.1744 -66.1744 -66.1737 -66.1737 -66.1733 -66.1733
   -30.5615 -30.5615 -30.5583 -30.5583 -30.5196 -30.5196 -30.5169 -30.5169
   -30.5110 -30.5110 -30.5086 -30.5086 -30.4707 -30.4707 -30.4689 -30.4689
   -30.4661 -30.4661 -30.4641 -30.4641 -30.4190 -30.4190 -30.4167 -30.4167
   -20.3350 -20.3350 -20.3349 -20.3349 -20.3349 -20.3349 -20.3348 -20.3348
   -20.3168 -20.3168 -20.3165 -20.3165 -20.3120 -20.3120 -20.3118 -20.3118
   -20.3118 -20.3118 -20.3113 -20.3113 -20.3112 -20.3112 -20.3109 -20.3109
   -20.3106 -20.3106 -20.3103 -20.3103 -20.3102 -20.3102 -20.3097 -20.3097
   -20.3028 -20.3028 -20.3023 -20.3023 -20.3019 -20.3019 -20.3019 -20.3019
   -20.3017 -20.3017 -20.3016 -20.3016 -20.2983 -20.2983 -20.2979 -20.2979
   -20.2979 -20.2979 -20.2976 -20.2976 -20.2947 -20.2947 -20.2942 -20.2942
    -9.6392  -9.6392  -9.3996  -9.3996  -9.1047  -9.1047  -8.8536  -8.8536
    -8.5802  -8.5802  -8.5424  -8.5424  -8.5364  -8.5364  -8.4439  -8.4438
    -7.9109  -7.9109  -7.8622  -7.8622  -7.7030  -7.7030  -7.6838  -7.6838
     1.2940   1.2940   1.3121   1.3121   1.7755   1.7755   1.8612   1.8612
     2.7115   2.7115   2.9726   2.9726   3.0851   3.0851   3.1840   3.1840
     3.2616   3.2616   3.3189   3.3189   3.4220   3.4220   3.7633   3.7633
     3.9408   3.9408   4.2355   4.2355   4.6511   4.6511   4.7399   4.7399
     5.0744   5.0744   5.2897   5.2897   5.2958   5.2958   5.4875   5.4875
     5.7011   5.7011   5.8187   5.8187   6.1700   6.1700   6.3198   6.3198
     6.3299   6.3299   6.4805   6.4805   6.4952   6.4952   6.6688   6.6688
     6.8489   6.8489   6.8489   6.8489   6.9848   6.9848   7.4871   7.4871
     7.5320   7.5321   7.6664   7.6664   7.6827   7.6827   8.0689   8.0689
    10.1807  10.1807  11.1120  11.1120  11.1693  11.1693  11.6105  11.6105
    11.8251  11.8251  12.4021  12.4021  12.6305  12.6305  12.7620  12.7620
    12.8647  12.8647  13.1472  13.1472  13.4271  13.4271  14.0533  14.0533
    14.5523  14.5523  15.4698  15.4698  15.7653  15.7653  15.8720  15.8720
    16.6770  16.6770  17.6493  17.6493  18.1553

          k = 0.0000 0.3150 0.0000 ( 62175 PWs)   bands (ev):

   -66.1751 -66.1749 -66.1741 -66.1741 -66.1739 -66.1739 -66.1731 -66.1729
   -30.5518 -30.5486 -30.5486 -30.5455 -30.5227 -30.5217 -30.5215 -30.5200
   -30.5197 -30.5195 -30.5195 -30.5166 -30.5163 -30.5163 -30.5148 -30.5146
   -30.4207 -30.4207 -30.4194 -30.4194 -30.4163 -30.4163 -30.4150 -30.4150
   -20.3350 -20.3350 -20.3349 -20.3349 -20.3349 -20.3349 -20.3348 -20.3348
   -20.3158 -20.3156 -20.3156 -20.3153 -20.3131 -20.3128 -20.3128 -20.3125
   -20.3120 -20.3120 -20.3117 -20.3117 -20.3115 -20.3115 -20.3112 -20.3112
   -20.3103 -20.3103 -20.3101 -20.3101 -20.3100 -20.3100 -20.3097 -20.3097
   -20.3029 -20.3028 -20.3025 -20.3025 -20.3025 -20.3025 -20.3022 -20.3022
   -20.3015 -20.3015 -20.3011 -20.3011 -20.3011 -20.3011 -20.3008 -20.3007
   -20.2948 -20.2948 -20.2946 -20.2946 -20.2943 -20.2943 -20.2940 -20.2940
    -9.8614  -9.7300  -9.4030  -9.4029  -9.2863  -9.2862  -9.0625  -9.0565
    -8.7863  -8.6813  -8.6766  -8.6766  -8.1861  -8.1408  -8.1408  -8.1151
    -7.7769  -7.7768  -7.7639  -7.7639  -7.6254  -7.6253  -7.6148  -7.6147
     1.1660   1.1662   1.2664   1.2666   1.2693   1.2695   1.5843   1.6178
     2.3775   2.3950   2.4316   2.5257   2.5257   2.6928   2.8585   2.8585
     2.9884   2.9884   3.6246   3.6248   3.6671   3.6673   4.1451   4.4665
     4.4666   4.7463   4.8367   4.8368   4.8620   4.8620   5.0450   5.0451
     5.0735   5.0736   5.3659   5.3659   5.5934   5.5934   5.6618   5.6618
     5.8457   5.8458   5.8907   5.8908   6.0330   6.0330   6.0859   6.1318
     6.1319   6.2063   6.2065   6.5235   6.6488   6.6489   6.8632   6.8632
     6.9133   6.9832   7.0892   7.0892   7.1071   7.1072   7.4013   7.4013
     7.4269   7.4269   7.7976   7.8008   7.8274   7.8274   7.8617   7.8618
     9.2196   9.2229  10.6372  10.6373  10.6805  10.6805  11.7801  11.7803
    11.9091  11.9092  12.2776  12.2777  12.3005  12.3006  12.8760  12.8776
    13.3764  13.3765  13.4713  13.4715  13.8205  13.8206  13.8517  13.8519
    14.7652  15.1913  15.1913  15.4095  15.4148  15.6572  15.9015  15.9015
    15.9677  16.8555  17.2461  17.6503  17.6504

          k = 0.0000 0.3150 0.1667 ( 62260 PWs)   bands (ev):

   -66.1751 -66.1749 -66.1742 -66.1740 -66.1740 -66.1739 -66.1732 -66.1730
   -30.5519 -30.5489 -30.5488 -30.5459 -30.5232 -30.5213 -30.5213 -30.5198
   -30.5195 -30.5169 -30.5167 -30.5150 -30.5130 -30.5129 -30.5088 -30.5079
   -30.4275 -30.4261 -30.4230 -30.4217 -30.4204 -30.4191 -30.4166 -30.4153
   -20.3350 -20.3350 -20.3349 -20.3349 -20.3349 -20.3349 -20.3349 -20.3348
   -20.3158 -20.3156 -20.3156 -20.3154 -20.3131 -20.3128 -20.3128 -20.3126
   -20.3119 -20.3119 -20.3117 -20.3116 -20.3115 -20.3114 -20.3112 -20.3110
   -20.3104 -20.3103 -20.3102 -20.3101 -20.3101 -20.3100 -20.3098 -20.3097
   -20.3028 -20.3027 -20.3025 -20.3025 -20.3024 -20.3024 -20.3023 -20.3022
   -20.3013 -20.3012 -20.3009 -20.3009 -20.3009 -20.3008 -20.3008 -20.3007
   -20.2953 -20.2950 -20.2948 -20.2948 -20.2945 -20.2945 -20.2943 -20.2941
    -9.8106  -9.6762  -9.4197  -9.3249  -9.3013  -9.1970  -9.0216  -9.0146
    -8.7946  -8.6815  -8.6754  -8.6625  -8.1864  -8.1495  -8.1377  -8.1217
    -7.8988  -7.8856  -7.7655  -7.7564  -7.7539  -7.7453  -7.6350  -7.6244
     1.2565   1.2577   1.2726   1.2759   1.5201   1.5280   1.7449   1.7891
     2.3793   2.4842   2.5013   2.5223   2.5262   2.6805   2.8665   2.9624
     2.9811   3.0847   3.6262   3.6582   3.6695   3.7069   4.1375   4.4038
     4.4143   4.4808   4.5086   4.7493   4.7768   4.8732   4.8988   4.9084
     5.0426   5.0812   5.1578   5.2766   5.4182   5.4489   5.5984   5.6003
     5.6641   5.7546   5.7698   5.8276   6.0307   6.0980   6.1123   6.1263
     6.2541   6.4163   6.4174   6.5861   6.6380   6.8483   6.8860   6.9278
     6.9658   6.9756   7.0684   7.0835   7.0985   7.1031   7.1504   7.1537
     7.2559   7.2725   7.7988   7.8033   7.8090   7.8294   7.8402   7.8501
     9.5890   9.6022  10.6421  10.6805  10.8226  10.8484  11.7790  11.8776
    11.9106  11.9852  12.1869  12.2039  12.3276  12.3611  12.8936  12.9261
    13.1922  13.3443  13.3660  13.4668  13.6693  13.7179  13.8187  13.8481
    14.8992  15.1834  15.4012  15.4383  15.4774  15.7276  15.8764  16.1310
    16.2021  16.8182  17.3108  17.3423  17.7641

          k = 0.0000 0.3150 0.3333 ( 62269 PWs)   bands (ev):

   -66.1749 -66.1747 -66.1744 -66.1742 -66.1739 -66.1737 -66.1734 -66.1732
   -30.5516 -30.5498 -30.5486 -30.5467 -30.5229 -30.5207 -30.5203 -30.5203
   -30.5186 -30.5178 -30.5177 -30.5159 -30.4951 -30.4944 -30.4904 -30.4894
   -30.4457 -30.4444 -30.4411 -30.4398 -30.4196 -30.4183 -30.4174 -30.4161
   -20.3350 -20.3349 -20.3349 -20.3349 -20.3349 -20.3349 -20.3349 -20.3348
   -20.3158 -20.3157 -20.3156 -20.3154 -20.3131 -20.3129 -20.3129 -20.3127
   -20.3118 -20.3116 -20.3116 -20.3115 -20.3113 -20.3112 -20.3111 -20.3107
   -20.3107 -20.3104 -20.3104 -20.3102 -20.3101 -20.3100 -20.3099 -20.3098
   -20.3028 -20.3026 -20.3025 -20.3023 -20.3023 -20.3022 -20.3022 -20.3021
   -20.3015 -20.3015 -20.3012 -20.3012 -20.2997 -20.2996 -20.2996 -20.2994
   -20.2965 -20.2963 -20.2961 -20.2958 -20.2947 -20.2944 -20.2944 -20.2942
    -9.6883  -9.5506  -9.4713  -9.3474  -9.1223  -8.9432  -8.8931  -8.8688
    -8.8268  -8.6978  -8.6484  -8.6023  -8.2572  -8.2369  -8.1983  -8.1440
    -8.1309  -8.0982  -8.0772  -8.0196  -7.7371  -7.7257  -7.6618  -7.6510
     1.2883   1.2925   1.3114   1.3160   2.1537   2.2193   2.2759   2.3934
     2.4347   2.5099   2.5279   2.7257   2.7711   2.7843   2.8879   2.9671
     3.2071   3.2928   3.6064   3.6290   3.7173   3.7437   3.8173   3.8294
     4.1154   4.3030   4.3860   4.4147   4.4982   4.5612   4.6106   4.7643
     4.7886   4.8328   4.9862   5.0660   5.1629   5.1868   5.1912   5.3588
     5.3654   5.5631   5.6466   5.7891   6.1206   6.1727   6.2136   6.2541
     6.4260   6.6028   6.6345   6.6455   6.6906   6.8035   6.8152   6.8265
     6.8944   6.9534   7.0283   7.0572   7.0690   7.1288   7.1616   7.1734
     7.2844   7.3365   7.7268   7.7388   7.7521   7.7550   7.8355   7.8489
    10.3320  10.3559  10.6584  10.6767  11.2794  11.3280  11.7674  11.7940
    11.8213  11.9412  12.1738  12.2039  12.4911  12.5678  12.6152  12.6933
    12.8273  13.1059  13.1554  13.3717  13.4608  13.4662  13.8236  13.8418
    15.0551  15.1585  15.5399  15.8012  15.9190  15.9440  15.9736  16.6506
    16.6897  16.8145  17.0134  17.5275  17.6183

          k = 0.0000 0.3150-0.5000 ( 62306 PWs)   bands (ev):

   -66.1746 -66.1746 -66.1744 -66.1744 -66.1736 -66.1736 -66.1734 -66.1734
   -30.5508 -30.5508 -30.5478 -30.5478 -30.5218 -30.5218 -30.5191 -30.5191
   -30.5190 -30.5190 -30.5173 -30.5172 -30.4705 -30.4705 -30.4694 -30.4694
   -30.4658 -30.4658 -30.4646 -30.4646 -30.4185 -30.4185 -30.4172 -30.4172
   -20.3350 -20.3350 -20.3349 -20.3349 -20.3349 -20.3349 -20.3348 -20.3348
   -20.3158 -20.3158 -20.3155 -20.3155 -20.3130 -20.3130 -20.3128 -20.3128
   -20.3117 -20.3117 -20.3114 -20.3114 -20.3111 -20.3111 -20.3108 -20.3108
   -20.3107 -20.3107 -20.3104 -20.3104 -20.3102 -20.3102 -20.3098 -20.3098
   -20.3027 -20.3027 -20.3024 -20.3024 -20.3019 -20.3019 -20.3019 -20.3019
   -20.3017 -20.3017 -20.3016 -20.3016 -20.2982 -20.2982 -20.2980 -20.2979
   -20.2978 -20.2978 -20.2976 -20.2976 -20.2946 -20.2946 -20.2943 -20.2943
    -9.5617  -9.5617  -9.4291  -9.4291  -8.9196  -8.9196  -8.7448  -8.7447
    -8.5928  -8.5928  -8.5738  -8.5738  -8.5135  -8.5135  -8.4168  -8.4168
    -8.1430  -8.1429  -8.1036  -8.1036  -7.6990  -7.6990  -7.6879  -7.6879
     1.3065   1.3065   1.3116   1.3116   2.3774   2.3774   2.5134   2.5134
     2.9056   2.9056   3.0202   3.0202   3.0608   3.0608   3.2623   3.2623
     3.3079   3.3080   3.3122   3.3122   3.3798   3.3798   3.6234   3.6234
     4.0671   4.0671   4.1096   4.1096   4.1205   4.1205   4.3626   4.3626
     4.8053   4.8053   4.9155   4.9155   5.1290   5.1290   5.2695   5.2695
     5.4052   5.4052   5.7178   5.7178   6.2768   6.2768   6.3307   6.3307
     6.4542   6.4542   6.5016   6.5016   6.5470   6.5470   6.7649   6.7649
     7.0407   7.0407   7.0588   7.0588   7.0937   7.0937   7.4992   7.4993
     7.5170   7.5170   7.5666   7.5666   7.5919   7.5919   7.8432   7.8432
    10.6634  10.6634  11.1250  11.1250  11.1627  11.1627  11.6811  11.6811
    12.0110  12.0110  12.1352  12.1352  12.5189  12.5189  12.6391  12.6391
    12.7837  12.7837  12.9453  12.9453  13.4511  13.4511  13.8334  13.8334
    15.1164  15.1164  15.6808  15.6808  16.2990  16.2990  16.4260  16.4260
    16.8350  16.8350  17.2729  17.2729  17.9445

          k = 0.0000-0.4725 0.0000 ( 62212 PWs)   bands (ev):

   -66.1750 -66.1750 -66.1740 -66.1740 -66.1740 -66.1740 -66.1730 -66.1730
   -30.5371 -30.5371 -30.5340 -30.5340 -30.5340 -30.5340 -30.5311 -30.5311
   -30.5209 -30.5209 -30.5208 -30.5208 -30.5156 -30.5156 -30.5155 -30.5155
   -30.4201 -30.4201 -30.4201 -30.4200 -30.4157 -30.4157 -30.4157 -30.4156
   -20.3350 -20.3350 -20.3349 -20.3349 -20.3349 -20.3349 -20.3348 -20.3348
   -20.3145 -20.3145 -20.3142 -20.3142 -20.3142 -20.3142 -20.3139 -20.3139
   -20.3119 -20.3119 -20.3119 -20.3118 -20.3113 -20.3113 -20.3113 -20.3113
   -20.3102 -20.3102 -20.3102 -20.3101 -20.3099 -20.3099 -20.3099 -20.3099
   -20.3027 -20.3027 -20.3027 -20.3027 -20.3024 -20.3024 -20.3024 -20.3024
   -20.3015 -20.3015 -20.3011 -20.3011 -20.3011 -20.3011 -20.3007 -20.3007
   -20.2947 -20.2947 -20.2947 -20.2947 -20.2942 -20.2942 -20.2942 -20.2942
    -9.7874  -9.7874  -9.3317  -9.3317  -9.3316  -9.3316  -9.0595  -9.0595
    -8.4898  -8.4898  -8.4370  -8.4370  -8.4370  -8.4370  -8.4334  -8.4334
    -7.7704  -7.7704  -7.7704  -7.7703  -7.6201  -7.6201  -7.6200  -7.6200
     1.1661   1.1661   1.2685   1.2685   1.2687   1.2687   1.6097   1.6097
     2.4131   2.4131   3.1920   3.1920   3.1931   3.1931   3.2399   3.2399
     3.2944   3.2944   3.2946   3.2946   3.4647   3.4647   3.4649   3.4649
     3.6725   3.6725   4.8462   4.8463   4.8463   4.8463   5.2105   5.2105
     5.2107   5.2107   5.3220   5.3221   5.3221   5.3222   5.7317   5.7317
     5.7317   5.7317   5.9971   5.9972   5.9973   5.9973   6.1647   6.1647
     6.1649   6.1649   6.2692   6.2692   6.7427   6.7427   6.7428   6.7428
     6.9488   6.9488   7.3899   7.3899   7.3900   7.3900   7.4673   7.4673
     7.4673   7.4673   7.5458   7.5458   7.5458   7.5458   7.7992   7.7992
     9.2211   9.2211  11.2266  11.2266  11.2267  11.2267  11.3124  11.3124
    11.3126  11.3126  12.2927  12.2927  12.2928  12.2928  12.8769  12.8769
    13.5689  13.5689  13.5691  13.5691  13.6266  13.6266  13.6267  13.6268
    15.3715  15.3715  15.4117  15.4118  15.6526  15.6526  15.6527  15.6527
    16.5361  16.5361  18.0047  18.0905  18.0905

          k = 0.0000-0.4725 0.1667 ( 62246 PWs)   bands (ev):

   -66.1750 -66.1750 -66.1741 -66.1741 -66.1740 -66.1739 -66.1731 -66.1731
   -30.5373 -30.5373 -30.5345 -30.5345 -30.5344 -30.5344 -30.5314 -30.5314
   -30.5205 -30.5205 -30.5159 -30.5159 -30.5136 -30.5136 -30.5085 -30.5085
   -30.4268 -30.4268 -30.4224 -30.4223 -30.4198 -30.4198 -30.4160 -30.4159
   -20.3350 -20.3350 -20.3349 -20.3349 -20.3349 -20.3349 -20.3348 -20.3348
   -20.3145 -20.3145 -20.3142 -20.3142 -20.3142 -20.3142 -20.3140 -20.3140
   -20.3118 -20.3118 -20.3117 -20.3117 -20.3114 -20.3113 -20.3112 -20.3112
   -20.3103 -20.3103 -20.3101 -20.3101 -20.3100 -20.3100 -20.3099 -20.3099
   -20.3027 -20.3026 -20.3025 -20.3025 -20.3024 -20.3024 -20.3024 -20.3024
   -20.3012 -20.3012 -20.3009 -20.3009 -20.3009 -20.3009 -20.3007 -20.3007
   -20.2952 -20.2952 -20.2947 -20.2947 -20.2947 -20.2946 -20.2942 -20.2942
    -9.7345  -9.7345  -9.3476  -9.3476  -9.2454  -9.2454  -9.0180  -9.0180
    -8.4954  -8.4954  -8.4433  -8.4432  -8.4330  -8.4330  -8.4309  -8.4308
    -7.8927  -7.8927  -7.7598  -7.7598  -7.7509  -7.7509  -7.6297  -7.6297
     1.2574   1.2574   1.2750   1.2750   1.5260   1.5260   1.7792   1.7792
     2.5033   2.5033   3.1974   3.1974   3.2104   3.2104   3.2389   3.2389
     3.2871   3.2871   3.3334   3.3334   3.4619   3.4619   3.5178   3.5178
     3.6991   3.6991   4.4376   4.4376   4.8948   4.8948   4.9673   4.9673
     5.1331   5.1331   5.1903   5.1903   5.3338   5.3338   5.4713   5.4713
     5.7046   5.7046   5.7603   5.7603   6.1085   6.1085   6.1146   6.1146
     6.3981   6.3981   6.4160   6.4160   6.7319   6.7319   6.9181   6.9181
     7.0069   7.0069   7.1499   7.1499   7.2096   7.2096   7.4530   7.4531
     7.4739   7.4739   7.5073   7.5073   7.5288   7.5288   7.8115   7.8115
     9.5966   9.5966  11.2317  11.2317  11.3055  11.3055  11.3571  11.3571
    11.4350  11.4350  12.1968  12.1968  12.3446  12.3446  12.9114  12.9114
    13.3906  13.3906  13.4919  13.4919  13.5741  13.5741  13.6225  13.6225
    15.3869  15.3869  15.5951  15.5951  15.6346  15.6346  15.9250  15.9251
    16.5981  16.5981  17.9095  17.9095  18.0457

          k = 0.0000-0.4725 0.3333 ( 62268 PWs)   bands (ev):

   -66.1748 -66.1748 -66.1743 -66.1743 -66.1738 -66.1738 -66.1733 -66.1733
   -30.5371 -30.5371 -30.5352 -30.5352 -30.5343 -30.5343 -30.5323 -30.5323
   -30.5195 -30.5195 -30.5168 -30.5168 -30.4949 -30.4949 -30.4900 -30.4900
   -30.4451 -30.4451 -30.4405 -30.4405 -30.4190 -30.4189 -30.4168 -30.4167
   -20.3350 -20.3350 -20.3349 -20.3349 -20.3349 -20.3349 -20.3349 -20.3348
   -20.3145 -20.3145 -20.3143 -20.3143 -20.3142 -20.3142 -20.3141 -20.3141
   -20.3117 -20.3117 -20.3114 -20.3114 -20.3114 -20.3114 -20.3109 -20.3109
   -20.3105 -20.3105 -20.3102 -20.3102 -20.3101 -20.3101 -20.3100 -20.3099
   -20.3026 -20.3026 -20.3025 -20.3024 -20.3023 -20.3023 -20.3021 -20.3021
   -20.3015 -20.3015 -20.3012 -20.3012 -20.2997 -20.2997 -20.2995 -20.2995
   -20.2964 -20.2964 -20.2960 -20.2960 -20.2946 -20.2946 -20.2943 -20.2943
    -9.6090  -9.6090  -9.3967  -9.3967  -9.0056  -9.0056  -8.8774  -8.8774
    -8.5308  -8.5308  -8.4720  -8.4719  -8.4260  -8.4260  -8.4078  -8.4078
    -8.1831  -8.1831  -8.0641  -8.0641  -7.7314  -7.7314  -7.6564  -7.6564
     1.2914   1.2914   1.3148   1.3148   2.2090   2.2090   2.4146   2.4146
     2.7655   2.7655   3.2083   3.2083   3.2290   3.2290   3.2357   3.2357
     3.2661   3.2662   3.4096   3.4096   3.4496   3.4496   3.6741   3.6741
     3.7543   3.7544   3.8118   3.8118   4.4804   4.4804   4.6423   4.6423
     4.7793   4.7793   4.8353   4.8353   5.1943   5.1943   5.2502   5.2503
     5.3758   5.3758   5.6320   5.6320   6.1713   6.1713   6.2548   6.2548
     6.5309   6.5309   6.6773   6.6773   6.6980   6.6980   6.8440   6.8440
     6.9862   6.9863   7.1898   7.1898   7.1921   7.1921   7.4311   7.4311
     7.4654   7.4654   7.4939   7.4939   7.5038   7.5038   7.7628   7.7628
    10.3474  10.3474  11.2466  11.2466  11.2857  11.2857  11.7392  11.7392
    11.7781  11.7781  11.8159  11.8159  12.5163  12.5163  12.7246  12.7247
    12.9205  12.9205  13.1913  13.1913  13.5870  13.5870  13.6148  13.6148
    15.4097  15.4097  15.5797  15.5797  16.2157  16.2157  16.6417  16.6417
    16.8083  16.8083  17.3959  17.3959  17.8735

          k = 0.0000-0.4725-0.5000 ( 62284 PWs)   bands (ev):

   -66.1745 -66.1745 -66.1745 -66.1745 -66.1735 -66.1735 -66.1735 -66.1735
   -30.5363 -30.5363 -30.5363 -30.5363 -30.5334 -30.5334 -30.5334 -30.5334
   -30.5182 -30.5182 -30.5182 -30.5182 -30.4700 -30.4700 -30.4700 -30.4700
   -30.4652 -30.4652 -30.4652 -30.4652 -30.4179 -30.4179 -30.4178 -30.4178
   -20.3350 -20.3350 -20.3349 -20.3349 -20.3349 -20.3349 -20.3349 -20.3349
   -20.3144 -20.3144 -20.3144 -20.3144 -20.3142 -20.3142 -20.3142 -20.3142
   -20.3116 -20.3116 -20.3115 -20.3115 -20.3109 -20.3109 -20.3109 -20.3109
   -20.3106 -20.3106 -20.3106 -20.3106 -20.3100 -20.3100 -20.3100 -20.3100
   -20.3025 -20.3025 -20.3025 -20.3025 -20.3019 -20.3019 -20.3019 -20.3019
   -20.3017 -20.3017 -20.3016 -20.3016 -20.2981 -20.2981 -20.2981 -20.2981
   -20.2977 -20.2977 -20.2977 -20.2977 -20.2945 -20.2945 -20.2944 -20.2944
    -9.4834  -9.4834  -9.4834  -9.4834  -8.6966  -8.6966  -8.6966  -8.6966
    -8.6314  -8.6314  -8.6314  -8.6313  -8.3902  -8.3902  -8.3902  -8.3902
    -8.3283  -8.3283  -8.3283  -8.3283  -7.6935  -7.6935  -7.6935  -7.6935
     1.3103   1.3103   1.3103   1.3103   2.9920   2.9920   2.9920   2.9920
     3.1401   3.1401   3.1401   3.1401   3.2246   3.2246   3.2246   3.2246
     3.2738   3.2738   3.2738   3.2738   3.4362   3.4362   3.4363   3.4363
     3.6115   3.6115   3.6115   3.6115   4.3027   4.3027   4.3027   4.3027
     4.4162   4.4162   4.4162   4.4162   5.2185   5.2185   5.2185   5.2185
     5.4952   5.4952   5.4952   5.4952   6.3223   6.3223   6.3223   6.3223
     6.5030   6.5030   6.5030   6.5030   6.6469   6.6469   6.6469   6.6469
     7.2892   7.2892   7.2892   7.2892   7.3737   7.3737   7.3737   7.3737
     7.4615   7.4615   7.4615   7.4615   7.5769   7.5769   7.5769   7.5769
    11.1295  11.1295  11.1295  11.1295  11.2798  11.2798  11.2798  11.2798
    12.2661  12.2661  12.2661  12.2661  12.3078  12.3078  12.3078  12.3078
    12.8272  12.8272  12.8272  12.8272  13.6024  13.6024  13.6024  13.6024
    15.4934  15.4934  15.4934  15.4934  16.8844  16.8844  16.8844  16.8844
    17.3152  17.3152  17.3152  17.3152  17.4471

          k = 0.1667 0.0000 0.1667 ( 62234 PWs)   bands (ev):

   -66.1751 -66.1747 -66.1742 -66.1742 -66.1738 -66.1738 -66.1733 -66.1729
   -30.5665 -30.5635 -30.5635 -30.5606 -30.5166 -30.5165 -30.5144 -30.5120
   -30.5119 -30.5108 -30.5077 -30.5074 -30.5037 -30.5036 -30.5035 -30.5027
   -30.4279 -30.4277 -30.4252 -30.4251 -30.4239 -30.4239 -30.4213 -30.4213
   -20.3350 -20.3349 -20.3349 -20.3349 -20.3349 -20.3349 -20.3349 -20.3348
   -20.3172 -20.3170 -20.3169 -20.3167 -20.3120 -20.3120 -20.3118 -20.3116
   -20.3116 -20.3116 -20.3116 -20.3113 -20.3112 -20.3112 -20.3109 -20.3109
   -20.3106 -20.3106 -20.3104 -20.3104 -20.3099 -20.3099 -20.3096 -20.3096
   -20.3029 -20.3028 -20.3028 -20.3026 -20.3023 -20.3022 -20.3021 -20.3016
   -20.3010 -20.3009 -20.3009 -20.3009 -20.3008 -20.3008 -20.3007 -20.3005
   -20.2955 -20.2953 -20.2949 -20.2949 -20.2949 -20.2948 -20.2944 -20.2944
    -9.8591  -9.5720  -9.4673  -9.4672  -9.1801  -9.1800  -9.0851  -8.9868
    -8.9743  -8.8551  -8.8284  -8.8283  -7.8960  -7.8959  -7.8778  -7.8778
    -7.8558  -7.7921  -7.7867  -7.7864  -7.7696  -7.7504  -7.7438  -7.7294
     1.4281   1.4285   1.4317   1.4500   1.4501   1.5358   1.5360   1.6213
     1.6906   1.6907   1.8809   2.0414   2.5548   2.6380   2.6752   2.6752
     2.7905   2.8217   4.0699   4.0826   4.3008   4.3008   4.4701   4.4701
     4.5252   4.5253   4.6886   4.6888   4.7367   4.8113   5.0265   5.2228
     5.2828   5.2992   5.3650   5.4873   5.4874   5.6180   5.6181   5.6925
     5.6925   5.7373   5.7373   5.7436   5.8042   5.9875   6.3360   6.4384
     6.4387   6.5193   6.5201   6.6513   6.6647   6.6932   6.7013   6.7021
     6.7129   6.8524   6.8524   6.8811   6.8830   6.9919   6.9920   7.1105
     7.2956   7.3591   7.8062   7.8080   8.0366   8.0826   8.1058   8.1059
     9.8088   9.8756  10.2407  10.2409  10.2493  10.3412  12.2155  12.2157
    12.2439  12.2439  12.3001  12.3432  12.5764  12.5765  12.9193  12.9722
    13.0260  13.0278  13.1880  13.3457  13.9850  13.9937  14.0021  14.0184
    14.0577  14.4494  14.4498  15.1444  15.3863  15.5277  15.5424  16.3309
    16.3309  16.9742  16.9742  17.1333  17.5889

          k = 0.1667 0.0000 0.3333 ( 62265 PWs)   bands (ev):

   -66.1749 -66.1745 -66.1744 -66.1740 -66.1740 -66.1736 -66.1735 -66.1731
   -30.5662 -30.5643 -30.5633 -30.5614 -30.5157 -30.5141 -30.5110 -30.5085
   -30.5079 -30.5066 -30.5043 -30.5037 -30.4936 -30.4934 -30.4903 -30.4891
   -30.4460 -30.4435 -30.4420 -30.4395 -30.4270 -30.4247 -30.4243 -30.4221
   -20.3350 -20.3350 -20.3349 -20.3349 -20.3349 -20.3349 -20.3349 -20.3348
   -20.3172 -20.3170 -20.3169 -20.3168 -20.3119 -20.3118 -20.3117 -20.3116
   -20.3116 -20.3116 -20.3113 -20.3113 -20.3112 -20.3110 -20.3109 -20.3108
   -20.3106 -20.3106 -20.3105 -20.3104 -20.3102 -20.3099 -20.3098 -20.3097
   -20.3029 -20.3028 -20.3026 -20.3024 -20.3022 -20.3021 -20.3017 -20.3014
   -20.3013 -20.3012 -20.3011 -20.3010 -20.2998 -20.2996 -20.2995 -20.2993
   -20.2967 -20.2962 -20.2961 -20.2957 -20.2953 -20.2950 -20.2947 -20.2945
    -9.7385  -9.5194  -9.4339  -9.3179  -9.2246  -9.1161  -8.9242  -8.8975
    -8.8412  -8.8393  -8.7865  -8.7162  -8.1973  -8.1963  -8.1205  -8.0975
    -7.8660  -7.8537  -7.8286  -7.7953  -7.7910  -7.7784  -7.7699  -7.7536
     1.4329   1.4435   1.5535   1.5638   1.5697   1.6034   1.6479   1.6913
     2.2322   2.2678   2.4196   2.5035   2.6984   2.7806   2.8313   2.9135
     2.9243   3.0504   3.7927   3.8446   3.9014   3.9181   4.1716   4.2607
     4.2838   4.4776   4.5279   4.5479   4.6307   4.7002   4.7532   4.9044
     4.9710   5.0469   5.0830   5.1844   5.2819   5.3695   5.5455   5.6559
     5.6928   5.7435   5.7594   5.8153   5.8367   5.9971   6.1480   6.1902
     6.4331   6.4408   6.4990   6.5771   6.6107   6.6298   6.6642   6.6824
     6.8063   6.8670   6.8681   6.8919   7.1247   7.1405   7.1464   7.2250
     7.3321   7.3837   7.7540   7.7692   7.9304   7.9697   8.0969   8.1081
    10.2312  10.2471  10.4653  10.5125  10.8620  10.9810  11.8441  11.8814
    12.1153  12.3686  12.3841  12.5083  12.5333  12.5772  12.7261  12.8295
    12.8771  12.9993  13.0468  13.2757  13.6528  13.6654  13.9991  14.0202
    14.2252  14.4218  14.7644  15.2786  15.4488  15.7896  15.9622  16.2339
    16.4180  17.1834  17.4413  17.4977  17.5875

          k = 0.1667 0.0000-0.5000 ( 62322 PWs)   bands (ev):

   -66.1747 -66.1747 -66.1743 -66.1743 -66.1738 -66.1738 -66.1734 -66.1734
   -30.5654 -30.5654 -30.5624 -30.5624 -30.5148 -30.5148 -30.5098 -30.5098
   -30.5054 -30.5054 -30.5052 -30.5052 -30.4705 -30.4705 -30.4684 -30.4684
   -30.4665 -30.4665 -30.4643 -30.4643 -30.4258 -30.4258 -30.4232 -30.4232
   -20.3350 -20.3350 -20.3349 -20.3349 -20.3349 -20.3349 -20.3348 -20.3348
   -20.3171 -20.3171 -20.3169 -20.3169 -20.3117 -20.3117 -20.3117 -20.3117
   -20.3115 -20.3115 -20.3112 -20.3112 -20.3111 -20.3111 -20.3109 -20.3109
   -20.3106 -20.3106 -20.3105 -20.3105 -20.3102 -20.3102 -20.3097 -20.3097
   -20.3028 -20.3028 -20.3025 -20.3025 -20.3018 -20.3018 -20.3017 -20.3017
   -20.3014 -20.3014 -20.3011 -20.3011 -20.2983 -20.2983 -20.2979 -20.2979
   -20.2978 -20.2978 -20.2975 -20.2975 -20.2952 -20.2952 -20.2946 -20.2946
    -9.6113  -9.6113  -9.3056  -9.3056  -9.1856  -9.1856  -8.8608  -8.8608
    -8.5704  -8.5704  -8.5692  -8.5692  -8.5130  -8.5130  -8.4533  -8.4533
    -7.8301  -7.8300  -7.8275  -7.8275  -7.7954  -7.7953  -7.7661  -7.7661
     1.4370   1.4370   1.5730   1.5730   1.5852   1.5852   1.6903   1.6903
     2.7236   2.7236   2.9710   2.9710   3.0605   3.0605   3.1813   3.1813
     3.2821   3.2821   3.3962   3.3962   3.4867   3.4867   3.7785   3.7785
     3.8836   3.8836   4.3906   4.3906   4.5509   4.5509   4.8640   4.8640
     5.0165   5.0165   5.0321   5.0321   5.2401   5.2401   5.6232   5.6232
     5.7794   5.7794   5.7941   5.7941   5.8778   5.8778   5.9721   5.9721
     6.3560   6.3560   6.4511   6.4511   6.6629   6.6629   6.7372   6.7372
     6.8001   6.8001   6.9640   6.9640   7.0179   7.0179   7.5223   7.5223
     7.5631   7.5631   7.7036   7.7036   7.7210   7.7210   8.1074   8.1074
    10.2521  10.2521  11.1837  11.1837  11.2484  11.2484  11.5693  11.5693
    11.7746  11.7746  12.5896  12.5896  12.6119  12.6119  12.6650  12.6650
    12.8948  12.8948  13.2242  13.2242  13.3438  13.3438  14.0059  14.0059
    14.3606  14.3606  15.0752  15.0752  15.8813  15.8813  16.0596  16.0596
    16.7370  16.7370  17.8690  17.8997  17.9003

          k = 0.1667 0.1575 0.1667 ( 62255 PWs)   bands (ev):

   -66.1751 -66.1747 -66.1742 -66.1742 -66.1739 -66.1738 -66.1733 -66.1730
   -30.5626 -30.5597 -30.5596 -30.5567 -30.5169 -30.5168 -30.5159 -30.5122
   -30.5121 -30.5106 -30.5082 -30.5076 -30.5071 -30.5067 -30.5066 -30.5058
   -30.4277 -30.4275 -30.4254 -30.4253 -30.4238 -30.4237 -30.4215 -30.4215
   -20.3350 -20.3349 -20.3349 -20.3349 -20.3349 -20.3349 -20.3349 -20.3348
   -20.3168 -20.3166 -20.3166 -20.3164 -20.3121 -20.3119 -20.3119 -20.3119
   -20.3119 -20.3116 -20.3115 -20.3115 -20.3114 -20.3114 -20.3110 -20.3109
   -20.3105 -20.3105 -20.3103 -20.3103 -20.3100 -20.3099 -20.3097 -20.3097
   -20.3029 -20.3027 -20.3027 -20.3026 -20.3023 -20.3023 -20.3021 -20.3016
   -20.3010 -20.3010 -20.3009 -20.3009 -20.3008 -20.3008 -20.3007 -20.3005
   -20.2955 -20.2953 -20.2950 -20.2949 -20.2949 -20.2948 -20.2945 -20.2945
    -9.8290  -9.5831  -9.4290  -9.4289  -9.1876  -9.1875  -9.0119  -8.9860
    -8.9748  -8.8101  -8.7920  -8.7920  -7.9460  -7.9120  -7.9119  -7.8916
    -7.8915  -7.8628  -7.8563  -7.8562  -7.7903  -7.7649  -7.7482  -7.7308
     1.4280   1.4284   1.5007   1.5008   1.5356   1.5357   1.6129   1.8215
     1.8787   1.8789   1.8802   2.1365   2.5617   2.6328   2.7479   2.7479
     2.8615   2.8854   3.9720   4.0014   4.1000   4.1001   4.4523   4.4524
     4.5284   4.5285   4.6896   4.7282   4.7291   4.7709   4.7909   5.1944
     5.1996   5.2508   5.2511   5.3378   5.3421   5.5767   5.5768   5.6314
     5.7250   5.7251   5.7649   5.7818   5.7818   5.8547   6.3557   6.3660
     6.3663   6.5124   6.5132   6.6577   6.6605   6.7136   6.7678   6.7860
     6.7861   6.8275   6.8712   6.8712   6.9597   6.9713   6.9715   7.1159
     7.2997   7.3576   7.8067   7.8089   7.9838   8.0289   8.0297   8.0298
     9.8235   9.8726  10.3960  10.4086  10.4087  10.4754  12.1935  12.2223
    12.2225  12.2316  12.2321  12.2384  12.4369  12.4370  12.9076  12.9689
    13.0678  13.0687  13.1964  13.3514  13.8900  13.9018  13.9021  13.9683
    14.3497  14.7525  14.7526  15.2795  15.5286  15.5415  15.7919  16.2962
    16.2962  16.8109  17.0793  17.0794  17.6387

          k = 0.1667 0.1575 0.3333 ( 62260 PWs)   bands (ev):

   -66.1749 -66.1745 -66.1744 -66.1740 -66.1740 -66.1737 -66.1735 -66.1732
   -30.5623 -30.5605 -30.5594 -30.5576 -30.5162 -30.5155 -30.5112 -30.5109
   -30.5089 -30.5085 -30.5076 -30.5074 -30.4942 -30.4936 -30.4906 -30.4893
   -30.4458 -30.4436 -30.4419 -30.4397 -30.4268 -30.4246 -30.4245 -30.4223
   -20.3350 -20.3350 -20.3349 -20.3349 -20.3349 -20.3349 -20.3349 -20.3348
   -20.3168 -20.3167 -20.3166 -20.3165 -20.3121 -20.3120 -20.3119 -20.3118
   -20.3117 -20.3116 -20.3116 -20.3113 -20.3113 -20.3110 -20.3110 -20.3108
   -20.3106 -20.3106 -20.3105 -20.3104 -20.3102 -20.3099 -20.3099 -20.3097
   -20.3029 -20.3027 -20.3026 -20.3024 -20.3022 -20.3021 -20.3017 -20.3014
   -20.3013 -20.3013 -20.3011 -20.3010 -20.2998 -20.2996 -20.2995 -20.2993
   -20.2966 -20.2962 -20.2962 -20.2958 -20.2953 -20.2950 -20.2948 -20.2945
    -9.7052  -9.4816  -9.4448  -9.2655  -9.2327  -9.0435  -8.9321  -8.8832
    -8.8405  -8.8049  -8.7584  -8.6939  -8.2031  -8.1944  -8.1356  -8.0953
    -7.9175  -7.9043  -7.8817  -7.8638  -7.8542  -7.8360  -7.7901  -7.7700
     1.5109   1.5282   1.5532   1.5695   1.7618   1.7715   1.8472   1.8754
     2.2308   2.2818   2.4207   2.5218   2.7700   2.8252   2.8634   2.9225
     2.9870   3.1076   3.7886   3.8374   3.8806   3.8935   4.0841   4.1568
     4.2483   4.3554   4.5433   4.5670   4.6637   4.6707   4.7282   4.7385
     4.8918   4.8968   4.9413   5.1496   5.1850   5.2242   5.3114   5.5990
     5.6193   5.6570   5.7326   5.7736   5.8140   5.8297   6.1475   6.1906
     6.3707   6.5200   6.5243   6.6373   6.6963   6.7015   6.7363   6.7516
     6.8548   6.8683   6.9026   6.9362   7.1187   7.1341   7.1387   7.2319
     7.3223   7.3773   7.7554   7.7667   7.8843   7.9102   8.0300   8.0331
    10.3498  10.4120  10.4886  10.5324  10.9767  11.0704  11.8451  11.8781
    12.0878  12.3488  12.3898  12.4296  12.4545  12.5579  12.6663  12.7084
    12.8662  13.0283  13.0380  13.2759  13.5487  13.5688  13.9013  13.9278
    14.5638  14.7302  15.1136  15.5409  15.7009  15.7849  15.9745  16.2028
    16.5253  17.1439  17.2191  17.4963  17.5415

          k = 0.1667 0.1575-0.5000 ( 62292 PWs)   bands (ev):

   -66.1746 -66.1746 -66.1743 -66.1743 -66.1738 -66.1737 -66.1734 -66.1734
   -30.5615 -30.5615 -30.5586 -30.5586 -30.5156 -30.5156 -30.5101 -30.5101
   -30.5090 -30.5090 -30.5081 -30.5081 -30.4704 -30.4704 -30.4686 -30.4686
   -30.4664 -30.4664 -30.4645 -30.4644 -30.4257 -30.4257 -30.4234 -30.4234
   -20.3350 -20.3350 -20.3349 -20.3349 -20.3349 -20.3349 -20.3348 -20.3348
   -20.3168 -20.3168 -20.3165 -20.3165 -20.3121 -20.3121 -20.3118 -20.3118
   -20.3117 -20.3117 -20.3112 -20.3112 -20.3111 -20.3111 -20.3109 -20.3109
   -20.3106 -20.3106 -20.3104 -20.3104 -20.3103 -20.3103 -20.3098 -20.3098
   -20.3028 -20.3028 -20.3025 -20.3025 -20.3018 -20.3018 -20.3017 -20.3017
   -20.3014 -20.3014 -20.3012 -20.3012 -20.2983 -20.2983 -20.2979 -20.2979
   -20.2979 -20.2979 -20.2976 -20.2976 -20.2951 -20.2951 -20.2947 -20.2947
    -9.5750  -9.5750  -9.3151  -9.3151  -9.1179  -9.1179  -8.8270  -8.8270
    -8.5729  -8.5729  -8.5716  -8.5716  -8.5138  -8.5138  -8.4469  -8.4469
    -7.9109  -7.9109  -7.8708  -7.8708  -7.8268  -7.8268  -7.8039  -7.8039
     1.5233   1.5233   1.5728   1.5728   1.7836   1.7836   1.8735   1.8735
     2.7904   2.7904   2.9891   2.9891   3.0697   3.0697   3.2026   3.2026
     3.2849   3.2849   3.4010   3.4010   3.4780   3.4780   3.7823   3.7823
     3.9336   3.9336   4.2411   4.2411   4.5737   4.5737   4.6460   4.6460
     4.9234   4.9234   4.9923   4.9923   5.0892   5.0892   5.4302   5.4302
     5.6881   5.6881   5.7452   5.7452   5.8486   5.8486   5.8729   5.8729
     6.4775   6.4776   6.6103   6.6103   6.6516   6.6516   6.7833   6.7833
     6.8887   6.8887   6.9209   6.9209   7.0437   7.0437   7.5231   7.5231
     7.5576   7.5576   7.6733   7.6733   7.6893   7.6893   8.0347   8.0347
    10.4106  10.4106  11.1894  11.1894  11.2470  11.2470  11.6359  11.6359
    11.8356  11.8356  12.4677  12.4677  12.5917  12.5917  12.6537  12.6537
    12.8729  12.8729  13.1199  13.1199  13.2886  13.2886  13.9107  13.9107
    14.6805  14.6805  15.4520  15.4520  15.9978  15.9978  16.0402  16.0402
    16.7683  16.7683  17.6679  17.6679  17.9376

          k = 0.1667 0.3150 0.1667 ( 62249 PWs)   bands (ev):

   -66.1750 -66.1748 -66.1741 -66.1741 -66.1739 -66.1739 -66.1732 -66.1730
   -30.5520 -30.5491 -30.5491 -30.5462 -30.5238 -30.5214 -30.5214 -30.5172
   -30.5128 -30.5128 -30.5126 -30.5125 -30.5100 -30.5084 -30.5083 -30.5079
   -30.4272 -30.4271 -30.4259 -30.4258 -30.4233 -30.4233 -30.4220 -30.4219
   -20.3350 -20.3350 -20.3349 -20.3349 -20.3349 -20.3349 -20.3349 -20.3348
   -20.3158 -20.3156 -20.3156 -20.3154 -20.3131 -20.3129 -20.3129 -20.3126
   -20.3118 -20.3118 -20.3115 -20.3115 -20.3114 -20.3114 -20.3111 -20.3111
   -20.3104 -20.3104 -20.3102 -20.3102 -20.3101 -20.3101 -20.3098 -20.3098
   -20.3028 -20.3027 -20.3026 -20.3026 -20.3024 -20.3024 -20.3020 -20.3017
   -20.3010 -20.3010 -20.3009 -20.3008 -20.3008 -20.3008 -20.3007 -20.3006
   -20.2954 -20.2952 -20.2951 -20.2949 -20.2948 -20.2948 -20.2946 -20.2946
    -9.7563  -9.6177  -9.3420  -9.3419  -9.2124  -9.2123  -8.9837  -8.9776
    -8.8034  -8.6696  -8.6672  -8.6672  -8.1884  -8.1461  -8.1461  -8.1277
    -7.8887  -7.8886  -7.8750  -7.8750  -7.7862  -7.7736  -7.7446  -7.7345
     1.4280   1.4282   1.5264   1.5265   1.5347   1.5349   1.8200   1.8762
     2.3806   2.5025   2.5026   2.5777   2.6040   2.6800   2.9691   2.9692
     3.0743   3.0821   3.6684   3.6686   3.6739   3.7226   4.1307   4.4347
     4.4348   4.4721   4.4722   4.5644   4.5645   4.7383   4.7465   4.8382
     4.8879   4.8880   5.1053   5.1296   5.3435   5.3797   5.4158   5.4158
     5.6154   5.6395   5.7344   5.7344   5.7964   5.7965   6.3916   6.3920
     6.4298   6.4995   6.5001   6.6256   6.7045   6.7344   6.8734   6.8735
     6.9249   6.9250   6.9875   7.0135   7.0911   7.0956   7.0958   7.1472
     7.3215   7.3603   7.7952   7.8009   7.8053   7.8059   7.8161   7.8534
     9.8447   9.8666  10.7970  10.8498  10.8502  10.8602  11.8526  11.8998
    11.9824  11.9824  12.2344  12.2345  12.2720  12.2720  12.9067  12.9552
    13.1914  13.1916  13.2589  13.4033  13.6609  13.6615  13.6647  13.7583
    15.0514  15.3941  15.3943  15.5310  15.5388  15.7983  16.1754  16.1755
    16.2555  16.7829  17.3696  17.4321  17.4322

          k = 0.1667 0.3150 0.3333 ( 62265 PWs)   bands (ev):

   -66.1748 -66.1746 -66.1743 -66.1741 -66.1739 -66.1737 -66.1734 -66.1732
   -30.5517 -30.5499 -30.5489 -30.5470 -30.5236 -30.5220 -30.5206 -30.5181
   -30.5121 -30.5117 -30.5101 -30.5091 -30.4948 -30.4941 -30.4907 -30.4898
   -30.4454 -30.4441 -30.4414 -30.4402 -30.4263 -30.4250 -30.4241 -30.4228
   -20.3350 -20.3349 -20.3349 -20.3349 -20.3349 -20.3349 -20.3349 -20.3348
   -20.3158 -20.3157 -20.3156 -20.3155 -20.3131 -20.3130 -20.3129 -20.3127
   -20.3117 -20.3115 -20.3115 -20.3114 -20.3112 -20.3111 -20.3111 -20.3108
   -20.3107 -20.3104 -20.3103 -20.3103 -20.3102 -20.3101 -20.3100 -20.3099
   -20.3028 -20.3027 -20.3026 -20.3025 -20.3022 -20.3021 -20.3016 -20.3014
   -20.3013 -20.3013 -20.3011 -20.3010 -20.2998 -20.2996 -20.2996 -20.2994
   -20.2965 -20.2963 -20.2961 -20.2959 -20.2952 -20.2949 -20.2949 -20.2947
    -9.6251  -9.4791  -9.3948  -9.2597  -9.1397  -8.9599  -8.8631  -8.8508
    -8.8313  -8.6825  -8.6438  -8.6076  -8.2516  -8.2474  -8.1886  -8.1434
    -8.1366  -8.0946  -8.0884  -8.0255  -7.8602  -7.8480  -7.7863  -7.7754
     1.5428   1.5524   1.5612   1.5688   2.1592   2.2265   2.2654   2.3902
     2.4188   2.5026   2.5166   2.7045   2.8546   2.9204   2.9861   3.0659
     3.2095   3.2905   3.6446   3.6474   3.7241   3.7339   3.8675   3.9458
     4.1104   4.3066   4.3873   4.4104   4.4878   4.5581   4.5960   4.6038
     4.6835   4.7773   4.8195   4.8683   4.9162   4.9725   5.1294   5.1361
     5.3162   5.3173   5.4475   5.5936   5.7621   5.8058   6.1759   6.1926
     6.5248   6.6075   6.6305   6.7448   6.8132   6.8435   6.9172   6.9606
     7.0078   7.0270   7.0476   7.0613   7.1480   7.1535   7.1830   7.2715
     7.2909   7.3602   7.7270   7.7303   7.7510   7.7609   7.8126   7.8396
    10.4554  10.4936  10.8452  10.8480  11.2912  11.3411  11.8465  11.8529
    11.8589  12.0454  12.1758  12.1912  12.3980  12.4987  12.6315  12.7023
    12.8235  13.0337  13.1125  13.3255  13.3318  13.3488  13.6665  13.7094
    15.2518  15.3712  15.7563  15.9129  16.0075  16.0380  16.0947  16.6613
    16.7104  16.8602  17.0241  17.5649  17.6795

          k = 0.1667 0.3150-0.5000 ( 62264 PWs)   bands (ev):

   -66.1746 -66.1746 -66.1744 -66.1744 -66.1737 -66.1737 -66.1735 -66.1735
   -30.5509 -30.5509 -30.5481 -30.5481 -30.5228 -30.5228 -30.5194 -30.5194
   -30.5112 -30.5112 -30.5103 -30.5103 -30.4702 -30.4702 -30.4691 -30.4691
   -30.4661 -30.4661 -30.4649 -30.4649 -30.4252 -30.4252 -30.4239 -30.4239
   -20.3350 -20.3350 -20.3349 -20.3349 -20.3349 -20.3349 -20.3349 -20.3348
   -20.3158 -20.3158 -20.3156 -20.3156 -20.3131 -20.3131 -20.3128 -20.3128
   -20.3116 -20.3116 -20.3113 -20.3113 -20.3111 -20.3111 -20.3108 -20.3108
   -20.3107 -20.3107 -20.3104 -20.3104 -20.3103 -20.3103 -20.3099 -20.3099
   -20.3027 -20.3027 -20.3025 -20.3025 -20.3018 -20.3018 -20.3017 -20.3017
   -20.3014 -20.3014 -20.3012 -20.3012 -20.2982 -20.2982 -20.2980 -20.2980
   -20.2979 -20.2979 -20.2976 -20.2976 -20.2950 -20.2950 -20.2948 -20.2948
    -9.4895  -9.4895  -9.3459  -9.3459  -8.9347  -8.9347  -8.7257  -8.7257
    -8.5960  -8.5959  -8.5814  -8.5814  -8.5002  -8.5002  -8.4207  -8.4207
    -8.1403  -8.1403  -8.1092  -8.1092  -7.8230  -7.8230  -7.8114  -7.8114
     1.5617   1.5617   1.5719   1.5719   2.3795   2.3795   2.4937   2.4937
     2.9699   2.9699   3.0538   3.0538   3.0662   3.0662   3.2613   3.2613
     3.2965   3.2966   3.4215   3.4215   3.4442   3.4443   3.6672   3.6672
     4.0709   4.0709   4.1091   4.1091   4.1135   4.1136   4.3703   4.3703
     4.7311   4.7311   4.7953   4.7953   4.9837   4.9837   5.0227   5.0227
     5.1189   5.1190   5.5127   5.5127   5.8734   5.8735   5.8835   5.8835
     6.6703   6.6703   6.7853   6.7853   6.8287   6.8287   6.8666   6.8666
     7.0153   7.0153   7.0666   7.0666   7.1702   7.1702   7.5130   7.5130
     7.5406   7.5406   7.5726   7.5726   7.6033   7.6033   7.8236   7.8236
    10.8267  10.8267  11.2028  11.2028  11.2457  11.2457  11.7449  11.7449
    12.0207  12.0207  12.1720  12.1720  12.5018  12.5018  12.5953  12.5953
    12.7551  12.7551  12.8993  12.8993  13.2843  13.2843  13.6837  13.6837
    15.3281  15.3281  15.9565  15.9565  16.3480  16.3480  16.4366  16.4366
    16.8954  16.8954  17.3117  17.3117  17.8752

          k = 0.1667-0.4725 0.1667 ( 62220 PWs)   bands (ev):

   -66.1749 -66.1749 -66.1740 -66.1740 -66.1740 -66.1740 -66.1731 -66.1731
   -30.5376 -30.5376 -30.5348 -30.5348 -30.5348 -30.5348 -30.5317 -30.5317
   -30.5132 -30.5132 -30.5132 -30.5132 -30.5092 -30.5092 -30.5084 -30.5084
   -30.4265 -30.4265 -30.4264 -30.4264 -30.4226 -30.4226 -30.4226 -30.4226
   -20.3350 -20.3350 -20.3349 -20.3349 -20.3349 -20.3349 -20.3348 -20.3348
   -20.3145 -20.3145 -20.3143 -20.3143 -20.3142 -20.3142 -20.3140 -20.3140
   -20.3117 -20.3117 -20.3117 -20.3117 -20.3113 -20.3112 -20.3112 -20.3112
   -20.3102 -20.3102 -20.3102 -20.3102 -20.3100 -20.3100 -20.3100 -20.3100
   -20.3027 -20.3027 -20.3025 -20.3025 -20.3025 -20.3025 -20.3019 -20.3018
   -20.3010 -20.3010 -20.3008 -20.3008 -20.3008 -20.3008 -20.3006 -20.3006
   -20.2952 -20.2952 -20.2951 -20.2950 -20.2947 -20.2947 -20.2947 -20.2947
    -9.6774  -9.6774  -9.2619  -9.2617  -9.2617  -9.2616  -8.9806  -8.9806
    -8.5026  -8.5026  -8.4371  -8.4371  -8.4367  -8.4367  -8.4317  -8.4317
    -7.8825  -7.8824  -7.8822  -7.8821  -7.7803  -7.7803  -7.7396  -7.7396
     1.4281   1.4281   1.5324   1.5325   1.5329   1.5330   1.8643   1.8643
     2.5968   2.5969   3.2105   3.2118   3.2150   3.2168   3.2379   3.2382
     3.2892   3.2892   3.3704   3.3705   3.5118   3.5120   3.5183   3.5184
     3.7193   3.7193   4.4793   4.4794   4.5273   4.5274   4.9249   4.9249
     4.9996   4.9996   5.1127   5.1128   5.1603   5.1604   5.4183   5.4183
     5.4545   5.4545   5.7406   5.7407   5.7725   5.7726   6.4522   6.4528
     6.4755   6.4762   6.5364   6.5365   6.7130   6.7131   6.9042   6.9042
     6.9167   6.9168   7.0792   7.0792   7.2777   7.2777   7.4550   7.4550
     7.4659   7.4660   7.4840   7.4841   7.5427   7.5427   7.8107   7.8108
     9.8581   9.8581  11.3353  11.3354  11.3894  11.3895  11.4266  11.4268
    11.4291  11.4292  12.2393  12.2393  12.2606  12.2607  12.9307  12.9307
    13.3905  13.3906  13.4040  13.4042  13.4233  13.4233  13.5437  13.5437
    15.5345  15.5345  15.6709  15.6710  15.9025  15.9026  15.9129  15.9130
    16.6547  16.6547  17.9183  17.9373  17.9407

          k = 0.1667-0.4725 0.3333 ( 62252 PWs)   bands (ev):

   -66.1747 -66.1747 -66.1742 -66.1742 -66.1738 -66.1738 -66.1733 -66.1733
   -30.5374 -30.5374 -30.5356 -30.5356 -30.5346 -30.5346 -30.5326 -30.5326
   -30.5123 -30.5123 -30.5098 -30.5098 -30.4946 -30.4946 -30.4903 -30.4903
   -30.4448 -30.4448 -30.4408 -30.4408 -30.4257 -30.4256 -30.4234 -30.4234
   -20.3350 -20.3350 -20.3349 -20.3349 -20.3349 -20.3349 -20.3349 -20.3348
   -20.3145 -20.3145 -20.3143 -20.3143 -20.3143 -20.3142 -20.3141 -20.3141
   -20.3116 -20.3115 -20.3113 -20.3113 -20.3113 -20.3113 -20.3110 -20.3109
   -20.3105 -20.3105 -20.3102 -20.3102 -20.3102 -20.3102 -20.3100 -20.3100
   -20.3027 -20.3027 -20.3025 -20.3025 -20.3022 -20.3022 -20.3015 -20.3015
   -20.3013 -20.3013 -20.3011 -20.3011 -20.2997 -20.2997 -20.2995 -20.2995
   -20.2964 -20.2964 -20.2960 -20.2960 -20.2950 -20.2950 -20.2948 -20.2948
    -9.5406  -9.5405  -9.3123  -9.3122  -9.0234  -9.0230  -8.8517  -8.8516
    -8.5423  -8.5416  -8.4647  -8.4630  -8.4236  -8.4227  -8.4133  -8.4132
    -8.1738  -8.1731  -8.0745  -8.0739  -7.8546  -7.8542  -7.7812  -7.7808
     1.5495   1.5505   1.5663   1.5675   2.2159   2.2166   2.3998   2.4010
     2.8676   2.8721   3.2179   3.2200   3.2257   3.2306   3.2315   3.2421
     3.2720   3.3035   3.4232   3.4680   3.4854   3.5172   3.6547   3.6650
     3.7563   3.7706   3.8702   3.9368   4.4520   4.5025   4.6025   4.6034
     4.6630   4.7245   4.7407   4.7804   4.9777   4.9883   4.9967   5.0659
     5.1435   5.2002   5.3205   5.3983   5.7681   5.7844   6.1883   6.1897
     6.6042   6.6116   6.6994   6.7142   6.8578   6.8649   7.0108   7.0757
     7.0900   7.1129   7.1719   7.1964   7.2104   7.2139   7.4270   7.4379
     7.4554   7.4666   7.4714   7.4944   7.4975   7.5311   7.7661   7.7688
    10.4801  10.4835  11.3646  11.3809  11.3980  11.4112  11.7431  11.7547
    11.7582  11.7748  11.8591  11.9111  12.4009  12.4543  12.7171  12.7426
    12.9180  12.9469  13.0958  13.1761  13.4018  13.4294  13.4532  13.5066
    15.6399  15.6582  15.8449  15.8620  16.2475  16.2740  16.6155  16.6409
    16.8437  16.8480  17.4208  17.4606  17.8588

          k = 0.1667-0.4725-0.5000 ( 62232 PWs)   bands (ev):

   -66.1745 -66.1745 -66.1745 -66.1745 -66.1736 -66.1736 -66.1736 -66.1736
   -30.5366 -30.5366 -30.5366 -30.5366 -30.5337 -30.5337 -30.5337 -30.5337
   -30.5110 -30.5110 -30.5110 -30.5110 -30.4697 -30.4697 -30.4697 -30.4697
   -30.4655 -30.4655 -30.4655 -30.4655 -30.4245 -30.4245 -30.4245 -30.4245
   -20.3349 -20.3349 -20.3349 -20.3349 -20.3349 -20.3349 -20.3349 -20.3349
   -20.3144 -20.3144 -20.3144 -20.3144 -20.3142 -20.3142 -20.3142 -20.3142
   -20.3114 -20.3114 -20.3114 -20.3114 -20.3109 -20.3109 -20.3109 -20.3109
   -20.3106 -20.3106 -20.3106 -20.3106 -20.3101 -20.3101 -20.3101 -20.3101
   -20.3026 -20.3026 -20.3026 -20.3026 -20.3017 -20.3017 -20.3017 -20.3017
   -20.3013 -20.3013 -20.3013 -20.3013 -20.2981 -20.2981 -20.2981 -20.2981
   -20.2978 -20.2978 -20.2977 -20.2977 -20.2949 -20.2949 -20.2949 -20.2949
    -9.4039  -9.4039  -9.4038  -9.4038  -8.7196  -8.7196  -8.7170  -8.7170
    -8.6138  -8.6138  -8.6092  -8.6092  -8.3899  -8.3899  -8.3848  -8.3848
    -8.3329  -8.3329  -8.3292  -8.3292  -7.8177  -7.8177  -7.8172  -7.8172
     1.5688   1.5688   1.5701   1.5701   2.9911   2.9911   2.9976   2.9976
     3.1248   3.1248   3.1516   3.1516   3.2164   3.2164   3.2652   3.2652
     3.2817   3.2817   3.3826   3.3826   3.4693   3.4693   3.4978   3.4978
     3.6343   3.6344   3.6499   3.6499   4.2995   4.2995   4.3084   4.3084
     4.4062   4.4062   4.4113   4.4113   4.8659   4.8659   5.0449   5.0449
     5.1298   5.1298   5.2906   5.2907   5.8751   5.8751   5.8838   5.8838
     6.7531   6.7531   6.7818   6.7818   6.8648   6.8648   6.8993   6.8993
     7.2712   7.2712   7.3144   7.3144   7.3596   7.3596   7.3925   7.3925
     7.4486   7.4486   7.4837   7.4837   7.5793   7.5793   7.6057   7.6057
    11.1812  11.1812  11.2085  11.2085  11.3872  11.3872  11.4424  11.4424
    12.2492  12.2492  12.2767  12.2767  12.3108  12.3108  12.3219  12.3219
    12.7276  12.7276  12.7955  12.7955  13.4194  13.4194  13.4635  13.4635
    15.7511  15.7511  15.7711  15.7711  16.9352  16.9352  16.9448  16.9448
    17.3215  17.3215  17.3349  17.3349  17.4258

          k = 0.3333 0.0000 0.3333 ( 62316 PWs)   bands (ev):

   -66.1747 -66.1743 -66.1742 -66.1742 -66.1738 -66.1738 -66.1737 -66.1733
   -30.5659 -30.5641 -30.5641 -30.5622 -30.5105 -30.5084 -30.5084 -30.5046
   -30.4936 -30.4932 -30.4930 -30.4925 -30.4925 -30.4903 -30.4897 -30.4893
   -30.4455 -30.4447 -30.4429 -30.4429 -30.4427 -30.4425 -30.4403 -30.4403
   -20.3350 -20.3350 -20.3349 -20.3349 -20.3349 -20.3349 -20.3349 -20.3348
   -20.3172 -20.3170 -20.3170 -20.3169 -20.3118 -20.3116 -20.3116 -20.3115
   -20.3115 -20.3114 -20.3114 -20.3113 -20.3109 -20.3109 -20.3108 -20.3108
   -20.3107 -20.3106 -20.3106 -20.3106 -20.3101 -20.3100 -20.3099 -20.3099
   -20.3028 -20.3027 -20.3024 -20.3024 -20.3022 -20.3022 -20.3016 -20.3016
   -20.3007 -20.3002 -20.3000 -20.3000 -20.2996 -20.2996 -20.2992 -20.2989
   -20.2969 -20.2964 -20.2963 -20.2963 -20.2963 -20.2958 -20.2958 -20.2957
    -9.6032  -9.3683  -9.3683  -9.2504  -9.1513  -8.9729  -8.9728  -8.7774
    -8.7645  -8.7501  -8.7334  -8.7333  -8.2312  -8.1758  -8.1736  -8.1736
    -8.1619  -8.1619  -8.0517  -8.0332  -7.8129  -7.7880  -7.7880  -7.7631
     1.5007   1.5422   1.5422   1.5842   2.1339   2.1424   2.2495   2.2496
     2.2858   2.2859   2.4963   2.5988   2.9286   2.9286   2.9674   3.0132
     3.2077   3.2365   3.7933   3.7991   3.8872   3.8875   4.1148   4.1148
     4.1447   4.1447   4.2221   4.3150   4.4177   4.4179   4.4644   4.5061
     4.8599   4.8604   4.8944   4.9496   5.0452   5.0453   5.1621   5.4113
     5.4115   5.4964   5.5001   5.6268   5.8768   5.8825   5.8825   6.0356
     6.4576   6.4621   6.4849   6.4849   6.5227   6.5583   6.5583   6.6229
     6.9940   7.1853   7.1854   7.2066   7.2066   7.3201   7.3538   7.3540
     7.4089   7.4993   7.7176   7.7258   7.9004   7.9769   7.9769   8.0222
    10.7087  10.8589  10.8738  10.8743  10.9244  11.1734  12.0152  12.0153
    12.0614  12.0614  12.1796  12.2792  12.5248  12.5250  12.7004  12.7815
    12.8079  12.8080  12.9565  13.0246  13.5650  13.6347  13.6348  13.7316
    14.4405  14.7167  14.7167  15.1824  15.8299  16.3117  16.3590  16.7551
    16.7551  17.1847  17.1848  17.7856  17.8289

          k = 0.3333 0.0000-0.5000 ( 62288 PWs)   bands (ev):

   -66.1745 -66.1745 -66.1741 -66.1741 -66.1740 -66.1740 -66.1736 -66.1736
   -30.5651 -30.5651 -30.5633 -30.5633 -30.5092 -30.5092 -30.5061 -30.5061
   -30.4924 -30.4924 -30.4912 -30.4912 -30.4697 -30.4697 -30.4676 -30.4675
   -30.4673 -30.4673 -30.4651 -30.4651 -30.4440 -30.4439 -30.4414 -30.4414
   -20.3350 -20.3350 -20.3349 -20.3349 -20.3349 -20.3349 -20.3349 -20.3348
   -20.3171 -20.3171 -20.3170 -20.3170 -20.3117 -20.3117 -20.3116 -20.3116
   -20.3114 -20.3114 -20.3111 -20.3111 -20.3110 -20.3110 -20.3108 -20.3108
   -20.3107 -20.3107 -20.3105 -20.3105 -20.3103 -20.3103 -20.3100 -20.3100
   -20.3026 -20.3026 -20.3025 -20.3025 -20.3020 -20.3020 -20.3019 -20.3019
   -20.3002 -20.3002 -20.2997 -20.2997 -20.2984 -20.2984 -20.2979 -20.2979
   -20.2979 -20.2979 -20.2975 -20.2975 -20.2964 -20.2964 -20.2959 -20.2959
    -9.4633  -9.4633  -9.2285  -9.2285  -9.0716  -9.0716  -8.7554  -8.7554
    -8.6209  -8.6209  -8.5528  -8.5528  -8.4893  -8.4893  -8.4557  -8.4557
    -8.1290  -8.1290  -8.1236  -8.1236  -7.8008  -7.8008  -7.7757  -7.7757
     1.5209   1.5209   1.5644   1.5644   2.2667   2.2667   2.2927   2.2927
     2.9155   2.9155   3.0062   3.0062   3.0405   3.0405   3.2029   3.2029
     3.3136   3.3136   3.5874   3.5874   3.7089   3.7089   3.8406   3.8406
     3.8727   3.8727   4.0485   4.0485   4.1901   4.1901   4.3471   4.3471
     4.6969   4.6969   4.9042   4.9042   5.0323   5.0323   5.1061   5.1061
[...]
   -20.3246 -20.3246 -20.3243 -20.3243 -20.3242 -20.3242 -20.3238 -20.3238
   -20.3166 -20.3165 -20.3164 -20.3164 -20.3156 -20.3156 -20.3156 -20.3156
   -20.3152 -20.3152 -20.3151 -20.3150 -20.3121 -20.3120 -20.3118 -20.3118
   -20.3117 -20.3117 -20.3115 -20.3115 -20.3089 -20.3089 -20.3086 -20.3086
    -9.4949  -9.4949  -9.3479  -9.3479  -8.9504  -8.9504  -8.7369  -8.7369
    -8.6017  -8.6017  -8.5851  -8.5851  -8.5074  -8.5074  -8.4283  -8.4283
    -8.1563  -8.1563  -8.1252  -8.1252  -7.8303  -7.8302  -7.8187  -7.8187
     1.5600   1.5600   1.5707   1.5707   2.3624   2.3624   2.4769   2.4769
     2.9623   2.9623   3.0476   3.0476   3.0620   3.0620   3.2559   3.2560
     3.2921   3.2921   3.4177   3.4177   3.4404   3.4404   3.6609   3.6609
     4.0595   4.0595   4.0963   4.0964   4.1054   4.1055   4.3594   4.3594
     4.7176   4.7176   4.7827   4.7827   4.9704   4.9704   5.0118   5.0118
     5.1117   5.1117   5.4980   5.4980   5.8650   5.8650   5.8744   5.8744
     6.6627   6.6628   6.7762   6.7762   6.8214   6.8214   6.8590   6.8590
     7.0054   7.0054   7.0562   7.0562   7.1608   7.1608   7.5038   7.5038
     7.5330   7.5330   7.5627   7.5627   7.5942   7.5942   7.8131   7.8131
    10.8148  10.8148  11.1880  11.1880  11.2308  11.2309  11.7325  11.7326
    12.0057  12.0058  12.1604  12.1604  12.4866  12.4866  12.5811  12.5811
    12.7386  12.7386  12.8841  12.8841  13.2666  13.2666  13.6680  13.6680
    15.3111  15.3111  15.9303  15.9303  16.3414  16.3415  16.4278  16.4278
    16.8715  16.8715  17.2966  17.2966  17.8617

          k = 0.3331 0.4727 0.1666 ( 62282 PWs)   bands (ev):

   -66.1880 -66.1880 -66.1875 -66.1875 -66.1871 -66.1871 -66.1866 -66.1866
   -30.5522 -30.5522 -30.5504 -30.5504 -30.5494 -30.5494 -30.5475 -30.5475
   -30.5228 -30.5228 -30.5203 -30.5203 -30.5052 -30.5052 -30.5009 -30.5009
   -30.4557 -30.4556 -30.4517 -30.4517 -30.4367 -30.4367 -30.4345 -30.4345
   -20.3488 -20.3488 -20.3488 -20.3488 -20.3488 -20.3488 -20.3487 -20.3487
   -20.3284 -20.3284 -20.3282 -20.3282 -20.3281 -20.3281 -20.3280 -20.3280
   -20.3255 -20.3255 -20.3252 -20.3252 -20.3252 -20.3252 -20.3248 -20.3248
   -20.3244 -20.3244 -20.3241 -20.3241 -20.3241 -20.3241 -20.3239 -20.3239
   -20.3166 -20.3166 -20.3164 -20.3164 -20.3160 -20.3160 -20.3153 -20.3153
   -20.3152 -20.3152 -20.3149 -20.3149 -20.3136 -20.3136 -20.3133 -20.3133
   -20.3103 -20.3103 -20.3099 -20.3099 -20.3089 -20.3089 -20.3087 -20.3086
    -9.5434  -9.5434  -9.3155  -9.3154  -9.0283  -9.0279  -8.8537  -8.8536
    -8.5596  -8.5588  -8.4801  -8.4784  -8.4402  -8.4392  -8.4291  -8.4291
    -8.1802  -8.1796  -8.0815  -8.0809  -7.8617  -7.8613  -7.7885  -7.7882
     1.5481   1.5491   1.5654   1.5667   2.2126   2.2132   2.3951   2.3963
     2.8688   2.8734   3.2067   3.2068   3.2153   3.2178   3.2204   3.2306
     3.2628   3.2946   3.4136   3.4593   3.4706   3.5030   3.6426   3.6534
     3.7422   3.7566   3.8686   3.9355   4.4395   4.4893   4.5937   4.5965
     4.6510   4.7143   4.7308   4.7688   4.9635   4.9787   4.9865   5.0494
     5.1276   5.1844   5.3119   5.3872   5.7584   5.7746   6.1817   6.1829
     6.5992   6.6065   6.6902   6.7047   6.8497   6.8565   7.0041   7.0689
     7.0832   7.1060   7.1616   7.1867   7.2016   7.2047   7.4164   7.4272
     7.4447   7.4566   7.4609   7.4839   7.4874   7.5212   7.7586   7.7612
    10.4668  10.4702  11.3543  11.3707  11.3871  11.4006  11.7318  11.7421
    11.7471  11.7626  11.8430  11.8954  12.3830  12.4364  12.7001  12.7252
    12.9025  12.9313  13.0786  13.1584  13.3847  13.4123  13.4357  13.4889
    15.6156  15.6336  15.8224  15.8396  16.2275  16.2536  16.5963  16.6221
    16.8387  16.8427  17.4108  17.4520  17.9347

          k =-0.4997 0.4727 0.1666 ( 62268 PWs)   bands (ev):

   -66.1877 -66.1877 -66.1877 -66.1877 -66.1869 -66.1868 -66.1868 -66.1868
   -30.5514 -30.5514 -30.5514 -30.5513 -30.5486 -30.5486 -30.5486 -30.5485
   -30.5216 -30.5215 -30.5215 -30.5215 -30.4804 -30.4804 -30.4804 -30.4804
   -30.4763 -30.4763 -30.4763 -30.4763 -30.4356 -30.4356 -30.4356 -30.4356
   -20.3488 -20.3488 -20.3488 -20.3488 -20.3488 -20.3488 -20.3487 -20.3487
   -20.3283 -20.3283 -20.3283 -20.3283 -20.3281 -20.3281 -20.3281 -20.3281
   -20.3253 -20.3253 -20.3253 -20.3253 -20.3248 -20.3248 -20.3248 -20.3248
   -20.3245 -20.3245 -20.3245 -20.3245 -20.3240 -20.3240 -20.3240 -20.3240
   -20.3165 -20.3165 -20.3165 -20.3165 -20.3156 -20.3156 -20.3156 -20.3156
   -20.3151 -20.3151 -20.3151 -20.3151 -20.3119 -20.3119 -20.3119 -20.3119
   -20.3116 -20.3116 -20.3116 -20.3116 -20.3088 -20.3088 -20.3088 -20.3088
    -9.4072  -9.4072  -9.4069  -9.4069  -8.7298  -8.7298  -8.7270  -8.7269
    -8.6200  -8.6200  -8.6153  -8.6153  -8.4044  -8.4043  -8.3989  -8.3989
    -8.3449  -8.3449  -8.3409  -8.3409  -7.8249  -7.8249  -7.8245  -7.8245
     1.5674   1.5674   1.5688   1.5688   2.9835   2.9835   2.9921   2.9921
     3.1168   3.1168   3.1418   3.1418   3.2071   3.2071   3.2612   3.2612
     3.2713   3.2713   3.3730   3.3730   3.4652   3.4652   3.4912   3.4912
     3.6193   3.6193   3.6419   3.6419   4.2872   4.2873   4.2966   4.2967
     4.3920   4.3921   4.3996   4.3996   4.8560   4.8560   5.0339   5.0339
     5.1183   5.1183   5.2779   5.2779   5.8667   5.8667   5.8752   5.8752
     6.7455   6.7455   6.7748   6.7748   6.8573   6.8573   6.8923   6.8923
     7.2615   7.2615   7.3039   7.3039   7.3486   7.3486   7.3826   7.3826
     7.4384   7.4384   7.4743   7.4743   7.5714   7.5714   7.5975   7.5975
    11.1674  11.1674  11.1938  11.1938  11.3766  11.3766  11.4308  11.4308
    12.2349  12.2349  12.2628  12.2628  12.2966  12.2966  12.3092  12.3092
    12.7097  12.7097  12.7775  12.7775  13.4022  13.4022  13.4463  13.4463
    15.7278  15.7278  15.7477  15.7477  16.9216  16.9216  16.9319  16.9319
    17.3082  17.3082  17.3226  17.3226  17.4134

          k =-0.4997 0.0000 0.3331 ( 62316 PWs)   bands (ev):

   -66.1877 -66.1877 -66.1873 -66.1873 -66.1872 -66.1872 -66.1868 -66.1868
   -30.5801 -30.5801 -30.5783 -30.5783 -30.5233 -30.5233 -30.5206 -30.5206
   -30.5035 -30.5034 -30.5018 -30.5018 -30.4805 -30.4805 -30.4783 -30.4783
   -30.4781 -30.4781 -30.4759 -30.4758 -30.4549 -30.4549 -30.4524 -30.4524
   -20.3489 -20.3488 -20.3488 -20.3488 -20.3488 -20.3488 -20.3487 -20.3487
   -20.3310 -20.3310 -20.3309 -20.3309 -20.3256 -20.3256 -20.3254 -20.3254
   -20.3254 -20.3253 -20.3250 -20.3250 -20.3249 -20.3249 -20.3247 -20.3246
   -20.3246 -20.3246 -20.3244 -20.3244 -20.3242 -20.3241 -20.3239 -20.3239
   -20.3165 -20.3165 -20.3163 -20.3163 -20.3159 -20.3159 -20.3158 -20.3158
   -20.3140 -20.3140 -20.3136 -20.3135 -20.3122 -20.3122 -20.3118 -20.3118
   -20.3117 -20.3117 -20.3114 -20.3114 -20.3103 -20.3102 -20.3097 -20.3097
    -9.4751  -9.4750  -9.2460  -9.2460  -9.0740  -9.0739  -8.7652  -8.7652
    -8.6249  -8.6249  -8.5574  -8.5574  -8.4938  -8.4938  -8.4611  -8.4611
    -8.1348  -8.1348  -8.1291  -8.1291  -7.8164  -7.8163  -7.7915  -7.7915
     1.5013   1.5013   1.5442   1.5442   2.2637   2.2637   2.2895   2.2895
     2.9067   2.9067   2.9987   2.9987   3.0341   3.0341   3.1964   3.1964
     3.3087   3.3087   3.5830   3.5830   3.7056   3.7056   3.8364   3.8364
     3.8620   3.8620   4.0365   4.0365   4.1802   4.1802   4.3426   4.3426
     4.6934   4.6934   4.8996   4.8996   5.0262   5.0262   5.0999   5.0999
     5.2458   5.2458   5.4966   5.4966   5.8901   5.8901   5.9827   5.9827
     6.3940   6.3940   6.4101   6.4101   6.4572   6.4572   6.5710   6.5710
     7.1582   7.1582   7.2965   7.2965   7.3859   7.3859   7.5452   7.5452
     7.5697   7.5697   7.6893   7.6893   7.7376   7.7376   7.9784   7.9784
    10.8541  10.8541  11.3965  11.3965  11.4733  11.4733  11.6007  11.6007
    11.8213  11.8213  12.2250  12.2250  12.3473  12.3473  12.6022  12.6022
    12.8146  12.8146  13.1719  13.1719  13.2127  13.2127  13.6346  13.6346
    14.6112  14.6112  14.9943  14.9944  16.2739  16.2739  16.7168  16.7168
    17.0662  17.0663  17.4833  17.4833  17.9134

          k =-0.4997-0.1576 0.3331 ( 62358 PWs)   bands (ev):

   -66.1877 -66.1877 -66.1874 -66.1873 -66.1872 -66.1872 -66.1869 -66.1868
   -30.5762 -30.5762 -30.5745 -30.5744 -30.5268 -30.5268 -30.5244 -30.5244
   -30.5036 -30.5036 -30.5020 -30.5020 -30.4804 -30.4804 -30.4784 -30.4784
   -30.4781 -30.4780 -30.4760 -30.4760 -30.4548 -30.4548 -30.4526 -30.4525
   -20.3489 -20.3488 -20.3488 -20.3488 -20.3488 -20.3488 -20.3487 -20.3487
   -20.3307 -20.3306 -20.3305 -20.3305 -20.3260 -20.3259 -20.3258 -20.3258
   -20.3253 -20.3253 -20.3250 -20.3250 -20.3248 -20.3248 -20.3247 -20.3247
   -20.3246 -20.3245 -20.3244 -20.3244 -20.3242 -20.3242 -20.3240 -20.3239
   -20.3165 -20.3165 -20.3164 -20.3163 -20.3159 -20.3159 -20.3158 -20.3158
   -20.3140 -20.3140 -20.3136 -20.3136 -20.3122 -20.3122 -20.3118 -20.3118
   -20.3118 -20.3117 -20.3114 -20.3114 -20.3102 -20.3102 -20.3098 -20.3098
    -9.4274  -9.4274  -9.1799  -9.1799  -9.0846  -9.0846  -8.7412  -8.7412
    -8.6325  -8.6325  -8.5551  -8.5551  -8.4926  -8.4926  -8.4572  -8.4572
    -8.1341  -8.1341  -8.1332  -8.1332  -7.9105  -7.9105  -7.8855  -7.8855
     1.7290   1.7290   1.7719   1.7719   2.2628   2.2628   2.2996   2.2997
     2.9515   2.9515   3.0344   3.0344   3.0515   3.0515   3.2072   3.2072
     3.3097   3.3097   3.5974   3.5974   3.7022   3.7022   3.8274   3.8274
     3.9089   3.9089   4.0666   4.0666   4.1815   4.1815   4.3497   4.3497
     4.5650   4.5650   4.6763   4.6763   4.9712   4.9712   5.0223   5.0223
     5.0737   5.0737   5.2914   5.2914   5.6788   5.6789   5.7577   5.7577
     6.5230   6.5230   6.5584   6.5584   6.6160   6.6160   6.7410   6.7410
     7.1612   7.1612   7.2876   7.2876   7.3839   7.3839   7.5405   7.5405
     7.5642   7.5642   7.6600   7.6600   7.7062   7.7062   7.9223   7.9224
    10.9573  10.9574  11.4116  11.4116  11.4822  11.4822  11.6637  11.6637
    11.8742  11.8742  12.2434  12.2434  12.3441  12.3441  12.6121  12.6121
    12.6963  12.6963  13.0542  13.0542  13.0969  13.0969  13.5300  13.5300
    14.9789  14.9789  15.3785  15.3785  16.3600  16.3600  16.7166  16.7166
    17.0697  17.0697  17.4932  17.4932  17.7749

          k =-0.4997-0.3152 0.3331 ( 62298 PWs)   bands (ev):

   -66.1876 -66.1876 -66.1874 -66.1874 -66.1871 -66.1871 -66.1869 -66.1869
   -30.5657 -30.5656 -30.5639 -30.5639 -30.5370 -30.5369 -30.5349 -30.5349
   -30.5035 -30.5035 -30.5025 -30.5025 -30.4801 -30.4801 -30.4789 -30.4789
   -30.4777 -30.4777 -30.4765 -30.4765 -30.4543 -30.4543 -30.4530 -30.4530
   -20.3488 -20.3488 -20.3488 -20.3488 -20.3488 -20.3488 -20.3488 -20.3487
   -20.3297 -20.3297 -20.3295 -20.3295 -20.3270 -20.3269 -20.3268 -20.3268
   -20.3252 -20.3252 -20.3249 -20.3249 -20.3248 -20.3248 -20.3247 -20.3247
   -20.3246 -20.3245 -20.3244 -20.3244 -20.3243 -20.3243 -20.3241 -20.3241
   -20.3165 -20.3164 -20.3164 -20.3164 -20.3159 -20.3159 -20.3158 -20.3158
   -20.3139 -20.3139 -20.3137 -20.3137 -20.3121 -20.3121 -20.3119 -20.3118
   -20.3117 -20.3117 -20.3115 -20.3115 -20.3101 -20.3101 -20.3099 -20.3099
    -9.3118  -9.3118  -9.1210  -9.1210  -9.0018  -9.0018  -8.6870  -8.6869
    -8.6413  -8.6413  -8.5499  -8.5498  -8.4830  -8.4829  -8.4373  -8.4372
    -8.1836  -8.1835  -8.1454  -8.1454  -8.1243  -8.1243  -8.0740  -8.0739
     2.1886   2.1886   2.2593   2.2593   2.3694   2.3694   2.4890   2.4890
     3.0202   3.0202   3.0688   3.0688   3.1703   3.1703   3.2471   3.2471
     3.3373   3.3373   3.5849   3.5849   3.6859   3.6859   3.7753   3.7753
     4.0533   4.0533   4.0787   4.0787   4.1188   4.1188   4.2277   4.2278
     4.3120   4.3120   4.4397   4.4397   4.6018   4.6018   4.8282   4.8282
     4.9479   4.9479   4.9907   4.9908   5.0448   5.0448   5.2730   5.2730
     6.8458   6.8458   6.9015   6.9015   6.9600   6.9600   7.0246   7.0246
     7.1658   7.1658   7.2669   7.2669   7.3875   7.3875   7.4954   7.4954
     7.5333   7.5333   7.5942   7.5942   7.6253   7.6253   7.7606   7.7606
    11.2251  11.2251  11.4339  11.4339  11.5217  11.5217  11.8322  11.8323
    12.0432  12.0432  12.2725  12.2725  12.3297  12.3297  12.3377  12.3377
    12.6751  12.6751  12.7719  12.7719  12.8666  12.8666  13.2766  13.2766
    15.8243  15.8243  16.3218  16.3218  16.6202  16.6202  16.6941  16.6941
    17.0967  17.0967  17.3656  17.3656  17.6502

          k =-0.4997 0.4727 0.3331 ( 62256 PWs)   bands (ev):

   -66.1875 -66.1875 -66.1875 -66.1875 -66.1870 -66.1870 -66.1870 -66.1870
   -30.5512 -30.5512 -30.5512 -30.5512 -30.5494 -30.5494 -30.5494 -30.5494
   -30.5031 -30.5031 -30.5031 -30.5031 -30.4796 -30.4795 -30.4795 -30.4795
   -30.4772 -30.4772 -30.4771 -30.4771 -30.4537 -30.4537 -30.4537 -30.4537
   -20.3488 -20.3488 -20.3488 -20.3488 -20.3488 -20.3488 -20.3488 -20.3487
   -20.3283 -20.3283 -20.3283 -20.3283 -20.3282 -20.3282 -20.3282 -20.3282
   -20.3250 -20.3250 -20.3250 -20.3250 -20.3247 -20.3247 -20.3247 -20.3247
   -20.3245 -20.3245 -20.3245 -20.3245 -20.3243 -20.3242 -20.3242 -20.3242
   -20.3164 -20.3164 -20.3164 -20.3164 -20.3159 -20.3158 -20.3158 -20.3158
   -20.3138 -20.3138 -20.3138 -20.3138 -20.3120 -20.3120 -20.3120 -20.3120
   -20.3116 -20.3116 -20.3116 -20.3116 -20.3100 -20.3100 -20.3100 -20.3100
    -9.1953  -9.1953  -9.1948  -9.1947  -8.7940  -8.7940  -8.7924  -8.7924
    -8.5613  -8.5612  -8.5576  -8.5576  -8.3988  -8.3987  -8.3930  -8.3930
    -8.3514  -8.3514  -8.3466  -8.3466  -8.1189  -8.1189  -8.1176  -8.1176
     2.2491   2.2491   2.2518   2.2518   2.9858   2.9858   2.9930   2.9930
     3.1114   3.1114   3.1208   3.1208   3.2541   3.2541   3.2842   3.2842
     3.3575   3.3575   3.3868   3.3868   3.6350   3.6350   3.6392   3.6392
     3.7603   3.7603   3.7997   3.7997   4.2396   4.2396   4.2708   4.2708
     4.3246   4.3246   4.3813   4.3813   4.4469   4.4469   4.5547   4.5547
     4.6414   4.6414   4.7954   4.7954   5.0546   5.0546   5.0678   5.0678
     7.0284   7.0284   7.0502   7.0502   7.1793   7.1793   7.1819   7.1819
     7.2635   7.2635   7.3091   7.3091   7.3203   7.3203   7.3924   7.3924
     7.4727   7.4727   7.5341   7.5341   7.5993   7.5993   7.6182   7.6182
    11.3949  11.3949  11.4245  11.4245  11.7330  11.7330  11.7989  11.7989
    12.1605  12.1605  12.2024  12.2024  12.3157  12.3157  12.3203  12.3203
    12.4764  12.4764  12.5732  12.5732  12.9606  12.9606  13.0359  13.0359
    16.4577  16.4577  16.5029  16.5029  17.0760  17.0761  17.0818  17.0818
    17.3153  17.3154  17.3579  17.3580  17.3783

     the Fermi energy is     8.5370 ev

!    total energy              =   -6261.10937352 Ry
     Harris-Foulkes estimate   =   -6261.10937352 Ry
     estimated scf accuracy    <          5.3E-11 Ry

     The total energy is the sum of the following terms:

     one-electron contribution =   -4724.77194998 Ry
     hartree contribution      =    2598.92185039 Ry
     xc contribution           =    -965.66953623 Ry
     ewald contribution        =   -3169.58973769 Ry
     smearing contrib. (-TS)   =      -0.00000000 Ry

     convergence has been achieved in  14 iterations

     Forces acting on atoms (cartesian axes, Ry/au):

     atom    1 type  1   force =    -0.00021239    0.00068532    0.00013440
     atom    2 type  1   force =     0.00021239   -0.00068532   -0.00013440
     atom    3 type  1   force =     0.00021239   -0.00068532    0.00013440
     atom    4 type  1   force =    -0.00021239    0.00068532   -0.00013440
     atom    5 type  1   force =     0.00021239    0.00068532   -0.00013440
     atom    6 type  1   force =    -0.00021239   -0.00068532    0.00013440
     atom    7 type  1   force =    -0.00021239   -0.00068532   -0.00013440
     atom    8 type  1   force =     0.00021239    0.00068532    0.00013440
     atom    9 type  2   force =    -0.00004550   -0.00032214    0.00000968
     atom   10 type  2   force =     0.00004550    0.00032214   -0.00000968
     atom   11 type  2   force =     0.00004550    0.00032214    0.00000968
     atom   12 type  2   force =    -0.00004550   -0.00032214   -0.00000968
     atom   13 type  2   force =     0.00004550   -0.00032214   -0.00000968
     atom   14 type  2   force =    -0.00004550    0.00032214    0.00000968
     atom   15 type  2   force =    -0.00004550    0.00032214   -0.00000968
     atom   16 type  2   force =     0.00004550   -0.00032214    0.00000968
     atom   17 type  2   force =    -0.00012383    0.00001840   -0.00015184
     atom   18 type  2   force =     0.00012383   -0.00001840    0.00015184
     atom   19 type  2   force =     0.00012383   -0.00001840   -0.00015184
     atom   20 type  2   force =    -0.00012383    0.00001840    0.00015184
     atom   21 type  2   force =     0.00012383    0.00001840    0.00015184
     atom   22 type  2   force =    -0.00012383   -0.00001840   -0.00015184
     atom   23 type  2   force =    -0.00012383   -0.00001840    0.00015184
     atom   24 type  2   force =     0.00012383    0.00001840   -0.00015184
     atom   25 type  2   force =    -0.00015508   -0.00008232    0.00005775
     atom   26 type  2   force =     0.00015508    0.00008232   -0.00005775
     atom   27 type  2   force =     0.00015508    0.00008232    0.00005775
     atom   28 type  2   force =    -0.00015508   -0.00008232   -0.00005775
     atom   29 type  2   force =     0.00015508   -0.00008232   -0.00005775
     atom   30 type  2   force =    -0.00015508    0.00008232    0.00005775
     atom   31 type  2   force =    -0.00015508    0.00008232   -0.00005775
     atom   32 type  2   force =     0.00015508   -0.00008232    0.00005775

     Total force =     0.000000     Total SCF correction =     0.000000


     Computing stress (Cartesian axis) and pressure

          total   stress  (Ry/bohr**3)                   (kbar)     P=    0.02
   0.00000016   0.00000000   0.00000000          0.02      0.00      0.00
   0.00000000  -0.00000003   0.00000000          0.00     -0.00      0.00
   0.00000000   0.00000000   0.00000018          0.00      0.00      0.03


     Writing output data file Landau_1.save
 
     init_run     :     73.77s CPU     76.95s WALL (       2 calls)
     electrons    :   6335.24s CPU   6530.07s WALL (       5 calls)
     update_pot   :     64.45s CPU     64.71s WALL (       3 calls)
     forces       :    112.58s CPU    114.72s WALL (       5 calls)
     stress       :   1100.74s CPU   1118.75s WALL (       5 calls)

     Called by init_run:
     wfcinit      :     55.44s CPU     58.37s WALL (       2 calls)
     potinit      :      7.61s CPU      7.68s WALL (       2 calls)

     Called by electrons:
     c_bands      :   5487.63s CPU   5673.22s WALL (      69 calls)
     sum_band     :    814.02s CPU    819.41s WALL (      69 calls)
     v_of_rho     :      6.83s CPU      7.00s WALL (      72 calls)
     mix_rho      :     14.92s CPU     17.61s WALL (      69 calls)

     Called by c_bands:
     init_us_2    :     65.21s CPU     68.10s WALL (     300 calls)
     cegterg      :   4738.42s CPU   4916.31s WALL (     138 calls)

     Called by sum_band:

     Called by *egterg:
     h_psi        :   3766.75s CPU   3790.54s WALL (     507 calls)
     g_psi        :     10.07s CPU     10.13s WALL (     365 calls)
     cdiaghg      :     58.06s CPU     58.34s WALL (     493 calls)

     Called by h_psi:
     h_psi:pot    :   3736.46s CPU   3759.25s WALL (     507 calls)
     h_psi:calbec :    364.88s CPU    375.12s WALL (     507 calls)
     vloc_psi     :   2974.73s CPU   2985.02s WALL (     507 calls)
     add_vuspsi   :    396.84s CPU    399.10s WALL (     507 calls)

     General routines
     calbec       :    419.02s CPU    429.43s WALL (     557 calls)
     fft          :      5.35s CPU      5.37s WALL (     330 calls)
     fftw         :   2999.35s CPU   3007.93s WALL (  176880 calls)
 
     Parallel routines
 
     PWSCF        :     2h 8m CPU        2h11m WALL

 
   This run was terminated on:  17:52:43  13Mar2020            

=------------------------------------------------------------------------------=
   JOB DONE.
=------------------------------------------------------------------------------=
