
     Program PWSCF v.6.2 (svn rev. 14038) starts on 28Aug2019 at 14:47: 5 

     This program is part of the open-source Quantum ESPRESSO suite
     for quantum simulation of materials; please cite
         "P. Giannozzi et al., J. Phys.:Condens. Matter 21 395502 (2009);
         "P. Giannozzi et al., J. Phys.:Condens. Matter 29 465901 (2017);
          URL http://www.quantum-espresso.org", 
     in publications or presentations arising from this work. More details at
     http://www.quantum-espresso.org/quote

     Parallel version (MPI), running on    64 processors

     MPI processes distributed on     8 nodes
     K-points division:     npool     =      64
     Reading input from scf.in

     Current dimensions of program PWSCF are:
     Max number of different atomic species (ntypx) = 10
     Max number of k-points (npk) =  40000
     Max angular momentum in pseudopotentials (lmaxx) =  3

     Subspace diagonalization in iterative solution of the eigenvalue problem:
     a serial algorithm will be used

 
     G-vector sticks info
     --------------------
     sticks:   dense  smooth     PW     G-vecs:    dense   smooth      PW
     Sum        7645    7645   2049               493657   493657   68443
 


     bravais-lattice index     =            0
     lattice parameter (alat)  =      13.8252  a.u.
     unit-cell volume          =    2780.6935 (a.u.)^3
     number of atoms/cell      =           32
     number of atomic types    =            2
     number of electrons       =       368.52
     number of Kohn-Sham states=          221
     kinetic-energy cutoff     =     120.0000  Ry
     charge density cutoff     =     480.0000  Ry
     convergence threshold     =      1.0E-08
     mixing beta               =       0.7000
     number of iterations used =            8  plain     mixing
     Exchange-correlation      = SLA PW NOGX NOGC ( 1  4  0  0 0 0)

     celldm(1)=  13.825202  celldm(2)=   0.000000  celldm(3)=   0.000000
     celldm(4)=   0.000000  celldm(5)=   0.000000  celldm(6)=   0.000000

     crystal axes: (cart. coord. in units of alat)
               a(1) = (   1.000000   0.000000   0.000000 )  
               a(2) = (   0.000000   1.047038   0.000000 )  
               a(3) = (   0.000000   0.000000   1.005023 )  

     reciprocal axes: (cart. coord. in units 2 pi/alat)
               b(1) = (  1.000000  0.000000  0.000000 )  
               b(2) = (  0.000000  0.955075  0.000000 )  
               b(3) = (  0.000000  0.000000  0.995002 )  


     PseudoPot. # 1 for W  read from file:
     /cluster/scratch/mnoe/QE/pps/W_ONCV_LDA-4.0.upf
     MD5 check sum: ba0307d5d4cd419d6f1d13dc49d7c13a
     Pseudo is Norm-conserving + core correction, Zval = 28.0
     Generated using ONCVPSP code by D. R. Hamann
     Using radial grid of 1380 points,  8 beta functions with: 
                l(1) =   0
                l(2) =   0
                l(3) =   1
                l(4) =   1
                l(5) =   2
                l(6) =   2
                l(7) =   3
                l(8) =   3

     PseudoPot. # 2 for O  read from file:
     /cluster/scratch/mnoe/QE/pps/O_ONCV_LDA-3.0.upf
     MD5 check sum: b55cdb4f45ae2203d24ad12cf8d61a31
     Pseudo is Norm-conserving + core correction, Zval =  6.0
     Generated using ONCVPSP code by D. R. Hamann
     Using radial grid of  926 points,  5 beta functions with: 
                l(1) =   0
                l(2) =   0
                l(3) =   1
                l(4) =   1
                l(5) =   2

     atomic species   valence    mass     pseudopotential
        W             28.00   183.84000     W ( 1.00)
        O              6.00    15.99940     O ( 1.00)

      8 Sym. Ops., with inversion, found ( 6 have fractional translation)



   Cartesian axes

     site n.     atom                  positions (alat units)
         1           W   tau(   1) = (   0.2356600   0.2951183   0.0136080  )
         2           W   tau(   2) = (   0.7643400   0.7519202   0.9914151  )
         3           W   tau(   3) = (   0.2643400   0.2284010   0.5161196  )
         4           W   tau(   4) = (   0.7356600   0.8186375   0.4889036  )
         5           W   tau(   5) = (   0.7643400   0.2951183   0.4889036  )
         6           W   tau(   6) = (   0.2356600   0.7519202   0.5161196  )
         7           W   tau(   7) = (   0.7356600   0.2284010   0.9914151  )
         8           W   tau(   8) = (   0.2643400   0.8186375   0.0136080  )
         9           O   tau(   9) = (   0.2235500   0.0087114   0.0042311  )
        10           O   tau(  10) = (   0.7764500   1.0383271   1.0007920  )
        11           O   tau(  11) = (   0.2764500   0.5148079   0.5067427  )
        12           O   tau(  12) = (   0.7235500   0.5322306   0.4982804  )
        13           O   tau(  13) = (   0.7764500   0.0087114   0.4982804  )
        14           O   tau(  14) = (   0.2235500   1.0383271   0.5067427  )
        15           O   tau(  15) = (   0.7235500   0.5148079   1.0007920  )
        16           O   tau(  16) = (   0.2764500   0.5322306   0.0042311  )
        17           O   tau(  17) = (   0.5039200   0.2333535   0.4517981  )
        18           O   tau(  18) = (   0.4960800   0.8136850   0.5532250  )
        19           O   tau(  19) = (   0.9960800   0.2901658   0.9543097  )
        20           O   tau(  20) = (   0.0039201   0.7568727   0.0507135  )
        21           O   tau(  21) = (   0.4960800   0.2333535   0.0507135  )
        22           O   tau(  22) = (   0.5039200   0.8136850   0.9543097  )
        23           O   tau(  23) = (   0.0039201   0.2901658   0.5532250  )
        24           O   tau(  24) = (   0.9960800   0.7568727   0.4517981  )
        25           O   tau(  25) = (   0.6995400   0.2555612   0.7477975  )
        26           O   tau(  26) = (   0.3004600   0.7914773   0.2572256  )
        27           O   tau(  27) = (   0.8004600   0.2679581   0.2452860  )
        28           O   tau(  28) = (   0.1995400   0.7790804   0.7597372  )
        29           O   tau(  29) = (   0.3004600   0.2555612   0.7597372  )
        30           O   tau(  30) = (   0.6995400   0.7914773   0.2452860  )
        31           O   tau(  31) = (   0.1995400   0.2679581   0.2572256  )
        32           O   tau(  32) = (   0.8004600   0.7790804   0.7477975  )

     number of k points=    64  gaussian smearing, width (Ry)=  0.0007
                       cart. coord. in units 2pi/alat
        k(    1) = (   0.0000000   0.0000000   0.0000000), wk =   0.0092593
        k(    2) = (   0.0000000   0.0000000   0.1658337), wk =   0.0185185
        k(    3) = (   0.0000000   0.0000000   0.3316673), wk =   0.0185185
        k(    4) = (   0.0000000   0.0000000  -0.4975010), wk =   0.0092593
        k(    5) = (   0.0000000   0.1591791   0.0000000), wk =   0.0185185
        k(    6) = (   0.0000000   0.1591791   0.1658337), wk =   0.0370370
        k(    7) = (   0.0000000   0.1591791   0.3316673), wk =   0.0370370
        k(    8) = (   0.0000000   0.1591791  -0.4975010), wk =   0.0185185
        k(    9) = (   0.0000000   0.3183582   0.0000000), wk =   0.0185185
        k(   10) = (   0.0000000   0.3183582   0.1658337), wk =   0.0370370
        k(   11) = (   0.0000000   0.3183582   0.3316673), wk =   0.0370370
        k(   12) = (   0.0000000   0.3183582  -0.4975010), wk =   0.0185185
        k(   13) = (   0.0000000  -0.4775374   0.0000000), wk =   0.0092593
        k(   14) = (   0.0000000  -0.4775374   0.1658337), wk =   0.0185185
        k(   15) = (   0.0000000  -0.4775374   0.3316673), wk =   0.0185185
        k(   16) = (   0.0000000  -0.4775374  -0.4975010), wk =   0.0092593
        k(   17) = (   0.1666667   0.0000000   0.0000000), wk =   0.0185185
        k(   18) = (   0.1666667   0.0000000   0.1658337), wk =   0.0370370
        k(   19) = (   0.1666667   0.0000000   0.3316673), wk =   0.0370370
        k(   20) = (   0.1666667   0.0000000  -0.4975010), wk =   0.0185185
        k(   21) = (   0.1666667   0.1591791   0.0000000), wk =   0.0370370
        k(   22) = (   0.1666667   0.1591791   0.1658337), wk =   0.0740741
        k(   23) = (   0.1666667   0.1591791   0.3316673), wk =   0.0740741
        k(   24) = (   0.1666667   0.1591791  -0.4975010), wk =   0.0370370
        k(   25) = (   0.1666667   0.3183582   0.0000000), wk =   0.0370370
        k(   26) = (   0.1666667   0.3183582   0.1658337), wk =   0.0740741
        k(   27) = (   0.1666667   0.3183582   0.3316673), wk =   0.0740741
        k(   28) = (   0.1666667   0.3183582  -0.4975010), wk =   0.0370370
        k(   29) = (   0.1666667  -0.4775374   0.0000000), wk =   0.0185185
        k(   30) = (   0.1666667  -0.4775374   0.1658337), wk =   0.0370370
        k(   31) = (   0.1666667  -0.4775374   0.3316673), wk =   0.0370370
        k(   32) = (   0.1666667  -0.4775374  -0.4975010), wk =   0.0185185
        k(   33) = (   0.3333333   0.0000000   0.0000000), wk =   0.0185185
        k(   34) = (   0.3333333   0.0000000   0.1658337), wk =   0.0370370
        k(   35) = (   0.3333333   0.0000000   0.3316673), wk =   0.0370370
        k(   36) = (   0.3333333   0.0000000  -0.4975010), wk =   0.0185185
        k(   37) = (   0.3333333   0.1591791   0.0000000), wk =   0.0370370
        k(   38) = (   0.3333333   0.1591791   0.1658337), wk =   0.0740741
        k(   39) = (   0.3333333   0.1591791   0.3316673), wk =   0.0740741
        k(   40) = (   0.3333333   0.1591791  -0.4975010), wk =   0.0370370
        k(   41) = (   0.3333333   0.3183582   0.0000000), wk =   0.0370370
        k(   42) = (   0.3333333   0.3183582   0.1658337), wk =   0.0740741
        k(   43) = (   0.3333333   0.3183582   0.3316673), wk =   0.0740741
        k(   44) = (   0.3333333   0.3183582  -0.4975010), wk =   0.0370370
        k(   45) = (   0.3333333  -0.4775374   0.0000000), wk =   0.0185185
        k(   46) = (   0.3333333  -0.4775374   0.1658337), wk =   0.0370370
        k(   47) = (   0.3333333  -0.4775374   0.3316673), wk =   0.0370370
        k(   48) = (   0.3333333  -0.4775374  -0.4975010), wk =   0.0185185
        k(   49) = (  -0.5000000   0.0000000   0.0000000), wk =   0.0092593
        k(   50) = (  -0.5000000   0.0000000   0.1658337), wk =   0.0185185
        k(   51) = (  -0.5000000   0.0000000   0.3316673), wk =   0.0185185
        k(   52) = (  -0.5000000   0.0000000  -0.4975010), wk =   0.0092593
        k(   53) = (  -0.5000000   0.1591791   0.0000000), wk =   0.0185185
        k(   54) = (  -0.5000000   0.1591791   0.1658337), wk =   0.0370370
        k(   55) = (  -0.5000000   0.1591791   0.3316673), wk =   0.0370370
        k(   56) = (  -0.5000000   0.1591791  -0.4975010), wk =   0.0185185
        k(   57) = (  -0.5000000   0.3183582   0.0000000), wk =   0.0185185
        k(   58) = (  -0.5000000   0.3183582   0.1658337), wk =   0.0370370
        k(   59) = (  -0.5000000   0.3183582   0.3316673), wk =   0.0370370
        k(   60) = (  -0.5000000   0.3183582  -0.4975010), wk =   0.0185185
        k(   61) = (  -0.5000000  -0.4775374   0.0000000), wk =   0.0092593
        k(   62) = (  -0.5000000  -0.4775374   0.1658337), wk =   0.0185185
        k(   63) = (  -0.5000000  -0.4775374   0.3316673), wk =   0.0185185
        k(   64) = (  -0.5000000  -0.4775374  -0.4975010), wk =   0.0092593

     Dense  grid:   493657 G-vectors     FFT dimensions: ( 100, 108, 100)

     Estimated max dynamical RAM per process >       2.69 GB

     Estimated total dynamical RAM >     172.44 GB

     Initial potential from superposition of free atoms

     starting charge  367.99656, renormalised to  368.52000
     Starting wfc are  232 randomized atomic wfcs

     total cpu time spent up to now is       19.2 secs

     Self-consistent Calculation

     iteration #  1     ecut=   120.00 Ry     beta= 0.70
     Davidson diagonalization with overlap
     ethr =  1.00E-02,  avg # of iterations =  5.0

     total cpu time spent up to now is       76.2 secs

     total energy              =   -6253.54021508 Ry
     Harris-Foulkes estimate   =   -6264.26333293 Ry
     estimated scf accuracy    <      13.52053785 Ry

     iteration #  2     ecut=   120.00 Ry     beta= 0.70
     Davidson diagonalization with overlap
     ethr =  3.67E-03,  avg # of iterations =  3.5

     total cpu time spent up to now is      132.5 secs

     total energy              =   -6250.49024647 Ry
     Harris-Foulkes estimate   =   -6270.27649346 Ry
     estimated scf accuracy    <      52.71575004 Ry

     iteration #  3     ecut=   120.00 Ry     beta= 0.70
     Davidson diagonalization with overlap
     ethr =  3.67E-03,  avg # of iterations =  3.4

     total cpu time spent up to now is      186.7 secs

     total energy              =   -6260.71360657 Ry
     Harris-Foulkes estimate   =   -6260.98269157 Ry
     estimated scf accuracy    <       0.88767768 Ry

     iteration #  4     ecut=   120.00 Ry     beta= 0.70
     Davidson diagonalization with overlap
     ethr =  2.41E-04,  avg # of iterations =  2.6

     total cpu time spent up to now is      229.9 secs

     total energy              =   -6260.71024936 Ry
     Harris-Foulkes estimate   =   -6260.78074227 Ry
     estimated scf accuracy    <       0.21882852 Ry

     iteration #  5     ecut=   120.00 Ry     beta= 0.70
     Davidson diagonalization with overlap
     ethr =  5.94E-05,  avg # of iterations =  5.2

     total cpu time spent up to now is      277.6 secs

     total energy              =   -6260.71339917 Ry
     Harris-Foulkes estimate   =   -6260.74295431 Ry
     estimated scf accuracy    <       0.06555559 Ry

     iteration #  6     ecut=   120.00 Ry     beta= 0.70
     Davidson diagonalization with overlap
     ethr =  1.78E-05,  avg # of iterations =  5.2

     total cpu time spent up to now is      327.1 secs

     total energy              =   -6260.72767007 Ry
     Harris-Foulkes estimate   =   -6260.73009334 Ry
     estimated scf accuracy    <       0.00646769 Ry

     iteration #  7     ecut=   120.00 Ry     beta= 0.70
     Davidson diagonalization with overlap
     ethr =  1.76E-06,  avg # of iterations =  4.7

     total cpu time spent up to now is      374.4 secs

     total energy              =   -6260.72845413 Ry
     Harris-Foulkes estimate   =   -6260.72856525 Ry
     estimated scf accuracy    <       0.00020699 Ry

     iteration #  8     ecut=   120.00 Ry     beta= 0.70
     Davidson diagonalization with overlap
     ethr =  5.62E-08,  avg # of iterations =  3.1

     total cpu time spent up to now is      432.0 secs

     total energy              =   -6260.72853119 Ry
     Harris-Foulkes estimate   =   -6260.72854344 Ry
     estimated scf accuracy    <       0.00004754 Ry

     iteration #  9     ecut=   120.00 Ry     beta= 0.70
     Davidson diagonalization with overlap
     ethr =  1.29E-08,  avg # of iterations =  2.0

     total cpu time spent up to now is      477.2 secs

     total energy              =   -6260.72853194 Ry
     Harris-Foulkes estimate   =   -6260.72853685 Ry
     estimated scf accuracy    <       0.00002173 Ry

     iteration # 10     ecut=   120.00 Ry     beta= 0.70
     Davidson diagonalization with overlap
     ethr =  5.90E-09,  avg # of iterations =  1.5

     total cpu time spent up to now is      520.5 secs

     total energy              =   -6260.72853049 Ry
     Harris-Foulkes estimate   =   -6260.72853344 Ry
     estimated scf accuracy    <       0.00000698 Ry

     iteration # 11     ecut=   120.00 Ry     beta= 0.70
     Davidson diagonalization with overlap
     ethr =  1.89E-09,  avg # of iterations =  2.9

     total cpu time spent up to now is      564.6 secs

     total energy              =   -6260.72853191 Ry
     Harris-Foulkes estimate   =   -6260.72853195 Ry
     estimated scf accuracy    <       0.00000009 Ry

     iteration # 12     ecut=   120.00 Ry     beta= 0.70
     Davidson diagonalization with overlap
     ethr =  2.39E-11,  avg # of iterations =  3.0

     total cpu time spent up to now is      621.0 secs

     total energy              =   -6260.72853194 Ry
     Harris-Foulkes estimate   =   -6260.72853195 Ry
     estimated scf accuracy    <       0.00000002 Ry

     iteration # 13     ecut=   120.00 Ry     beta= 0.70
     Davidson diagonalization with overlap
     ethr =  5.02E-12,  avg # of iterations =  2.4

     total cpu time spent up to now is      672.8 secs

     End of self-consistent calculation

          k = 0.0000 0.0000 0.0000 ( 61687 PWs)   bands (ev):

   -65.8822 -65.8817 -65.8813 -65.8811 -65.8807 -65.8806 -65.8802 -65.8797
   -30.3212 -30.3146 -30.3135 -30.3070 -30.2742 -30.2646 -30.2634 -30.2496
   -30.2486 -30.2458 -30.2346 -30.2274 -30.2243 -30.2201 -30.2127 -30.1995
   -30.1504 -30.1487 -30.1451 -30.1444 -30.1344 -30.1285 -30.1264 -30.1208
   -20.0332 -20.0331 -20.0327 -20.0326 -20.0319 -20.0318 -20.0313 -20.0312
   -20.0202 -20.0200 -20.0192 -20.0192 -20.0191 -20.0187 -20.0183 -20.0176
   -20.0173 -20.0169 -20.0162 -20.0156 -20.0148 -20.0144 -20.0132 -20.0130
   -20.0130 -20.0122 -20.0121 -20.0120 -20.0118 -20.0114 -20.0114 -20.0111
   -20.0016 -20.0014 -20.0011 -20.0011 -19.9989 -19.9987 -19.9984 -19.9983
   -19.9844 -19.9844 -19.9832 -19.9832 -19.9787 -19.9786 -19.9775 -19.9775
   -19.9765 -19.9764 -19.9752 -19.9752 -19.9722 -19.9721 -19.9709 -19.9708
    -9.7813  -9.4656  -9.3353  -9.3308  -9.0345  -9.0029  -8.9198  -8.8166
    -8.7971  -8.7100  -8.6674  -8.6623  -7.7458  -7.6598  -7.6498  -7.6186
    -7.6141  -7.6011  -7.5967  -7.5609  -7.4994  -7.4774  -7.4669  -7.4573
     1.4819   1.4925   1.5404   1.5463   1.5692   1.5876   1.6159   1.7873
     1.7957   1.8550   1.8843   2.0882   2.5626   2.6559   2.7021   2.7381
     2.8470   2.9083   4.2703   4.3480   4.5135   4.6790   4.8265   4.9301
     4.9734   4.9768   4.9989   4.9998   5.2325   5.2641   5.3515   5.5361
     5.6456   5.6714   5.7164   5.7220   5.7857   5.8031   5.9249   5.9467
     5.9502   5.9954   6.0134   6.0734   6.0735   6.1265   6.1662   6.2679
     6.2931   6.3857   6.4257   6.6664   6.6882   6.9187   6.9262   6.9880
     7.0270   7.0696   7.0809   7.1102   7.1112   7.1911   7.3837   7.4276
     7.4831   7.5223   7.8811   7.9052   8.0901   8.1548   8.2466   8.3018
     9.8118   9.8368  10.2902  10.3056  10.3440  10.3644  12.3602  12.4385
    12.5503  12.6486  12.6729  12.6868  12.6991  12.8008  12.8717  12.9469
    13.4175  13.4564  13.4855  13.5532  13.8123  13.9343  14.2706  14.2711
    14.6881  14.7127  14.9662  15.0511  15.6181  15.6526  15.7663  16.1467
    16.2439  16.9256  17.0794  17.2066  17.7252

          k = 0.0000 0.0000 0.1658 ( 61715 PWs)   bands (ev):

   -65.8821 -65.8816 -65.8813 -65.8811 -65.8808 -65.8806 -65.8803 -65.8798
   -30.3207 -30.3150 -30.3130 -30.3074 -30.2725 -30.2638 -30.2619 -30.2463
   -30.2459 -30.2448 -30.2290 -30.2279 -30.2209 -30.2173 -30.2137 -30.1979
   -30.1558 -30.1541 -30.1508 -30.1497 -30.1341 -30.1282 -30.1277 -30.1219
   -20.0332 -20.0330 -20.0327 -20.0326 -20.0319 -20.0317 -20.0313 -20.0312
   -20.0201 -20.0200 -20.0192 -20.0192 -20.0191 -20.0187 -20.0182 -20.0176
   -20.0172 -20.0169 -20.0163 -20.0157 -20.0148 -20.0143 -20.0134 -20.0132
   -20.0130 -20.0121 -20.0121 -20.0120 -20.0118 -20.0115 -20.0113 -20.0111
   -20.0015 -20.0014 -20.0012 -20.0011 -19.9989 -19.9987 -19.9984 -19.9983
   -19.9841 -19.9840 -19.9828 -19.9828 -19.9791 -19.9791 -19.9779 -19.9779
   -19.9764 -19.9763 -19.9753 -19.9753 -19.9721 -19.9720 -19.9710 -19.9709
    -9.7356  -9.4107  -9.3528  -9.2740  -9.0183  -8.9487  -8.9286  -8.7789
    -8.7603  -8.6999  -8.6670  -8.6362  -7.7835  -7.7694  -7.6943  -7.6540
    -7.6335  -7.6235  -7.5959  -7.5870  -7.5694  -7.5641  -7.4860  -7.4664
     1.5552   1.5670   1.5869   1.6195   1.6679   1.6900   1.7813   1.7963
     1.8506   1.8987   2.0293   2.1963   2.6518   2.7109   2.7473   2.8246
     2.8389   2.9938   4.2480   4.2699   4.5322   4.5453   4.6134   4.6636
     4.7831   4.8156   5.0125   5.0386   5.0428   5.2465   5.3591   5.4770
     5.5046   5.6082   5.6266   5.7472   5.7487   5.7677   5.8162   5.8616
     5.8812   5.9266   6.0329   6.0665   6.0906   6.1313   6.2592   6.2954
     6.2982   6.5532   6.6128   6.6762   6.8061   6.8677   6.9067   6.9211
     6.9918   7.0350   7.0722   7.1038   7.1310   7.1908   7.2581   7.2810
     7.3099   7.3682   7.9036   7.9141   8.1070   8.1596   8.2001   8.2577
    10.0567  10.1053  10.3014  10.3464  10.5678  10.6252  12.3860  12.4107
    12.4807  12.6317  12.6912  12.7200  12.7372  12.8760  12.8916  12.9548
    13.2748  13.4542  13.4658  13.4907  13.8851  13.9341  14.1410  14.1695
    14.7152  14.8239  14.9615  15.1612  15.6391  15.7027  15.7344  16.2147
    16.4272  16.9457  17.0888  17.2531  17.7775

          k = 0.0000 0.0000 0.3317 ( 61764 PWs)   bands (ev):

   -65.8820 -65.8815 -65.8814 -65.8810 -65.8809 -65.8804 -65.8804 -65.8799
   -30.3194 -30.3161 -30.3117 -30.3085 -30.2694 -30.2649 -30.2561 -30.2481
   -30.2375 -30.2357 -30.2295 -30.2172 -30.2135 -30.2095 -30.2068 -30.1923
   -30.1708 -30.1700 -30.1665 -30.1638 -30.1331 -30.1299 -30.1272 -30.1239
   -20.0331 -20.0329 -20.0328 -20.0327 -20.0318 -20.0316 -20.0315 -20.0314
   -20.0201 -20.0200 -20.0192 -20.0191 -20.0191 -20.0188 -20.0181 -20.0177
   -20.0170 -20.0166 -20.0165 -20.0160 -20.0146 -20.0142 -20.0138 -20.0135
   -20.0127 -20.0122 -20.0120 -20.0119 -20.0117 -20.0116 -20.0112 -20.0111
   -20.0015 -20.0013 -20.0012 -20.0011 -19.9988 -19.9986 -19.9985 -19.9984
   -19.9831 -19.9830 -19.9819 -19.9818 -19.9802 -19.9802 -19.9790 -19.9790
   -19.9762 -19.9761 -19.9756 -19.9755 -19.9718 -19.9718 -19.9712 -19.9711
    -9.6230  -9.4067  -9.2799  -9.1419  -9.0657  -8.9588  -8.7189  -8.7057
    -8.6795  -8.6297  -8.6073  -8.5179  -8.0486  -8.0470  -7.9429  -7.9237
    -7.6939  -7.6654  -7.5941  -7.5731  -7.5728  -7.5624  -7.5095  -7.4915
     1.5626   1.5637   1.6307   1.6500   1.7430   1.7684   1.8057   1.8434
     2.4654   2.5112   2.6279   2.7242   2.7347   2.8348   2.9038   3.0100
     3.0616   3.2260   3.8893   4.0186   4.0251   4.1108   4.3052   4.4375
     4.5918   4.6871   4.7805   4.8199   4.8648   4.9904   5.1015   5.3141
     5.3192   5.3869   5.4197   5.4912   5.6309   5.6740   5.7493   5.8283
     5.9398   5.9498   6.0081   6.0964   6.1668   6.2500   6.3103   6.3756
     6.4303   6.5434   6.5923   6.6288   6.7201   6.7204   6.7204   6.9322
     6.9660   7.0548   7.0773   7.0921   7.1328   7.1931   7.2547   7.3143
     7.3978   7.4942   7.8676   7.8771   8.0479   8.1175   8.1395   8.1620
    10.2297  10.2875  10.7225  10.8463  11.1367  11.2413  12.0626  12.1563
    12.3671  12.5465  12.6340  12.7824  12.8221  12.8419  12.8983  13.0221
    13.1275  13.3023  13.3732  13.5087  13.8342  13.9097  13.9366  13.9638
    14.8185  14.9451  15.1249  15.4470  15.6307  15.7733  16.0736  16.1253
    16.4151  17.2233  17.5449  17.6079  17.7921

          k = 0.0000 0.0000-0.4975 ( 61640 PWs)   bands (ev):

   -65.8817 -65.8817 -65.8812 -65.8812 -65.8807 -65.8807 -65.8802 -65.8802
   -30.3177 -30.3177 -30.3100 -30.3100 -30.2668 -30.2668 -30.2512 -30.2512
   -30.2324 -30.2324 -30.2244 -30.2244 -30.1919 -30.1919 -30.1910 -30.1910
   -30.1876 -30.1876 -30.1804 -30.1804 -30.1317 -30.1317 -30.1258 -30.1258
   -20.0330 -20.0330 -20.0328 -20.0328 -20.0316 -20.0316 -20.0315 -20.0315
   -20.0201 -20.0201 -20.0191 -20.0191 -20.0189 -20.0189 -20.0179 -20.0179
   -20.0168 -20.0168 -20.0163 -20.0163 -20.0142 -20.0142 -20.0139 -20.0139
   -20.0125 -20.0125 -20.0118 -20.0118 -20.0118 -20.0118 -20.0111 -20.0111
   -20.0013 -20.0013 -20.0012 -20.0012 -19.9986 -19.9986 -19.9985 -19.9985
   -19.9816 -19.9816 -19.9816 -19.9816 -19.9805 -19.9805 -19.9805 -19.9804
   -19.9759 -19.9759 -19.9758 -19.9758 -19.9715 -19.9715 -19.9715 -19.9714
    -9.4998  -9.4998  -9.1512  -9.1512  -9.0239  -9.0239  -8.6966  -8.6966
    -8.3841  -8.3841  -8.3642  -8.3642  -8.3380  -8.3379  -8.2668  -8.2668
    -7.6811  -7.6811  -7.5842  -7.5842  -7.5415  -7.5415  -7.5266  -7.5266
     1.5624   1.5624   1.6460   1.6460   1.7558   1.7558   1.8360   1.8360
     2.7647   2.7647   3.1629   3.1630   3.2833   3.2833   3.3011   3.3011
     3.4355   3.4355   3.4717   3.4717   3.7087   3.7088   3.9414   3.9414
     4.0308   4.0308   4.7440   4.7440   4.7527   4.7527   5.1555   5.1555
     5.3843   5.3843   5.5166   5.5166   5.5359   5.5360   5.7899   5.7899
     5.9869   5.9869   6.1217   6.1218   6.2278   6.2278   6.3849   6.3849
     6.4024   6.4024   6.5082   6.5082   6.6574   6.6574   6.7376   6.7376
     6.9163   6.9163   7.0653   7.0653   7.1658   7.1658   7.6429   7.6429
     7.6783   7.6783   7.7753   7.7753   7.8656   7.8656   8.1569   8.1569
    10.2645  10.2645  11.4414  11.4414  11.5590  11.5590  11.8103  11.8103
    11.9784  11.9784  12.7029  12.7029  12.9123  12.9123  13.0750  13.0750
    13.0959  13.0959  13.4708  13.4708  13.6397  13.6397  13.9500  13.9500
    14.9066  14.9066  15.4315  15.4315  15.8747  15.8747  15.9720  15.9720
    16.8182  16.8182  18.0203  18.0203  18.3165

          k = 0.0000 0.1592 0.0000 ( 61745 PWs)   bands (ev):

   -65.8822 -65.8817 -65.8812 -65.8811 -65.8808 -65.8807 -65.8802 -65.8797
   -30.3175 -30.3108 -30.3096 -30.3028 -30.2765 -30.2669 -30.2660 -30.2501
   -30.2493 -30.2486 -30.2345 -30.2268 -30.2261 -30.2193 -30.2143 -30.2016
   -30.1503 -30.1488 -30.1452 -30.1446 -30.1341 -30.1290 -30.1261 -30.1213
   -20.0331 -20.0329 -20.0326 -20.0324 -20.0320 -20.0318 -20.0314 -20.0313
   -20.0201 -20.0199 -20.0193 -20.0191 -20.0190 -20.0188 -20.0183 -20.0177
   -20.0171 -20.0168 -20.0160 -20.0154 -20.0149 -20.0145 -20.0133 -20.0131
   -20.0131 -20.0123 -20.0122 -20.0120 -20.0120 -20.0115 -20.0114 -20.0112
   -20.0016 -20.0014 -20.0011 -20.0011 -19.9989 -19.9987 -19.9984 -19.9983
   -19.9844 -19.9844 -19.9832 -19.9832 -19.9787 -19.9786 -19.9775 -19.9775
   -19.9765 -19.9764 -19.9752 -19.9752 -19.9722 -19.9721 -19.9709 -19.9708
    -9.7496  -9.4785  -9.2933  -9.2915  -9.0424  -9.0122  -8.8447  -8.8150
    -8.7984  -8.6646  -8.6305  -8.6265  -7.8134  -7.7430  -7.7160  -7.6698
    -7.6589  -7.6388  -7.6041  -7.5985  -7.4978  -7.4826  -7.4725  -7.4597
     1.4821   1.4911   1.5468   1.5484   1.5957   1.6159   1.7206   1.8834
     1.9756   2.0177   2.0660   2.2322   2.5703   2.6492   2.7769   2.8179
     2.9173   2.9863   4.1319   4.2280   4.2415   4.3723   4.7585   4.9116
     4.9480   4.9957   5.0114   5.0379   5.1653   5.1732   5.2736   5.4593
     5.5313   5.7059   5.7110   5.7346   5.7519   5.8308   5.8685   5.8937
     5.8999   5.9661   6.0125   6.0459   6.0924   6.1089   6.1749   6.2586
     6.2762   6.3679   6.4557   6.6841   6.7404   6.8844   6.9340   6.9633
     7.0552   7.0594   7.0739   7.0804   7.0875   7.1169   7.3943   7.4248
     7.4969   7.5198   7.8818   7.9031   8.0749   8.1126   8.2058   8.2223
     9.8273   9.8388  10.4858  10.4931  10.4998  10.5118  12.2805  12.4331
    12.5537  12.6059  12.6242  12.6619  12.6736  12.7047  12.7142  12.9452
    13.4327  13.4434  13.5040  13.5230  13.9342  13.9422  14.1746  14.1765
    14.7737  14.9627  15.1144  15.2167  15.6151  15.6463  16.1236  16.1574
    16.2089  16.6628  17.2174  17.3426  17.7214

          k = 0.0000 0.1592 0.1658 ( 61716 PWs)   bands (ev):

   -65.8821 -65.8817 -65.8813 -65.8810 -65.8808 -65.8806 -65.8802 -65.8798
   -30.3170 -30.3112 -30.3091 -30.3032 -30.2750 -30.2666 -30.2643 -30.2504
   -30.2458 -30.2449 -30.2289 -30.2273 -30.2223 -30.2166 -30.2152 -30.2000
   -30.1557 -30.1542 -30.1509 -30.1500 -30.1337 -30.1287 -30.1274 -30.1224
   -20.0331 -20.0329 -20.0326 -20.0325 -20.0319 -20.0318 -20.0314 -20.0313
   -20.0201 -20.0199 -20.0192 -20.0191 -20.0190 -20.0188 -20.0183 -20.0177
   -20.0170 -20.0167 -20.0161 -20.0155 -20.0148 -20.0145 -20.0135 -20.0133
   -20.0130 -20.0123 -20.0121 -20.0121 -20.0120 -20.0115 -20.0115 -20.0112
   -20.0015 -20.0014 -20.0012 -20.0011 -19.9989 -19.9987 -19.9984 -19.9983
   -19.9841 -19.9840 -19.9828 -19.9828 -19.9791 -19.9791 -19.9779 -19.9779
   -19.9764 -19.9763 -19.9753 -19.9753 -19.9721 -19.9720 -19.9710 -19.9709
    -9.7025  -9.4237  -9.3109  -9.2305  -9.0278  -8.9568  -8.8536  -8.7775
    -8.7615  -8.6557  -8.6317  -8.6030  -7.8263  -7.7678  -7.7576  -7.7305
    -7.7056  -7.6779  -7.6222  -7.6099  -7.5891  -7.5867  -7.4915  -7.4688
     1.5816   1.5868   1.5971   1.6194   1.7658   1.7966   1.8067   1.9821
     2.0286   2.0451   2.0615   2.2943   2.6602   2.7400   2.7855   2.9056
     2.9098   3.0709   4.1417   4.1734   4.2908   4.3581   4.5565   4.6020
     4.7500   4.8276   4.9284   4.9945   5.0430   5.1754   5.2734   5.3823
     5.4409   5.5101   5.6293   5.6805   5.6995   5.7626   5.8378   5.8512
     5.8829   5.9344   5.9886   6.0224   6.0303   6.1340   6.2355   6.2714
     6.3442   6.4940   6.6177   6.7210   6.8459   6.8962   6.9364   6.9554
     6.9604   7.0396   7.0734   7.0737   7.1183   7.1347   7.2626   7.2860
     7.3339   7.3660   7.9029   7.9121   8.0818   8.1188   8.1621   8.1845
    10.1026  10.1125  10.4902  10.5117  10.7021  10.7460  12.3419  12.3784
    12.4855  12.5696  12.6416  12.7011  12.7112  12.7661  12.7805  12.9634
    13.2717  13.4230  13.4499  13.4983  13.9421  13.9764  14.0408  14.0788
    14.8381  15.0730  15.1329  15.3075  15.6339  15.7010  16.1258  16.1796
    16.4026  16.8208  17.0717  17.3717  17.7798

          k = 0.0000 0.1592 0.3317 ( 61723 PWs)   bands (ev):

   -65.8819 -65.8815 -65.8815 -65.8810 -65.8809 -65.8804 -65.8804 -65.8800
   -30.3156 -30.3123 -30.3077 -30.3043 -30.2721 -30.2677 -30.2593 -30.2520
   -30.2374 -30.2358 -30.2290 -30.2184 -30.2135 -30.2103 -30.2064 -30.1940
   -30.1708 -30.1701 -30.1665 -30.1643 -30.1328 -30.1296 -30.1277 -30.1244
   -20.0330 -20.0328 -20.0327 -20.0326 -20.0318 -20.0317 -20.0315 -20.0314
   -20.0200 -20.0199 -20.0191 -20.0191 -20.0190 -20.0189 -20.0181 -20.0178
   -20.0168 -20.0165 -20.0163 -20.0158 -20.0146 -20.0143 -20.0138 -20.0136
   -20.0128 -20.0122 -20.0121 -20.0120 -20.0119 -20.0116 -20.0114 -20.0112
   -20.0014 -20.0013 -20.0012 -20.0011 -19.9988 -19.9986 -19.9985 -19.9984
   -19.9831 -19.9830 -19.9819 -19.9818 -19.9802 -19.9802 -19.9790 -19.9790
   -19.9762 -19.9761 -19.9756 -19.9755 -19.9718 -19.9718 -19.9712 -19.9711
    -9.5868  -9.3657  -9.2928  -9.0851  -9.0760  -8.8844  -8.7140  -8.6956
    -8.6439  -8.6314  -8.5880  -8.4982  -8.0551  -8.0448  -7.9577  -7.9215
    -7.7722  -7.7515  -7.6950  -7.6713  -7.5849  -7.5649  -7.5162  -7.4940
     1.6016   1.6166   1.6305   1.6496   1.9335   1.9515   2.0246   2.0562
     2.4644   2.5179   2.6316   2.7395   2.8085   2.8978   2.9151   3.0055
     3.1434   3.2953   3.8970   4.0067   4.0260   4.0620   4.3026   4.3484
     4.3899   4.6087   4.6945   4.7087   4.8098   4.9342   4.9607   5.1727
     5.1987   5.3284   5.3822   5.3918   5.5967   5.6377   5.7026   5.8276
     5.8806   5.9369   5.9656   5.9924   6.0600   6.2593   6.2601   6.3128
     6.4842   6.5849   6.6810   6.7110   6.7184   6.8001   6.8808   6.9107
     6.9659   7.0355   7.0593   7.0932   7.1091   7.1573   7.2842   7.3097
     7.4041   7.4862   7.8670   7.8751   8.0188   8.0623   8.1015   8.1212
    10.4244  10.4832  10.7342  10.8592  11.2328  11.3174  12.0654  12.1537
    12.3711  12.5228  12.6609  12.7321  12.7526  12.8210  12.8338  12.9401
    13.0111  13.2844  13.3451  13.4836  13.7248  13.8393  13.9456  13.9961
    14.9791  15.0850  15.4528  15.5711  15.7580  16.0053  16.0917  16.1096
    16.5414  17.1903  17.3027  17.5977  17.8655

          k = 0.0000 0.1592-0.4975 ( 61704 PWs)   bands (ev):

   -65.8817 -65.8817 -65.8813 -65.8812 -65.8806 -65.8806 -65.8802 -65.8802
   -30.3138 -30.3138 -30.3059 -30.3059 -30.2696 -30.2696 -30.2549 -30.2549
   -30.2320 -30.2320 -30.2250 -30.2250 -30.1920 -30.1920 -30.1913 -30.1913
   -30.1875 -30.1875 -30.1815 -30.1815 -30.1314 -30.1314 -30.1263 -30.1263
   -20.0329 -20.0328 -20.0327 -20.0327 -20.0317 -20.0317 -20.0316 -20.0316
   -20.0200 -20.0200 -20.0190 -20.0190 -20.0190 -20.0190 -20.0180 -20.0179
   -20.0165 -20.0165 -20.0162 -20.0161 -20.0143 -20.0143 -20.0140 -20.0140
   -20.0125 -20.0125 -20.0120 -20.0120 -20.0118 -20.0118 -20.0113 -20.0112
   -20.0013 -20.0013 -20.0012 -20.0012 -19.9986 -19.9986 -19.9985 -19.9985
   -19.9816 -19.9816 -19.9816 -19.9816 -19.9805 -19.9805 -19.9805 -19.9804
   -19.9759 -19.9759 -19.9758 -19.9758 -19.9715 -19.9715 -19.9715 -19.9714
    -9.4605  -9.4605  -9.1628  -9.1628  -8.9540  -8.9540  -8.6621  -8.6621
    -8.3882  -8.3882  -8.3593  -8.3593  -8.3466  -8.3466  -8.2602  -8.2602
    -7.7652  -7.7652  -7.6852  -7.6852  -7.5504  -7.5504  -7.5291  -7.5291
     1.6110   1.6110   1.6457   1.6457   1.9514   1.9514   2.0494   2.0494
     2.8346   2.8346   3.1785   3.1785   3.2936   3.2936   3.3152   3.3152
     3.4320   3.4320   3.5005   3.5005   3.6974   3.6974   3.9506   3.9506
     4.0828   4.0828   4.5116   4.5116   4.6364   4.6364   4.9479   4.9479
     5.2576   5.2576   5.4860   5.4860   5.5268   5.5268   5.7339   5.7339
     5.9075   5.9075   5.9676   5.9676   6.2176   6.2176   6.3861   6.3861
     6.4821   6.4821   6.5524   6.5524   6.7271   6.7271   6.8209   6.8209
     6.9735   6.9735   7.0600   7.0600   7.1051   7.1051   7.6463   7.6463
     7.6751   7.6751   7.7608   7.7608   7.8360   7.8360   8.1154   8.1154
    10.4667  10.4667  11.4492  11.4493  11.5582  11.5583  11.8725  11.8725
    12.0283  12.0283  12.7179  12.7179  12.7672  12.7672  13.0256  13.0256
    13.0727  13.0727  13.3561  13.3561  13.5974  13.5974  13.9619  13.9619
    15.0551  15.0551  15.7863  15.7863  15.9442  15.9442  16.0131  16.0131
    16.8649  16.8649  17.8272  17.8272  18.2530

          k = 0.0000 0.3184 0.0000 ( 61702 PWs)   bands (ev):

   -65.8821 -65.8818 -65.8811 -65.8810 -65.8809 -65.8808 -65.8801 -65.8798
   -30.3077 -30.3004 -30.2991 -30.2915 -30.2837 -30.2745 -30.2736 -30.2609
   -30.2495 -30.2489 -30.2341 -30.2298 -30.2249 -30.2179 -30.2167 -30.2067
   -30.1500 -30.1491 -30.1453 -30.1450 -30.1331 -30.1303 -30.1253 -30.1225
   -20.0328 -20.0327 -20.0323 -20.0322 -20.0321 -20.0320 -20.0316 -20.0315
   -20.0199 -20.0197 -20.0194 -20.0190 -20.0189 -20.0187 -20.0184 -20.0179
   -20.0165 -20.0163 -20.0153 -20.0152 -20.0149 -20.0149 -20.0136 -20.0135
   -20.0131 -20.0127 -20.0123 -20.0122 -20.0121 -20.0119 -20.0115 -20.0115
   -20.0015 -20.0014 -20.0011 -20.0011 -19.9989 -19.9988 -19.9984 -19.9983
   -19.9844 -19.9844 -19.9832 -19.9832 -19.9787 -19.9786 -19.9775 -19.9775
   -19.9765 -19.9764 -19.9752 -19.9752 -19.9721 -19.9721 -19.9709 -19.9709
    -9.6717  -9.5182  -9.2030  -9.1952  -9.0686  -9.0425  -8.8113  -8.8018
    -8.6332  -8.5221  -8.5076  -8.5001  -8.0383  -7.9897  -7.9680  -7.9464
    -7.6568  -7.6535  -7.6060  -7.6025  -7.4933  -7.4819  -7.4800  -7.4662
     1.4831   1.4881   1.5482   1.5513   1.6114   1.6159   1.8426   1.8802
     2.5015   2.5923   2.6285   2.6311   2.6913   2.8245   2.9924   3.0748
     3.1186   3.2340   3.7525   3.7732   3.8817   3.8976   4.2754   4.5968
     4.7005   4.8990   4.9268   4.9550   5.0182   5.0672   5.2112   5.2208
     5.2881   5.2893   5.5918   5.6385   5.7320   5.7563   5.8684   5.9247
     5.9756   6.0046   6.0400   6.0677   6.0825   6.1498   6.1910   6.2707
     6.2969   6.3335   6.4643   6.6431   6.7417   6.7951   6.9557   6.9938
     6.9944   7.0704   7.2377   7.2428   7.2674   7.2873   7.4161   7.4210
     7.5163   7.5193   7.8553   7.8912   7.9605   7.9676   7.9966   8.0325
     9.8415   9.8427  10.8987  10.9714  10.9819  10.9969  11.9697  12.1646
    12.1967  12.2670  12.5436  12.5571  12.6545  12.6744  12.7775  12.9253
    13.4725  13.4989  13.5477  13.5598  13.8166  13.9132  13.9454  13.9579
    15.1032  15.4670  15.5141  15.6064  15.6341  15.8548  16.0399  16.0962
    16.1484  17.1121  17.4210  17.6940  17.8033

          k = 0.0000 0.3184 0.1658 ( 61702 PWs)   bands (ev):

   -65.8820 -65.8817 -65.8812 -65.8810 -65.8809 -65.8807 -65.8801 -65.8799
   -30.3070 -30.3008 -30.2985 -30.2919 -30.2825 -30.2748 -30.2721 -30.2614
   -30.2456 -30.2450 -30.2286 -30.2255 -30.2253 -30.2187 -30.2143 -30.2049
   -30.1554 -30.1546 -30.1509 -30.1505 -30.1328 -30.1299 -30.1265 -30.1237
   -20.0328 -20.0326 -20.0323 -20.0322 -20.0321 -20.0320 -20.0316 -20.0315
   -20.0199 -20.0197 -20.0194 -20.0191 -20.0189 -20.0187 -20.0184 -20.0179
   -20.0164 -20.0162 -20.0154 -20.0151 -20.0150 -20.0149 -20.0138 -20.0137
   -20.0130 -20.0127 -20.0123 -20.0122 -20.0121 -20.0118 -20.0116 -20.0115
   -20.0015 -20.0014 -20.0011 -20.0011 -19.9988 -19.9987 -19.9984 -19.9983
   -19.9841 -19.9840 -19.9828 -19.9828 -19.9791 -19.9791 -19.9779 -19.9779
   -19.9764 -19.9764 -19.9753 -19.9753 -19.9721 -19.9720 -19.9710 -19.9709
    -9.6217  -9.4639  -9.2133  -9.1307  -9.0589  -8.9837  -8.7740  -8.7648
    -8.6418  -8.5165  -8.5106  -8.4856  -8.0397  -7.9969  -7.9671  -7.9527
    -7.7634  -7.7476  -7.6189  -7.6158  -7.5965  -7.5942  -7.4910  -7.4754
     1.5868   1.5876   1.6143   1.6193   1.7955   1.7974   1.9788   2.0256
     2.5131   2.6212   2.6711   2.6914   2.7216   2.8263   2.9995   3.1118
     3.1617   3.3169   3.7720   3.8423   3.8814   3.8891   4.2528   4.5556
     4.5852   4.6043   4.7134   4.9162   4.9327   5.0191   5.0651   5.0860
     5.2373   5.3125   5.4147   5.4983   5.5645   5.6596   5.7481   5.8244
     5.8728   5.9082   5.9506   6.0325   6.1294   6.1719   6.1733   6.2733
     6.4277   6.5183   6.5990   6.6974   6.7554   6.9298   6.9827   7.0523
     7.0684   7.0981   7.1959   7.2143   7.2270   7.2394   7.2732   7.3303
     7.3870   7.3962   7.8722   7.8950   7.9538   7.9741   7.9785   8.0056
    10.1253  10.1303  10.9834  11.0068  11.0637  11.1369  12.0573  12.1539
    12.2689  12.2696  12.4817  12.4857  12.6984  12.7147  12.8511  12.9725
    13.3269  13.4184  13.4748  13.5077  13.8002  13.8160  13.8880  13.9302
    15.2021  15.4921  15.6151  15.6748  15.7129  15.9147  16.0659  16.2936
    16.3386  17.0771  17.4814  17.4846  17.7891

          k = 0.0000 0.3184 0.3317 ( 61744 PWs)   bands (ev):

   -65.8818 -65.8816 -65.8814 -65.8811 -65.8808 -65.8805 -65.8803 -65.8801
   -30.3054 -30.3019 -30.2968 -30.2931 -30.2801 -30.2759 -30.2686 -30.2629
   -30.2369 -30.2360 -30.2273 -30.2214 -30.2134 -30.2118 -30.2049 -30.1980
   -30.1708 -30.1703 -30.1664 -30.1653 -30.1319 -30.1290 -30.1287 -30.1257
   -20.0327 -20.0326 -20.0324 -20.0323 -20.0320 -20.0319 -20.0317 -20.0316
   -20.0198 -20.0197 -20.0193 -20.0191 -20.0188 -20.0187 -20.0183 -20.0180
   -20.0162 -20.0160 -20.0157 -20.0153 -20.0149 -20.0147 -20.0141 -20.0140
   -20.0128 -20.0125 -20.0123 -20.0123 -20.0120 -20.0117 -20.0117 -20.0115
   -20.0014 -20.0014 -20.0012 -20.0012 -19.9987 -19.9986 -19.9985 -19.9984
   -19.9831 -19.9830 -19.9818 -19.9818 -19.9802 -19.9802 -19.9790 -19.9790
   -19.9762 -19.9761 -19.9755 -19.9755 -19.9718 -19.9718 -19.9712 -19.9712
    -9.4988  -9.3330  -9.2689  -9.1094  -8.9462  -8.7438  -8.6762  -8.6594
    -8.6364  -8.5243  -8.4873  -8.4204  -8.1081  -8.0684  -8.0381  -7.9896
    -7.9628  -7.9361  -7.9144  -7.8494  -7.5870  -7.5716  -7.5162  -7.5006
     1.6232   1.6300   1.6419   1.6487   2.3734   2.4590   2.4615   2.5486
     2.6316   2.6649   2.6901   2.8875   2.9632   2.9740   3.0220   3.1034
     3.3869   3.5107   3.8066   3.8281   3.8722   3.9389   3.9971   4.0298
     4.2522   4.4560   4.4841   4.5697   4.5826   4.7606   4.7797   4.9325
     4.9462   5.0623   5.2262   5.3171   5.3807   5.3925   5.4143   5.5523
     5.5852   5.7802   5.8132   5.9845   6.2237   6.2899   6.2976   6.3115
     6.5804   6.6602   6.6909   6.7777   6.7859   6.9084   6.9321   6.9371
     7.1056   7.1234   7.1808   7.2166   7.2369   7.2807   7.3487   7.3613
     7.4090   7.4741   7.8422   7.8552   7.9019   7.9044   7.9476   7.9712
    10.7376  10.7580  10.9842  11.0635  11.5094  11.5806  12.0308  12.1439
    12.2353  12.2913  12.3334  12.4787  12.7480  12.8241  12.8413  12.8956
    12.8976  13.2203  13.2488  13.4585  13.4980  13.7409  13.8196  13.9032
    15.3362  15.4644  15.7043  15.9854  16.1105  16.1820  16.2025  16.8267
    16.9549  16.9602  17.0867  17.6840  17.7817

          k = 0.0000 0.3184-0.4975 ( 61746 PWs)   bands (ev):

   -65.8816 -65.8816 -65.8813 -65.8813 -65.8806 -65.8805 -65.8803 -65.8803
   -30.3036 -30.3035 -30.2949 -30.2948 -30.2778 -30.2777 -30.2653 -30.2653
   -30.2307 -30.2307 -30.2268 -30.2267 -30.1921 -30.1921 -30.1918 -30.1918
   -30.1870 -30.1870 -30.1837 -30.1837 -30.1305 -30.1305 -30.1276 -30.1275
   -20.0326 -20.0326 -20.0324 -20.0324 -20.0319 -20.0319 -20.0318 -20.0318
   -20.0198 -20.0198 -20.0192 -20.0192 -20.0188 -20.0188 -20.0181 -20.0181
   -20.0160 -20.0159 -20.0157 -20.0157 -20.0145 -20.0145 -20.0144 -20.0144
   -20.0126 -20.0126 -20.0124 -20.0124 -20.0118 -20.0118 -20.0116 -20.0116
   -20.0013 -20.0013 -20.0013 -20.0013 -19.9986 -19.9986 -19.9985 -19.9985
   -19.9816 -19.9816 -19.9816 -19.9816 -19.9805 -19.9805 -19.9805 -19.9804
   -19.9759 -19.9758 -19.9758 -19.9758 -19.9715 -19.9715 -19.9715 -19.9715
    -9.3662  -9.3662  -9.2001  -9.2001  -8.7634  -8.7634  -8.5553  -8.5553
    -8.4091  -8.4091  -8.3788  -8.3788  -8.3369  -8.3369  -8.2343  -8.2343
    -7.9903  -7.9903  -7.9295  -7.9295  -7.5514  -7.5514  -7.5357  -7.5357
     1.6369   1.6369   1.6448   1.6448   2.5231   2.5231   2.6673   2.6673
     3.0271   3.0271   3.2240   3.2241   3.2734   3.2735   3.3731   3.3731
     3.4192   3.4192   3.5954   3.5954   3.6505   3.6505   3.8583   3.8583
     4.1937   4.1937   4.2316   4.2316   4.2964   4.2964   4.4752   4.4752
     5.0174   5.0174   5.1779   5.1779   5.3330   5.3330   5.4663   5.4663
     5.6257   5.6257   5.9006   5.9006   6.3201   6.3201   6.3930   6.3930
     6.6084   6.6085   6.6367   6.6368   6.7210   6.7210   6.8703   6.8703
     7.1869   7.1869   7.2235   7.2235   7.2641   7.2641   7.6402   7.6402
     7.6651   7.6651   7.6912   7.6912   7.7481   7.7481   7.9546   7.9546
    10.9692  10.9692  11.4658  11.4658  11.5622  11.5622  12.0263  12.0264
    12.1905  12.1905  12.3940  12.3940  12.7083  12.7083  12.7871  12.7871
    13.0636  13.0636  13.1142  13.1142  13.5733  13.5733  13.8433  13.8433
    15.4143  15.4143  15.8551  15.8551  16.4590  16.4590  16.6873  16.6873
    17.0313  17.0313  17.4537  17.4537  18.0324

          k = 0.0000-0.4775 0.0000 ( 61630 PWs)   bands (ev):

   -65.8819 -65.8819 -65.8810 -65.8810 -65.8809 -65.8809 -65.8800 -65.8800
   -30.2950 -30.2950 -30.2869 -30.2869 -30.2856 -30.2856 -30.2762 -30.2761
   -30.2492 -30.2492 -30.2327 -30.2327 -30.2219 -30.2219 -30.2124 -30.2124
   -30.1496 -30.1496 -30.1452 -30.1452 -30.1318 -30.1318 -30.1240 -30.1240
   -20.0325 -20.0325 -20.0323 -20.0323 -20.0319 -20.0319 -20.0318 -20.0318
   -20.0196 -20.0196 -20.0194 -20.0193 -20.0186 -20.0186 -20.0183 -20.0183
   -20.0157 -20.0157 -20.0156 -20.0156 -20.0145 -20.0144 -20.0142 -20.0142
   -20.0130 -20.0130 -20.0123 -20.0123 -20.0121 -20.0121 -20.0116 -20.0116
   -20.0015 -20.0015 -20.0011 -20.0011 -19.9988 -19.9988 -19.9983 -19.9983
   -19.9844 -19.9844 -19.9832 -19.9832 -19.9787 -19.9786 -19.9775 -19.9775
   -19.9765 -19.9765 -19.9752 -19.9752 -19.9721 -19.9721 -19.9709 -19.9709
    -9.5853  -9.5853  -9.1203  -9.1203  -9.1018  -9.1018  -8.8066  -8.8065
    -8.3357  -8.3357  -8.2805  -8.2805  -8.2734  -8.2734  -8.2650  -8.2649
    -7.6554  -7.6554  -7.6058  -7.6058  -7.4870  -7.4870  -7.4747  -7.4747
     1.4851   1.4851   1.5500   1.5500   1.6152   1.6152   1.8717   1.8718
     2.6065   2.6065   3.1674   3.1674   3.3042   3.3042   3.3524   3.3524
     3.3576   3.3576   3.5196   3.5196   3.7311   3.7311   3.8238   3.8238
     3.9208   3.9208   4.9153   4.9153   5.0285   5.0285   5.3649   5.3650
     5.4447   5.4447   5.5113   5.5113   5.5221   5.5221   5.9253   5.9253
     5.9871   5.9871   6.0217   6.0217   6.1697   6.1697   6.2469   6.2469
     6.3249   6.3249   6.4589   6.4589   6.8333   6.8333   6.8798   6.8798
     7.0391   7.0391   7.4131   7.4131   7.4906   7.4906   7.5972   7.5973
     7.6186   7.6186   7.6848   7.6848   7.7148   7.7148   7.9127   7.9127
     9.8449   9.8449  11.4486  11.4486  11.5342  11.5342  11.6048  11.6048
    11.7075  11.7075  12.5518  12.5518  12.6672  12.6672  12.8649  12.8649
    13.6041  13.6041  13.6107  13.6107  13.7040  13.7040  13.8028  13.8028
    15.5225  15.5225  15.6871  15.6871  15.8471  15.8471  15.8776  15.8776
    16.7275  16.7275  18.1853  18.1857  18.2226

          k = 0.0000-0.4775 0.1658 ( 61708 PWs)   bands (ev):

   -65.8819 -65.8819 -65.8811 -65.8811 -65.8808 -65.8808 -65.8800 -65.8800
   -30.2942 -30.2942 -30.2873 -30.2872 -30.2846 -30.2846 -30.2766 -30.2766
   -30.2453 -30.2453 -30.2276 -30.2276 -30.2225 -30.2225 -30.2102 -30.2102
   -30.1550 -30.1550 -30.1509 -30.1509 -30.1315 -30.1314 -30.1252 -30.1252
   -20.0325 -20.0324 -20.0323 -20.0323 -20.0319 -20.0319 -20.0318 -20.0318
   -20.0196 -20.0196 -20.0194 -20.0194 -20.0186 -20.0186 -20.0183 -20.0183
   -20.0157 -20.0157 -20.0155 -20.0155 -20.0146 -20.0145 -20.0143 -20.0143
   -20.0130 -20.0130 -20.0123 -20.0123 -20.0121 -20.0120 -20.0116 -20.0116
   -20.0015 -20.0015 -20.0011 -20.0011 -19.9988 -19.9988 -19.9984 -19.9984
   -19.9841 -19.9840 -19.9828 -19.9828 -19.9791 -19.9791 -19.9779 -19.9779
   -19.9764 -19.9764 -19.9753 -19.9753 -19.9720 -19.9720 -19.9710 -19.9709
    -9.5325  -9.5325  -9.1192  -9.1192  -9.0388  -9.0388  -8.7694  -8.7694
    -8.3410  -8.3409  -8.2856  -8.2855  -8.2741  -8.2741  -8.2587  -8.2587
    -7.7570  -7.7570  -7.6160  -7.6160  -7.5984  -7.5984  -7.4839  -7.4839
     1.5873   1.5873   1.6184   1.6184   1.7981   1.7981   2.0161   2.0161
     2.6962   2.6962   3.1868   3.1868   3.2933   3.2933   3.3441   3.3441
     3.4284   3.4284   3.5097   3.5097   3.7452   3.7452   3.8419   3.8419
     3.9535   3.9535   4.5789   4.5790   5.0218   5.0218   5.1672   5.1672
     5.2813   5.2813   5.4255   5.4256   5.5126   5.5126   5.6759   5.6759
     5.9101   5.9101   5.9443   5.9443   6.1649   6.1649   6.2504   6.2504
     6.5110   6.5111   6.5786   6.5786   6.8262   6.8262   7.0308   7.0308
     7.1128   7.1128   7.2536   7.2536   7.3125   7.3125   7.6092   7.6092
     7.6166   7.6167   7.6706   7.6706   7.6975   7.6975   7.9281   7.9281
    10.1329  10.1329  11.5563  11.5563  11.6103  11.6103  11.6271  11.6271
    11.7379  11.7379  12.4799  12.4800  12.7068  12.7068  12.9396  12.9397
    13.4501  13.4501  13.5454  13.5455  13.6123  13.6123  13.8176  13.8176
    15.5315  15.5315  15.8209  15.8209  15.8905  15.8905  16.1038  16.1038
    16.7848  16.7848  18.0346  18.0346  18.1740

          k = 0.0000-0.4775 0.3317 ( 61736 PWs)   bands (ev):

   -65.8817 -65.8817 -65.8812 -65.8812 -65.8807 -65.8807 -65.8802 -65.8802
   -30.2922 -30.2922 -30.2884 -30.2884 -30.2823 -30.2823 -30.2779 -30.2779
   -30.2364 -30.2364 -30.2247 -30.2247 -30.2129 -30.2129 -30.2021 -30.2021
   -30.1706 -30.1706 -30.1661 -30.1661 -30.1305 -30.1305 -30.1273 -30.1273
   -20.0324 -20.0323 -20.0322 -20.0322 -20.0321 -20.0321 -20.0319 -20.0319
   -20.0196 -20.0195 -20.0194 -20.0194 -20.0185 -20.0185 -20.0183 -20.0183
   -20.0155 -20.0155 -20.0154 -20.0153 -20.0148 -20.0148 -20.0147 -20.0146
   -20.0128 -20.0128 -20.0124 -20.0124 -20.0119 -20.0119 -20.0117 -20.0116
   -20.0014 -20.0014 -20.0012 -20.0012 -19.9987 -19.9987 -19.9985 -19.9984
   -19.9830 -19.9830 -19.9818 -19.9818 -19.9802 -19.9802 -19.9790 -19.9790
   -19.9762 -19.9761 -19.9755 -19.9755 -19.9718 -19.9718 -19.9712 -19.9712
    -9.4037  -9.4037  -9.1730  -9.1729  -8.8141  -8.8141  -8.6451  -8.6450
    -8.3757  -8.3756  -8.3088  -8.3088  -8.2689  -8.2689  -8.2343  -8.2343
    -8.0228  -8.0228  -7.8996  -7.8996  -7.5802  -7.5802  -7.5092  -7.5092
     1.6285   1.6285   1.6471   1.6471   2.4529   2.4529   2.6121   2.6121
     2.9513   2.9513   3.2201   3.2201   3.2861   3.2861   3.3699   3.3699
     3.4415   3.4415   3.5869   3.5869   3.7182   3.7183   3.9302   3.9302
     4.0087   4.0087   4.0225   4.0225   4.6280   4.6280   4.7905   4.7905
     4.9452   4.9452   5.0415   5.0415   5.4094   5.4094   5.4586   5.4586
     5.5702   5.5702   5.8484   5.8484   6.2875   6.2875   6.3229   6.3229
     6.6364   6.6364   6.7290   6.7290   6.8233   6.8233   6.9598   6.9598
     7.2120   7.2120   7.3021   7.3021   7.3344   7.3345   7.5845   7.5845
     7.6240   7.6240   7.6435   7.6435   7.6783   7.6783   7.8897   7.8897
    10.7721  10.7721  11.5946  11.5946  11.6662  11.6662  11.9234  11.9234
    12.0191  12.0191  12.1570  12.1570  12.8301  12.8301  12.8910  12.8911
    13.0371  13.0371  13.2410  13.2410  13.6199  13.6199  13.7674  13.7674
    15.5799  15.5799  15.7876  15.7876  16.4266  16.4267  16.7962  16.7962
    16.9879  16.9879  17.5432  17.5433  18.0179

          k = 0.0000-0.4775-0.4975 ( 61736 PWs)   bands (ev):

   -65.8815 -65.8815 -65.8815 -65.8815 -65.8804 -65.8804 -65.8804 -65.8804
   -30.2901 -30.2901 -30.2901 -30.2901 -30.2799 -30.2799 -30.2799 -30.2799
   -30.2289 -30.2289 -30.2289 -30.2289 -30.1921 -30.1921 -30.1921 -30.1920
   -30.1858 -30.1858 -30.1858 -30.1858 -30.1291 -30.1291 -30.1291 -30.1291
   -20.0322 -20.0322 -20.0322 -20.0322 -20.0321 -20.0321 -20.0321 -20.0321
   -20.0195 -20.0195 -20.0195 -20.0195 -20.0184 -20.0184 -20.0184 -20.0184
   -20.0152 -20.0152 -20.0152 -20.0151 -20.0150 -20.0150 -20.0150 -20.0150
   -20.0126 -20.0126 -20.0126 -20.0126 -20.0118 -20.0118 -20.0118 -20.0118
   -20.0013 -20.0013 -20.0013 -20.0013 -19.9986 -19.9986 -19.9986 -19.9986
   -19.9816 -19.9816 -19.9816 -19.9816 -19.9805 -19.9805 -19.9805 -19.9804
   -19.9758 -19.9758 -19.9758 -19.9758 -19.9715 -19.9715 -19.9715 -19.9715
    -9.2686  -9.2685  -9.2685  -9.2685  -8.5305  -8.5305  -8.5305  -8.5305
    -8.4316  -8.4316  -8.4316  -8.4316  -8.2309  -8.2309  -8.2309  -8.2309
    -8.1506  -8.1506  -8.1506  -8.1506  -7.5444  -7.5444  -7.5444  -7.5444
     1.6430   1.6430   1.6430   1.6430   3.1294   3.1294   3.1294   3.1294
     3.2486   3.2487   3.2487   3.2487   3.3728   3.3728   3.3728   3.3728
     3.4472   3.4472   3.4472   3.4472   3.6921   3.6921   3.6921   3.6921
     3.8353   3.8353   3.8353   3.8353   4.4909   4.4909   4.4909   4.4909
     4.6088   4.6088   4.6088   4.6088   5.4163   5.4163   5.4163   5.4163
     5.7037   5.7037   5.7037   5.7037   6.3794   6.3794   6.3794   6.3794
     6.6505   6.6505   6.6505   6.6505   6.7749   6.7750   6.7750   6.7750
     7.4256   7.4256   7.4256   7.4256   7.5229   7.5229   7.5229   7.5229
     7.6190   7.6190   7.6190   7.6190   7.7315   7.7315   7.7315   7.7315
    11.4322  11.4322  11.4322  11.4322  11.7172  11.7172  11.7172  11.7172
    12.4395  12.4395  12.4395  12.4395  12.4985  12.4985  12.4985  12.4985
    13.0378  13.0378  13.0378  13.0378  13.6648  13.6648  13.6648  13.6648
    15.6881  15.6881  15.6881  15.6881  17.0555  17.0555  17.0556  17.0556
    17.4772  17.4772  17.4772  17.4773  17.6200

          k = 0.1667 0.0000 0.0000 ( 61690 PWs)   bands (ev):

   -65.8821 -65.8816 -65.8812 -65.8812 -65.8807 -65.8807 -65.8803 -65.8798
   -30.3206 -30.3140 -30.3139 -30.3074 -30.2729 -30.2650 -30.2611 -30.2468
   -30.2464 -30.2463 -30.2351 -30.2252 -30.2214 -30.2159 -30.2086 -30.1965
   -30.1526 -30.1512 -30.1447 -30.1439 -30.1405 -30.1344 -30.1306 -30.1252
   -20.0332 -20.0331 -20.0327 -20.0326 -20.0319 -20.0318 -20.0313 -20.0312
   -20.0201 -20.0199 -20.0193 -20.0191 -20.0191 -20.0187 -20.0183 -20.0177
   -20.0172 -20.0169 -20.0162 -20.0157 -20.0148 -20.0144 -20.0133 -20.0131
   -20.0129 -20.0122 -20.0122 -20.0118 -20.0117 -20.0116 -20.0113 -20.0111
   -20.0014 -20.0012 -20.0009 -20.0009 -19.9991 -19.9989 -19.9985 -19.9984
   -19.9844 -19.9843 -19.9833 -19.9833 -19.9786 -19.9786 -19.9776 -19.9776
   -19.9762 -19.9761 -19.9750 -19.9749 -19.9725 -19.9724 -19.9712 -19.9712
    -9.7365  -9.4152  -9.3496  -9.2805  -9.0501  -8.9303  -8.9179  -8.7842
    -8.7558  -8.6919  -8.6729  -8.6285  -7.7956  -7.7230  -7.6759  -7.6632
    -7.6374  -7.6235  -7.6045  -7.5770  -7.5679  -7.5654  -7.5092  -7.4764
     1.5400   1.5405   1.5442   1.5505   1.6539   1.6917   1.7822   1.7913
     1.8543   1.9693   2.0745   2.2245   2.6424   2.7451   2.7466   2.7914
     2.8972   2.9458   4.2059   4.3261   4.4939   4.5273   4.6314   4.6920
     4.7360   4.9328   4.9535   4.9679   4.9852   5.2397   5.3422   5.5668
     5.5852   5.6505   5.6598   5.6920   5.7582   5.7772   5.7873   5.8693
     5.9164   5.9536   6.0044   6.0447   6.1257   6.1597   6.2135   6.2556
     6.4089   6.5202   6.5587   6.6421   6.8739   6.8789   6.9221   6.9282
     6.9779   7.0266   7.0441   7.0478   7.0891   7.1236   7.2806   7.2980
     7.3548   7.3566   7.9041   7.9162   8.0634   8.1296   8.2593   8.3027
    10.0924  10.1281  10.3262  10.3635  10.5170  10.6029  12.3104  12.4983
    12.5111  12.5803  12.6092  12.7343  12.7547  12.8098  12.9483  13.0177
    13.3018  13.3862  13.4775  13.5556  13.8320  13.9084  14.2657  14.2683
    14.6430  14.7088  14.9787  15.1720  15.6438  15.6573  15.7255  16.1220
    16.5194  16.8477  17.0755  17.3835  17.7780

          k = 0.1667 0.0000 0.1658 ( 61714 PWs)   bands (ev):

   -65.8821 -65.8815 -65.8812 -65.8812 -65.8807 -65.8806 -65.8803 -65.8798
   -30.3200 -30.3144 -30.3134 -30.3078 -30.2710 -30.2623 -30.2615 -30.2469
   -30.2432 -30.2421 -30.2294 -30.2222 -30.2215 -30.2139 -30.2095 -30.1951
   -30.1575 -30.1558 -30.1506 -30.1493 -30.1402 -30.1341 -30.1325 -30.1267
   -20.0332 -20.0330 -20.0327 -20.0326 -20.0319 -20.0318 -20.0313 -20.0313
   -20.0201 -20.0199 -20.0193 -20.0191 -20.0191 -20.0187 -20.0183 -20.0177
   -20.0172 -20.0169 -20.0163 -20.0158 -20.0147 -20.0143 -20.0134 -20.0132
   -20.0129 -20.0122 -20.0122 -20.0118 -20.0117 -20.0116 -20.0113 -20.0111
   -20.0013 -20.0012 -20.0010 -20.0009 -19.9990 -19.9988 -19.9986 -19.9985
   -19.9840 -19.9840 -19.9829 -19.9829 -19.9790 -19.9790 -19.9780 -19.9780
   -19.9761 -19.9761 -19.9751 -19.9750 -19.9724 -19.9723 -19.9713 -19.9712
    -9.6890  -9.3560  -9.2977  -9.2926  -8.9646  -8.9395  -8.9334  -8.7441
    -8.7233  -8.6863  -8.6418  -8.6336  -7.8072  -7.7631  -7.7146  -7.7089
    -7.6786  -7.6645  -7.6341  -7.6279  -7.5949  -7.5716  -7.5678  -7.5635
     1.6378   1.6775   1.6826   1.7332   1.7372   1.7757   1.8017   1.8590
     1.9033   1.9709   2.1342   2.2864   2.7334   2.7989   2.8286   2.8418
     2.9373   2.9913   4.2022   4.2435   4.5041   4.5042   4.6239   4.6458
     4.6761   4.6809   4.7870   4.7938   4.9531   5.0503   5.3247   5.4171
     5.4628   5.5205   5.5383   5.6703   5.7090   5.7429   5.7778   5.8686
     5.8749   5.9017   5.9114   5.9381   5.9984   6.2170   6.3008   6.3566
     6.5110   6.6107   6.7153   6.7965   6.8011   6.8217   6.8625   6.9110
     6.9224   6.9379   7.0122   7.0494   7.0618   7.0967   7.1206   7.2122
     7.3796   7.4314   7.9110   7.9163   8.0812   8.1338   8.2202   8.2587
    10.2650  10.3150  10.5260  10.5623  10.5878  10.6938  12.3571  12.4488
    12.5175  12.5506  12.6422  12.6830  12.8026  12.8836  12.9472  13.0150
    13.2306  13.3831  13.3995  13.5083  13.8707  13.9026  14.1366  14.1672
    14.6793  14.8179  14.9722  15.2904  15.6950  15.7070  15.7195  16.3952
    16.4859  17.0120  17.0794  17.2431  17.8130

          k = 0.1667 0.0000 0.3317 ( 61735 PWs)   bands (ev):

   -65.8819 -65.8814 -65.8814 -65.8810 -65.8809 -65.8805 -65.8805 -65.8800
   -30.3187 -30.3155 -30.3121 -30.3089 -30.2675 -30.2627 -30.2566 -30.2487
   -30.2332 -30.2330 -30.2237 -30.2143 -30.2130 -30.2103 -30.2048 -30.1901
   -30.1719 -30.1706 -30.1662 -30.1631 -30.1393 -30.1356 -30.1330 -30.1293
   -20.0331 -20.0330 -20.0328 -20.0327 -20.0318 -20.0317 -20.0315 -20.0314
   -20.0201 -20.0200 -20.0192 -20.0192 -20.0190 -20.0188 -20.0181 -20.0178
   -20.0170 -20.0166 -20.0165 -20.0160 -20.0145 -20.0142 -20.0138 -20.0136
   -20.0127 -20.0122 -20.0120 -20.0118 -20.0116 -20.0116 -20.0112 -20.0111
   -20.0013 -20.0011 -20.0010 -20.0009 -19.9989 -19.9988 -19.9987 -19.9985
   -19.9830 -19.9830 -19.9819 -19.9819 -19.9801 -19.9801 -19.9791 -19.9791
   -19.9759 -19.9758 -19.9753 -19.9752 -19.9722 -19.9721 -19.9715 -19.9715
    -9.5724  -9.3514  -9.2129  -9.1594  -8.9818  -8.9710  -8.7221  -8.6831
    -8.6476  -8.6053  -8.5994  -8.5256  -8.0393  -8.0365  -7.9590  -7.9364
    -7.7391  -7.6975  -7.6741  -7.6371  -7.6055  -7.5973  -7.5899  -7.5768
     1.6481   1.6683   1.7348   1.7620   1.8706   1.8888   1.9517   1.9762
     2.4717   2.5176   2.6136   2.7142   2.8211   2.9105   3.0051   3.0782
     3.1198   3.2304   3.9114   4.0514   4.0826   4.0849   4.2966   4.4602
     4.4982   4.6176   4.6734   4.7016   4.8166   4.9464   4.9648   5.0610
     5.1567   5.2585   5.3040   5.3989   5.4537   5.5205   5.7612   5.7881
     5.8493   5.8958   5.9784   5.9989   6.0276   6.1611   6.2443   6.2454
     6.5469   6.5694   6.6279   6.6925   6.6947   6.8080   6.8781   6.9005
     6.9058   7.0286   7.0306   7.0453   7.2138   7.2209   7.3522   7.3594
     7.4343   7.5003   7.8769   7.8886   8.0535   8.1183   8.1301   8.1350
    10.4675  10.4847  10.8782  10.9838  11.1465  11.2678  12.1294  12.2090
    12.3902  12.4939  12.6377  12.6495  12.7772  12.8749  12.9565  13.0696
    13.1087  13.2757  13.3003  13.4691  13.8097  13.8301  13.9159  13.9685
    14.8014  14.9516  15.1127  15.5909  15.5999  15.9296  16.1050  16.3952
    16.5529  17.1874  17.4902  17.5993  17.6997

          k = 0.1667 0.0000-0.4975 ( 61752 PWs)   bands (ev):

   -65.8817 -65.8816 -65.8812 -65.8811 -65.8808 -65.8807 -65.8803 -65.8802
   -30.3170 -30.3170 -30.3105 -30.3105 -30.2647 -30.2647 -30.2518 -30.2518
   -30.2270 -30.2270 -30.2210 -30.2210 -30.1923 -30.1922 -30.1918 -30.1918
   -30.1870 -30.1870 -30.1792 -30.1791 -30.1378 -30.1378 -30.1314 -30.1314
   -20.0330 -20.0329 -20.0328 -20.0328 -20.0316 -20.0316 -20.0315 -20.0315
   -20.0200 -20.0200 -20.0192 -20.0192 -20.0189 -20.0189 -20.0180 -20.0180
   -20.0167 -20.0167 -20.0163 -20.0163 -20.0142 -20.0142 -20.0139 -20.0139
   -20.0125 -20.0124 -20.0119 -20.0119 -20.0117 -20.0116 -20.0111 -20.0111
   -20.0012 -20.0011 -20.0010 -20.0010 -19.9988 -19.9988 -19.9987 -19.9986
   -19.9816 -19.9816 -19.9816 -19.9815 -19.9806 -19.9805 -19.9805 -19.9805
   -19.9756 -19.9756 -19.9755 -19.9755 -19.9718 -19.9718 -19.9718 -19.9718
    -9.4455  -9.4455  -9.0721  -9.0720  -9.0386  -9.0386  -8.6649  -8.6649
    -8.3914  -8.3914  -8.3712  -8.3712  -8.3238  -8.3237  -8.2687  -8.2687
    -7.7172  -7.7172  -7.6466  -7.6466  -7.6097  -7.6097  -7.5884  -7.5884
     1.6562   1.6562   1.7485   1.7485   1.8897   1.8897   1.9829   1.9829
     2.8427   2.8427   3.1811   3.1811   3.2534   3.2535   3.3547   3.3547
     3.4330   3.4330   3.5452   3.5452   3.7605   3.7605   3.9650   3.9651
     4.0223   4.0223   4.5682   4.5682   4.7278   4.7278   5.0947   5.0947
     5.1756   5.1756   5.2560   5.2560   5.3987   5.3987   5.7982   5.7982
     5.8982   5.8982   5.9655   5.9655   6.0466   6.0466   6.1761   6.1761
     6.4842   6.4842   6.6206   6.6206   6.7450   6.7451   6.8977   6.8977
     7.0062   7.0062   7.0633   7.0633   7.1308   7.1308   7.6757   7.6757
     7.7075   7.7075   7.7952   7.7952   7.8677   7.8677   8.1316   8.1316
    10.4938  10.4939  11.5265  11.5265  11.6406  11.6406  11.8254  11.8254
    11.9952  11.9952  12.6235  12.6235  12.9501  12.9501  13.0008  13.0008
    13.1330  13.1330  13.4574  13.4574  13.5539  13.5540  13.9230  13.9230
    14.9040  14.9040  15.4090  15.4090  16.0140  16.0140  16.1993  16.1993
    16.8818  16.8818  17.9755  17.9756  18.1200

          k = 0.1667 0.1592 0.0000 ( 61722 PWs)   bands (ev):

   -65.8821 -65.8816 -65.8812 -65.8811 -65.8807 -65.8807 -65.8802 -65.8798
   -30.3168 -30.3102 -30.3099 -30.3033 -30.2753 -30.2672 -30.2640 -30.2504
   -30.2469 -30.2464 -30.2350 -30.2269 -30.2209 -30.2152 -30.2098 -30.1985
   -30.1525 -30.1513 -30.1448 -30.1441 -30.1402 -30.1349 -30.1304 -30.1257
   -20.0331 -20.0330 -20.0326 -20.0324 -20.0320 -20.0319 -20.0314 -20.0313
   -20.0200 -20.0199 -20.0192 -20.0192 -20.0190 -20.0188 -20.0184 -20.0178
   -20.0170 -20.0168 -20.0160 -20.0155 -20.0148 -20.0145 -20.0134 -20.0132
   -20.0129 -20.0123 -20.0122 -20.0119 -20.0119 -20.0117 -20.0114 -20.0113
   -20.0014 -20.0012 -20.0009 -20.0009 -19.9991 -19.9989 -19.9985 -19.9984
   -19.9844 -19.9843 -19.9833 -19.9833 -19.9786 -19.9786 -19.9776 -19.9776
   -19.9762 -19.9761 -19.9750 -19.9749 -19.9725 -19.9724 -19.9712 -19.9712
    -9.7037  -9.4280  -9.3107  -9.2341  -9.0583  -8.9273  -8.8551  -8.7798
    -8.7572  -8.6506  -8.6354  -8.5977  -7.8325  -7.7543  -7.7358  -7.7114
    -7.7019  -7.6804  -7.6411  -7.6141  -7.5906  -7.5738  -7.5076  -7.4821
     1.5439   1.5499   1.5524   1.5524   1.7892   1.8115   1.8541   1.9883
     2.0094   2.0770   2.1027   2.3109   2.6518   2.7381   2.8265   2.8678
     2.9762   3.0147   4.0978   4.1904   4.2863   4.4076   4.5196   4.6261
     4.7213   4.8629   4.9224   4.9630   5.0401   5.1715   5.1940   5.4303
     5.5100   5.5692   5.6006   5.6853   5.7101   5.7358   5.8009   5.8494
     5.9252   5.9775   6.0124   6.0190   6.0724   6.1427   6.1632   6.2580
     6.3871   6.4910   6.5686   6.6738   6.8348   6.8725   6.9433   6.9529
     6.9611   7.0236   7.0551   7.1077   7.1129   7.1355   7.2787   7.2955
     7.3550   7.3650   7.9016   7.9155   8.0491   8.0934   8.2070   8.2234
    10.1094  10.1383  10.4922  10.4995  10.6852  10.7491  12.2473  12.4985
    12.5235  12.5640  12.5947  12.6255  12.6707  12.7873  12.7960  13.0062
    13.2959  13.3989  13.4860  13.5220  13.8869  13.8904  14.1720  14.1730
    14.8002  14.9622  15.1693  15.3188  15.6472  15.6507  16.0539  16.1608
    16.4841  16.8057  16.9876  17.4806  17.7856

          k = 0.1667 0.1592 0.1658 ( 61697 PWs)   bands (ev):

   -65.8820 -65.8816 -65.8812 -65.8811 -65.8808 -65.8807 -65.8803 -65.8799
   -30.3163 -30.3105 -30.3095 -30.3037 -30.2736 -30.2649 -30.2643 -30.2509
   -30.2432 -30.2422 -30.2294 -30.2232 -30.2214 -30.2134 -30.2105 -30.1970
   -30.1574 -30.1559 -30.1506 -30.1496 -30.1399 -30.1346 -30.1323 -30.1272
   -20.0331 -20.0329 -20.0326 -20.0325 -20.0319 -20.0318 -20.0314 -20.0313
   -20.0200 -20.0199 -20.0192 -20.0191 -20.0190 -20.0188 -20.0183 -20.0178
   -20.0170 -20.0167 -20.0160 -20.0156 -20.0148 -20.0145 -20.0135 -20.0133
   -20.0129 -20.0123 -20.0122 -20.0119 -20.0119 -20.0116 -20.0114 -20.0113
   -20.0013 -20.0012 -20.0010 -20.0009 -19.9990 -19.9989 -19.9986 -19.9985
   -19.9840 -19.9840 -19.9829 -19.9829 -19.9790 -19.9790 -19.9780 -19.9780
   -19.9761 -19.9761 -19.9751 -19.9750 -19.9724 -19.9723 -19.9713 -19.9712
    -9.6547  -9.3690  -9.2518  -9.2493  -8.9729  -8.9431  -8.8645  -8.7420
    -8.7245  -8.6441  -8.6088  -8.6023  -7.8415  -7.7641  -7.7583  -7.7425
    -7.7068  -7.7036  -7.6972  -7.6848  -7.6364  -7.6053  -7.5903  -7.5720
     1.7201   1.7338   1.7689   1.7903   1.8050   1.8190   1.8629   1.9858
     2.0430   2.0984   2.1358   2.3564   2.7445   2.8336   2.8766   2.9101
     3.0090   3.0652   4.1069   4.1650   4.3006   4.3839   4.5421   4.6028
     4.6423   4.6790   4.7571   4.8175   4.8780   4.9775   5.1830   5.3263
     5.4143   5.4350   5.5286   5.5458   5.6170   5.6824   5.7007   5.7752
     5.8939   5.9146   5.9494   5.9861   6.0128   6.0524   6.2906   6.3537
     6.5196   6.5412   6.7129   6.7581   6.8311   6.8499   6.9018   6.9159
     6.9639   6.9766   7.0407   7.0579   7.0833   7.1169   7.1598   7.2255
     7.3881   7.4294   7.9084   7.9162   8.0564   8.0979   8.1703   8.1856
    10.3022  10.3482  10.6643  10.6920  10.7283  10.8167  12.3053  12.4442
    12.5124  12.5619  12.6027  12.6205  12.7428  12.7910  12.8346  13.0166
    13.2162  13.3452  13.4049  13.4942  13.8725  13.9088  14.0374  14.0821
    14.8694  15.0911  15.1690  15.4194  15.7055  15.7155  16.0833  16.3766
    16.4522  16.9345  17.1301  17.2086  17.8266

          k = 0.1667 0.1592 0.3317 ( 61691 PWs)   bands (ev):

   -65.8819 -65.8814 -65.8814 -65.8809 -65.8809 -65.8805 -65.8805 -65.8800
   -30.3149 -30.3116 -30.3081 -30.3048 -30.2704 -30.2657 -30.2598 -30.2526
   -30.2331 -30.2329 -30.2232 -30.2149 -30.2134 -30.2110 -30.2043 -30.1918
   -30.1719 -30.1708 -30.1662 -30.1637 -30.1390 -30.1353 -30.1335 -30.1298
   -20.0330 -20.0328 -20.0327 -20.0326 -20.0318 -20.0317 -20.0315 -20.0314
   -20.0200 -20.0199 -20.0192 -20.0191 -20.0191 -20.0188 -20.0182 -20.0179
   -20.0168 -20.0165 -20.0162 -20.0159 -20.0146 -20.0143 -20.0138 -20.0137
   -20.0127 -20.0123 -20.0121 -20.0120 -20.0118 -20.0117 -20.0114 -20.0112
   -20.0012 -20.0011 -20.0010 -20.0010 -19.9989 -19.9988 -19.9987 -19.9986
   -19.9830 -19.9830 -19.9819 -19.9819 -19.9801 -19.9801 -19.9791 -19.9791
   -19.9759 -19.9758 -19.9753 -19.9752 -19.9721 -19.9721 -19.9715 -19.9715
    -9.5341  -9.3066  -9.2260  -9.1032  -8.9924  -8.8968  -8.7308  -8.6594
    -8.6165  -8.6061  -8.5826  -8.5055  -8.0463  -8.0344  -7.9740  -7.9340
    -7.7815  -7.7582  -7.7106  -7.6819  -7.6802  -7.6671  -7.6190  -7.6047
     1.7871   1.7986   1.8660   1.8834   1.9479   1.9651   2.0457   2.0974
     2.4711   2.5244   2.6164   2.7271   2.8958   2.9719   3.0299   3.1153
     3.1563   3.2954   3.9180   4.0230   4.0640   4.0819   4.3130   4.3520
     4.4058   4.5466   4.6010   4.6818   4.7300   4.8706   4.9106   5.0049
     5.0180   5.1295   5.1973   5.2995   5.3707   5.4356   5.5955   5.7489
     5.7891   5.8311   5.9645   5.9778   5.9866   6.0149   6.1808   6.2349
     6.5060   6.6607   6.6857   6.7710   6.8143   6.8260   6.8703   6.9319
     6.9610   7.0213   7.0690   7.1274   7.2112   7.2373   7.3482   7.3691
     7.4363   7.4928   7.8777   7.8859   8.0149   8.0619   8.0929   8.0988
    10.6250  10.6408  10.9066  10.9992  11.2429  11.3392  12.1316  12.2049
    12.3965  12.4858  12.6548  12.6840  12.7239  12.7953  12.8911  12.9683
    12.9905  13.2217  13.2857  13.4539  13.7135  13.7372  13.9144  13.9399
    15.0226  15.1461  15.4436  15.6906  15.9186  15.9849  16.1258  16.3669
    16.6593  17.1630  17.3549  17.5604  17.6691

          k = 0.1667 0.1592-0.4975 ( 61720 PWs)   bands (ev):

   -65.8816 -65.8816 -65.8812 -65.8812 -65.8807 -65.8807 -65.8803 -65.8803
   -30.3132 -30.3131 -30.3064 -30.3064 -30.2676 -30.2676 -30.2555 -30.2554
   -30.2266 -30.2266 -30.2214 -30.2214 -30.1923 -30.1923 -30.1921 -30.1920
   -30.1868 -30.1868 -30.1802 -30.1802 -30.1375 -30.1374 -30.1320 -30.1320
   -20.0328 -20.0328 -20.0327 -20.0327 -20.0317 -20.0317 -20.0316 -20.0316
   -20.0199 -20.0199 -20.0191 -20.0191 -20.0189 -20.0189 -20.0180 -20.0180
   -20.0165 -20.0165 -20.0162 -20.0162 -20.0143 -20.0142 -20.0140 -20.0140
   -20.0125 -20.0125 -20.0120 -20.0120 -20.0118 -20.0118 -20.0113 -20.0113
   -20.0011 -20.0011 -20.0010 -20.0010 -19.9988 -19.9988 -19.9987 -19.9987
   -19.9816 -19.9816 -19.9816 -19.9815 -19.9806 -19.9805 -19.9805 -19.9805
   -19.9756 -19.9756 -19.9755 -19.9755 -19.9718 -19.9718 -19.9718 -19.9718
    -9.4032  -9.4032  -9.0841  -9.0841  -8.9691  -8.9691  -8.6332  -8.6331
    -8.3962  -8.3962  -8.3717  -8.3717  -8.3258  -8.3258  -8.2628  -8.2627
    -7.7728  -7.7728  -7.6966  -7.6966  -7.6533  -7.6532  -7.6350  -7.6350
     1.7932   1.7932   1.8844   1.8844   1.9611   1.9611   2.0928   2.0928
     2.9119   2.9119   3.1987   3.1987   3.2728   3.2728   3.3600   3.3600
     3.4338   3.4338   3.5704   3.5704   3.7497   3.7497   3.9766   3.9767
     4.0727   4.0727   4.4987   4.4987   4.5648   4.5648   4.9050   4.9050
     5.0634   5.0634   5.2078   5.2078   5.2907   5.2907   5.6778   5.6779
     5.8716   5.8716   5.8780   5.8780   6.0076   6.0076   6.0476   6.0476
     6.6037   6.6037   6.7465   6.7465   6.7911   6.7911   6.9024   6.9024
     7.0259   7.0259   7.0761   7.0761   7.1782   7.1782   7.6760   7.6760
     7.7044   7.7044   7.7727   7.7727   7.8370   7.8370   8.0940   8.0940
    10.6640  10.6641  11.5346  11.5346  11.6412  11.6412  11.8881  11.8881
    12.0441  12.0441  12.6438  12.6438  12.8237  12.8237  12.9507  12.9507
    13.1026  13.1026  13.3427  13.3427  13.4913  13.4913  13.9066  13.9066
    15.1109  15.1109  15.7689  15.7689  16.1084  16.1084  16.1950  16.1950
    16.9207  16.9207  17.8247  17.8247  18.1020

          k = 0.1667 0.3184 0.0000 ( 61732 PWs)   bands (ev):

   -65.8820 -65.8817 -65.8811 -65.8811 -65.8808 -65.8808 -65.8802 -65.8799
   -30.3068 -30.2998 -30.2994 -30.2920 -30.2825 -30.2743 -30.2726 -30.2614
   -30.2471 -30.2467 -30.2346 -30.2305 -30.2193 -30.2140 -30.2118 -30.2032
   -30.1523 -30.1515 -30.1449 -30.1446 -30.1392 -30.1362 -30.1296 -30.1269
   -20.0328 -20.0327 -20.0323 -20.0322 -20.0322 -20.0320 -20.0316 -20.0315
   -20.0198 -20.0196 -20.0193 -20.0190 -20.0190 -20.0187 -20.0185 -20.0180
   -20.0165 -20.0163 -20.0154 -20.0151 -20.0150 -20.0148 -20.0137 -20.0136
   -20.0130 -20.0127 -20.0122 -20.0122 -20.0121 -20.0119 -20.0116 -20.0115
   -20.0013 -20.0013 -20.0009 -20.0009 -19.9990 -19.9989 -19.9985 -19.9985
   -19.9844 -19.9843 -19.9833 -19.9833 -19.9786 -19.9786 -19.9776 -19.9776
   -19.9762 -19.9762 -19.9750 -19.9749 -19.9724 -19.9724 -19.9712 -19.9712
    -9.6235  -9.4676  -9.2217  -9.1251  -9.0852  -8.9585  -8.7729  -8.7610
    -8.6432  -8.5143  -8.5080  -8.4875  -8.0389  -7.9872  -7.9761  -7.9548
    -7.7388  -7.7247  -7.6384  -7.6232  -7.5951  -7.5804  -7.5031  -7.4897
     1.5456   1.5498   1.5540   1.5561   1.8413   1.8517   2.0143   2.0672
     2.5138   2.6180   2.6734   2.6811   2.7203   2.8088   3.0856   3.0897
     3.2186   3.2282   3.7498   3.7618   3.9330   3.9493   4.2582   4.5205
     4.6019   4.6767   4.7466   4.8532   4.9159   4.9587   5.0678   5.1270
     5.2113   5.2188   5.4774   5.5414   5.5750   5.6997   5.7560   5.8033
     5.8834   5.9282   5.9525   6.0197   6.1315   6.1601   6.2045   6.2575
     6.3977   6.4715   6.5485   6.6942   6.7693   6.9688   6.9905   7.0277
     7.0787   7.0906   7.1798   7.2379   7.2395   7.2477   7.3147   7.3185
     7.3787   7.4170   7.8629   7.9040   7.9438   7.9680   7.9980   8.0262
    10.1319  10.1461  10.9020  10.9514  11.1347  11.1632  11.9629  12.1921
    12.2590  12.3232  12.5504  12.5670  12.5951  12.6248  12.8532  12.9768
    13.3354  13.4413  13.5369  13.5423  13.7243  13.7923  13.9422  13.9542
    15.2429  15.4628  15.5666  15.6329  15.7368  15.9081  16.0102  16.2906
    16.3696  17.0746  17.3907  17.5166  17.9023

          k = 0.1667 0.3184 0.1658 ( 61741 PWs)   bands (ev):

   -65.8819 -65.8817 -65.8811 -65.8810 -65.8809 -65.8808 -65.8802 -65.8800
   -30.3062 -30.3000 -30.2989 -30.2924 -30.2813 -30.2733 -30.2724 -30.2619
   -30.2431 -30.2424 -30.2291 -30.2260 -30.2199 -30.2143 -30.2103 -30.2016
   -30.1571 -30.1563 -30.1506 -30.1501 -30.1389 -30.1359 -30.1314 -30.1285
   -20.0328 -20.0327 -20.0323 -20.0322 -20.0321 -20.0320 -20.0316 -20.0315
   -20.0198 -20.0196 -20.0193 -20.0190 -20.0189 -20.0187 -20.0184 -20.0180
   -20.0164 -20.0162 -20.0155 -20.0152 -20.0150 -20.0148 -20.0138 -20.0137
   -20.0129 -20.0126 -20.0123 -20.0121 -20.0121 -20.0119 -20.0116 -20.0115
   -20.0013 -20.0012 -20.0009 -20.0009 -19.9990 -19.9989 -19.9986 -19.9985
   -19.9840 -19.9840 -19.9829 -19.9829 -19.9790 -19.9790 -19.9780 -19.9780
   -19.9761 -19.9761 -19.9750 -19.9750 -19.9724 -19.9723 -19.9713 -19.9713
    -9.5709  -9.4094  -9.1499  -9.1432  -9.0006  -8.9751  -8.7378  -8.7283
    -8.6523  -8.5090  -8.4947  -8.4893  -8.0416  -7.9930  -7.9758  -7.9608
    -7.7589  -7.7498  -7.7097  -7.7046  -7.6369  -7.6214  -7.5931  -7.5792
     1.7241   1.7313   1.7988   1.8025   1.8478   1.8582   2.0639   2.1279
     2.5213   2.6174   2.6694   2.7590   2.7903   2.8397   3.0986   3.1698
     3.2153   3.3097   3.7658   3.8231   3.9357   3.9448   4.2395   4.5429
     4.5714   4.6145   4.6552   4.7052   4.7967   4.9136   4.9440   5.0090
     5.0561   5.1330   5.3316   5.3510   5.5534   5.5581   5.5739   5.6209
     5.8164   5.8403   5.8744   5.9083   5.9826   5.9900   6.3195   6.3444
     6.5532   6.5966   6.6909   6.7560   6.8949   6.9585   6.9609   7.0129
     7.0396   7.0753   7.1370   7.1598   7.2269   7.2481   7.2855   7.3121
     7.4374   7.4401   7.8710   7.9047   7.9332   7.9696   7.9768   8.0042
    10.3454  10.3669  11.0618  11.0840  11.1495  11.2045  12.0478  12.2251
    12.2863  12.3211  12.5318  12.5606  12.5866  12.6243  12.9083  13.0115
    13.2640  13.3624  13.4213  13.4864  13.6856  13.7921  13.8112  13.8911
    15.3597  15.5945  15.6630  15.7014  15.7595  15.9676  16.2772  16.3404
    16.4333  17.0424  17.4565  17.5597  17.6005

          k = 0.1667 0.3184 0.3317 ( 61720 PWs)   bands (ev):

   -65.8818 -65.8815 -65.8813 -65.8810 -65.8809 -65.8806 -65.8804 -65.8801
   -30.3046 -30.3011 -30.2972 -30.2936 -30.2787 -30.2743 -30.2690 -30.2634
   -30.2329 -30.2328 -30.2218 -30.2170 -30.2137 -30.2123 -30.2027 -30.1957
   -30.1717 -30.1711 -30.1661 -30.1648 -30.1380 -30.1349 -30.1343 -30.1312
   -20.0327 -20.0326 -20.0324 -20.0323 -20.0320 -20.0319 -20.0317 -20.0316
   -20.0198 -20.0197 -20.0192 -20.0191 -20.0189 -20.0188 -20.0183 -20.0181
   -20.0162 -20.0160 -20.0157 -20.0154 -20.0148 -20.0147 -20.0141 -20.0140
   -20.0128 -20.0125 -20.0123 -20.0123 -20.0120 -20.0118 -20.0116 -20.0115
   -20.0012 -20.0012 -20.0010 -20.0010 -19.9989 -19.9988 -19.9986 -19.9986
   -19.9830 -19.9830 -19.9819 -19.9819 -19.9801 -19.9801 -19.9791 -19.9791
   -19.9759 -19.9759 -19.9753 -19.9752 -19.9721 -19.9721 -19.9715 -19.9715
    -9.4409  -9.2672  -9.2000  -9.0269  -8.9655  -8.7618  -8.6886  -8.6298
    -8.6102  -8.5059  -8.4819  -8.4268  -8.1110  -8.0707  -8.0281  -7.9892
    -7.9666  -7.9368  -7.9240  -7.8560  -7.6967  -7.6819  -7.6274  -7.6129
     1.8526   1.8664   1.8761   1.8867   2.3786   2.4491   2.4686   2.5478
     2.6174   2.6599   2.6801   2.8666   3.0384   3.0869   3.1334   3.2055
     3.3964   3.5065   3.7971   3.8409   3.9145   3.9621   4.0417   4.1136
     4.2466   4.4447   4.4835   4.5606   4.5792   4.6832   4.7773   4.8672
     4.8837   4.9872   5.0409   5.0678   5.1291   5.2157   5.3257   5.3615
     5.5064   5.5298   5.6208   5.8017   5.9282   5.9882   6.2134   6.2313
     6.6679   6.7431   6.7595   6.8637   6.9321   6.9651   7.0611   7.0916
     7.1344   7.1629   7.2027   7.2204   7.2748   7.3529   7.3626   7.3968
     7.4527   7.4801   7.8543   7.8639   7.8841   7.9039   7.9482   7.9630
    10.8613  10.8866  11.1504  11.2009  11.5222  11.5938  12.1061  12.1704
    12.2788  12.3423  12.3915  12.4763  12.6997  12.7725  12.7993  12.8623
    12.9506  13.1621  13.2051  13.4485  13.4547  13.5666  13.7739  13.7955
    15.5113  15.6211  15.8892  16.1138  16.1758  16.2009  16.3128  16.8802
    16.9086  16.9919  17.1179  17.6776  17.7827

          k = 0.1667 0.3184-0.4975 ( 61734 PWs)   bands (ev):

   -65.8815 -65.8815 -65.8813 -65.8813 -65.8806 -65.8806 -65.8804 -65.8804
   -30.3027 -30.3027 -30.2953 -30.2953 -30.2762 -30.2762 -30.2658 -30.2658
   -30.2256 -30.2256 -30.2226 -30.2226 -30.1925 -30.1925 -30.1924 -30.1924
   -30.1862 -30.1862 -30.1826 -30.1826 -30.1365 -30.1365 -30.1334 -30.1334
   -20.0326 -20.0325 -20.0324 -20.0324 -20.0319 -20.0319 -20.0318 -20.0318
   -20.0197 -20.0197 -20.0192 -20.0191 -20.0188 -20.0188 -20.0182 -20.0182
   -20.0159 -20.0159 -20.0157 -20.0157 -20.0145 -20.0145 -20.0144 -20.0144
   -20.0126 -20.0125 -20.0123 -20.0123 -20.0118 -20.0118 -20.0116 -20.0116
   -20.0011 -20.0011 -20.0011 -20.0011 -19.9988 -19.9988 -19.9987 -19.9987
   -19.9816 -19.9816 -19.9816 -19.9815 -19.9806 -19.9805 -19.9805 -19.9805
   -19.9756 -19.9756 -19.9755 -19.9755 -19.9718 -19.9718 -19.9718 -19.9718
    -9.3010  -9.3010  -9.1227  -9.1227  -8.7803  -8.7803  -8.5340  -8.5339
    -8.4243  -8.4242  -8.3781  -8.3781  -8.3201  -8.3201  -8.2383  -8.2383
    -7.9868  -7.9868  -7.9361  -7.9361  -7.6623  -7.6623  -7.6472  -7.6472
     1.8714   1.8714   1.8861   1.8861   2.5276   2.5276   2.6481   2.6481
     3.0944   3.0944   3.2492   3.2492   3.2922   3.2922   3.3892   3.3892
     3.4347   3.4347   3.6502   3.6502   3.7031   3.7031   3.9068   3.9068
     4.1819   4.1819   4.2366   4.2366   4.2878   4.2878   4.4961   4.4961
     4.9226   4.9226   5.0424   5.0424   5.1901   5.1901   5.2408   5.2408
     5.3305   5.3305   5.6970   5.6970   6.0055   6.0055   6.0416   6.0416
     6.7712   6.7712   6.8826   6.8826   6.9363   6.9363   6.9989   6.9989
     7.1822   7.1822   7.2268   7.2268   7.3364   7.3364   7.6623   7.6623
     7.6851   7.6851   7.6997   7.6997   7.7532   7.7532   7.9452   7.9452
    11.1020  11.1020  11.5508  11.5508  11.6516  11.6516  12.0590  12.0590
    12.2056  12.2056  12.4378  12.4378  12.6692  12.6692  12.7823  12.7824
    13.0171  13.0171  13.0972  13.0972  13.4457  13.4457  13.7479  13.7479
    15.5862  15.5862  16.0793  16.0793  16.5271  16.5271  16.6740  16.6740
    17.0629  17.0629  17.4834  17.4834  17.9965

          k = 0.1667-0.4775 0.0000 ( 61754 PWs)   bands (ev):

   -65.8819 -65.8819 -65.8810 -65.8810 -65.8809 -65.8809 -65.8800 -65.8800
   -30.2940 -30.2940 -30.2863 -30.2863 -30.2855 -30.2855 -30.2766 -30.2766
   -30.2470 -30.2470 -30.2333 -30.2333 -30.2167 -30.2167 -30.2084 -30.2084
   -30.1519 -30.1519 -30.1448 -30.1448 -30.1378 -30.1378 -30.1284 -30.1284
   -20.0325 -20.0325 -20.0324 -20.0323 -20.0319 -20.0319 -20.0318 -20.0318
   -20.0196 -20.0196 -20.0193 -20.0193 -20.0187 -20.0187 -20.0184 -20.0183
   -20.0158 -20.0157 -20.0156 -20.0156 -20.0145 -20.0145 -20.0142 -20.0142
   -20.0130 -20.0129 -20.0122 -20.0122 -20.0121 -20.0121 -20.0116 -20.0116
   -20.0013 -20.0013 -20.0009 -20.0009 -19.9990 -19.9990 -19.9985 -19.9985
   -19.9843 -19.9843 -19.9833 -19.9833 -19.9786 -19.9786 -19.9776 -19.9776
   -19.9762 -19.9762 -19.9750 -19.9749 -19.9724 -19.9724 -19.9712 -19.9712
    -9.5353  -9.5353  -9.1381  -9.1381  -9.0217  -9.0217  -8.7666  -8.7666
    -8.3429  -8.3428  -8.2864  -8.2864  -8.2665  -8.2665  -8.2633  -8.2633
    -7.7343  -7.7343  -7.6314  -7.6314  -7.5886  -7.5886  -7.4968  -7.4968
     1.5477   1.5477   1.5551   1.5551   1.8501   1.8501   2.0565   2.0565
     2.6941   2.6941   3.1696   3.1696   3.2850   3.2850   3.3512   3.3513
     3.4388   3.4388   3.5306   3.5306   3.7418   3.7418   3.8522   3.8522
     3.9439   3.9439   4.6279   4.6279   4.8790   4.8790   5.2287   5.2287
     5.3146   5.3146   5.4145   5.4145   5.4971   5.4971   5.7285   5.7285
     5.9033   5.9033   5.9297   5.9297   6.1506   6.1506   6.2536   6.2536
     6.5049   6.5049   6.5379   6.5380   6.8532   6.8532   7.0346   7.0347
     7.1181   7.1181   7.2551   7.2551   7.3295   7.3295   7.5970   7.5970
     7.6290   7.6290   7.6753   7.6753   7.7114   7.7114   7.9284   7.9284
    10.1437  10.1437  11.4509  11.4509  11.5261  11.5261  11.7252  11.7252
    11.8008  11.8009  12.5659  12.5659  12.6061  12.6061  12.9306  12.9306
    13.4661  13.4661  13.5672  13.5672  13.6967  13.6967  13.7463  13.7463
    15.6180  15.6180  15.7396  15.7396  15.8307  15.8307  16.1186  16.1186
    16.7854  16.7854  18.0114  18.0114  18.2275

          k = 0.1667-0.4775 0.1658 ( 61704 PWs)   bands (ev):

   -65.8818 -65.8818 -65.8810 -65.8810 -65.8809 -65.8809 -65.8801 -65.8801
   -30.2932 -30.2931 -30.2862 -30.2861 -30.2851 -30.2850 -30.2771 -30.2771
   -30.2428 -30.2428 -30.2282 -30.2281 -30.2174 -30.2173 -30.2067 -30.2066
   -30.1567 -30.1567 -30.1505 -30.1505 -30.1375 -30.1375 -30.1301 -30.1301
   -20.0324 -20.0324 -20.0323 -20.0323 -20.0319 -20.0319 -20.0318 -20.0318
   -20.0196 -20.0196 -20.0193 -20.0193 -20.0187 -20.0187 -20.0184 -20.0184
   -20.0157 -20.0157 -20.0155 -20.0155 -20.0146 -20.0145 -20.0144 -20.0143
   -20.0129 -20.0129 -20.0123 -20.0123 -20.0121 -20.0121 -20.0117 -20.0116
   -20.0013 -20.0013 -20.0009 -20.0009 -19.9990 -19.9989 -19.9985 -19.9985
   -19.9840 -19.9840 -19.9829 -19.9829 -19.9790 -19.9790 -19.9780 -19.9780
   -19.9761 -19.9761 -19.9750 -19.9750 -19.9724 -19.9723 -19.9713 -19.9713
    -9.4791  -9.4790  -9.0574  -9.0569  -9.0394  -9.0392  -8.7329  -8.7329
    -8.3504  -8.3496  -8.2855  -8.2843  -8.2712  -8.2696  -8.2600  -8.2577
    -7.7566  -7.7554  -7.7091  -7.7090  -7.6305  -7.6303  -7.5871  -7.5868
     1.7249   1.7298   1.8008   1.8041   1.8555   1.8578   2.1143   2.1177
     2.7855   2.7883   3.1882   3.1900   3.2776   3.3123   3.3376   3.3599
     3.4560   3.4909   3.5075   3.5606   3.7622   3.7806   3.8536   3.8613
     3.9671   3.9711   4.5811   4.6274   4.6703   4.7112   5.0812   5.1050
     5.2028   5.2212   5.2423   5.3099   5.3248   5.3782   5.6221   5.6256
     5.6715   5.6893   5.8601   5.9088   5.9451   5.9643   6.3401   6.3444
[...]
    11.7197  11.7197  11.7197  11.7197  11.9333  11.9333  11.9333  11.9333
    12.2817  12.2817  12.2817  12.2817  12.4971  12.4971  12.4971  12.4971
    13.2160  13.2160  13.2160  13.2160  13.4121  13.4121  13.4121  13.4121
    15.5562  15.5562  15.5562  15.5563  16.9477  16.9477  16.9477  16.9477
    17.6474  17.6475  17.6475  17.6475  17.8734

          k =-0.5000 0.3184 0.0000 ( 61762 PWs)   bands (ev):

   -65.8815 -65.8815 -65.8813 -65.8813 -65.8806 -65.8806 -65.8804 -65.8804
   -30.3028 -30.3028 -30.2953 -30.2953 -30.2775 -30.2775 -30.2656 -30.2656
   -30.2387 -30.2387 -30.2363 -30.2362 -30.1821 -30.1821 -30.1811 -30.1811
   -30.1769 -30.1769 -30.1731 -30.1731 -30.1415 -30.1415 -30.1406 -30.1406
   -20.0328 -20.0328 -20.0322 -20.0322 -20.0321 -20.0321 -20.0315 -20.0315
   -20.0194 -20.0194 -20.0192 -20.0192 -20.0189 -20.0189 -20.0185 -20.0185
   -20.0163 -20.0163 -20.0155 -20.0155 -20.0147 -20.0147 -20.0138 -20.0138
   -20.0125 -20.0125 -20.0123 -20.0123 -20.0119 -20.0119 -20.0118 -20.0118
   -20.0001 -20.0001 -20.0000 -20.0000 -19.9997 -19.9997 -19.9996 -19.9996
   -19.9838 -19.9838 -19.9838 -19.9838 -19.9782 -19.9782 -19.9782 -19.9782
   -19.9744 -19.9744 -19.9743 -19.9743 -19.9732 -19.9732 -19.9731 -19.9731
    -9.3761  -9.3761  -9.2230  -9.2230  -8.7715  -8.7715  -8.5630  -8.5630
    -8.3835  -8.3835  -8.3694  -8.3694  -8.3067  -8.3067  -8.2214  -8.2214
    -7.9729  -7.9728  -7.9321  -7.9321  -7.5677  -7.5676  -7.5536  -7.5536
     1.5753   1.5753   1.5824   1.5824   2.5088   2.5088   2.6543   2.6543
     3.1188   3.1188   3.1609   3.1609   3.2348   3.2348   3.3741   3.3741
     3.4454   3.4454   3.6235   3.6235   3.7269   3.7269   3.8461   3.8461
     4.1238   4.1238   4.2163   4.2163   4.4220   4.4220   4.5712   4.5712
     5.0113   5.0113   5.0502   5.0502   5.3175   5.3175   5.4871   5.4871
     5.6303   5.6303   5.8994   5.8994   6.3197   6.3197   6.3576   6.3576
     6.6104   6.6104   6.6995   6.6995   6.7144   6.7144   6.8887   6.8887
     7.1797   7.1797   7.2142   7.2142   7.2361   7.2361   7.6082   7.6082
     7.6373   7.6373   7.7563   7.7563   7.7939   7.7939   8.0011   8.0011
    10.9278  10.9278  11.4955  11.4955  11.5731  11.5731  11.8053  11.8053
    12.2240  12.2240  12.4124  12.4124  12.7472  12.7472  12.9105  12.9106
    13.0378  13.0378  13.2037  13.2037  13.5314  13.5314  13.9267  13.9267
    15.3977  15.3977  15.7880  15.7880  16.4496  16.4496  16.6708  16.6708
    16.8657  16.8657  17.4554  17.4554  18.0096

          k =-0.5000 0.3184 0.1658 ( 61728 PWs)   bands (ev):

   -65.8815 -65.8815 -65.8812 -65.8812 -65.8807 -65.8807 -65.8804 -65.8804
   -30.3021 -30.3021 -30.2957 -30.2957 -30.2759 -30.2759 -30.2661 -30.2661
   -30.2333 -30.2333 -30.2317 -30.2317 -30.1831 -30.1831 -30.1820 -30.1820
   -30.1769 -30.1769 -30.1726 -30.1726 -30.1469 -30.1469 -30.1455 -30.1455
   -20.0327 -20.0327 -20.0323 -20.0323 -20.0321 -20.0321 -20.0316 -20.0316
   -20.0194 -20.0194 -20.0192 -20.0192 -20.0189 -20.0189 -20.0185 -20.0185
   -20.0163 -20.0163 -20.0155 -20.0155 -20.0148 -20.0148 -20.0139 -20.0139
   -20.0125 -20.0125 -20.0123 -20.0123 -20.0118 -20.0118 -20.0118 -20.0118
   -20.0001 -20.0001 -20.0000 -20.0000 -19.9997 -19.9997 -19.9997 -19.9996
   -19.9835 -19.9835 -19.9835 -19.9835 -19.9786 -19.9786 -19.9786 -19.9786
   -19.9743 -19.9743 -19.9742 -19.9742 -19.9733 -19.9732 -19.9732 -19.9732
    -9.3093  -9.3093  -9.1441  -9.1441  -8.7866  -8.7866  -8.5435  -8.5435
    -8.4035  -8.4035  -8.3615  -8.3615  -8.2952  -8.2951  -8.2249  -8.2249
    -7.9702  -7.9702  -7.9372  -7.9372  -7.6813  -7.6813  -7.6663  -7.6663
     1.8194   1.8194   1.8294   1.8294   2.5166   2.5166   2.6396   2.6396
     3.1521   3.1521   3.2162   3.2162   3.2449   3.2449   3.4013   3.4013
     3.4668   3.4668   3.6743   3.6743   3.7622   3.7622   3.8978   3.8978
     4.1138   4.1138   4.2276   4.2276   4.4152   4.4152   4.5628   4.5628
     4.8905   4.8905   4.9905   4.9905   5.1838   5.1838   5.2349   5.2349
     5.3517   5.3517   5.6863   5.6863   5.9831   5.9831   6.0223   6.0223
     6.7774   6.7774   6.9253   6.9253   6.9678   6.9678   7.0051   7.0051
     7.1542   7.1542   7.2402   7.2402   7.2921   7.2921   7.6151   7.6151
     7.6497   7.6497   7.7638   7.7638   7.7973   7.7973   7.9786   7.9786
    11.0825  11.0825  11.5627  11.5627  11.6492  11.6492  11.8583  11.8583
    12.2429  12.2429  12.4513  12.4513  12.7360  12.7360  12.8754  12.8754
    13.0252  13.0252  13.1710  13.1710  13.3879  13.3879  13.7967  13.7967
    15.5948  15.5948  16.0199  16.0199  16.5107  16.5107  16.6692  16.6692
    16.9223  16.9223  17.4933  17.4933  17.9526

          k =-0.5000 0.3184 0.3317 ( 61700 PWs)   bands (ev):

   -65.8813 -65.8813 -65.8811 -65.8811 -65.8808 -65.8808 -65.8806 -65.8806
   -30.3004 -30.3004 -30.2968 -30.2968 -30.2727 -30.2727 -30.2675 -30.2675
   -30.2188 -30.2187 -30.2185 -30.2185 -30.1876 -30.1876 -30.1872 -30.1872
   -30.1757 -30.1757 -30.1708 -30.1708 -30.1597 -30.1597 -30.1569 -30.1569
   -20.0326 -20.0326 -20.0324 -20.0324 -20.0320 -20.0320 -20.0317 -20.0317
   -20.0194 -20.0194 -20.0193 -20.0193 -20.0188 -20.0188 -20.0186 -20.0186
   -20.0161 -20.0161 -20.0156 -20.0156 -20.0147 -20.0147 -20.0141 -20.0141
   -20.0124 -20.0124 -20.0123 -20.0123 -20.0118 -20.0118 -20.0118 -20.0118
   -20.0001 -20.0000 -20.0000 -20.0000 -19.9997 -19.9997 -19.9997 -19.9997
   -19.9825 -19.9825 -19.9825 -19.9825 -19.9797 -19.9796 -19.9796 -19.9796
   -19.9741 -19.9741 -19.9740 -19.9740 -19.9735 -19.9735 -19.9734 -19.9734
    -9.1383  -9.1383  -8.9285  -8.9284  -8.8387  -8.8387  -8.4946  -8.4946
    -8.4487  -8.4487  -8.3341  -8.3341  -8.2713  -8.2713  -8.2311  -8.2311
    -7.9950  -7.9950  -7.9644  -7.9644  -7.9442  -7.9442  -7.8950  -7.8950
     2.3908   2.3908   2.4865   2.4865   2.5432   2.5432   2.6775   2.6776
     3.1946   3.1946   3.2339   3.2339   3.3719   3.3719   3.4429   3.4430
     3.5362   3.5362   3.8230   3.8230   3.8922   3.8922   4.0070   4.0070
     4.0821   4.0821   4.2593   4.2594   4.3788   4.3788   4.3982   4.3982
     4.5431   4.5431   4.6792   4.6792   4.8440   4.8440   5.0252   5.0252
     5.1053   5.1053   5.2180   5.2180   5.2481   5.2481   5.4997   5.4997
     6.9729   6.9729   7.0390   7.0390   7.1354   7.1354   7.1655   7.1655
     7.3278   7.3278   7.4272   7.4273   7.4752   7.4752   7.6256   7.6256
     7.6769   7.6770   7.7728   7.7728   7.7928   7.7928   7.9126   7.9126
    11.4881  11.4881  11.7669  11.7669  11.8833  11.8833  11.9603  11.9603
    12.3153  12.3153  12.5491  12.5491  12.6068  12.6068  12.6418  12.6418
    12.9607  12.9607  13.0508  13.0508  13.0767  13.0767  13.4596  13.4596
    16.1032  16.1032  16.4989  16.4989  16.7325  16.7325  16.8286  16.8287
    17.1256  17.1256  17.5528  17.5528  17.7782

          k =-0.5000 0.3184-0.4975 ( 61724 PWs)   bands (ev):

   -65.8811 -65.8811 -65.8811 -65.8811 -65.8808 -65.8808 -65.8808 -65.8808
   -30.2985 -30.2985 -30.2985 -30.2985 -30.2697 -30.2697 -30.2697 -30.2697
   -30.2019 -30.2019 -30.2019 -30.2019 -30.1991 -30.1991 -30.1991 -30.1991
   -30.1713 -30.1713 -30.1713 -30.1713 -30.1659 -30.1659 -30.1659 -30.1659
   -20.0325 -20.0325 -20.0325 -20.0325 -20.0318 -20.0318 -20.0318 -20.0318
   -20.0193 -20.0193 -20.0193 -20.0193 -20.0187 -20.0187 -20.0187 -20.0187
   -20.0158 -20.0158 -20.0158 -20.0158 -20.0145 -20.0145 -20.0145 -20.0145
   -20.0123 -20.0123 -20.0123 -20.0123 -20.0118 -20.0118 -20.0118 -20.0118
   -20.0000 -20.0000 -20.0000 -20.0000 -19.9998 -19.9997 -19.9997 -19.9997
   -19.9811 -19.9811 -19.9811 -19.9811 -19.9811 -19.9811 -19.9811 -19.9811
   -19.9738 -19.9738 -19.9738 -19.9738 -19.9737 -19.9737 -19.9737 -19.9737
    -8.9542  -8.9542  -8.9542  -8.9541  -8.6555  -8.6555  -8.6555  -8.6555
    -8.3360  -8.3360  -8.3360  -8.3360  -8.2122  -8.2122  -8.2122  -8.2122
    -8.1808  -8.1808  -8.1808  -8.1808  -7.9421  -7.9420  -7.9420  -7.9420
     2.5337   2.5337   2.5337   2.5337   3.1405   3.1405   3.1405   3.1405
     3.2614   3.2614   3.2614   3.2614   3.4011   3.4011   3.4012   3.4012
     3.5744   3.5744   3.5744   3.5744   4.0075   4.0075   4.0075   4.0075
     4.1687   4.1688   4.1688   4.1688   4.2736   4.2736   4.2736   4.2737
     4.5074   4.5074   4.5074   4.5074   4.6190   4.6190   4.6191   4.6191
     4.9051   4.9051   4.9051   4.9051   5.2611   5.2611   5.2611   5.2611
     7.0401   7.0401   7.0401   7.0401   7.1680   7.1680   7.1680   7.1680
     7.5212   7.5212   7.5212   7.5212   7.6200   7.6201   7.6201   7.6201
     7.7177   7.7177   7.7177   7.7177   7.8300   7.8300   7.8300   7.8300
    11.9062  11.9062  11.9062  11.9062  12.0749  12.0749  12.0749  12.0749
    12.2832  12.2832  12.2832  12.2832  12.5610  12.5610  12.5610  12.5610
    12.8910  12.8910  12.8910  12.8910  13.1152  13.1152  13.1152  13.1152
    16.4368  16.4368  16.4368  16.4368  17.1020  17.1020  17.1020  17.1020
    17.5505  17.5505  17.5505  17.5505  17.8783

          k =-0.5000-0.4775 0.0000 ( 61764 PWs)   bands (ev):

   -65.8814 -65.8814 -65.8814 -65.8814 -65.8805 -65.8805 -65.8805 -65.8805
   -30.2897 -30.2897 -30.2891 -30.2891 -30.2807 -30.2807 -30.2799 -30.2799
   -30.2382 -30.2382 -30.2378 -30.2378 -30.1817 -30.1817 -30.1810 -30.1810
   -30.1762 -30.1762 -30.1750 -30.1750 -30.1413 -30.1413 -30.1411 -30.1411
   -20.0324 -20.0324 -20.0324 -20.0324 -20.0319 -20.0319 -20.0318 -20.0318
   -20.0193 -20.0193 -20.0191 -20.0191 -20.0190 -20.0190 -20.0187 -20.0187
   -20.0158 -20.0158 -20.0156 -20.0156 -20.0144 -20.0144 -20.0143 -20.0143
   -20.0125 -20.0125 -20.0125 -20.0125 -20.0119 -20.0119 -20.0119 -20.0119
   -20.0001 -20.0001 -20.0001 -20.0001 -19.9997 -19.9997 -19.9996 -19.9996
   -19.9838 -19.9838 -19.9838 -19.9838 -19.9782 -19.9782 -19.9782 -19.9782
   -19.9744 -19.9743 -19.9743 -19.9743 -19.9732 -19.9732 -19.9732 -19.9731
    -9.2899  -9.2899  -9.2812  -9.2812  -8.5448  -8.5447  -8.5139  -8.5139
    -8.4356  -8.4356  -8.4086  -8.4086  -8.2435  -8.2434  -8.1812  -8.1811
    -8.1684  -8.1684  -8.1139  -8.1139  -7.5612  -7.5612  -7.5607  -7.5607
     1.5759   1.5759   1.5833   1.5833   3.0508   3.0508   3.1646   3.1646
     3.2045   3.2045   3.2055   3.2055   3.4135   3.4135   3.4237   3.4238
     3.4578   3.4578   3.5882   3.5882   3.6313   3.6313   3.7241   3.7241
     3.7413   3.7414   4.0716   4.0716   4.4229   4.4229   4.5080   4.5080
     4.5273   4.5273   4.6294   4.6295   5.3757   5.3757   5.4334   5.4334
     5.6611   5.6611   5.7351   5.7351   6.3457   6.3457   6.3572   6.3572
     6.6981   6.6981   6.7122   6.7122   6.7388   6.7388   6.8057   6.8057
     7.3742   7.3742   7.3917   7.3917   7.4517   7.4517   7.5862   7.5862
     7.6715   7.6716   7.7088   7.7088   7.7148   7.7149   7.7696   7.7696
    11.4625  11.4625  11.4675  11.4675  11.5625  11.5625  11.5635  11.5635
    12.4141  12.4141  12.4869  12.4869  12.5310  12.5310  12.6279  12.6279
    13.0777  13.0777  13.0882  13.0882  13.6530  13.6530  13.7098  13.7098
    15.6612  15.6612  15.6840  15.6840  16.9167  16.9168  17.0706  17.0706
    17.3904  17.3904  17.4891  17.4894  17.5645

          k =-0.5000-0.4775 0.1658 ( 61740 PWs)   bands (ev):

   -65.8814 -65.8814 -65.8814 -65.8813 -65.8806 -65.8805 -65.8805 -65.8805
   -30.2887 -30.2887 -30.2881 -30.2881 -30.2811 -30.2811 -30.2803 -30.2803
   -30.2331 -30.2331 -30.2327 -30.2327 -30.1827 -30.1827 -30.1821 -30.1821
   -30.1758 -30.1758 -30.1745 -30.1745 -30.1465 -30.1465 -30.1462 -30.1462
   -20.0324 -20.0324 -20.0324 -20.0324 -20.0319 -20.0319 -20.0319 -20.0319
   -20.0192 -20.0192 -20.0190 -20.0190 -20.0190 -20.0190 -20.0187 -20.0187
   -20.0157 -20.0157 -20.0156 -20.0156 -20.0145 -20.0145 -20.0144 -20.0144
   -20.0125 -20.0125 -20.0124 -20.0124 -20.0119 -20.0119 -20.0119 -20.0119
   -20.0001 -20.0001 -20.0001 -20.0001 -19.9997 -19.9997 -19.9997 -19.9997
   -19.9835 -19.9835 -19.9835 -19.9835 -19.9786 -19.9786 -19.9786 -19.9786
   -19.9743 -19.9743 -19.9743 -19.9743 -19.9732 -19.9732 -19.9732 -19.9732
    -9.2156  -9.2156  -9.2059  -9.2059  -8.5647  -8.5647  -8.5338  -8.5338
    -8.4195  -8.4195  -8.3906  -8.3906  -8.2403  -8.2403  -8.1863  -8.1863
    -8.1629  -8.1628  -8.1170  -8.1170  -7.6746  -7.6746  -7.6744  -7.6744
     1.8223   1.8223   1.8315   1.8315   3.0665   3.0665   3.1837   3.1837
     3.1960   3.1960   3.2366   3.2366   3.3567   3.3567   3.4473   3.4473
     3.5282   3.5282   3.6272   3.6272   3.6879   3.6879   3.7442   3.7442
     3.7981   3.7981   4.0916   4.0916   4.4294   4.4294   4.4923   4.4923
     4.5286   4.5286   4.6164   4.6164   5.0695   5.0695   5.2360   5.2360
     5.3459   5.3459   5.4859   5.4859   5.9820   5.9820   6.0096   6.0096
     6.8455   6.8455   6.9275   6.9275   7.0021   7.0021   7.0420   7.0420
     7.3631   7.3631   7.4001   7.4001   7.4900   7.4900   7.5731   7.5731
     7.6537   7.6538   7.6896   7.6896   7.7515   7.7515   7.7752   7.7752
    11.5226  11.5226  11.5933  11.5933  11.6040  11.6040  11.7086  11.7086
    12.4259  12.4259  12.4932  12.4932  12.5236  12.5236  12.6416  12.6416
    13.0009  13.0009  13.0696  13.0696  13.5078  13.5078  13.5748  13.5748
    15.8952  15.8952  15.9238  15.9238  16.9722  16.9722  17.1243  17.1243
    17.3944  17.3944  17.5025  17.5028  17.5683

          k =-0.5000-0.4775 0.3317 ( 61732 PWs)   bands (ev):

   -65.8812 -65.8812 -65.8812 -65.8812 -65.8807 -65.8807 -65.8807 -65.8807
   -30.2865 -30.2865 -30.2859 -30.2859 -30.2823 -30.2823 -30.2816 -30.2816
   -30.2189 -30.2189 -30.2186 -30.2186 -30.1875 -30.1875 -30.1872 -30.1872
   -30.1741 -30.1741 -30.1729 -30.1729 -30.1589 -30.1589 -30.1583 -30.1583
   -20.0323 -20.0323 -20.0323 -20.0323 -20.0320 -20.0320 -20.0320 -20.0320
   -20.0192 -20.0192 -20.0190 -20.0190 -20.0190 -20.0190 -20.0188 -20.0188
   -20.0155 -20.0155 -20.0154 -20.0154 -20.0148 -20.0148 -20.0147 -20.0147
   -20.0124 -20.0124 -20.0124 -20.0124 -20.0119 -20.0119 -20.0119 -20.0119
   -20.0000 -20.0000 -20.0000 -20.0000 -19.9997 -19.9997 -19.9997 -19.9997
   -19.9825 -19.9825 -19.9825 -19.9825 -19.9797 -19.9797 -19.9796 -19.9796
   -19.9741 -19.9741 -19.9741 -19.9740 -19.9735 -19.9734 -19.9734 -19.9734
    -9.0173  -9.0173  -9.0035  -9.0034  -8.6318  -8.6318  -8.6011  -8.6011
    -8.3645  -8.3645  -8.3344  -8.3344  -8.2326  -8.2326  -8.1958  -8.1958
    -8.1519  -8.1519  -8.1256  -8.1256  -7.9444  -7.9444  -7.9431  -7.9431
     2.4667   2.4667   2.4871   2.4871   3.1037   3.1037   3.1686   3.1686
     3.2259   3.2259   3.2917   3.2917   3.3436   3.3436   3.4285   3.4286
     3.6284   3.6284   3.6997   3.6997   3.7731   3.7731   3.8265   3.8265
     4.0221   4.0221   4.1636   4.1636   4.4100   4.4100   4.4222   4.4222
     4.4910   4.4910   4.5550   4.5550   4.6774   4.6774   4.8003   4.8003
     4.8765   4.8765   5.0157   5.0157   5.2215   5.2215   5.2655   5.2655
     7.0896   7.0896   7.2031   7.2031   7.2967   7.2967   7.3354   7.3354
     7.3905   7.3905   7.4558   7.4558   7.5329   7.5329   7.5619   7.5619
     7.6308   7.6308   7.7045   7.7045   7.7603   7.7603   7.7908   7.7908
    11.7524  11.7524  11.8028  11.8028  11.9144  11.9144  12.0318  12.0318
    12.4230  12.4230  12.4514  12.4514  12.5225  12.5225  12.6593  12.6593
    12.7515  12.7515  12.8787  12.8787  13.1402  13.1402  13.2204  13.2204
    16.5728  16.5728  16.6310  16.6310  17.1240  17.1240  17.2669  17.2670
    17.3843  17.3844  17.5198  17.5208  17.5749

          k =-0.5000-0.4775-0.4975 ( 61728 PWs)   bands (ev):

   -65.8810 -65.8810 -65.8810 -65.8809 -65.8809 -65.8809 -65.8809 -65.8809
   -30.2843 -30.2843 -30.2843 -30.2843 -30.2835 -30.2834 -30.2834 -30.2834
   -30.2018 -30.2018 -30.2018 -30.2018 -30.1992 -30.1992 -30.1992 -30.1992
   -30.1702 -30.1702 -30.1702 -30.1702 -30.1675 -30.1675 -30.1675 -30.1675
   -20.0322 -20.0322 -20.0322 -20.0322 -20.0321 -20.0321 -20.0321 -20.0321
   -20.0191 -20.0191 -20.0191 -20.0191 -20.0189 -20.0189 -20.0189 -20.0189
   -20.0153 -20.0153 -20.0153 -20.0153 -20.0149 -20.0149 -20.0149 -20.0149
   -20.0124 -20.0124 -20.0124 -20.0124 -20.0119 -20.0119 -20.0119 -20.0119
   -20.0000 -20.0000 -20.0000 -20.0000 -19.9998 -19.9998 -19.9997 -19.9997
   -19.9811 -19.9811 -19.9811 -19.9811 -19.9811 -19.9811 -19.9811 -19.9811
   -19.9738 -19.9738 -19.9738 -19.9738 -19.9737 -19.9737 -19.9737 -19.9737
    -8.7855  -8.7855  -8.7855  -8.7855  -8.7573  -8.7573  -8.7573  -8.7573
    -8.2530  -8.2530  -8.2530  -8.2530  -8.2079  -8.2079  -8.2079  -8.2078
    -8.1730  -8.1730  -8.1730  -8.1730  -8.1350  -8.1350  -8.1350  -8.1350
     3.0537   3.0537   3.0537   3.0537   3.1518   3.1518   3.1518   3.1518
     3.3206   3.3206   3.3206   3.3206   3.4548   3.4548   3.4548   3.4548
     3.5132   3.5132   3.5133   3.5133   3.7149   3.7149   3.7149   3.7149
     4.3120   4.3120   4.3120   4.3120   4.3394   4.3394   4.3394   4.3394
     4.5147   4.5147   4.5147   4.5147   4.5919   4.5919   4.5920   4.5920
     4.6704   4.6704   4.6704   4.6704   4.7513   4.7513   4.7513   4.7513
     7.2211   7.2211   7.2212   7.2212   7.4138   7.4138   7.4138   7.4138
     7.4744   7.4744   7.4744   7.4744   7.5419   7.5419   7.5419   7.5419
     7.6965   7.6965   7.6965   7.6965   7.7778   7.7778   7.7778   7.7778
    12.0847  12.0847  12.0847  12.0847  12.1096  12.1096  12.1096  12.1096
    12.3801  12.3801  12.3801  12.3801  12.5693  12.5694  12.5694  12.5694
    12.7301  12.7301  12.7301  12.7301  12.8442  12.8442  12.8442  12.8442
    17.1928  17.1928  17.1928  17.1928  17.2941  17.2942  17.2942  17.2942
    17.5258  17.5258  17.5258  17.5258  17.6054

     the Fermi energy is    10.1468 ev

!    total energy              =   -6260.72853194 Ry
     Harris-Foulkes estimate   =   -6260.72853194 Ry
     estimated scf accuracy    <          9.2E-10 Ry

     The total energy is the sum of the following terms:

     one-electron contribution =   -4677.55440634 Ry
     hartree contribution      =    2579.14898825 Ry
     xc contribution           =    -966.23611901 Ry
     ewald contribution        =   -3196.08697383 Ry
     smearing contrib. (-TS)   =      -0.00002101 Ry

     convergence has been achieved in  13 iterations

     Writing output data file Landau_31.save
 
     init_run     :     17.74s CPU     18.96s WALL (       1 calls)
     electrons    :    634.36s CPU    653.68s WALL (       1 calls)

     Called by init_run:
     wfcinit      :     14.86s CPU     15.92s WALL (       1 calls)
     potinit      :      1.34s CPU      1.38s WALL (       1 calls)

     Called by electrons:
     c_bands      :    545.47s CPU    563.46s WALL (      13 calls)
     sum_band     :     82.09s CPU     82.67s WALL (      13 calls)
     v_of_rho     :      1.39s CPU      1.42s WALL (      14 calls)
     mix_rho      :      3.27s CPU      3.68s WALL (      13 calls)

     Called by c_bands:
     init_us_2    :      6.01s CPU      6.61s WALL (      27 calls)
     cegterg      :    479.53s CPU    497.19s WALL (      13 calls)

     Called by sum_band:

     Called by *egterg:
     h_psi        :    392.70s CPU    395.87s WALL (      53 calls)
     g_psi        :      1.02s CPU      1.02s WALL (      39 calls)
     cdiaghg      :      6.12s CPU      6.17s WALL (      52 calls)

     Called by h_psi:
     h_psi:pot    :    389.49s CPU    392.42s WALL (      53 calls)
     h_psi:calbec :     36.71s CPU     37.97s WALL (      53 calls)
     vloc_psi     :    313.68s CPU    314.99s WALL (      53 calls)
     add_vuspsi   :     39.10s CPU     39.45s WALL (      53 calls)

     General routines
     calbec       :     36.71s CPU     37.97s WALL (      53 calls)
     fft          :      0.98s CPU      0.99s WALL (      56 calls)
     fftw         :    310.58s CPU    311.62s WALL (   17037 calls)
 
     Parallel routines
 
     PWSCF        : 10m52.55s CPU    11m15.90s WALL

 
   This run was terminated on:  14:58:21  28Aug2019            

=------------------------------------------------------------------------------=
   JOB DONE.
=------------------------------------------------------------------------------=
