
     Program PWSCF v.6.2 (svn rev. 14038) starts on 17Sep2019 at 14:27:15 

     This program is part of the open-source Quantum ESPRESSO suite
     for quantum simulation of materials; please cite
         "P. Giannozzi et al., J. Phys.:Condens. Matter 21 395502 (2009);
         "P. Giannozzi et al., J. Phys.:Condens. Matter 29 465901 (2017);
          URL http://www.quantum-espresso.org", 
     in publications or presentations arising from this work. More details at
     http://www.quantum-espresso.org/quote

     Parallel version (MPI), running on    40 processors

     MPI processes distributed on     3 nodes
     K-points division:     npool     =      40
     Reading input from scf.in

     Current dimensions of program PWSCF are:
     Max number of different atomic species (ntypx) = 10
     Max number of k-points (npk) =  40000
     Max angular momentum in pseudopotentials (lmaxx) =  3

     Subspace diagonalization in iterative solution of the eigenvalue problem:
     a serial algorithm will be used

 
     G-vector sticks info
     --------------------
     sticks:   dense  smooth     PW     G-vecs:    dense   smooth      PW
     Sum        7729    7729   2077               497525   497525   68977
 


     bravais-lattice index     =            0
     lattice parameter (alat)  =      13.8421  a.u.
     unit-cell volume          =    2801.5721 (a.u.)^3
     number of atoms/cell      =           32
     number of atomic types    =            2
     number of electrons       =       369.00
     number of Kohn-Sham states=          222
     kinetic-energy cutoff     =     120.0000  Ry
     charge density cutoff     =     480.0000  Ry
     convergence threshold     =      1.0E-08
     mixing beta               =       0.7000
     number of iterations used =            8  plain     mixing
     Exchange-correlation      = SLA PW NOGX NOGC ( 1  4  0  0 0 0)

     celldm(1)=  13.842121  celldm(2)=   0.000000  celldm(3)=   0.000000
     celldm(4)=   0.000000  celldm(5)=   0.000000  celldm(6)=   0.000000

     crystal axes: (cart. coord. in units of alat)
               a(1) = (   1.000000   0.000000   0.000000 )  
               a(2) = (   0.000000   1.056316   0.000000 )  
               a(3) = (   0.000000   0.000000   1.000000 )  

     reciprocal axes: (cart. coord. in units 2 pi/alat)
               b(1) = (  1.000000  0.000000  0.000000 )  
               b(2) = (  0.000000  0.946686  0.000000 )  
               b(3) = (  0.000000  0.000000  1.000000 )  


     PseudoPot. # 1 for W  read from file:
     /cluster/scratch/mnoe/QE/pps/W_ONCV_LDA-4.0.upf
     MD5 check sum: ba0307d5d4cd419d6f1d13dc49d7c13a
     Pseudo is Norm-conserving + core correction, Zval = 28.0
     Generated using ONCVPSP code by D. R. Hamann
     Using radial grid of 1380 points,  8 beta functions with: 
                l(1) =   0
                l(2) =   0
                l(3) =   1
                l(4) =   1
                l(5) =   2
                l(6) =   2
                l(7) =   3
                l(8) =   3

     PseudoPot. # 2 for O  read from file:
     /cluster/scratch/mnoe/QE/pps/O_ONCV_LDA-3.0.upf
     MD5 check sum: ca1549d10c4e927e51167f6fca52ae32
     Pseudo is Norm-conserving + core correction, Zval =  6.0
     Generated using ONCVPSP code by D. R. Hamann
     Using radial grid of  926 points,  5 beta functions with: 
                l(1) =   0
                l(2) =   0
                l(3) =   1
                l(4) =   1
                l(5) =   2

     atomic species   valence    mass     pseudopotential
        W             28.00   183.84000     W ( 1.00)
        O              6.00    15.99940     O ( 1.00)

      8 Sym. Ops. (no inversion) found ( 4 have fractional translation)



   Cartesian axes

     site n.     atom                  positions (alat units)
         1           W   tau(   1) = (   0.2571900   0.2977333   0.2502100  )
         2           W   tau(   2) = (  -0.2502101   0.7585829  -0.7428100  )
         3           W   tau(   3) = (   0.2428100   0.2304248   0.7502101  )
         4           W   tau(   4) = (   0.7502100   0.8258913   0.7571900  )
         5           W   tau(   5) = (   0.7428100   0.2977333   0.7497900  )
         6           W   tau(   6) = (   0.2502100   0.7585829   0.7428100  )
         7           W   tau(   7) = (  -0.2428100   0.2304248  -0.7502101  )
         8           W   tau(   8) = (   0.2497900   0.8258913   0.2428100  )
         9           O   tau(   9) = (   0.2579100   0.0087886   0.2557300  )
        10           O   tau(  10) = (  -0.2557300   1.0475277  -0.7420901  )
        11           O   tau(  11) = (   0.2420900   0.5193695   0.7557300  )
        12           O   tau(  12) = (   0.7557299   0.5369466   0.7579100  )
        13           O   tau(  13) = (   0.7420901   0.0087886   0.7442700  )
        14           O   tau(  14) = (   0.2557300   1.0475277   0.7420900  )
        15           O   tau(  15) = (  -0.2420901   0.5193695  -0.7557300  )
        16           O   tau(  16) = (   0.2442700   0.5369466   0.2420901  )
        17           O   tau(  17) = (   0.4974600   0.2730894   0.6995400  )
        18           O   tau(  18) = (   0.4994800   0.7864591   0.8004600  )
        19           O   tau(  19) = (  -0.9974601   0.2550687   1.1995400  )
        20           O   tau(  20) = (   0.0005200   0.7980152   0.3004600  )
        21           O   tau(  21) = (   0.5025400   0.2730894   0.3004600  )
        22           O   tau(  22) = (   0.5005200   0.7864591   1.1995400  )
        23           O   tau(  23) = (  -0.0025399   0.2550687   0.8004600  )
        24           O   tau(  24) = (  -1.0005200   0.7980152   0.6995400  )
        25           O   tau(  25) = (   0.6995400   0.2583010   2.0005200  )
        26           O   tau(  26) = (   0.3004600   0.7832268   0.4974600  )
        27           O   tau(  27) = (   0.8004600   0.2698571   0.5005199  )
        28           O   tau(  28) = (   0.1995400   0.8012475   1.9974600  )
        29           O   tau(  29) = (   0.3004600   0.2583010   0.9994799  )
        30           O   tau(  30) = (   0.6995400   0.7832268   0.5025399  )
        31           O   tau(  31) = (   0.1995400   0.2698571   0.4994800  )
        32           O   tau(  32) = (   0.8004600   0.8012475   1.0025399  )

     number of k points=    40  gaussian smearing, width (Ry)=  0.0007
                       cart. coord. in units 2pi/alat
        k(    1) = (   0.0000000   0.0000000   0.0000000), wk =   0.0092593
        k(    2) = (   0.0000000   0.0000000   0.1666667), wk =   0.0370370
        k(    3) = (   0.0000000   0.0000000   0.3333333), wk =   0.0370370
        k(    4) = (   0.0000000   0.0000000  -0.5000000), wk =   0.0185185
        k(    5) = (   0.0000000   0.1577810   0.0000000), wk =   0.0185185
        k(    6) = (   0.0000000   0.1577810   0.1666667), wk =   0.0740741
        k(    7) = (   0.0000000   0.1577810   0.3333333), wk =   0.0740741
        k(    8) = (   0.0000000   0.1577810  -0.5000000), wk =   0.0370370
        k(    9) = (   0.0000000   0.3155621   0.0000000), wk =   0.0185185
        k(   10) = (   0.0000000   0.3155621   0.1666667), wk =   0.0740741
        k(   11) = (   0.0000000   0.3155621   0.3333333), wk =   0.0740741
        k(   12) = (   0.0000000   0.3155621  -0.5000000), wk =   0.0370370
        k(   13) = (   0.0000000  -0.4733431   0.0000000), wk =   0.0092593
        k(   14) = (   0.0000000  -0.4733431   0.1666667), wk =   0.0370370
        k(   15) = (   0.0000000  -0.4733431   0.3333333), wk =   0.0370370
        k(   16) = (   0.0000000  -0.4733431  -0.5000000), wk =   0.0185185
        k(   17) = (   0.1666667   0.0000000   0.1666667), wk =   0.0370370
        k(   18) = (   0.1666667   0.0000000   0.3333333), wk =   0.0740741
        k(   19) = (   0.1666667   0.0000000  -0.5000000), wk =   0.0370370
        k(   20) = (   0.1666667   0.1577810   0.1666667), wk =   0.0740741
        k(   21) = (   0.1666667   0.1577810   0.3333333), wk =   0.1481481
        k(   22) = (   0.1666667   0.1577810  -0.5000000), wk =   0.0740741
        k(   23) = (   0.1666667   0.3155621   0.1666667), wk =   0.0740741
        k(   24) = (   0.1666667   0.3155621   0.3333333), wk =   0.1481481
        k(   25) = (   0.1666667   0.3155621  -0.5000000), wk =   0.0740741
        k(   26) = (   0.1666667  -0.4733431   0.1666667), wk =   0.0370370
        k(   27) = (   0.1666667  -0.4733431   0.3333333), wk =   0.0740741
        k(   28) = (   0.1666667  -0.4733431  -0.5000000), wk =   0.0370370
        k(   29) = (   0.3333333   0.0000000   0.3333333), wk =   0.0370370
        k(   30) = (   0.3333333   0.0000000  -0.5000000), wk =   0.0370370
        k(   31) = (   0.3333333   0.1577810   0.3333333), wk =   0.0740741
        k(   32) = (   0.3333333   0.1577810  -0.5000000), wk =   0.0740741
        k(   33) = (   0.3333333   0.3155621   0.3333333), wk =   0.0740741
        k(   34) = (   0.3333333   0.3155621  -0.5000000), wk =   0.0740741
        k(   35) = (   0.3333333  -0.4733431   0.3333333), wk =   0.0370370
        k(   36) = (   0.3333333  -0.4733431  -0.5000000), wk =   0.0370370
        k(   37) = (  -0.5000000   0.0000000  -0.5000000), wk =   0.0092593
        k(   38) = (  -0.5000000   0.1577810  -0.5000000), wk =   0.0185185
        k(   39) = (  -0.5000000   0.3155621  -0.5000000), wk =   0.0185185
        k(   40) = (  -0.5000000  -0.4733431  -0.5000000), wk =   0.0092593

     Dense  grid:   497525 G-vectors     FFT dimensions: ( 100, 108, 100)

     Estimated max dynamical RAM per process >       2.72 GB

     Estimated total dynamical RAM >     108.90 GB

     Initial potential from superposition of free atoms

     starting charge  367.99656, renormalised to  369.00000
     Starting wfc are  232 randomized atomic wfcs

     total cpu time spent up to now is       26.1 secs

     Self-consistent Calculation

     iteration #  1     ecut=   120.00 Ry     beta= 0.70
     Davidson diagonalization with overlap
     ethr =  1.00E-02,  avg # of iterations =  5.4

     total cpu time spent up to now is      117.2 secs

     total energy              =   -6253.08500289 Ry
     Harris-Foulkes estimate   =   -6264.04510651 Ry
     estimated scf accuracy    <      13.76075631 Ry

     iteration #  2     ecut=   120.00 Ry     beta= 0.70
     Davidson diagonalization with overlap
     ethr =  3.73E-03,  avg # of iterations =  3.6

     total cpu time spent up to now is      206.9 secs

     total energy              =   -6250.14976095 Ry
     Harris-Foulkes estimate   =   -6269.90781453 Ry
     estimated scf accuracy    <      52.16947584 Ry

     iteration #  3     ecut=   120.00 Ry     beta= 0.70
     Davidson diagonalization with overlap
     ethr =  3.73E-03,  avg # of iterations =  3.4

     total cpu time spent up to now is      290.4 secs

     total energy              =   -6260.38035618 Ry
     Harris-Foulkes estimate   =   -6260.64294752 Ry
     estimated scf accuracy    <       0.89332372 Ry

     iteration #  4     ecut=   120.00 Ry     beta= 0.70
     Davidson diagonalization with overlap
     ethr =  2.42E-04,  avg # of iterations =  3.5

     total cpu time spent up to now is      361.7 secs

     total energy              =   -6260.37125877 Ry
     Harris-Foulkes estimate   =   -6260.44546631 Ry
     estimated scf accuracy    <       0.23330266 Ry

     iteration #  5     ecut=   120.00 Ry     beta= 0.70
     Davidson diagonalization with overlap
     ethr =  6.32E-05,  avg # of iterations =  5.0

     total cpu time spent up to now is      436.8 secs

     total energy              =   -6260.37174877 Ry
     Harris-Foulkes estimate   =   -6260.40398349 Ry
     estimated scf accuracy    <       0.07192439 Ry

     iteration #  6     ecut=   120.00 Ry     beta= 0.70
     Davidson diagonalization with overlap
     ethr =  1.95E-05,  avg # of iterations =  5.8

     total cpu time spent up to now is      515.7 secs

     total energy              =   -6260.38744541 Ry
     Harris-Foulkes estimate   =   -6260.39038569 Ry
     estimated scf accuracy    <       0.00751055 Ry

     iteration #  7     ecut=   120.00 Ry     beta= 0.70
     Davidson diagonalization with overlap
     ethr =  2.04E-06,  avg # of iterations =  6.6

     total cpu time spent up to now is      590.4 secs

     total energy              =   -6260.38850995 Ry
     Harris-Foulkes estimate   =   -6260.38857412 Ry
     estimated scf accuracy    <       0.00010946 Ry

     iteration #  8     ecut=   120.00 Ry     beta= 0.70
     Davidson diagonalization with overlap
     ethr =  2.97E-08,  avg # of iterations =  3.3

     total cpu time spent up to now is      681.2 secs

     total energy              =   -6260.38856779 Ry
     Harris-Foulkes estimate   =   -6260.38858095 Ry
     estimated scf accuracy    <       0.00005326 Ry

     iteration #  9     ecut=   120.00 Ry     beta= 0.70
     Davidson diagonalization with overlap
     ethr =  1.44E-08,  avg # of iterations =  1.0

     total cpu time spent up to now is      744.8 secs

     total energy              =   -6260.38856546 Ry
     Harris-Foulkes estimate   =   -6260.38857122 Ry
     estimated scf accuracy    <       0.00001757 Ry

     iteration # 10     ecut=   120.00 Ry     beta= 0.70
     Davidson diagonalization with overlap
     ethr =  4.76E-09,  avg # of iterations =  2.4

     total cpu time spent up to now is      811.4 secs

     total energy              =   -6260.38856690 Ry
     Harris-Foulkes estimate   =   -6260.38856789 Ry
     estimated scf accuracy    <       0.00000234 Ry

     iteration # 11     ecut=   120.00 Ry     beta= 0.70
     Davidson diagonalization with overlap
     ethr =  6.35E-10,  avg # of iterations =  3.0

     total cpu time spent up to now is      885.7 secs

     total energy              =   -6260.38856743 Ry
     Harris-Foulkes estimate   =   -6260.38856751 Ry
     estimated scf accuracy    <       0.00000021 Ry

     iteration # 12     ecut=   120.00 Ry     beta= 0.70
     Davidson diagonalization with overlap
     ethr =  5.70E-11,  avg # of iterations =  2.3

     total cpu time spent up to now is      955.4 secs

     total energy              =   -6260.38856741 Ry
     Harris-Foulkes estimate   =   -6260.38856744 Ry
     estimated scf accuracy    <       0.00000005 Ry

     iteration # 13     ecut=   120.00 Ry     beta= 0.70
     Davidson diagonalization with overlap
     ethr =  1.40E-11,  avg # of iterations =  3.0

     total cpu time spent up to now is     1040.7 secs

     End of self-consistent calculation

          k = 0.0000 0.0000 0.0000 ( 62183 PWs)   bands (ev):

   -65.9210 -65.9206 -65.9200 -65.9200 -65.9196 -65.9195 -65.9190 -65.9185
   -30.3963 -30.3925 -30.3925 -30.3888 -30.3368 -30.3328 -30.3328 -30.3291
   -30.2651 -30.2616 -30.2581 -30.2581 -30.2536 -30.2520 -30.2477 -30.2477
   -30.1626 -30.1626 -30.1596 -30.1579 -30.1517 -30.1517 -30.1476 -30.1463
   -20.0773 -20.0771 -20.0770 -20.0768 -20.0721 -20.0717 -20.0717 -20.0714
   -20.0647 -20.0643 -20.0643 -20.0641 -20.0630 -20.0627 -20.0627 -20.0627
   -20.0625 -20.0625 -20.0624 -20.0622 -20.0606 -20.0603 -20.0603 -20.0602
   -20.0598 -20.0595 -20.0595 -20.0592 -20.0585 -20.0584 -20.0584 -20.0581
   -20.0426 -20.0425 -20.0423 -20.0423 -20.0422 -20.0422 -20.0419 -20.0418
   -19.9961 -19.9961 -19.9955 -19.9955 -19.9946 -19.9946 -19.9941 -19.9941
   -19.9903 -19.9903 -19.9899 -19.9899 -19.9889 -19.9889 -19.9883 -19.9883
    -9.8749  -9.5709  -9.4393  -9.4393  -9.1312  -9.1312  -9.0462  -8.9379
    -8.9256  -8.8247  -8.7836  -8.7836  -7.8307  -7.7659  -7.7658  -7.7114
    -7.6882  -7.6835  -7.6571  -7.6479  -7.5309  -7.5309  -7.4994  -7.4994
     1.3486   1.3495   1.4081   1.4081   1.4392   1.4392   1.4559   1.6871
     1.6928   1.6928   1.7728   1.9588   2.4905   2.5692   2.6161   2.6292
     2.7775   2.7775   4.2147   4.2147   4.4496   4.4504   4.8466   4.8810
     4.9582   4.9582   4.9842   4.9842   5.0982   5.0982   5.1389   5.4660
     5.4666   5.5795   5.5795   5.5997   5.5997   5.6542   5.6542   5.8744
     5.8744   5.9442   5.9456   5.9702   6.0051   6.1037   6.1110   6.2232
     6.2238   6.3171   6.3193   6.6235   6.6235   6.8529   6.8529   6.8911
     6.8936   6.9224   7.0653   7.0668   7.1362   7.1362   7.4698   7.4698
     7.5299   7.5299   7.8663   7.8815   8.1174   8.1175   8.1695   8.1898
     9.4854   9.4885  10.1214  10.1261  10.1562  10.1562  12.3852  12.3852
    12.4263  12.4264  12.5047  12.5048  12.6170  12.6425  12.9673  13.0274
    13.3351  13.3978  13.5123  13.5123  13.8692  14.2183  14.2183  14.2687
    14.3306  14.5530  14.5530  14.8628  15.5919  15.6098  15.6222  16.2074
    16.2074  16.9111  17.1422  17.1422  17.4096  17.4401

          k = 0.0000 0.0000 0.1667 ( 62176 PWs)   bands (ev):

   -65.9209 -65.9205 -65.9200 -65.9199 -65.9196 -65.9195 -65.9190 -65.9186
   -30.3961 -30.3928 -30.3923 -30.3891 -30.3366 -30.3331 -30.3326 -30.3294
   -30.2634 -30.2585 -30.2566 -30.2522 -30.2514 -30.2480 -30.2460 -30.2408
   -30.1694 -30.1655 -30.1623 -30.1600 -30.1578 -30.1534 -30.1514 -30.1473
   -20.0773 -20.0771 -20.0770 -20.0768 -20.0721 -20.0717 -20.0717 -20.0714
   -20.0647 -20.0643 -20.0641 -20.0640 -20.0630 -20.0628 -20.0627 -20.0627
   -20.0625 -20.0624 -20.0623 -20.0621 -20.0606 -20.0604 -20.0602 -20.0602
   -20.0599 -20.0597 -20.0595 -20.0593 -20.0586 -20.0585 -20.0584 -20.0582
   -20.0426 -20.0425 -20.0423 -20.0422 -20.0422 -20.0421 -20.0419 -20.0418
   -19.9960 -19.9958 -19.9954 -19.9952 -19.9947 -19.9942 -19.9942 -19.9937
   -19.9907 -19.9903 -19.9902 -19.9898 -19.9893 -19.9891 -19.9886 -19.9884
    -9.8291  -9.5170  -9.4563  -9.3829  -9.1462  -9.0547  -9.0420  -8.9007
    -8.8843  -8.8099  -8.7885  -8.7483  -7.8389  -7.7986  -7.7866  -7.7696
    -7.7539  -7.7149  -7.6759  -7.6583  -7.6426  -7.6302  -7.5408  -7.5092
     1.4097   1.4099   1.4387   1.4454   1.5246   1.5635   1.6793   1.6873
     1.6920   1.7965   1.9448   2.0887   2.5767   2.6320   2.6608   2.7125
     2.7687   2.8683   4.1452   4.2163   4.4399   4.4590   4.4718   4.5841
     4.7191   4.8506   4.8602   5.0139   5.0229   5.0914   5.1206   5.3839
     5.4342   5.4586   5.5603   5.5845   5.6129   5.6596   5.6758   5.7156
     5.7936   5.8341   5.8564   5.9947   6.0252   6.1531   6.1752   6.2191
     6.3457   6.4768   6.5605   6.6094   6.7171   6.7452   6.8197   6.8768
     6.8835   6.9225   7.0236   7.0497   7.0855   7.1429   7.2638   7.2843
     7.2913   7.3646   7.8871   7.8908   8.0768   8.1312   8.1361   8.1832
     9.8126   9.8450  10.1278  10.1539  10.3799  10.4363  12.3315  12.3644
    12.4230  12.4516  12.4731  12.5331  12.6316  12.7317  12.9955  13.0335
    13.1933  13.3554  13.4199  13.5129  13.9643  14.1200  14.1697  14.2166
    14.3186  14.5469  14.6411  14.9727  15.5573  15.6376  15.6657  16.1790
    16.5095  16.8440  17.0799  17.3290  17.4867  17.5017

          k = 0.0000 0.0000 0.3333 ( 62180 PWs)   bands (ev):

   -65.9207 -65.9203 -65.9202 -65.9198 -65.9197 -65.9193 -65.9192 -65.9188
   -30.3955 -30.3936 -30.3918 -30.3899 -30.3359 -30.3339 -30.3321 -30.3302
   -30.2622 -30.2595 -30.2519 -30.2490 -30.2379 -30.2333 -30.2276 -30.2225
   -30.1879 -30.1836 -30.1773 -30.1727 -30.1614 -30.1590 -30.1506 -30.1483
   -20.0773 -20.0772 -20.0770 -20.0769 -20.0720 -20.0718 -20.0717 -20.0715
   -20.0646 -20.0644 -20.0638 -20.0637 -20.0630 -20.0629 -20.0629 -20.0626
   -20.0626 -20.0625 -20.0617 -20.0616 -20.0605 -20.0605 -20.0602 -20.0602
   -20.0600 -20.0599 -20.0595 -20.0594 -20.0590 -20.0589 -20.0584 -20.0583
   -20.0425 -20.0424 -20.0423 -20.0422 -20.0421 -20.0421 -20.0420 -20.0419
   -19.9957 -19.9953 -19.9950 -19.9946 -19.9945 -19.9943 -19.9932 -19.9927
   -19.9918 -19.9914 -19.9904 -19.9899 -19.9899 -19.9895 -19.9891 -19.9887
    -9.7178  -9.5084  -9.3917  -9.2548  -9.1917  -9.0834  -8.8446  -8.8016
    -8.7883  -8.7396  -8.6997  -8.6155  -8.1126  -8.0876  -8.0008  -7.9713
    -7.8024  -7.7799  -7.7485  -7.7243  -7.6451  -7.6128  -7.5682  -7.5364
     1.4137   1.4206   1.4619   1.4890   1.6296   1.6410   1.6628   1.6780
     2.3746   2.4088   2.5773   2.6571   2.6585   2.7634   2.8262   2.9283
     2.9565   3.1125   3.8481   3.8942   3.9555   4.0475   4.2296   4.3720
     4.4009   4.5951   4.6387   4.8239   4.8576   4.9120   5.0443   5.0631
     5.2391   5.2851   5.3256   5.3952   5.5359   5.5687   5.6550   5.7143
     5.7400   5.7905   5.8253   6.0453   6.0577   6.2590   6.3077   6.3388
     6.4028   6.4322   6.5753   6.5796   6.6315   6.6441   6.7208   6.8275
     6.8770   6.9190   6.9313   7.0725   7.0945   7.1189   7.1411   7.2110
     7.3816   7.4088   7.8326   7.8524   7.9531   8.0048   8.1647   8.1834
    10.1231  10.1468  10.5122  10.5962  10.9831  11.1040  11.9704  12.0276
    12.1857  12.5940  12.6062  12.6222  12.6629  12.7164  12.8204  12.9959
    13.0330  13.2310  13.2927  13.5222  13.7931  13.8204  14.1783  14.2120
    14.3890  14.5271  14.9297  15.2716  15.4462  15.7699  16.0172  16.0924
    16.2785  17.3300  17.4540  17.6139  17.6326  17.7447

          k = 0.0000 0.0000-0.5000 ( 62208 PWs)   bands (ev):

   -65.9205 -65.9205 -65.9201 -65.9201 -65.9195 -65.9195 -65.9190 -65.9190
   -30.3946 -30.3946 -30.3909 -30.3909 -30.3349 -30.3349 -30.3312 -30.3312
   -30.2608 -30.2608 -30.2504 -30.2504 -30.2130 -30.2130 -30.2085 -30.2085
   -30.2025 -30.2025 -30.1975 -30.1975 -30.1603 -30.1603 -30.1494 -30.1494
   -20.0772 -20.0772 -20.0770 -20.0770 -20.0719 -20.0719 -20.0716 -20.0716
   -20.0645 -20.0645 -20.0633 -20.0633 -20.0633 -20.0633 -20.0628 -20.0628
   -20.0625 -20.0625 -20.0610 -20.0610 -20.0609 -20.0609 -20.0604 -20.0604
   -20.0596 -20.0596 -20.0595 -20.0595 -20.0594 -20.0594 -20.0583 -20.0583
   -20.0424 -20.0424 -20.0423 -20.0423 -20.0420 -20.0420 -20.0420 -20.0420
   -19.9953 -19.9953 -19.9949 -19.9949 -19.9932 -19.9932 -19.9929 -19.9929
   -19.9918 -19.9918 -19.9913 -19.9913 -19.9895 -19.9895 -19.9891 -19.9891
    -9.5980  -9.5980  -9.2718  -9.2718  -9.1442  -9.1442  -8.8199  -8.8199
    -8.4649  -8.4649  -8.4357  -8.4356  -8.4119  -8.4119  -8.3405  -8.3404
    -7.7933  -7.7933  -7.7369  -7.7369  -7.6062  -7.6062  -7.5742  -7.5741
     1.4181   1.4181   1.4817   1.4817   1.6465   1.6465   1.6692   1.6692
     2.6929   2.6929   3.0644   3.0645   3.2147   3.2147   3.2230   3.2230
     3.3739   3.3739   3.4447   3.4447   3.5892   3.5892   3.8658   3.8658
     3.9546   3.9546   4.5282   4.5282   4.7786   4.7786   4.9769   4.9769
     5.2991   5.2991   5.4301   5.4301   5.4425   5.4425   5.6968   5.6968
     5.7904   5.7904   5.9734   5.9734   6.2422   6.2422   6.3165   6.3165
     6.4077   6.4077   6.5102   6.5102   6.5301   6.5301   6.6179   6.6179
     6.8485   6.8485   6.8816   6.8816   7.1181   7.1181   7.5651   7.5651
     7.6307   7.6308   7.7390   7.7390   7.7620   7.7620   8.1805   8.1805
    10.1357  10.1357  11.2961  11.2961  11.3799  11.3799  11.6660  11.6660
    11.8932  11.8932  12.6728  12.6728  12.8149  12.8149  12.9363  12.9363
    13.0372  13.0372  13.3880  13.3880  13.5799  13.5799  14.2047  14.2047
    14.4836  14.4836  15.2386  15.2386  15.7157  15.7157  15.9534  15.9534
    16.7427  16.7427  17.8125  17.8126  18.0862  18.1563

          k = 0.0000 0.1578 0.0000 ( 62155 PWs)   bands (ev):

   -65.9210 -65.9206 -65.9200 -65.9199 -65.9196 -65.9196 -65.9189 -65.9186
   -30.3923 -30.3885 -30.3885 -30.3848 -30.3408 -30.3368 -30.3368 -30.3331
   -30.2649 -30.2619 -30.2581 -30.2581 -30.2535 -30.2521 -30.2477 -30.2477
   -30.1625 -30.1625 -30.1595 -30.1580 -30.1517 -30.1517 -30.1476 -30.1464
   -20.0770 -20.0767 -20.0767 -20.0764 -20.0724 -20.0721 -20.0721 -20.0717
   -20.0647 -20.0643 -20.0643 -20.0641 -20.0630 -20.0627 -20.0627 -20.0627
   -20.0624 -20.0624 -20.0624 -20.0623 -20.0606 -20.0603 -20.0603 -20.0603
   -20.0597 -20.0595 -20.0595 -20.0592 -20.0585 -20.0584 -20.0584 -20.0582
   -20.0426 -20.0425 -20.0423 -20.0423 -20.0422 -20.0422 -20.0419 -20.0418
   -19.9961 -19.9961 -19.9955 -19.9955 -19.9946 -19.9946 -19.9941 -19.9941
   -19.9903 -19.9903 -19.9899 -19.9899 -19.9889 -19.9889 -19.9883 -19.9883
    -9.8439  -9.5830  -9.3991  -9.3991  -9.1391  -9.1391  -8.9723  -8.9371
    -8.9263  -8.7805  -8.7488  -8.7488  -7.9232  -7.8647  -7.8647  -7.8181
    -7.6889  -7.6826  -7.6581  -7.6495  -7.5304  -7.5304  -7.5005  -7.5004
     1.3487   1.3494   1.4200   1.4200   1.4413   1.4413   1.6022   1.7720
     1.8677   1.9194   1.9194   2.1105   2.4957   2.5637   2.6882   2.7023
     2.8463   2.8463   4.0805   4.0806   4.1692   4.1696   4.8027   4.9429
     4.9545   4.9545   4.9743   4.9744   5.0058   5.0399   5.0399   5.3385
     5.3385   5.5401   5.5401   5.6364   5.6776   5.7076   5.7126   5.7126
     5.8674   5.8709   5.9297   5.9298   6.0104   6.1143   6.1179   6.2243
     6.2275   6.3171   6.3182   6.6466   6.6466   6.8641   6.8868   6.8868
     6.9225   6.9337   6.9492   7.0596   7.0609   7.0609   7.4765   7.4765
     7.5310   7.5310   7.8705   7.8805   8.0762   8.0762   8.0934   8.1078
     9.4860   9.4897  10.3185  10.3195  10.3236  10.3236  12.2759  12.2759
    12.4329  12.4329  12.4621  12.4840  12.5001  12.5001  12.9748  13.0269
    13.3699  13.4258  13.5156  13.5156  14.0696  14.1574  14.1574  14.1715
    14.3447  14.7976  14.7976  15.0422  15.6097  15.6199  15.9911  16.1732
    16.1732  16.5713  17.2739  17.2739  17.4682  17.5212

          k = 0.0000 0.1578 0.1667 ( 62174 PWs)   bands (ev):

   -65.9209 -65.9205 -65.9200 -65.9199 -65.9197 -65.9195 -65.9190 -65.9186
   -30.3921 -30.3888 -30.3883 -30.3851 -30.3405 -30.3371 -30.3366 -30.3334
   -30.2634 -30.2585 -30.2567 -30.2522 -30.2514 -30.2481 -30.2461 -30.2409
   -30.1693 -30.1654 -30.1622 -30.1600 -30.1578 -30.1534 -30.1514 -30.1474
   -20.0770 -20.0767 -20.0767 -20.0765 -20.0724 -20.0721 -20.0721 -20.0718
   -20.0646 -20.0643 -20.0641 -20.0640 -20.0629 -20.0628 -20.0627 -20.0627
   -20.0625 -20.0624 -20.0623 -20.0621 -20.0605 -20.0604 -20.0602 -20.0602
   -20.0598 -20.0597 -20.0595 -20.0592 -20.0587 -20.0586 -20.0584 -20.0582
   -20.0426 -20.0425 -20.0423 -20.0422 -20.0422 -20.0421 -20.0419 -20.0418
   -19.9960 -19.9958 -19.9954 -19.9952 -19.9947 -19.9942 -19.9942 -19.9937
   -19.9907 -19.9903 -19.9902 -19.9898 -19.9893 -19.9891 -19.9886 -19.9884
    -9.7968  -9.5291  -9.4163  -9.3380  -9.1543  -9.0501  -8.9808  -8.8985
    -8.8849  -8.7684  -8.7535  -8.7182  -7.9234  -7.8744  -7.8634  -7.8245
    -7.8037  -7.7725  -7.6759  -7.6584  -7.6437  -7.6290  -7.5403  -7.5103
     1.4246   1.4261   1.4413   1.4476   1.6433   1.6875   1.6948   1.8777
     1.9140   1.9444   1.9487   2.1836   2.5833   2.6548   2.7042   2.7871
     2.8381   2.9366   4.0454   4.0958   4.1628   4.2070   4.4951   4.5809
     4.7351   4.7716   4.8528   4.9710   5.0002   5.0112   5.0572   5.2923
     5.3230   5.3754   5.4120   5.5620   5.6392   5.6586   5.7048   5.7330
     5.7849   5.8346   5.8660   5.8958   5.9454   6.1737   6.1910   6.2220
     6.2978   6.4640   6.5395   6.6346   6.7579   6.8138   6.8428   6.8627
     6.9053   6.9370   7.0076   7.0250   7.0642   7.0852   7.2644   7.2834
     7.3043   7.3656   7.8885   7.8904   8.0380   8.0635   8.0769   8.1038
     9.8193   9.8466  10.3197  10.3248  10.5442  10.5737  12.2524  12.3521
    12.3571  12.4104  12.4561  12.4793  12.5005  12.6183  13.0105  13.0332
    13.2223  13.3763  13.4288  13.5141  14.0055  14.0392  14.1411  14.1557
    14.4232  14.7916  14.9271  15.1364  15.6367  15.6648  15.9560  16.1460
    16.4731  16.7228  16.9670  17.4393  17.5524  17.5916

          k = 0.0000 0.1578 0.3333 ( 62200 PWs)   bands (ev):

   -65.9207 -65.9203 -65.9202 -65.9198 -65.9197 -65.9193 -65.9192 -65.9188
   -30.3915 -30.3896 -30.3878 -30.3859 -30.3399 -30.3379 -30.3361 -30.3342
   -30.2622 -30.2594 -30.2520 -30.2491 -30.2379 -30.2333 -30.2277 -30.2225
   -30.1878 -30.1836 -30.1773 -30.1727 -30.1614 -30.1589 -30.1506 -30.1483
   -20.0770 -20.0768 -20.0767 -20.0765 -20.0724 -20.0722 -20.0720 -20.0719
   -20.0645 -20.0644 -20.0638 -20.0637 -20.0630 -20.0629 -20.0629 -20.0626
   -20.0626 -20.0625 -20.0617 -20.0616 -20.0605 -20.0605 -20.0602 -20.0601
   -20.0600 -20.0600 -20.0594 -20.0593 -20.0590 -20.0590 -20.0584 -20.0583
   -20.0425 -20.0424 -20.0423 -20.0422 -20.0421 -20.0421 -20.0420 -20.0419
   -19.9957 -19.9953 -19.9950 -19.9946 -19.9945 -19.9943 -19.9932 -19.9927
   -19.9918 -19.9914 -19.9904 -19.9899 -19.9899 -19.9895 -19.9891 -19.9887
    -9.6826  -9.4692  -9.4033  -9.2005  -9.1966  -9.0100  -8.8209  -8.7963
    -8.7665  -8.7407  -8.6835  -8.5988  -8.1161  -8.0903  -8.0207  -7.9734
    -7.8885  -7.8723  -7.8457  -7.8162  -7.6448  -7.6140  -7.5677  -7.5375
     1.4372   1.4603   1.4644   1.4918   1.8069   1.8308   1.9100   1.9151
     2.3736   2.4177   2.5823   2.6720   2.7305   2.8227   2.8374   2.9256
     3.0329   3.1736   3.8477   3.8934   3.9486   3.9928   4.1854   4.2234
     4.2871   4.4194   4.6553   4.7684   4.8287   4.8930   4.9065   4.9413
     5.0861   5.2109   5.2465   5.2968   5.4322   5.4997   5.5828   5.6576
     5.7418   5.7799   5.8256   5.8729   6.0354   6.2083   6.2918   6.3299
     6.4029   6.5859   6.6217   6.6426   6.6944   6.7148   6.7771   6.8698
     6.8804   6.8926   6.9902   7.0214   7.0622   7.0993   7.1488   7.2018
     7.3758   7.4034   7.8357   7.8493   7.9199   7.9495   8.0945   8.1055
    10.3121  10.3229  10.5232  10.5984  11.0968  11.1922  11.9716  12.0257
    12.1524  12.4863  12.5685  12.6007  12.6482  12.6693  12.7687  12.8918
    13.0266  13.2303  13.3082  13.5145  13.6976  13.7351  14.1460  14.1520
    14.6273  14.7725  15.2692  15.4070  15.7597  15.8437  16.0313  16.0641
    16.4027  17.1678  17.2861  17.5066  17.7850  17.8246

          k = 0.0000 0.1578-0.5000 ( 62166 PWs)   bands (ev):

   -65.9205 -65.9205 -65.9201 -65.9201 -65.9194 -65.9194 -65.9191 -65.9191
   -30.3906 -30.3906 -30.3869 -30.3869 -30.3389 -30.3389 -30.3352 -30.3352
   -30.2608 -30.2608 -30.2505 -30.2505 -30.2130 -30.2130 -30.2085 -30.2085
   -30.2025 -30.2025 -30.1976 -30.1976 -30.1603 -30.1603 -30.1495 -30.1495
   -20.0769 -20.0769 -20.0766 -20.0766 -20.0723 -20.0723 -20.0720 -20.0720
   -20.0644 -20.0644 -20.0633 -20.0633 -20.0633 -20.0633 -20.0628 -20.0627
   -20.0625 -20.0625 -20.0610 -20.0610 -20.0609 -20.0609 -20.0604 -20.0604
   -20.0596 -20.0596 -20.0595 -20.0595 -20.0594 -20.0594 -20.0584 -20.0584
   -20.0424 -20.0424 -20.0423 -20.0423 -20.0420 -20.0420 -20.0420 -20.0420
   -19.9953 -19.9953 -19.9949 -19.9949 -19.9932 -19.9932 -19.9929 -19.9929
   -19.9918 -19.9918 -19.9913 -19.9913 -19.9895 -19.9895 -19.9891 -19.9891
    -9.5602  -9.5601  -9.2820  -9.2820  -9.0744  -9.0743  -8.7858  -8.7858
    -8.4676  -8.4676  -8.4335  -8.4335  -8.4210  -8.4209  -8.3355  -8.3355
    -7.8859  -7.8859  -7.8350  -7.8350  -7.6058  -7.6058  -7.5753  -7.5753
     1.4525   1.4525   1.4842   1.4842   1.8286   1.8286   1.9183   1.9183
     2.7620   2.7620   3.0819   3.0819   3.2098   3.2098   3.2674   3.2674
     3.3807   3.3807   3.4430   3.4430   3.5778   3.5779   3.8633   3.8633
     4.0016   4.0017   4.3217   4.3217   4.6924   4.6924   4.8051   4.8051
     5.1253   5.1253   5.3926   5.3926   5.4079   5.4079   5.5544   5.5544
     5.7458   5.7458   5.8503   5.8503   6.2448   6.2448   6.3852   6.3852
     6.4355   6.4355   6.5324   6.5324   6.6058   6.6058   6.7073   6.7073
     6.9035   6.9035   6.9077   6.9077   7.0417   7.0417   7.5732   7.5732
     7.6236   7.6236   7.7142   7.7142   7.7359   7.7359   8.1047   8.1047
    10.3212  10.3212  11.3028  11.3028  11.3775  11.3775  11.7299  11.7299
    11.9523  11.9523  12.5440  12.5440  12.7900  12.7900  12.9414  12.9414
    12.9811  12.9811  13.2910  13.2910  13.5450  13.5450  14.1482  14.1482
    14.7319  14.7319  15.6000  15.6001  15.8578  15.8578  15.9341  15.9341
    16.7807  16.7807  17.6205  17.6205  18.1007  18.1007

          k = 0.0000 0.3156 0.0000 ( 62111 PWs)   bands (ev):

   -65.9209 -65.9207 -65.9199 -65.9199 -65.9197 -65.9196 -65.9188 -65.9186
   -30.3814 -30.3776 -30.3776 -30.3740 -30.3516 -30.3477 -30.3477 -30.3441
   -30.2642 -30.2625 -30.2581 -30.2580 -30.2534 -30.2525 -30.2479 -30.2479
   -30.1625 -30.1625 -30.1591 -30.1582 -30.1518 -30.1518 -30.1474 -30.1467
   -20.0760 -20.0758 -20.0757 -20.0755 -20.0734 -20.0731 -20.0731 -20.0728
   -20.0645 -20.0642 -20.0642 -20.0642 -20.0629 -20.0628 -20.0628 -20.0626
   -20.0625 -20.0624 -20.0624 -20.0624 -20.0605 -20.0604 -20.0604 -20.0603
   -20.0595 -20.0594 -20.0594 -20.0591 -20.0587 -20.0586 -20.0586 -20.0583
   -20.0426 -20.0425 -20.0423 -20.0422 -20.0422 -20.0422 -20.0419 -20.0418
   -19.9961 -19.9961 -19.9955 -19.9955 -19.9946 -19.9945 -19.9941 -19.9941
   -19.9903 -19.9903 -19.9899 -19.9899 -19.9889 -19.9889 -19.9883 -19.9883
    -9.7681  -9.6205  -9.3072  -9.3072  -9.1651  -9.1651  -8.9347  -8.9285
    -8.7636  -8.6417  -8.6284  -8.6284  -8.1619  -8.1134  -8.1134  -8.0888
    -7.6864  -7.6811  -7.6597  -7.6537  -7.5286  -7.5286  -7.5027  -7.5027
     1.3488   1.3491   1.4258   1.4258   1.4439   1.4440   1.7313   1.7689
     2.4201   2.5098   2.5490   2.5702   2.5702   2.7395   2.9000   2.9217
     3.0489   3.0489   3.6872   3.6928   3.7363   3.7364   4.1881   4.5169
     4.5170   4.7889   4.9605   4.9605   4.9883   4.9883   5.0996   5.0996
     5.1115   5.1181   5.4424   5.4424   5.6335   5.6369   5.7712   5.7712
     5.9159   5.9160   5.9588   5.9645   6.1134   6.1155   6.1240   6.2357
     6.2426   6.3035   6.3037   6.5769   6.7072   6.7072   6.9251   6.9251
     6.9695   7.0380   7.1282   7.1299   7.1519   7.1519   7.4848   7.4848
     7.5341   7.5341   7.8471   7.8562   7.8891   7.8906   7.9038   7.9038
     9.4875   9.4903  10.7725  10.7725  10.8132  10.8219  11.9086  11.9086
    12.0362  12.0537  12.4511  12.4511  12.5003  12.5003  12.9926  13.0226
    13.4808  13.5199  13.5727  13.5727  13.9253  13.9412  13.9535  13.9535
    14.8347  15.3565  15.3565  15.6095  15.6150  15.6865  15.9901  16.0573
    16.0573  16.9820  17.2877  17.6426  17.7272  17.7272

          k = 0.0000 0.3156 0.1667 ( 62183 PWs)   bands (ev):

   -65.9208 -65.9206 -65.9199 -65.9198 -65.9197 -65.9196 -65.9189 -65.9187
   -30.3812 -30.3779 -30.3774 -30.3743 -30.3514 -30.3480 -30.3475 -30.3444
   -30.2631 -30.2584 -30.2570 -30.2522 -30.2514 -30.2483 -30.2462 -30.2411
   -30.1693 -30.1653 -30.1622 -30.1601 -30.1579 -30.1534 -30.1515 -30.1475
   -20.0760 -20.0758 -20.0757 -20.0755 -20.0734 -20.0731 -20.0731 -20.0728
   -20.0645 -20.0642 -20.0641 -20.0640 -20.0629 -20.0628 -20.0627 -20.0627
   -20.0625 -20.0624 -20.0623 -20.0622 -20.0605 -20.0604 -20.0603 -20.0603
   -20.0596 -20.0596 -20.0594 -20.0592 -20.0588 -20.0587 -20.0586 -20.0584
   -20.0426 -20.0425 -20.0423 -20.0422 -20.0422 -20.0422 -20.0419 -20.0419
   -19.9960 -19.9958 -19.9954 -19.9952 -19.9947 -19.9942 -19.9942 -19.9937
   -19.9907 -19.9903 -19.9902 -19.9898 -19.9893 -19.9891 -19.9886 -19.9884
    -9.7182  -9.5669  -9.3246  -9.2339  -9.1810  -9.0771  -8.8948  -8.8871
    -8.7718  -8.6346  -8.6330  -8.6100  -8.1619  -8.1207  -8.1099  -8.0946
    -7.8037  -7.7768  -7.6743  -7.6574  -7.6460  -7.6303  -7.5385  -7.5126
     1.4292   1.4315   1.4428   1.4505   1.6762   1.6963   1.8894   1.9409
     2.4231   2.5468   2.5709   2.5993   2.6397   2.7302   2.9185   3.0132
     3.0434   3.1456   3.6912   3.7218   3.7384   3.7826   4.1792   4.4777
     4.5314   4.5334   4.6092   4.7915   4.8180   4.9332   4.9968   5.0260
     5.0997   5.1307   5.2445   5.3781   5.4725   5.5424   5.6428   5.6941
     5.7524   5.8572   5.8694   5.8943   6.1055   6.1668   6.2080   6.2357
     6.3110   6.4710   6.5194   6.6362   6.6972   6.9059   6.9312   6.9850
     7.0171   7.0346   7.1154   7.1237   7.1374   7.1607   7.2686   7.2850
     7.3309   7.3741   7.8336   7.8556   7.8682   7.8880   7.9028   7.9055
     9.8302   9.8457  10.7769  10.8160  10.9564  10.9849  11.9063  12.0031
    12.0479  12.1227  12.3630  12.4063  12.5042  12.5555  13.0355  13.0399
    13.3232  13.4408  13.5022  13.5685  13.7846  13.8290  13.9350  13.9500
    14.9747  15.3472  15.5469  15.6377  15.6638  15.7526  16.0305  16.1525
    16.3487  16.9450  17.3375  17.3781  17.7132  17.8405

          k = 0.0000 0.3156 0.3333 ( 62188 PWs)   bands (ev):

   -65.9206 -65.9204 -65.9201 -65.9199 -65.9196 -65.9194 -65.9191 -65.9189
   -30.3806 -30.3787 -30.3769 -30.3750 -30.3507 -30.3488 -30.3470 -30.3452
   -30.2621 -30.2594 -30.2521 -30.2493 -30.2378 -30.2333 -30.2278 -30.2227
   -30.1878 -30.1835 -30.1774 -30.1728 -30.1613 -30.1589 -30.1507 -30.1484
   -20.0760 -20.0759 -20.0757 -20.0756 -20.0734 -20.0732 -20.0730 -20.0729
   -20.0644 -20.0643 -20.0638 -20.0637 -20.0630 -20.0629 -20.0628 -20.0626
   -20.0626 -20.0625 -20.0617 -20.0616 -20.0605 -20.0604 -20.0601 -20.0601
   -20.0600 -20.0600 -20.0593 -20.0593 -20.0591 -20.0591 -20.0586 -20.0585
   -20.0425 -20.0424 -20.0423 -20.0422 -20.0421 -20.0421 -20.0419 -20.0419
   -19.9957 -19.9953 -19.9950 -19.9946 -19.9945 -19.9943 -19.9932 -19.9927
   -19.9918 -19.9914 -19.9904 -19.9899 -19.9899 -19.9895 -19.9891 -19.9887
    -9.5975  -9.4402  -9.3778  -9.2294  -9.0510  -8.8289  -8.8026  -8.7760
    -8.7448  -8.6472  -8.5968  -8.5319  -8.1946  -8.1809  -8.1145  -8.1000
    -8.0904  -8.0364  -7.9702  -7.9303  -7.6429  -7.6166  -7.5659  -7.5399
     1.4471   1.4676   1.4739   1.4958   2.2775   2.3620   2.3791   2.4547
     2.5597   2.5834   2.5934   2.8183   2.8710   2.8985   2.9440   3.0293
     3.2630   3.3630   3.6794   3.6943   3.7984   3.8374   3.9362   3.9479
     4.1564   4.3447   4.4509   4.4749   4.5436   4.6318   4.7020   4.8656
     4.8875   4.9016   5.0476   5.1118   5.2439   5.2789   5.3044   5.4369
     5.4514   5.6724   5.6929   5.8512   6.2096   6.2689   6.2919   6.3455
     6.4825   6.6497   6.6899   6.7362   6.7947   6.8649   6.8859   6.9191
     6.9818   7.0223   7.0829   7.1016   7.1245   7.1956   7.2141   7.2488
     7.3518   7.3914   7.7629   7.7837   7.8365   7.8430   7.8752   7.8973
    10.5436  10.5692  10.7922  10.8205  11.4047  11.4605  11.8852  11.9851
    12.0232  12.0806  12.2998  12.3435  12.6718  12.7316  12.7590  12.8006
    12.9887  13.2253  13.3006  13.4857  13.5627  13.6024  13.9328  13.9448
    15.1770  15.3179  15.6978  15.9362  15.9539  16.0652  16.1217  16.6574
    16.8081  16.8175  17.1331  17.5853  17.6927  17.8098

          k = 0.0000 0.3156-0.5000 ( 62254 PWs)   bands (ev):

   -65.9204 -65.9204 -65.9202 -65.9202 -65.9194 -65.9194 -65.9192 -65.9192
   -30.3797 -30.3797 -30.3760 -30.3760 -30.3498 -30.3498 -30.3461 -30.3461
   -30.2608 -30.2608 -30.2506 -30.2506 -30.2129 -30.2129 -30.2084 -30.2084
   -30.2026 -30.2026 -30.1977 -30.1977 -30.1602 -30.1602 -30.1496 -30.1496
   -20.0759 -20.0759 -20.0757 -20.0757 -20.0733 -20.0733 -20.0730 -20.0730
   -20.0644 -20.0643 -20.0633 -20.0633 -20.0632 -20.0632 -20.0627 -20.0627
   -20.0626 -20.0626 -20.0610 -20.0609 -20.0609 -20.0608 -20.0603 -20.0603
   -20.0596 -20.0596 -20.0596 -20.0596 -20.0593 -20.0593 -20.0585 -20.0585
   -20.0424 -20.0424 -20.0423 -20.0423 -20.0420 -20.0420 -20.0420 -20.0420
   -19.9953 -19.9953 -19.9949 -19.9949 -19.9933 -19.9932 -19.9929 -19.9929
   -19.9918 -19.9918 -19.9913 -19.9913 -19.9895 -19.9895 -19.9891 -19.9891
    -9.4703  -9.4703  -9.3149  -9.3149  -8.8815  -8.8815  -8.6780  -8.6780
    -8.4825  -8.4824  -8.4686  -8.4686  -8.4151  -8.4151  -8.3163  -8.3163
    -8.1109  -8.1109  -8.0673  -8.0673  -7.6040  -7.6040  -7.5778  -7.5778
     1.4660   1.4660   1.4881   1.4881   2.4246   2.4246   2.5656   2.5656
     2.9627   2.9627   3.1303   3.1303   3.1848   3.1849   3.3556   3.3556
     3.4098   3.4098   3.4487   3.4487   3.5335   3.5335   3.7097   3.7097
     4.1238   4.1239   4.1471   4.1471   4.2096   4.2096   4.4168   4.4168
     4.8640   4.8641   4.9681   4.9681   5.1723   5.1723   5.3719   5.3719
     5.5263   5.5264   5.7721   5.7721   6.3645   6.3645   6.4322   6.4322
     6.5413   6.5413   6.5953   6.5953   6.6196   6.6196   6.8199   6.8199
     7.0870   7.0870   7.1028   7.1028   7.1397   7.1397   7.5684   7.5684
     7.5937   7.5937   7.6299   7.6299   7.6649   7.6649   7.8834   7.8834
    10.7967  10.7967  11.3183  11.3183  11.3715  11.3715  11.8064  11.8064
    12.1336  12.1336  12.2684  12.2684  12.6672  12.6672  12.7602  12.7602
    12.9617  12.9617  13.1012  13.1012  13.5593  13.5593  13.9377  13.9377
    15.2656  15.2656  15.8294  15.8294  16.3008  16.3008  16.5445  16.5445
    16.9406  16.9406  17.2515  17.2515  17.9854  17.9854

          k = 0.0000-0.4733 0.0000 ( 62090 PWs)   bands (ev):

   -65.9208 -65.9208 -65.9198 -65.9198 -65.9198 -65.9197 -65.9188 -65.9187
   -30.3664 -30.3664 -30.3632 -30.3632 -30.3621 -30.3620 -30.3591 -30.3591
   -30.2634 -30.2634 -30.2580 -30.2580 -30.2530 -30.2530 -30.2480 -30.2480
   -30.1624 -30.1624 -30.1586 -30.1586 -30.1519 -30.1519 -30.1471 -30.1471
   -20.0747 -20.0747 -20.0745 -20.0744 -20.0744 -20.0744 -20.0741 -20.0741
   -20.0643 -20.0643 -20.0642 -20.0642 -20.0628 -20.0628 -20.0627 -20.0627
   -20.0625 -20.0625 -20.0624 -20.0624 -20.0605 -20.0605 -20.0604 -20.0604
   -20.0593 -20.0593 -20.0592 -20.0592 -20.0587 -20.0587 -20.0586 -20.0586
   -20.0426 -20.0425 -20.0422 -20.0422 -20.0422 -20.0422 -20.0419 -20.0419
   -19.9961 -19.9961 -19.9955 -19.9955 -19.9946 -19.9945 -19.9941 -19.9941
   -19.9903 -19.9903 -19.9899 -19.9899 -19.9889 -19.9889 -19.9883 -19.9883
    -9.6846  -9.6846  -9.2326  -9.2326  -9.2066  -9.2066  -8.9316  -8.9316
    -8.4651  -8.4651  -8.4040  -8.4040  -8.4030  -8.4030  -8.4015  -8.4014
    -7.6825  -7.6825  -7.6582  -7.6582  -7.5274  -7.5274  -7.5040  -7.5040
     1.3489   1.3489   1.4268   1.4268   1.4447   1.4447   1.7602   1.7602
     2.5292   2.5292   3.1768   3.1768   3.2572   3.2572   3.2921   3.2921
     3.3392   3.3392   3.3669   3.3669   3.5094   3.5094   3.5724   3.5724
     3.7272   3.7272   4.9713   4.9713   4.9739   4.9739   5.2629   5.2629
     5.2749   5.2749   5.3596   5.3596   5.3635   5.3635   5.8259   5.8259
     5.8339   5.8339   6.0544   6.0545   6.1015   6.1015   6.2426   6.2426
     6.2689   6.2689   6.3407   6.3407   6.7834   6.7834   6.8235   6.8235
     7.0052   7.0052   7.4646   7.4647   7.4832   7.4832   7.4930   7.4930
     7.5138   7.5138   7.5984   7.5984   7.6041   7.6041   7.8792   7.8792
     9.4892   9.4892  11.3442  11.3442  11.3717  11.3717  11.4312  11.4312
    11.4630  11.4630  12.4573  12.4573  12.5015  12.5015  13.0110  13.0110
    13.6699  13.6699  13.7025  13.7025  13.7261  13.7261  13.7287  13.7287
    15.3936  15.3937  15.6129  15.6129  15.7932  15.7932  15.8275  15.8275
    16.5915  16.5915  17.9304  17.9304  18.1732  18.1732

          k = 0.0000-0.4733 0.1667 ( 62182 PWs)   bands (ev):

   -65.9207 -65.9207 -65.9198 -65.9198 -65.9197 -65.9197 -65.9188 -65.9188
   -30.3663 -30.3662 -30.3635 -30.3630 -30.3624 -30.3620 -30.3594 -30.3593
   -30.2630 -30.2584 -30.2572 -30.2521 -30.2514 -30.2483 -30.2463 -30.2412
   -30.1692 -30.1652 -30.1621 -30.1601 -30.1579 -30.1534 -30.1516 -30.1475
   -20.0747 -20.0747 -20.0745 -20.0744 -20.0744 -20.0744 -20.0742 -20.0741
   -20.0643 -20.0642 -20.0642 -20.0640 -20.0628 -20.0628 -20.0627 -20.0626
   -20.0626 -20.0624 -20.0624 -20.0622 -20.0605 -20.0604 -20.0604 -20.0603
   -20.0595 -20.0594 -20.0593 -20.0592 -20.0588 -20.0587 -20.0587 -20.0586
   -20.0425 -20.0425 -20.0423 -20.0422 -20.0422 -20.0422 -20.0419 -20.0419
   -19.9960 -19.9958 -19.9954 -19.9952 -19.9947 -19.9942 -19.9942 -19.9937
   -19.9907 -19.9903 -19.9902 -19.9898 -19.9893 -19.9891 -19.9886 -19.9884
    -9.6337  -9.6307  -9.2492  -9.2236  -9.1484  -9.1231  -8.8919  -8.8895
    -8.4709  -8.4709  -8.4104  -8.4077  -8.4011  -8.4010  -8.3959  -8.3934
    -7.8025  -7.7784  -7.6731  -7.6568  -7.6471  -7.6314  -7.5373  -7.5139
     1.4296   1.4326   1.4430   1.4513   1.6797   1.6977   1.9237   1.9355
     2.6190   2.6195   3.1783   3.1898   3.2630   3.2710   3.2880   3.3181
     3.3335   3.3611   3.3623   3.4130   3.5054   3.5686   3.5696   3.6166
     3.7560   3.7577   4.5590   4.5623   4.9566   4.9846   5.0496   5.0803
     5.1814   5.1825   5.2476   5.2537   5.3721   5.3788   5.5614   5.5775
     5.7991   5.8041   5.8679   5.8749   6.1583   6.2084   6.2179   6.2227
     6.4417   6.4533   6.4708   6.5260   6.7713   6.8115   6.9529   6.9902
     7.0620   7.0686   7.2548   7.2780   7.2816   7.3181   7.4811   7.4974
     7.5085   7.5210   7.5455   7.5613   7.5721   7.5817   7.8937   7.8946
     9.8357   9.8436  11.3490  11.3757  11.4236  11.4436  11.4862  11.5009
    11.5540  11.5845  12.3662  12.4057  12.5097  12.5516  13.0466  13.0473
    13.4978  13.5083  13.5835  13.6044  13.6906  13.7135  13.7222  13.7281
    15.4782  15.5068  15.6884  15.7130  15.7733  15.8099  16.0596  16.0887
    16.6538  16.6553  17.8667  17.8774  17.9752  17.9754

          k = 0.0000-0.4733 0.3333 ( 62204 PWs)   bands (ev):

   -65.9205 -65.9205 -65.9200 -65.9200 -65.9195 -65.9195 -65.9190 -65.9190
   -30.3659 -30.3654 -30.3642 -30.3632 -30.3623 -30.3616 -30.3602 -30.3600
   -30.2621 -30.2594 -30.2522 -30.2493 -30.2378 -30.2332 -30.2279 -30.2227
   -30.1877 -30.1835 -30.1775 -30.1729 -30.1613 -30.1588 -30.1507 -30.1485
   -20.0747 -20.0747 -20.0746 -20.0745 -20.0744 -20.0744 -20.0742 -20.0742
   -20.0643 -20.0642 -20.0638 -20.0636 -20.0630 -20.0628 -20.0628 -20.0626
   -20.0626 -20.0625 -20.0617 -20.0616 -20.0605 -20.0604 -20.0601 -20.0601
   -20.0600 -20.0600 -20.0593 -20.0593 -20.0592 -20.0590 -20.0586 -20.0586
   -20.0425 -20.0424 -20.0423 -20.0423 -20.0421 -20.0421 -20.0419 -20.0419
   -19.9957 -19.9953 -19.9950 -19.9946 -19.9945 -19.9943 -19.9932 -19.9927
   -19.9918 -19.9914 -19.9904 -19.9899 -19.9899 -19.9895 -19.9891 -19.9887
    -9.5121  -9.5011  -9.2997  -9.2759  -8.9173  -8.8949  -8.7589  -8.7506
    -8.5029  -8.5013  -8.4319  -8.4295  -8.3910  -8.3904  -8.3663  -8.3615
    -8.0921  -8.0695  -7.9693  -7.9470  -7.6416  -7.6181  -7.5647  -7.5412
     1.4486   1.4686   1.4756   1.4968   2.3496   2.3657   2.5523   2.5684
     2.8792   2.8801   3.1804   3.2107   3.2707   3.2817   3.2855   3.3325
     3.3342   3.3449   3.4379   3.4894   3.4953   3.5590   3.7418   3.7567
     3.8275   3.8319   3.9315   3.9407   4.5348   4.5358   4.7085   4.7147
     4.8368   4.8549   4.9391   4.9567   5.2937   5.3015   5.3099   5.3184
     5.4292   5.4469   5.7288   5.7307   6.2772   6.2832   6.2991   6.3601
     6.5788   6.5978   6.7056   6.7653   6.7744   6.8206   6.9143   6.9568
     7.0808   7.1066   7.2204   7.2308   7.2445   7.2497   7.4621   7.4879
     7.5066   7.5246   7.5263   7.5444   7.5469   7.5594   7.8503   7.8513
    10.5554  10.5714  11.3631  11.3872  11.4085  11.4338  11.8561  11.8743
    11.8995  11.9252  11.9944  12.0243  12.6816  12.7160  12.8568  12.8621
    13.0311  13.0425  13.3214  13.3426  13.6968  13.6995  13.7157  13.7243
    15.5251  15.5616  15.7118  15.7469  16.2425  16.2701  16.7618  16.7813
    16.8759  16.8834  17.3654  17.3659  17.9789  17.9871

          k = 0.0000-0.4733-0.5000 ( 62208 PWs)   bands (ev):

   -65.9203 -65.9203 -65.9203 -65.9203 -65.9193 -65.9193 -65.9193 -65.9193
   -30.3651 -30.3651 -30.3643 -30.3643 -30.3613 -30.3613 -30.3609 -30.3609
   -30.2607 -30.2607 -30.2507 -30.2507 -30.2129 -30.2129 -30.2084 -30.2084
   -30.2027 -30.2027 -30.1977 -30.1977 -30.1601 -30.1601 -30.1496 -30.1496
   -20.0746 -20.0746 -20.0746 -20.0746 -20.0743 -20.0743 -20.0743 -20.0743
   -20.0643 -20.0643 -20.0634 -20.0634 -20.0632 -20.0632 -20.0627 -20.0627
   -20.0626 -20.0626 -20.0610 -20.0610 -20.0608 -20.0608 -20.0603 -20.0603
   -20.0597 -20.0597 -20.0596 -20.0596 -20.0592 -20.0592 -20.0586 -20.0586
   -20.0424 -20.0424 -20.0423 -20.0423 -20.0420 -20.0420 -20.0420 -20.0420
   -19.9953 -19.9953 -19.9949 -19.9949 -19.9933 -19.9932 -19.9929 -19.9929
   -19.9918 -19.9918 -19.9913 -19.9913 -19.9895 -19.9895 -19.9891 -19.9891
    -9.3879  -9.3879  -9.3683  -9.3683  -8.6392  -8.6392  -8.6247  -8.6247
    -8.5392  -8.5392  -8.5297  -8.5296  -8.3439  -8.3438  -8.3256  -8.3255
    -8.2638  -8.2638  -8.2441  -8.2441  -7.6027  -7.6027  -7.5792  -7.5792
     1.4678   1.4678   1.4893   1.4893   3.0601   3.0601   3.1137   3.1138
     3.2129   3.2129   3.2270   3.2270   3.2676   3.2676   3.2838   3.2838
     3.3798   3.3798   3.4054   3.4054   3.5189   3.5189   3.5647   3.5647
     3.6334   3.6334   3.7578   3.7578   4.3502   4.3502   4.3766   4.3766
     4.4514   4.4514   4.4966   4.4966   5.2794   5.2794   5.2961   5.2961
     5.5772   5.5772   5.6001   5.6001   6.4165   6.4165   6.4262   6.4262
     6.5874   6.5874   6.6138   6.6138   6.6899   6.6899   6.7249   6.7249
     7.3218   7.3218   7.3461   7.3461   7.3740   7.3740   7.4634   7.4634
     7.4966   7.4966   7.5401   7.5401   7.6509   7.6509   7.6619   7.6620
    11.2980  11.2980  11.3175  11.3175  11.4279  11.4279  11.4435  11.4435
    12.3651  12.3651  12.4014  12.4014  12.4262  12.4262  12.4599  12.4599
    12.9859  12.9859  13.0117  13.0117  13.7010  13.7010  13.7132  13.7132
    15.6159  15.6159  15.6532  15.6532  16.8404  16.8404  16.8734  16.8734
    17.4092  17.4092  17.4395  17.4395  17.5551  17.5551

          k = 0.1667 0.0000 0.1667 ( 62190 PWs)   bands (ev):

   -65.9209 -65.9204 -65.9200 -65.9200 -65.9196 -65.9195 -65.9191 -65.9187
   -30.3959 -30.3926 -30.3926 -30.3894 -30.3364 -30.3329 -30.3329 -30.3297
   -30.2580 -30.2550 -30.2518 -30.2517 -30.2464 -30.2449 -30.2412 -30.2411
   -30.1691 -30.1691 -30.1667 -30.1651 -30.1581 -30.1580 -30.1547 -30.1533
   -20.0773 -20.0771 -20.0771 -20.0768 -20.0720 -20.0718 -20.0717 -20.0714
   -20.0646 -20.0642 -20.0642 -20.0639 -20.0630 -20.0628 -20.0628 -20.0626
   -20.0625 -20.0623 -20.0622 -20.0620 -20.0605 -20.0603 -20.0603 -20.0601
   -20.0600 -20.0597 -20.0597 -20.0594 -20.0587 -20.0586 -20.0585 -20.0583
   -20.0425 -20.0424 -20.0423 -20.0422 -20.0422 -20.0421 -20.0419 -20.0418
   -19.9957 -19.9956 -19.9951 -19.9951 -19.9943 -19.9943 -19.9938 -19.9938
   -19.9906 -19.9906 -19.9902 -19.9902 -19.9894 -19.9894 -19.9888 -19.9888
    -9.7814  -9.4582  -9.3998  -9.3995  -9.0637  -9.0576  -9.0570  -8.8601
    -8.8481  -8.8002  -8.7539  -8.7535  -7.8430  -7.7941  -7.7903  -7.7854
    -7.7745  -7.7541  -7.7504  -7.7184  -7.6857  -7.6733  -7.6381  -7.6193
     1.5047   1.5557   1.5566   1.6069   1.6075   1.6713   1.6983   1.6993
     1.7997   1.7997   2.0289   2.1684   2.6645   2.7144   2.7277   2.7572
     2.8434   2.8800   4.1486   4.1490   4.4114   4.4129   4.5498   4.5503
     4.6410   4.6495   4.7375   4.7621   4.8177   4.8836   5.1033   5.3312
     5.3544   5.4077   5.4403   5.5304   5.5418   5.6954   5.6965   5.7375
     5.7423   5.7737   5.8267   5.8429   5.8532   6.0395   6.3703   6.4785
     6.5306   6.5520   6.6177   6.6833   6.7297   6.7359   6.7378   6.7853
     6.8333   6.9211   6.9244   6.9336   6.9761   7.0418   7.0498   7.1666
     7.3925   7.4542   7.8901   7.8902   8.0735   8.1218   8.1299   8.1498
    10.0287  10.1026  10.3780  10.3785  10.4027  10.4955  12.3868  12.3899
    12.4039  12.4182  12.4604  12.4858  12.7083  12.7330  13.0111  13.0532
    13.1440  13.2557  13.3140  13.4789  14.0099  14.0777  14.1230  14.1544
    14.2783  14.6323  14.6329  15.0901  15.5239  15.7142  15.7287  16.4710
    16.4773  17.0036  17.0107  17.2199  17.5372  17.5844

          k = 0.1667 0.0000 0.3333 ( 62179 PWs)   bands (ev):

   -65.9207 -65.9203 -65.9202 -65.9198 -65.9197 -65.9194 -65.9193 -65.9189
   -30.3953 -30.3934 -30.3921 -30.3902 -30.3357 -30.3337 -30.3324 -30.3304
   -30.2556 -30.2528 -30.2453 -30.2426 -30.2370 -30.2337 -30.2273 -30.2228
   -30.1875 -30.1840 -30.1771 -30.1732 -30.1682 -30.1654 -30.1573 -30.1550
   -20.0773 -20.0771 -20.0770 -20.0769 -20.0720 -20.0718 -20.0717 -20.0715
   -20.0644 -20.0642 -20.0638 -20.0637 -20.0630 -20.0630 -20.0628 -20.0626
   -20.0624 -20.0623 -20.0617 -20.0615 -20.0604 -20.0604 -20.0602 -20.0602
   -20.0600 -20.0599 -20.0596 -20.0595 -20.0590 -20.0590 -20.0585 -20.0584
   -20.0425 -20.0424 -20.0423 -20.0422 -20.0422 -20.0421 -20.0420 -20.0419
   -19.9954 -19.9950 -19.9946 -19.9945 -19.9942 -19.9940 -19.9933 -19.9928
   -19.9917 -19.9914 -19.9905 -19.9903 -19.9900 -19.9899 -19.9895 -19.9891
    -9.6657  -9.4515  -9.3197  -9.2700  -9.1039  -9.0934  -8.8092  -8.8026
    -8.7677  -8.7170  -8.6914  -8.6235  -8.1018  -8.0764  -8.0164  -7.9854
    -7.8046  -7.7842  -7.7611  -7.7516  -7.7330  -7.7280  -7.6882  -7.6605
     1.5175   1.5416   1.6194   1.6541   1.7159   1.7379   1.7927   1.8101
     2.3816   2.4165   2.5595   2.6423   2.7453   2.8394   2.9331   2.9640
     3.0445   3.1229   3.8794   3.9204   4.0165   4.0249   4.2208   4.3799
     4.4015   4.5788   4.5794   4.6259   4.6848   4.8392   4.8553   5.0057
     5.0634   5.1307   5.1772   5.2969   5.3567   5.4409   5.5910   5.7192
     5.7413   5.7908   5.8381   5.8571   5.8708   6.0497   6.2331   6.2943
     6.4612   6.5116   6.5291   6.6143   6.6434   6.7086   6.7122   6.7490
     6.8474   6.9264   6.9442   6.9616   7.1915   7.2273   7.2469   7.3258
     7.3970   7.4328   7.8412   7.8561   7.9707   8.0075   8.1331   8.1432
    10.3752  10.3838  10.6607  10.7342  10.9926  11.1267  12.0257  12.0772
    12.2338  12.5367  12.5688  12.6162  12.6585  12.7209  12.8745  12.9753
    13.0084  13.1417  13.2114  13.4079  13.7732  13.7917  14.0901  14.1184
    14.4159  14.6045  14.9158  15.4067  15.4168  15.9550  16.1098  16.3701
    16.4220  17.3007  17.4403  17.5680  17.6495  17.6754

          k = 0.1667 0.0000-0.5000 ( 62234 PWs)   bands (ev):

   -65.9204 -65.9204 -65.9200 -65.9200 -65.9195 -65.9195 -65.9191 -65.9191
   -30.3944 -30.3944 -30.3912 -30.3912 -30.3347 -30.3347 -30.3314 -30.3314
   -30.2542 -30.2542 -30.2437 -30.2437 -30.2126 -30.2126 -30.2089 -30.2089
   -30.2022 -30.2022 -30.1978 -30.1978 -30.1670 -30.1670 -30.1562 -30.1562
   -20.0772 -20.0772 -20.0770 -20.0770 -20.0719 -20.0719 -20.0716 -20.0716
   -20.0643 -20.0643 -20.0634 -20.0634 -20.0633 -20.0633 -20.0628 -20.0628
   -20.0624 -20.0623 -20.0610 -20.0610 -20.0608 -20.0608 -20.0603 -20.0603
   -20.0596 -20.0596 -20.0595 -20.0595 -20.0595 -20.0595 -20.0585 -20.0585
   -20.0424 -20.0424 -20.0423 -20.0423 -20.0421 -20.0421 -20.0420 -20.0420
   -19.9950 -19.9950 -19.9945 -19.9945 -19.9931 -19.9931 -19.9928 -19.9928
   -19.9919 -19.9919 -19.9914 -19.9914 -19.9899 -19.9899 -19.9895 -19.9895
    -9.5421  -9.5421  -9.1883  -9.1883  -9.1564  -9.1564  -8.7866  -8.7866
    -8.4671  -8.4670  -8.4463  -8.4463  -8.3997  -8.3997  -8.3426  -8.3425
    -7.7950  -7.7950  -7.7411  -7.7411  -7.7251  -7.7251  -7.6970  -7.6970
     1.5274   1.5274   1.6370   1.6370   1.7369   1.7369   1.8195   1.8195
     2.7741   2.7741   3.0792   3.0793   3.1657   3.1657   3.2914   3.2915
     3.3999   3.3999   3.5084   3.5084   3.6376   3.6377   3.8859   3.8859
     3.9478   3.9478   4.4900   4.4900   4.5940   4.5940   4.9513   4.9513
     5.1141   5.1141   5.1372   5.1372   5.3255   5.3255   5.6595   5.6595
     5.8294   5.8294   5.8709   5.8709   5.9831   5.9831   6.0151   6.0151
     6.4000   6.4000   6.4790   6.4791   6.7042   6.7042   6.7737   6.7737
     6.8855   6.8855   7.0375   7.0375   7.1018   7.1018   7.6057   7.6057
     7.6552   7.6552   7.7527   7.7527   7.7698   7.7698   8.1424   8.1424
    10.3911  10.3911  11.3711  11.3711  11.4559  11.4559  11.6886  11.6886
    11.9078  11.9078  12.7355  12.7355  12.7682  12.7682  12.8313  12.8313
    13.0310  13.0310  13.3655  13.3655  13.4739  13.4740  14.1016  14.1016
    14.5438  14.5438  15.2163  15.2163  15.8573  15.8573  16.2088  16.2088
    16.8472  16.8472  17.8263  17.8263  17.8753  17.8753

          k = 0.1667 0.1578 0.1667 ( 62169 PWs)   bands (ev):

   -65.9208 -65.9205 -65.9200 -65.9199 -65.9196 -65.9196 -65.9191 -65.9187
   -30.3919 -30.3886 -30.3886 -30.3854 -30.3403 -30.3369 -30.3369 -30.3337
   -30.2578 -30.2552 -30.2518 -30.2517 -30.2464 -30.2450 -30.2413 -30.2412
   -30.1690 -30.1690 -30.1666 -30.1651 -30.1581 -30.1580 -30.1546 -30.1535
   -20.0770 -20.0767 -20.0767 -20.0765 -20.0724 -20.0721 -20.0721 -20.0718
   -20.0645 -20.0642 -20.0641 -20.0640 -20.0630 -20.0628 -20.0628 -20.0626
   -20.0625 -20.0623 -20.0622 -20.0620 -20.0605 -20.0603 -20.0603 -20.0602
   -20.0599 -20.0597 -20.0596 -20.0593 -20.0587 -20.0586 -20.0586 -20.0583
   -20.0425 -20.0424 -20.0423 -20.0422 -20.0422 -20.0421 -20.0419 -20.0419
   -19.9957 -19.9957 -19.9951 -19.9951 -19.9943 -19.9943 -19.9938 -19.9938
   -19.9906 -19.9906 -19.9902 -19.9902 -19.9894 -19.9894 -19.9888 -19.9888
    -9.7476  -9.4705  -9.3553  -9.3549  -9.0659  -9.0653  -8.9897  -8.8593
    -8.8484  -8.7592  -8.7235  -8.7231  -7.9244  -7.8723  -7.8723  -7.8316
    -7.7943  -7.7925  -7.7657  -7.7587  -7.6862  -7.6703  -7.6368  -7.6208
     1.6048   1.6061   1.6463   1.6467   1.6951   1.6996   1.7074   1.8767
     1.9457   1.9465   2.0283   2.2406   2.6735   2.7514   2.7880   2.8025
     2.9163   2.9437   4.0514   4.0703   4.1896   4.1952   4.5432   4.5440
     4.6421   4.6497   4.7272   4.7473   4.7948   4.8219   4.9101   5.2597
     5.2853   5.3148   5.3286   5.4421   5.4575   5.6393   5.6512   5.6825
     5.7968   5.8142   5.8168   5.8609   5.8617   5.8948   6.3898   6.4189
     6.4631   6.5419   6.6107   6.7025   6.7445   6.7858   6.8285   6.8331
     6.8629   6.8867   6.9455   6.9553   7.0113   7.0243   7.0467   7.1727
     7.3968   7.4521   7.8902   7.8903   8.0220   8.0596   8.0693   8.0738
    10.0489  10.1028  10.5264  10.5417  10.5585  10.6253  12.3098  12.3470
    12.3947  12.3956  12.4317  12.4398  12.5754  12.5946  13.0316  13.0489
    13.1755  13.2697  13.3164  13.4815  13.9892  13.9943  14.0255  14.0798
    14.5156  14.9192  14.9211  15.2373  15.7151  15.7268  15.9238  16.4383
    16.4420  16.8440  17.1088  17.1112  17.6180  17.6664

          k = 0.1667 0.1578 0.3333 ( 62194 PWs)   bands (ev):

   -65.9206 -65.9203 -65.9201 -65.9198 -65.9198 -65.9194 -65.9192 -65.9189
   -30.3913 -30.3894 -30.3881 -30.3862 -30.3397 -30.3377 -30.3364 -30.3345
   -30.2556 -30.2528 -30.2454 -30.2427 -30.2370 -30.2337 -30.2273 -30.2229
   -30.1875 -30.1840 -30.1772 -30.1732 -30.1682 -30.1653 -30.1573 -30.1550
   -20.0769 -20.0768 -20.0767 -20.0766 -20.0724 -20.0722 -20.0721 -20.0719
   -20.0644 -20.0642 -20.0638 -20.0637 -20.0630 -20.0630 -20.0628 -20.0626
   -20.0624 -20.0623 -20.0617 -20.0616 -20.0604 -20.0604 -20.0602 -20.0601
   -20.0600 -20.0599 -20.0596 -20.0595 -20.0591 -20.0590 -20.0586 -20.0585
   -20.0425 -20.0424 -20.0423 -20.0422 -20.0422 -20.0421 -20.0420 -20.0419
   -19.9954 -19.9950 -19.9946 -19.9945 -19.9942 -19.9940 -19.9933 -19.9928
   -19.9917 -19.9914 -19.9905 -19.9903 -19.9900 -19.9899 -19.9895 -19.9891
    -9.6280  -9.4080  -9.3317  -9.2124  -9.1129  -9.0202  -8.8140  -8.7827
    -8.7368  -8.7175  -8.6775  -8.6062  -8.1054  -8.0795  -8.0369  -7.9864
    -7.8871  -7.8727  -7.8508  -7.8208  -7.7642  -7.7344  -7.6890  -7.6604
     1.6522   1.6674   1.7169   1.7392   1.8288   1.8347   1.9177   1.9471
     2.3808   2.4253   2.5625   2.6549   2.8187   2.9024   2.9532   3.0362
     3.0445   3.1779   3.8801   3.9202   3.9724   4.0146   4.1893   4.2429
     4.3099   4.4330   4.5913   4.6473   4.7084   4.7690   4.8169   4.8492
     4.9680   5.0136   5.0561   5.2010   5.2904   5.3290   5.3738   5.6437
     5.6914   5.7063   5.7935   5.8535   5.8690   5.8794   6.2396   6.2938
     6.4348   6.5579   6.5957   6.6748   6.7285   6.7497   6.7739   6.8373
     6.9024   6.9341   6.9612   6.9987   7.1878   7.2201   7.2450   7.3279
     7.3895   7.4283   7.8422   7.8522   7.9265   7.9523   8.0674   8.0713
    10.5055  10.5420  10.6879  10.7437  11.1056  11.2113  12.0265  12.0742
    12.2096  12.5152  12.5536  12.5693  12.6006  12.6671  12.8055  12.8613
    13.0132  13.1534  13.1972  13.4063  13.6703  13.6973  14.0100  14.0371
    14.7246  14.8967  15.2591  15.5213  15.8194  15.9502  16.1173  16.3457
    16.5221  17.2258  17.2607  17.4981  17.6094  17.7963

          k = 0.1667 0.1578-0.5000 ( 62218 PWs)   bands (ev):

   -65.9204 -65.9204 -65.9200 -65.9200 -65.9195 -65.9195 -65.9191 -65.9191
   -30.3904 -30.3904 -30.3872 -30.3872 -30.3387 -30.3387 -30.3355 -30.3355
   -30.2542 -30.2542 -30.2438 -30.2438 -30.2126 -30.2126 -30.2088 -30.2088
   -30.2022 -30.2022 -30.1979 -30.1979 -30.1670 -30.1670 -30.1562 -30.1562
   -20.0769 -20.0769 -20.0766 -20.0766 -20.0723 -20.0723 -20.0720 -20.0720
   -20.0643 -20.0643 -20.0634 -20.0634 -20.0633 -20.0633 -20.0628 -20.0628
   -20.0623 -20.0623 -20.0610 -20.0610 -20.0609 -20.0608 -20.0603 -20.0603
   -20.0596 -20.0596 -20.0596 -20.0595 -20.0595 -20.0595 -20.0585 -20.0585
   -20.0424 -20.0424 -20.0423 -20.0423 -20.0421 -20.0421 -20.0420 -20.0420
   -19.9950 -19.9950 -19.9945 -19.9945 -19.9931 -19.9931 -19.9928 -19.9928
   -19.9919 -19.9919 -19.9914 -19.9914 -19.9899 -19.9899 -19.9895 -19.9895
    -9.5008  -9.5008  -9.1988  -9.1988  -9.0870  -9.0870  -8.7557  -8.7557
    -8.4698  -8.4698  -8.4503  -8.4502  -8.4022  -8.4021  -8.3382  -8.3382
    -7.8845  -7.8845  -7.8407  -7.8407  -7.7266  -7.7266  -7.6972  -7.6972
     1.6610   1.6610   1.7379   1.7379   1.8394   1.8394   1.9481   1.9481
     2.8432   2.8432   3.0984   3.0984   3.1841   3.1841   3.3087   3.3087
     3.4032   3.4032   3.5131   3.5131   3.6278   3.6279   3.8859   3.8859
     3.9947   3.9947   4.3302   4.3302   4.5966   4.5966   4.7292   4.7292
     4.9922   4.9922   5.1104   5.1104   5.1888   5.1888   5.4867   5.4867
     5.7293   5.7293   5.8107   5.8107   5.9163   5.9163   5.9893   5.9894
     6.5244   6.5244   6.6487   6.6487   6.6955   6.6955   6.8252   6.8252
     6.9522   6.9522   7.0085   7.0085   7.1214   7.1214   7.6040   7.6040
     7.6482   7.6482   7.7249   7.7249   7.7434   7.7434   8.0718   8.0718
    10.5466  10.5466  11.3790  11.3790  11.4546  11.4546  11.7544  11.7544
    11.9661  11.9661  12.6081  12.6081  12.7503  12.7503  12.8174  12.8174
    13.0128  13.0128  13.2625  13.2625  13.4142  13.4142  14.0185  14.0185
    14.8450  14.8450  15.5867  15.5867  15.9780  15.9780  16.1880  16.1880
    16.8754  16.8754  17.6382  17.6382  17.9011  17.9011

          k = 0.1667 0.3156 0.1667 ( 62167 PWs)   bands (ev):

   -65.9208 -65.9205 -65.9199 -65.9199 -65.9197 -65.9196 -65.9190 -65.9188
   -30.3810 -30.3777 -30.3777 -30.3745 -30.3512 -30.3478 -30.3478 -30.3447
   -30.2573 -30.2557 -30.2518 -30.2517 -30.2462 -30.2454 -30.2414 -30.2414
   -30.1690 -30.1689 -30.1663 -30.1654 -30.1582 -30.1581 -30.1544 -30.1538
   -20.0760 -20.0758 -20.0758 -20.0755 -20.0734 -20.0731 -20.0731 -20.0728
   -20.0644 -20.0641 -20.0641 -20.0640 -20.0629 -20.0628 -20.0627 -20.0626
   -20.0625 -20.0623 -20.0622 -20.0621 -20.0604 -20.0603 -20.0603 -20.0603
   -20.0597 -20.0596 -20.0596 -20.0593 -20.0588 -20.0587 -20.0587 -20.0585
   -20.0425 -20.0425 -20.0422 -20.0422 -20.0422 -20.0422 -20.0419 -20.0419
   -19.9957 -19.9957 -19.9951 -19.9951 -19.9943 -19.9943 -19.9938 -19.9938
   -19.9906 -19.9906 -19.9902 -19.9902 -19.9894 -19.9894 -19.9888 -19.9888
    -9.6653  -9.5088  -9.2517  -9.2512  -9.0937  -9.0930  -8.8569  -8.8507
    -8.7803  -8.6278  -8.6148  -8.6145  -8.1633  -8.1169  -8.1169  -8.0999
    -7.7953  -7.7912  -7.7687  -7.7635  -7.6832  -7.6733  -7.6338  -7.6245
     1.6056   1.6059   1.6821   1.6825   1.7032   1.7035   1.9595   2.0239
     2.4254   2.5481   2.5497   2.6924   2.6957   2.7580   3.0115   3.0314
     3.1363   3.1423   3.7293   3.7305   3.7501   3.8019   4.1712   4.4979
     4.4986   4.5767   4.5831   4.6709   4.6729   4.7848   4.7987   4.8818
     4.9412   4.9495   5.1881   5.2119   5.4506   5.4696   5.4698   5.4990
     5.6861   5.7042   5.8476   5.8477   5.8905   5.8931   6.4444   6.4609
     6.4852   6.5470   6.5939   6.6873   6.8470   6.8492   6.9153   6.9232
     6.9840   6.9886   7.0383   7.0690   7.1372   7.1374   7.1550   7.2080
     7.4153   7.4507   7.8326   7.8370   7.8519   7.8791   7.8962   7.9104
    10.0760  10.0994  10.9274  10.9687  10.9845  11.0140  11.9791  12.0242
    12.1128  12.1301  12.4145  12.4166  12.4663  12.4663  13.0502  13.0663
    13.2946  13.3366  13.3729  13.5220  13.7617  13.7700  13.7941  13.8773
    15.1263  15.5408  15.5478  15.7212  15.7222  15.8141  16.2695  16.3192
    16.3228  16.9101  17.3960  17.4434  17.4636  17.7747

          k = 0.1667 0.3156 0.3333 ( 62182 PWs)   bands (ev):

   -65.9206 -65.9204 -65.9201 -65.9198 -65.9197 -65.9195 -65.9192 -65.9190
   -30.3804 -30.3785 -30.3772 -30.3753 -30.3506 -30.3486 -30.3473 -30.3454
   -30.2555 -30.2528 -30.2456 -30.2428 -30.2370 -30.2336 -30.2275 -30.2230
   -30.1874 -30.1839 -30.1773 -30.1733 -30.1681 -30.1652 -30.1574 -30.1551
   -20.0760 -20.0758 -20.0757 -20.0756 -20.0734 -20.0732 -20.0731 -20.0729
   -20.0643 -20.0641 -20.0638 -20.0637 -20.0631 -20.0629 -20.0629 -20.0627
   -20.0624 -20.0623 -20.0617 -20.0616 -20.0604 -20.0604 -20.0601 -20.0600
   -20.0600 -20.0600 -20.0595 -20.0594 -20.0591 -20.0591 -20.0587 -20.0586
   -20.0424 -20.0424 -20.0423 -20.0422 -20.0421 -20.0421 -20.0420 -20.0419
   -19.9954 -19.9950 -19.9946 -19.9945 -19.9942 -19.9941 -19.9933 -19.9928
   -19.9917 -19.9914 -19.9905 -19.9903 -19.9900 -19.9899 -19.9895 -19.9891
    -9.5369  -9.3700  -9.3057  -9.1432  -9.0683  -8.8461  -8.8133  -8.7444
    -8.7197  -8.6283  -8.5924  -8.5379  -8.2044  -8.1739  -8.1148  -8.1065
    -8.0793  -8.0295  -7.9819  -7.9390  -7.7633  -7.7374  -7.6876  -7.6623
     1.6983   1.7199   1.7227   1.7441   2.2825   2.3635   2.3773   2.4484
     2.5428   2.5714   2.5866   2.7877   2.9675   3.0310   3.0450   3.1276
     3.2674   3.3610   3.7113   3.7247   3.7939   3.8420   3.9821   4.0548
     4.1518   4.3517   4.4518   4.4705   4.5330   4.6118   4.6690   4.7344
     4.8126   4.8424   4.8982   4.9195   5.0055   5.0809   5.2128   5.2180
     5.3822   5.4159   5.5040   5.6576   5.8770   5.9030   6.2752   6.2958
     6.6099   6.6725   6.7017   6.7865   6.8688   6.8987   6.9755   7.0108
     7.0541   7.0823   7.0984   7.1284   7.2138   7.2370   7.2607   7.3391
     7.3720   7.4193   7.7660   7.7722   7.8325   7.8485   7.8558   7.8930
    10.6623  10.7057  10.9759  10.9913  11.4172  11.4755  11.9712  12.0292
    12.0563  12.1923  12.3021  12.3360  12.5812  12.6737  12.7637  12.8102
    12.9867  13.1665  13.2335  13.4356  13.4538  13.4924  13.7802  13.8240
    15.3659  15.5205  15.8979  16.0092  16.0657  16.1629  16.2434  16.7140
    16.7884  16.8637  17.1296  17.6110  17.6707  17.7359

          k = 0.1667 0.3156-0.5000 ( 62208 PWs)   bands (ev):

   -65.9203 -65.9203 -65.9201 -65.9201 -65.9194 -65.9194 -65.9192 -65.9192
   -30.3795 -30.3795 -30.3763 -30.3763 -30.3496 -30.3496 -30.3464 -30.3464
   -30.2541 -30.2541 -30.2439 -30.2439 -30.2125 -30.2125 -30.2088 -30.2088
   -30.2023 -30.2023 -30.1980 -30.1980 -30.1669 -30.1669 -30.1563 -30.1563
   -20.0759 -20.0759 -20.0757 -20.0757 -20.0733 -20.0733 -20.0730 -20.0730
   -20.0642 -20.0642 -20.0634 -20.0634 -20.0633 -20.0633 -20.0628 -20.0628
   -20.0623 -20.0623 -20.0610 -20.0609 -20.0609 -20.0608 -20.0603 -20.0603
   -20.0596 -20.0596 -20.0596 -20.0596 -20.0595 -20.0595 -20.0587 -20.0587
   -20.0423 -20.0423 -20.0423 -20.0423 -20.0420 -20.0420 -20.0420 -20.0420
   -19.9950 -19.9950 -19.9945 -19.9945 -19.9931 -19.9931 -19.9928 -19.9928
   -19.9919 -19.9919 -19.9914 -19.9914 -19.9899 -19.9899 -19.9895 -19.9895
    -9.4020  -9.4020  -9.2333  -9.2333  -8.8956  -8.8956  -8.6562  -8.6562
    -8.4975  -8.4975  -8.4672  -8.4672  -8.3999  -8.3998  -8.3205  -8.3204
    -8.1076  -8.1076  -8.0721  -8.0721  -7.7254  -7.7254  -7.6996  -7.6996
     1.7182   1.7182   1.7421   1.7421   2.4274   2.4274   2.5470   2.5470
     3.0384   3.0384   3.1561   3.1561   3.1905   3.1905   3.3678   3.3678
     3.4110   3.4110   3.5342   3.5343   3.5853   3.5853   3.7608   3.7608
     4.1200   4.1201   4.1517   4.1518   4.2045   4.2045   4.4257   4.4257
     4.7913   4.7914   4.8617   4.8617   5.0402   5.0402   5.1159   5.1159
     5.2293   5.2293   5.5710   5.5710   5.9813   5.9813   5.9947   5.9947
     6.7261   6.7261   6.8329   6.8329   6.9008   6.9008   6.9372   6.9372
     7.0687   7.0687   7.1182   7.1183   7.2260   7.2260   7.5735   7.5735
     7.6056   7.6056   7.6500   7.6500   7.6825   7.6825   7.8658   7.8658
    10.9587  10.9587  11.3962  11.3962  11.4523  11.4524  11.8683  11.8683
    12.1458  12.1458  12.3054  12.3054  12.6543  12.6543  12.7273  12.7273
    12.9224  12.9224  13.0548  13.0548  13.3999  13.3999  13.7950  13.7950
    15.4690  15.4690  16.0899  16.0899  16.3696  16.3696  16.5328  16.5328
    16.9995  16.9995  17.2907  17.2907  17.8739  17.8739

          k = 0.1667-0.4733 0.1667 ( 62138 PWs)   bands (ev):

   -65.9207 -65.9206 -65.9198 -65.9198 -65.9198 -65.9197 -65.9189 -65.9189
   -30.3661 -30.3661 -30.3633 -30.3633 -30.3623 -30.3623 -30.3596 -30.3596
   -30.2565 -30.2565 -30.2518 -30.2517 -30.2459 -30.2458 -30.2415 -30.2415
   -30.1689 -30.1689 -30.1658 -30.1658 -30.1582 -30.1582 -30.1541 -30.1541
   -20.0747 -20.0747 -20.0745 -20.0745 -20.0744 -20.0744 -20.0742 -20.0742
   -20.0642 -20.0642 -20.0640 -20.0640 -20.0629 -20.0629 -20.0626 -20.0626
   -20.0624 -20.0624 -20.0622 -20.0622 -20.0604 -20.0604 -20.0603 -20.0603
   -20.0595 -20.0595 -20.0595 -20.0594 -20.0588 -20.0588 -20.0587 -20.0587
   -20.0425 -20.0425 -20.0422 -20.0422 -20.0422 -20.0422 -20.0419 -20.0419
   -19.9957 -19.9957 -19.9951 -19.9951 -19.9943 -19.9943 -19.9938 -19.9938
   -19.9906 -19.9906 -19.9902 -19.9902 -19.9894 -19.9894 -19.9888 -19.9888
    -9.5759  -9.5759  -9.1653  -9.1653  -9.1405  -9.1404  -8.8537  -8.8537
    -8.4780  -8.4779  -8.4041  -8.4041  -8.3998  -8.3998  -8.3961  -8.3961
    -7.7922  -7.7922  -7.7677  -7.7677  -7.6782  -7.6782  -7.6294  -7.6293
     1.6057   1.6057   1.6861   1.6861   1.7049   1.7049   2.0112   2.0112
     2.7127   2.7127   3.1926   3.1926   3.2748   3.2748   3.3029   3.3029
     3.3451   3.3451   3.4348   3.4348   3.5661   3.5661   3.6148   3.6148
     3.7785   3.7785   4.5935   4.5935   4.6469   4.6469   4.9844   4.9844
     5.0540   5.0540   5.1583   5.1584   5.2124   5.2125   5.5164   5.5164
     5.5550   5.5550   5.8516   5.8516   5.8846   5.8846   6.4970   6.4970
     6.5629   6.5629   6.5908   6.5908   6.8550   6.8550   6.9475   6.9475
     6.9860   6.9860   7.1343   7.1343   7.3631   7.3631   7.4859   7.4859
     7.5096   7.5096   7.5329   7.5330   7.5990   7.5990   7.8949   7.8949
    10.0913  10.0913  11.4597  11.4597  11.5150  11.5150  11.5510  11.5510
    11.5824  11.5825  12.4170  12.4170  12.4600  12.4600  13.0693  13.0693
    13.4931  13.4931  13.5076  13.5076  13.5381  13.5381  13.6770  13.6770
    15.6805  15.6806  15.7247  15.7247  16.0390  16.0390  16.0721  16.0721
    16.7106  16.7106  17.8750  17.8751  17.9040  17.9040

          k = 0.1667-0.4733 0.3333 ( 62170 PWs)   bands (ev):

   -65.9205 -65.9205 -65.9200 -65.9199 -65.9196 -65.9196 -65.9191 -65.9191
   -30.3656 -30.3653 -30.3640 -30.3631 -30.3626 -30.3619 -30.3605 -30.3603
   -30.2554 -30.2527 -30.2457 -30.2429 -30.2370 -30.2336 -30.2276 -30.2231
   -30.1874 -30.1838 -30.1773 -30.1734 -30.1681 -30.1652 -30.1575 -30.1552
   -20.0747 -20.0747 -20.0746 -20.0745 -20.0744 -20.0744 -20.0743 -20.0743
   -20.0642 -20.0641 -20.0638 -20.0637 -20.0631 -20.0629 -20.0629 -20.0627
   -20.0623 -20.0623 -20.0617 -20.0616 -20.0604 -20.0603 -20.0601 -20.0601
   -20.0600 -20.0600 -20.0595 -20.0595 -20.0592 -20.0591 -20.0588 -20.0587
   -20.0424 -20.0424 -20.0423 -20.0422 -20.0421 -20.0421 -20.0419 -20.0419
   -19.9954 -19.9950 -19.9946 -19.9945 -19.9942 -19.9941 -19.9933 -19.9928
   -19.9917 -19.9914 -19.9905 -19.9903 -19.9900 -19.9899 -19.9895 -19.9891
    -9.4441  -9.4356  -9.2173  -9.1943  -8.9353  -8.9134  -8.7316  -8.7253
    -8.5133  -8.5115  -8.4232  -8.4196  -8.3882  -8.3870  -8.3709  -8.3665
    -8.0818  -8.0590  -7.9801  -7.9588  -7.7621  -7.7390  -7.6866  -7.6636
     1.7028   1.7218   1.7259   1.7457   2.3568   2.3734   2.5354   2.5510
     2.9807   2.9858   3.1945   3.2170   3.2815   3.2834   3.2901   3.3199
     3.3444   3.3635   3.4908   3.5294   3.5578   3.6078   3.7316   3.7485
     3.8298   3.8418   3.9868   4.0563   4.5038   4.5519   4.6896   4.6923
     4.7457   4.7867   4.8544   4.8778   5.0382   5.0825   5.0972   5.1225
     5.2115   5.2622   5.4250   5.4917   5.8802   5.8969   6.2880   6.2951
     6.6962   6.7105   6.7378   6.7666   6.9031   6.9319   7.0912   7.1504
     7.1683   7.2060   7.2191   7.2536   7.2643   7.2700   7.4604   7.4892
     7.4932   7.5101   7.5270   7.5396   7.5592   7.5876   7.8543   7.8572
    10.6903  10.7016  11.4856  11.5085  11.5310  11.5521  11.8634  11.8832
    11.8954  11.9182  12.0471  12.1032  12.5811  12.6434  12.8555  12.8803
    13.0328  13.0646  13.2298  13.3114  13.5128  13.5407  13.5735  13.6315
    15.7514  15.7933  15.9735  16.0082  16.2846  16.3272  16.7348  16.7760
    16.9095  16.9150  17.3833  17.4385  17.8401  17.9153

          k = 0.1667-0.4733-0.5000 ( 62176 PWs)   bands (ev):

   -65.9202 -65.9202 -65.9202 -65.9202 -65.9193 -65.9193 -65.9193 -65.9193
   -30.3649 -30.3649 -30.3642 -30.3642 -30.3616 -30.3616 -30.3612 -30.3612
   -30.2541 -30.2541 -30.2440 -30.2440 -30.2125 -30.2125 -30.2087 -30.2087
   -30.2024 -30.2024 -30.1981 -30.1981 -30.1669 -30.1669 -30.1564 -30.1564
   -20.0746 -20.0746 -20.0746 -20.0746 -20.0744 -20.0744 -20.0743 -20.0743
   -20.0642 -20.0642 -20.0634 -20.0634 -20.0632 -20.0632 -20.0628 -20.0628
   -20.0623 -20.0623 -20.0610 -20.0609 -20.0608 -20.0608 -20.0603 -20.0603
   -20.0597 -20.0597 -20.0597 -20.0597 -20.0594 -20.0594 -20.0588 -20.0588
   -20.0423 -20.0423 -20.0423 -20.0423 -20.0420 -20.0420 -20.0420 -20.0420
   -19.9950 -19.9950 -19.9945 -19.9945 -19.9931 -19.9931 -19.9928 -19.9928
   -19.9919 -19.9919 -19.9914 -19.9914 -19.9899 -19.9899 -19.9895 -19.9895
    -9.3100  -9.3100  -9.2919  -9.2919  -8.6584  -8.6584  -8.6438  -8.6437
    -8.5212  -8.5212  -8.5107  -8.5107  -8.3411  -8.3411  -8.3230  -8.3230
    -8.2659  -8.2659  -8.2465  -8.2465  -7.7243  -7.7243  -7.7009  -7.7009
     1.7231   1.7231   1.7440   1.7440   3.0653   3.0653   3.1168   3.1168
     3.2020   3.2020   3.2269   3.2269   3.2714   3.2714   3.3399   3.3399
     3.3808   3.3808   3.4869   3.4869   3.5693   3.5693   3.6167   3.6167
     3.6702   3.6702   3.7875   3.7875   4.3534   4.3534   4.3764   4.3764
     4.4447   4.4448   4.4893   4.4893   4.9503   4.9503   5.1207   5.1207
     5.2202   5.2202   5.3706   5.3706   5.9866   5.9866   5.9984   5.9984
     6.8001   6.8001   6.8488   6.8488   6.9460   6.9460   6.9839   6.9839
     7.3151   7.3151   7.3442   7.3442   7.3993   7.3993   7.4559   7.4559
     7.4956   7.4956   7.5489   7.5489   7.6659   7.6659   7.6891   7.6891
    11.3577  11.3577  11.4003  11.4003  11.5271  11.5271  11.5993  11.5993
    12.3642  12.3642  12.4054  12.4054  12.4293  12.4294  12.4687  12.4687
    12.8966  12.8966  12.9706  12.9706  13.5280  13.5280  13.5775  13.5775
    15.8692  15.8692  15.9105  15.9105  16.8965  16.8965  16.9297  16.9297
    17.4126  17.4126  17.4507  17.4507  17.5434  17.5434

          k = 0.3333 0.0000 0.3333 ( 62232 PWs)   bands (ev):

   -65.9205 -65.9201 -65.9200 -65.9200 -65.9196 -65.9195 -65.9195 -65.9190
   -30.3948 -30.3929 -30.3929 -30.3910 -30.3351 -30.3331 -30.3331 -30.3312
   -30.2389 -30.2365 -30.2347 -30.2344 -30.2270 -30.2257 -30.2235 -30.2234
   -30.1869 -30.1867 -30.1860 -30.1844 -30.1756 -30.1753 -30.1739 -30.1725
   -20.0773 -20.0771 -20.0771 -20.0770 -20.0720 -20.0718 -20.0718 -20.0716
   -20.0642 -20.0639 -20.0639 -20.0636 -20.0632 -20.0631 -20.0630 -20.0628
   -20.0620 -20.0618 -20.0617 -20.0613 -20.0605 -20.0602 -20.0601 -20.0601
   -20.0600 -20.0600 -20.0598 -20.0598 -20.0592 -20.0590 -20.0589 -20.0587
   -20.0424 -20.0423 -20.0422 -20.0422 -20.0421 -20.0421 -20.0420 -20.0419
   -19.9945 -19.9944 -19.9939 -19.9939 -19.9936 -19.9936 -19.9931 -19.9930
   -19.9914 -19.9914 -19.9912 -19.9912 -19.9906 -19.9906 -19.9901 -19.9901
    -9.5394  -9.3191  -9.3181  -9.1379  -9.1270  -8.8570  -8.8539  -8.7113
    -8.6480  -8.6434  -8.6384  -8.6246  -8.1293  -8.0785  -8.0731  -8.0579
    -8.0523  -8.0402  -7.9389  -7.9184  -7.7858  -7.7617  -7.7617  -7.7372
     1.5585   1.5977   1.5983   1.6354   2.2988   2.3063   2.3959   2.4040
     2.4339   2.4389   2.6268   2.7296   2.9720   2.9873   3.0256   3.0864
     3.3187   3.3563   3.8498   3.8736   3.9970   4.0023   4.1926   4.2013
     4.2180   4.2370   4.3390   4.4032   4.5101   4.5318   4.6035   4.6373
     4.9204   4.9863   5.0116   5.0415   5.1238   5.1399   5.2474   5.4719
     5.4773   5.6120   5.6184   5.6818   5.8962   5.9105   5.9110   6.0829
     6.4799   6.4868   6.5052   6.5072   6.5673   6.6035   6.6162   6.6624
     7.0356   7.2364   7.2532   7.2978   7.3048   7.4005   7.4310   7.4438
     7.5037   7.5462   7.8028   7.8157   7.9429   8.0053   8.0244   8.0621
    10.8647  10.9734  11.0064  11.0173  11.1442  11.3491  12.1900  12.1964
    12.2426  12.2505  12.3007  12.3951  12.6413  12.6491  12.8908  12.9343
    12.9429  12.9602  13.0982  13.1856  13.6829  13.7575  13.7590  13.8624
    14.5989  14.8672  14.8701  15.3215  15.7745  16.4479  16.5013  16.7321
    16.7621  17.2773  17.3046  17.7745  17.7987  17.8496

          k = 0.3333 0.0000-0.5000 ( 62212 PWs)   bands (ev):

   -65.9202 -65.9202 -65.9198 -65.9198 -65.9197 -65.9197 -65.9193 -65.9193
   -30.3939 -30.3939 -30.3920 -30.3920 -30.3341 -30.3341 -30.3322 -30.3322
   -30.2361 -30.2361 -30.2257 -30.2257 -30.2113 -30.2113 -30.2099 -30.2099
   -30.2015 -30.2015 -30.1988 -30.1988 -30.1851 -30.1851 -30.1745 -30.1745
   -20.0772 -20.0772 -20.0771 -20.0771 -20.0719 -20.0719 -20.0717 -20.0717
   -20.0640 -20.0640 -20.0635 -20.0635 -20.0633 -20.0633 -20.0629 -20.0629
   -20.0618 -20.0618 -20.0611 -20.0611 -20.0608 -20.0608 -20.0601 -20.0601
   -20.0600 -20.0600 -20.0596 -20.0596 -20.0594 -20.0594 -20.0589 -20.0589
   -20.0423 -20.0423 -20.0422 -20.0422 -20.0421 -20.0421 -20.0420 -20.0420
   -19.9940 -19.9940 -19.9937 -19.9937 -19.9927 -19.9927 -19.9926 -19.9925
   -19.9923 -19.9923 -19.9917 -19.9917 -19.9910 -19.9910 -19.9906 -19.9905
    -9.4087  -9.4087  -9.1972  -9.1972  -8.9576  -8.9576  -8.6715  -8.6715
    -8.5115  -8.5115  -8.4417  -8.4417  -8.3763  -8.3762  -8.3412  -8.3412
    -8.0264  -8.0264  -8.0037  -8.0036  -7.7746  -7.7746  -7.7500  -7.7500
     1.5771   1.5771   1.6167   1.6167   2.4172   2.4172   2.4472   2.4472
     2.9806   2.9806   3.1082   3.1083   3.1456   3.1456   3.3251   3.3252
     3.4370   3.4370   3.6758   3.6758   3.8336   3.8336   3.9439   3.9439
     3.9688   3.9688   4.1111   4.1111   4.2898   4.2898   4.4718   4.4718
     4.7929   4.7929   4.9784   4.9785   5.1561   5.1561   5.2158   5.2158
     5.3320   5.3320   5.5662   5.5662   5.9315   5.9315   6.0341   6.0341
     6.4392   6.4392   6.4496   6.4496   6.4953   6.4953   6.6246   6.6246
     7.2147   7.2147   7.3964   7.3965   7.4784   7.4784   7.6278   7.6278
     7.6694   7.6694   7.7616   7.7616   7.7927   7.7928   8.0282   8.0282
    10.9972  10.9972  11.5790  11.5790  11.6792  11.6792  11.7494  11.7494
    11.9919  11.9919  12.3744  12.3744  12.5519  12.5519  12.7845  12.7845
    12.9638  12.9638  13.3175  13.3175  13.3584  13.3584  13.7722  13.7722
    14.7710  14.7710  15.1421  15.1421  16.2450  16.2450  16.8280  16.8280
    17.2165  17.2165  17.4988  17.4988  17.8986  17.8986

          k = 0.3333 0.1578 0.3333 ( 62207 PWs)   bands (ev):

   -65.9205 -65.9201 -65.9200 -65.9199 -65.9196 -65.9196 -65.9194 -65.9191
   -30.3908 -30.3889 -30.3889 -30.3870 -30.3391 -30.3371 -30.3371 -30.3352
   -30.2387 -30.2366 -30.2347 -30.2345 -30.2269 -30.2258 -30.2235 -30.2235
   -30.1868 -30.1866 -30.1859 -30.1845 -30.1757 -30.1754 -30.1738 -30.1726
   -20.0769 -20.0768 -20.0768 -20.0766 -20.0723 -20.0722 -20.0722 -20.0720
   -20.0641 -20.0639 -20.0638 -20.0636 -20.0631 -20.0631 -20.0630 -20.0628
   -20.0620 -20.0617 -20.0617 -20.0614 -20.0605 -20.0602 -20.0601 -20.0601
   -20.0600 -20.0600 -20.0598 -20.0598 -20.0592 -20.0590 -20.0590 -20.0588
   -20.0424 -20.0423 -20.0422 -20.0422 -20.0421 -20.0421 -20.0420 -20.0419
   -19.9945 -19.9944 -19.9939 -19.9939 -19.9936 -19.9936 -19.9931 -19.9930
   -19.9914 -19.9914 -19.9912 -19.9912 -19.9906 -19.9906 -19.9901 -19.9901
    -9.4952  -9.2634  -9.2623  -9.1507  -9.0547  -8.8669  -8.8638  -8.6806
[...]
    12.0382  12.0382  12.3980  12.3980  12.5452  12.5452  12.7779  12.7779
    12.8552  12.8552  13.2003  13.2003  13.2420  13.2420  13.6692  13.6692
    15.1327  15.1327  15.5217  15.5217  16.3319  16.3319  16.8336  16.8336
    17.2144  17.2144  17.4963  17.4963  17.7648  17.7648

          k = 0.3333 0.3156 0.3333 ( 62198 PWs)   bands (ev):

   -65.9204 -65.9202 -65.9199 -65.9199 -65.9197 -65.9196 -65.9194 -65.9192
   -30.3799 -30.3780 -30.3780 -30.3761 -30.3500 -30.3481 -30.3481 -30.3462
   -30.2382 -30.2370 -30.2346 -30.2345 -30.2268 -30.2262 -30.2237 -30.2237
   -30.1866 -30.1865 -30.1857 -30.1848 -30.1757 -30.1756 -30.1737 -30.1729
   -20.0760 -20.0758 -20.0758 -20.0757 -20.0733 -20.0732 -20.0732 -20.0730
   -20.0640 -20.0638 -20.0638 -20.0637 -20.0631 -20.0630 -20.0630 -20.0628
   -20.0619 -20.0617 -20.0617 -20.0615 -20.0603 -20.0602 -20.0602 -20.0601
   -20.0600 -20.0599 -20.0599 -20.0598 -20.0592 -20.0591 -20.0591 -20.0589
   -20.0424 -20.0423 -20.0422 -20.0422 -20.0421 -20.0421 -20.0420 -20.0420
   -19.9945 -19.9944 -19.9939 -19.9939 -19.9936 -19.9936 -19.9931 -19.9930
   -19.9914 -19.9914 -19.9912 -19.9912 -19.9906 -19.9906 -19.9901 -19.9901
    -9.3868  -9.1925  -9.1246  -9.1230  -8.9024  -8.8992  -8.8512  -8.6385
    -8.6293  -8.5735  -8.5538  -8.5516  -8.2750  -8.1531  -8.1519  -8.1112
    -8.0668  -8.0497  -8.0479  -8.0098  -8.0074  -7.9790  -7.9312  -7.9228
     2.2821   2.2856   2.3099   2.3165   2.3588   2.3928   2.3950   2.4515
     2.5914   2.5967   2.6325   2.8263   3.2335   3.2636   3.2813   3.3342
     3.3528   3.4012   3.7187   3.7532   3.7879   3.8641   4.1115   4.1481
     4.1644   4.2458   4.2478   4.3400   4.3809   4.4388   4.4453   4.5398
     4.5790   4.6199   4.6361   4.7105   4.8134   4.9053   4.9490   4.9828
     5.0129   5.0163   5.1916   5.3098   5.3559   5.3674   5.6380   5.6389
     6.8466   6.8567   6.8699   6.9328   6.9880   7.0446   7.0618   7.0900
     7.1349   7.2209   7.2383   7.3048   7.3113   7.3712   7.4184   7.4186
     7.5047   7.5083   7.7148   7.7671   7.7917   7.8009   7.8230   7.8710
    11.0272  11.1005  11.3826  11.4249  11.4400  11.6061  12.1601  12.1627
    12.1966  12.2281  12.2393  12.3379  12.4835  12.4980  12.7110  12.7804
    12.8430  12.8549  12.9005  13.1911  13.3252  13.3865  13.3880  13.5481
    15.7846  16.0212  16.0264  16.2197  16.4671  16.4839  16.6851  16.9126
    16.9139  16.9553  17.2119  17.2384  17.7324  17.7992

          k = 0.3333 0.3156-0.5000 ( 62196 PWs)   bands (ev):

   -65.9201 -65.9201 -65.9199 -65.9199 -65.9196 -65.9196 -65.9194 -65.9194
   -30.3790 -30.3790 -30.3771 -30.3771 -30.3491 -30.3491 -30.3472 -30.3472
   -30.2360 -30.2360 -30.2259 -30.2259 -30.2112 -30.2112 -30.2098 -30.2098
   -30.2017 -30.2017 -30.1989 -30.1989 -30.1850 -30.1850 -30.1747 -30.1747
   -20.0759 -20.0759 -20.0758 -20.0758 -20.0733 -20.0733 -20.0731 -20.0731
   -20.0639 -20.0639 -20.0634 -20.0634 -20.0633 -20.0633 -20.0630 -20.0630
   -20.0617 -20.0617 -20.0609 -20.0609 -20.0608 -20.0608 -20.0601 -20.0601
   -20.0600 -20.0600 -20.0596 -20.0596 -20.0596 -20.0596 -20.0591 -20.0591
   -20.0423 -20.0423 -20.0422 -20.0422 -20.0421 -20.0421 -20.0420 -20.0420
   -19.9940 -19.9940 -19.9937 -19.9937 -19.9927 -19.9927 -19.9926 -19.9925
   -19.9923 -19.9923 -19.9917 -19.9917 -19.9910 -19.9910 -19.9906 -19.9905
    -9.2295  -9.2294  -9.0105  -9.0104  -8.9441  -8.9441  -8.5872  -8.5871
    -8.5521  -8.5521  -8.4355  -8.4355  -8.3719  -8.3718  -8.3285  -8.3285
    -8.1070  -8.1070  -8.0916  -8.0916  -8.0130  -8.0130  -7.9789  -7.9789
     2.3162   2.3162   2.4061   2.4061   2.4467   2.4467   2.5839   2.5839
     3.1332   3.1332   3.1925   3.1925   3.2709   3.2710   3.3710   3.3710
     3.4512   3.4512   3.6843   3.6843   3.8031   3.8031   3.9016   3.9016
     4.0962   4.0962   4.1611   4.1612   4.2050   4.2050   4.3160   4.3160
     4.4042   4.4042   4.5451   4.5451   4.6903   4.6903   4.9041   4.9041
     5.0256   5.0256   5.0943   5.0943   5.1752   5.1752   5.3575   5.3575
     6.8891   6.8891   6.9466   6.9466   7.0143   7.0143   7.0792   7.0792
     7.2265   7.2265   7.3656   7.3656   7.4718   7.4718   7.5622   7.5622
     7.6137   7.6137   7.6849   7.6849   7.7090   7.7090   7.8199   7.8199
    11.3752  11.3752  11.6374  11.6374  11.7248  11.7248  11.9697  11.9697
    12.1947  12.1947  12.4342  12.4342  12.4809  12.4809  12.5231  12.5231
    12.8326  12.8326  12.9273  12.9273  13.0141  13.0141  13.4174  13.4174
    15.9671  15.9671  16.4511  16.4511  16.6034  16.6034  16.8146  16.8146
    17.2221  17.2221  17.3567  17.3567  17.6468  17.6468

          k = 0.3333-0.4733 0.3333 ( 62178 PWs)   bands (ev):

   -65.9203 -65.9203 -65.9198 -65.9198 -65.9198 -65.9198 -65.9193 -65.9192
   -30.3649 -30.3649 -30.3633 -30.3633 -30.3627 -30.3627 -30.3612 -30.3611
   -30.2376 -30.2376 -30.2346 -30.2346 -30.2265 -30.2265 -30.2237 -30.2237
   -30.1865 -30.1865 -30.1853 -30.1853 -30.1757 -30.1757 -30.1733 -30.1733
   -20.0747 -20.0746 -20.0745 -20.0745 -20.0745 -20.0745 -20.0743 -20.0743
   -20.0638 -20.0638 -20.0637 -20.0637 -20.0631 -20.0631 -20.0629 -20.0629
   -20.0617 -20.0617 -20.0616 -20.0616 -20.0602 -20.0602 -20.0601 -20.0601
   -20.0600 -20.0600 -20.0599 -20.0599 -20.0592 -20.0592 -20.0591 -20.0591
   -20.0423 -20.0423 -20.0422 -20.0422 -20.0421 -20.0421 -20.0420 -20.0420
   -19.9945 -19.9944 -19.9939 -19.9939 -19.9936 -19.9936 -19.9931 -19.9930
   -19.9914 -19.9914 -19.9912 -19.9912 -19.9906 -19.9906 -19.9901 -19.9901
    -9.2720  -9.2719  -8.9923  -8.9923  -8.9726  -8.9726  -8.6395  -8.6395
    -8.5522  -8.5521  -8.3907  -8.3907  -8.3838  -8.3838  -8.3727  -8.3727
    -8.0576  -8.0575  -8.0356  -8.0356  -8.0306  -8.0306  -7.9276  -7.9276
     2.3001   2.3001   2.3763   2.3763   2.3948   2.3948   2.6057   2.6057
     3.1990   3.1990   3.2318   3.2318   3.2888   3.2888   3.3187   3.3187
     3.4133   3.4133   3.6155   3.6155   3.7021   3.7021   3.7383   3.7383
     3.8573   3.8573   4.1642   4.1642   4.2946   4.2947   4.4805   4.4805
     4.5923   4.5923   4.6914   4.6915   4.7786   4.7787   4.8395   4.8395
     4.9386   4.9386   5.0691   5.0691   5.0894   5.0894   5.6341   5.6341
     6.9631   6.9631   7.0940   7.0940   7.1372   7.1372   7.2037   7.2037
     7.2879   7.2879   7.3192   7.3192   7.3453   7.3453   7.4576   7.4576
     7.4960   7.4960   7.5664   7.5664   7.6178   7.6178   7.8240   7.8240
    11.0830  11.0830  11.7885  11.7885  11.8418  11.8418  11.8904  11.8904
    11.9872  11.9872  12.2283  12.2283  12.3429  12.3429  12.7442  12.7442
    13.0091  13.0091  13.0612  13.0612  13.1117  13.1117  13.3401  13.3401
    16.4001  16.4001  16.4807  16.4807  16.6759  16.6759  16.7379  16.7379
    17.0291  17.0291  17.4732  17.4732  17.5652  17.5652

          k = 0.3333-0.4733-0.5000 ( 62116 PWs)   bands (ev):

   -65.9200 -65.9200 -65.9200 -65.9200 -65.9195 -65.9195 -65.9195 -65.9195
   -30.3642 -30.3642 -30.3638 -30.3638 -30.3623 -30.3623 -30.3620 -30.3620
   -30.2359 -30.2359 -30.2260 -30.2260 -30.2112 -30.2112 -30.2097 -30.2097
   -30.2017 -30.2017 -30.1990 -30.1990 -30.1850 -30.1850 -30.1747 -30.1747
   -20.0746 -20.0746 -20.0746 -20.0746 -20.0744 -20.0744 -20.0744 -20.0744
   -20.0638 -20.0638 -20.0634 -20.0634 -20.0633 -20.0633 -20.0630 -20.0630
   -20.0617 -20.0617 -20.0609 -20.0609 -20.0608 -20.0608 -20.0601 -20.0601
   -20.0600 -20.0600 -20.0597 -20.0597 -20.0596 -20.0596 -20.0592 -20.0592
   -20.0422 -20.0422 -20.0422 -20.0422 -20.0421 -20.0421 -20.0421 -20.0421
   -19.9940 -19.9940 -19.9937 -19.9937 -19.9927 -19.9927 -19.9926 -19.9925
   -19.9923 -19.9923 -19.9917 -19.9917 -19.9910 -19.9910 -19.9906 -19.9905
    -9.1022  -9.1022  -9.0893  -9.0893  -8.7200  -8.7200  -8.7073  -8.7073
    -8.4594  -8.4594  -8.4500  -8.4500  -8.3341  -8.3341  -8.3189  -8.3189
    -8.2698  -8.2698  -8.2523  -8.2522  -8.0144  -8.0144  -7.9930  -7.9930
     2.3956   2.3956   2.4146   2.4146   3.0766   3.0766   3.1096   3.1096
     3.1965   3.1965   3.2181   3.2181   3.3275   3.3276   3.3579   3.3579
     3.4662   3.4663   3.5050   3.5050   3.7120   3.7120   3.7408   3.7408
     3.8793   3.8793   3.9367   3.9367   4.3198   4.3199   4.3472   4.3472
     4.4032   4.4032   4.4566   4.4566   4.5304   4.5304   4.6547   4.6548
     4.7209   4.7209   4.8801   4.8801   5.1802   5.1802   5.1966   5.1966
     7.0562   7.0562   7.1130   7.1130   7.2409   7.2410   7.2647   7.2647
     7.3249   7.3249   7.3637   7.3637   7.3963   7.3963   7.4556   7.4556
     7.5462   7.5462   7.6108   7.6108   7.6933   7.6933   7.7147   7.7147
    11.5889  11.5889  11.6301  11.6301  11.8742  11.8742  11.9602  11.9602
    12.3174  12.3174  12.3676  12.3676  12.4423  12.4423  12.4743  12.4743
    12.6416  12.6416  12.7516  12.7516  13.1024  13.1024  13.1844  13.1844
    16.5633  16.5633  16.6266  16.6266  17.0705  17.0706  17.0858  17.0858
    17.3809  17.3809  17.4618  17.4618  17.5161  17.5162

          k =-0.5000 0.0000-0.5000 ( 62244 PWs)   bands (ev):

   -65.9200 -65.9200 -65.9200 -65.9200 -65.9196 -65.9196 -65.9195 -65.9195
   -30.3930 -30.3930 -30.3930 -30.3930 -30.3332 -30.3332 -30.3332 -30.3332
   -30.2129 -30.2129 -30.2126 -30.2126 -30.2106 -30.2106 -30.2103 -30.2102
   -30.2001 -30.2001 -30.1997 -30.1997 -30.1986 -30.1986 -30.1982 -30.1982
   -20.0771 -20.0771 -20.0771 -20.0771 -20.0719 -20.0718 -20.0718 -20.0718
   -20.0637 -20.0637 -20.0636 -20.0636 -20.0632 -20.0632 -20.0631 -20.0631
   -20.0613 -20.0613 -20.0612 -20.0612 -20.0605 -20.0605 -20.0605 -20.0605
   -20.0598 -20.0598 -20.0597 -20.0597 -20.0593 -20.0593 -20.0593 -20.0593
   -20.0422 -20.0422 -20.0422 -20.0422 -20.0421 -20.0421 -20.0421 -20.0421
   -19.9928 -19.9928 -19.9928 -19.9928 -19.9928 -19.9928 -19.9928 -19.9928
   -19.9919 -19.9919 -19.9919 -19.9919 -19.9918 -19.9918 -19.9918 -19.9918
    -9.2791  -9.2791  -9.2779  -9.2779  -8.6738  -8.6738  -8.6648  -8.6648
    -8.4969  -8.4969  -8.4847  -8.4847  -8.3015  -8.3015  -8.2915  -8.2915
    -8.2803  -8.2803  -8.2673  -8.2673  -7.7630  -7.7630  -7.7629  -7.7629
     1.5962   1.5962   1.5970   1.5970   3.0307   3.0307   3.0355   3.0355
     3.1819   3.1819   3.1853   3.1853   3.2434   3.2434   3.2578   3.2578
     3.4574   3.4574   3.4603   3.4603   3.8394   3.8395   3.8833   3.8833
     3.9064   3.9064   3.9576   3.9576   4.3139   4.3139   4.3200   4.3200
     4.4110   4.4110   4.4246   4.4247   4.9787   4.9787   4.9842   4.9843
     5.4265   5.4265   5.4326   5.4327   6.0187   6.0187   6.0194   6.0194
     6.4206   6.4206   6.4238   6.4239   6.4696   6.4696   6.4779   6.4779
     7.5291   7.5291   7.5363   7.5363   7.6012   7.6012   7.6171   7.6171
     7.6993   7.6993   7.7027   7.7027   7.8652   7.8652   7.8828   7.8828
    11.6553  11.6553  11.6794  11.6794  11.7459  11.7460  11.7647  11.7647
    12.1267  12.1267  12.1344  12.1344  12.3246  12.3246  12.3290  12.3290
    13.2286  13.2286  13.2434  13.2434  13.4016  13.4016  13.4151  13.4151
    14.9977  14.9977  14.9992  14.9992  16.6963  16.6963  16.7151  16.7151
    17.8599  17.8600  17.8612  17.8613  17.9781  17.9791

          k =-0.5000 0.1578-0.5000 ( 62188 PWs)   bands (ev):

   -65.9200 -65.9200 -65.9199 -65.9199 -65.9196 -65.9196 -65.9196 -65.9196
   -30.3890 -30.3890 -30.3890 -30.3890 -30.3373 -30.3372 -30.3372 -30.3372
   -30.2127 -30.2127 -30.2125 -30.2125 -30.2107 -30.2107 -30.2104 -30.2104
   -30.2000 -30.2000 -30.1997 -30.1997 -30.1987 -30.1987 -30.1984 -30.1984
   -20.0768 -20.0768 -20.0768 -20.0768 -20.0722 -20.0722 -20.0722 -20.0722
   -20.0636 -20.0636 -20.0636 -20.0636 -20.0632 -20.0632 -20.0632 -20.0631
   -20.0613 -20.0613 -20.0612 -20.0612 -20.0606 -20.0606 -20.0606 -20.0605
   -20.0598 -20.0598 -20.0597 -20.0597 -20.0594 -20.0593 -20.0593 -20.0593
   -20.0422 -20.0422 -20.0422 -20.0422 -20.0421 -20.0421 -20.0421 -20.0421
   -19.9928 -19.9928 -19.9928 -19.9928 -19.9928 -19.9928 -19.9928 -19.9928
   -19.9919 -19.9919 -19.9919 -19.9919 -19.9918 -19.9918 -19.9918 -19.9918
    -9.2167  -9.2167  -9.2153  -9.2153  -8.6875  -8.6875  -8.6789  -8.6789
    -8.4845  -8.4845  -8.4721  -8.4721  -8.3007  -8.3007  -8.2912  -8.2912
    -8.2812  -8.2812  -8.2678  -8.2678  -7.8561  -7.8561  -7.8559  -7.8559
     1.8260   1.8260   1.8269   1.8269   3.0499   3.0500   3.0563   3.0563
     3.2017   3.2017   3.2067   3.2067   3.2529   3.2529   3.2714   3.2715
     3.4483   3.4483   3.4516   3.4516   3.8797   3.8797   3.9196   3.9196
     3.9515   3.9515   3.9992   3.9992   4.2968   4.2968   4.3027   4.3027
     4.4114   4.4114   4.4251   4.4251   4.7607   4.7607   4.7654   4.7654
     5.1869   5.1869   5.1910   5.1910   5.7609   5.7609   5.7617   5.7617
     6.6080   6.6080   6.6177   6.6177   6.6570   6.6570   6.6632   6.6633
     7.5154   7.5154   7.5218   7.5218   7.5910   7.5910   7.6078   7.6078
     7.6886   7.6886   7.6899   7.6899   7.8352   7.8352   7.8483   7.8483
    11.7116  11.7116  11.7336  11.7336  11.8059  11.8059  11.8237  11.8237
    12.1292  12.1292  12.1365  12.1366  12.3456  12.3456  12.3494  12.3494
    13.1025  13.1025  13.1161  13.1161  13.2852  13.2852  13.2971  13.2971
    15.3789  15.3790  15.3805  15.3805  16.7627  16.7627  16.7802  16.7802
    17.7276  17.7276  17.7404  17.7404  18.0020  18.0020

          k =-0.5000 0.3156-0.5000 ( 62148 PWs)   bands (ev):

   -65.9199 -65.9199 -65.9199 -65.9199 -65.9197 -65.9197 -65.9197 -65.9196
   -30.3781 -30.3781 -30.3781 -30.3780 -30.3482 -30.3482 -30.3482 -30.3481
   -30.2122 -30.2122 -30.2121 -30.2120 -30.2110 -30.2110 -30.2109 -30.2109
   -30.1997 -30.1997 -30.1996 -30.1996 -30.1990 -30.1990 -30.1988 -30.1988
   -20.0759 -20.0758 -20.0758 -20.0758 -20.0732 -20.0732 -20.0732 -20.0732
   -20.0635 -20.0635 -20.0635 -20.0635 -20.0633 -20.0633 -20.0632 -20.0632
   -20.0611 -20.0611 -20.0610 -20.0610 -20.0607 -20.0607 -20.0607 -20.0606
   -20.0597 -20.0597 -20.0597 -20.0597 -20.0595 -20.0595 -20.0595 -20.0594
   -20.0422 -20.0422 -20.0421 -20.0421 -20.0421 -20.0421 -20.0421 -20.0421
   -19.9928 -19.9928 -19.9928 -19.9928 -19.9928 -19.9928 -19.9928 -19.9928
   -19.9919 -19.9919 -19.9919 -19.9919 -19.9918 -19.9918 -19.9918 -19.9918
    -9.0520  -9.0519  -9.0496  -9.0496  -8.7388  -8.7388  -8.7317  -8.7317
    -8.4385  -8.4385  -8.4255  -8.4255  -8.2995  -8.2995  -8.2925  -8.2925
    -8.2827  -8.2827  -8.2682  -8.2682  -8.0778  -8.0778  -8.0763  -8.0763
     2.4395   2.4395   2.4404   2.4404   3.0931   3.0931   3.1031   3.1031
     3.2045   3.2045   3.2053   3.2053   3.3285   3.3285   3.3510   3.3510
     3.4120   3.4120   3.4200   3.4201   4.0045   4.0045   4.0459   4.0459
     4.0499   4.0499   4.0721   4.0721   4.1398   4.1398   4.1647   4.1647
     4.4101   4.4101   4.4322   4.4322   4.4514   4.4514   4.4549   4.4549
     4.7801   4.7801   4.7804   4.7804   5.0842   5.0842   5.0867   5.0867
     6.9406   6.9406   6.9543   6.9544   7.0486   7.0486   7.0604   7.0604
     7.4481   7.4481   7.4517   7.4517   7.5465   7.5465   7.5624   7.5624
     7.6705   7.6706   7.6709   7.6709   7.7512   7.7512   7.7588   7.7589
    11.8549  11.8549  11.8652  11.8652  11.9478  11.9478  11.9567  11.9567
    12.1666  12.1666  12.1716  12.1716  12.4304  12.4304  12.4333  12.4333
    12.7889  12.7889  12.7999  12.8000  12.9933  12.9934  13.0012  13.0012
    16.3165  16.3166  16.3177  16.3177  16.9491  16.9491  16.9616  16.9616
    17.4757  17.4757  17.4986  17.4986  17.9957  17.9968

          k =-0.5000-0.4733-0.5000 ( 62176 PWs)   bands (ev):

   -65.9198 -65.9198 -65.9198 -65.9198 -65.9198 -65.9198 -65.9198 -65.9198
   -30.3633 -30.3633 -30.3631 -30.3631 -30.3631 -30.3631 -30.3630 -30.3630
   -30.2117 -30.2117 -30.2115 -30.2115 -30.2115 -30.2115 -30.2114 -30.2114
   -30.1994 -30.1993 -30.1993 -30.1993 -30.1993 -30.1993 -30.1993 -30.1993
   -20.0746 -20.0745 -20.0745 -20.0745 -20.0745 -20.0745 -20.0745 -20.0745
   -20.0634 -20.0634 -20.0634 -20.0634 -20.0634 -20.0633 -20.0633 -20.0633
   -20.0609 -20.0609 -20.0609 -20.0609 -20.0609 -20.0608 -20.0608 -20.0608
   -20.0597 -20.0596 -20.0596 -20.0596 -20.0596 -20.0596 -20.0596 -20.0596
   -20.0422 -20.0422 -20.0421 -20.0421 -20.0421 -20.0421 -20.0421 -20.0421
   -19.9928 -19.9928 -19.9928 -19.9928 -19.9928 -19.9928 -19.9928 -19.9928
   -19.9919 -19.9919 -19.9919 -19.9919 -19.9918 -19.9918 -19.9918 -19.9918
    -8.8675  -8.8675  -8.8565  -8.8565  -8.8565  -8.8565  -8.8545  -8.8544
    -8.3495  -8.3494  -8.3236  -8.3236  -8.3236  -8.3236  -8.3221  -8.3221
    -8.2686  -8.2686  -8.2686  -8.2685  -8.2546  -8.2546  -8.2486  -8.2486
     3.0740   3.0740   3.0812   3.0812   3.0813   3.0813   3.0936   3.0936
     3.2574   3.2575   3.2611   3.2611   3.2612   3.2612   3.2740   3.2740
     3.4695   3.4695   3.5354   3.5354   3.5354   3.5354   3.5757   3.5757
     4.2290   4.2291   4.2363   4.2363   4.2421   4.2421   4.2421   4.2421
     4.4361   4.4361   4.4361   4.4362   4.4557   4.4557   4.4589   4.4589
     4.5312   4.5312   4.5518   4.5518   4.5559   4.5559   4.5560   4.5560
     7.1735   7.1735   7.2397   7.2397   7.2397   7.2397   7.3223   7.3224
     7.3832   7.3832   7.3969   7.3969   7.3969   7.3969   7.4034   7.4034
     7.6698   7.6698   7.6819   7.6819   7.6819   7.6819   7.7028   7.7028
    11.9702  11.9702  11.9737  11.9737  11.9738  11.9738  11.9810  11.9811
    12.3408  12.3408  12.3958  12.3958  12.3958  12.3958  12.4711  12.4711
    12.6428  12.6428  12.6772  12.6772  12.6772  12.6772  12.6976  12.6976
    17.1452  17.1452  17.1778  17.1778  17.1778  17.1778  17.2134  17.2134
    17.4464  17.4465  17.4465  17.4465  17.4592  17.4592

     the Fermi energy is    10.1143 ev

!    total energy              =   -6260.38856742 Ry
     Harris-Foulkes estimate   =   -6260.38856743 Ry
     estimated scf accuracy    <          3.8E-09 Ry

     The total energy is the sum of the following terms:

     one-electron contribution =   -4717.85830613 Ry
     hartree contribution      =    2598.94179080 Ry
     xc contribution           =    -966.77832485 Ry
     ewald contribution        =   -3174.69371303 Ry
     smearing contrib. (-TS)   =      -0.00001421 Ry

     convergence has been achieved in  13 iterations

     Writing output data file Landau_8.save
 
     init_run     :     20.42s CPU     21.41s WALL (       1 calls)
     electrons    :    999.28s CPU   1016.28s WALL (       1 calls)

     Called by init_run:
     wfcinit      :     18.57s CPU     19.42s WALL (       1 calls)
     potinit      :      0.70s CPU      0.73s WALL (       1 calls)

     Called by electrons:
     c_bands      :    874.82s CPU    888.91s WALL (      13 calls)
     sum_band     :    116.11s CPU    116.75s WALL (      13 calls)
     v_of_rho     :      1.83s CPU      1.86s WALL (      14 calls)
     mix_rho      :      3.35s CPU      3.87s WALL (      13 calls)

     Called by c_bands:
     init_us_2    :      7.00s CPU      7.61s WALL (      27 calls)
     cegterg      :    611.59s CPU    625.47s WALL (      13 calls)

     Called by sum_band:

     Called by *egterg:
     h_psi        :    476.86s CPU    478.92s WALL (      62 calls)
     g_psi        :      1.90s CPU      1.90s WALL (      48 calls)
     cdiaghg      :      7.71s CPU      7.74s WALL (      61 calls)

     Called by h_psi:
     h_psi:pot    :    473.32s CPU    475.29s WALL (      62 calls)
     h_psi:calbec :     56.19s CPU     57.67s WALL (      62 calls)
     vloc_psi     :    354.02s CPU    354.38s WALL (      62 calls)
     add_vuspsi   :     63.12s CPU     63.24s WALL (      62 calls)

     General routines
     calbec       :     56.18s CPU     57.67s WALL (      62 calls)
     fft          :      1.11s CPU      1.12s WALL (      56 calls)
     fftw         :    357.33s CPU    357.50s WALL (   16980 calls)
 
     Parallel routines
 
     PWSCF        : 17m 8.95s CPU    17m32.71s WALL

 
   This run was terminated on:  14:44:48  17Sep2019            

=------------------------------------------------------------------------------=
   JOB DONE.
=------------------------------------------------------------------------------=
