
     Program PWSCF v.6.2 (svn rev. 14038) starts on  1May2019 at  5:32:39 

     This program is part of the open-source Quantum ESPRESSO suite
     for quantum simulation of materials; please cite
         "P. Giannozzi et al., J. Phys.:Condens. Matter 21 395502 (2009);
         "P. Giannozzi et al., J. Phys.:Condens. Matter 29 465901 (2017);
          URL http://www.quantum-espresso.org", 
     in publications or presentations arising from this work. More details at
     http://www.quantum-espresso.org/quote

     Parallel version (MPI), running on    32 processors

     MPI processes distributed on     1 nodes
     K-points division:     npool     =      32
     Reading input from rscf.in

     Current dimensions of program PWSCF are:
     Max number of different atomic species (ntypx) = 10
     Max number of k-points (npk) =  40000
     Max angular momentum in pseudopotentials (lmaxx) =  3

     Subspace diagonalization in iterative solution of the eigenvalue problem:
     a serial algorithm will be used

 
     G-vector sticks info
     --------------------
     sticks:   dense  smooth     PW     G-vecs:    dense   smooth      PW
     Sum        7747    7747   2077               498127   498127   69057
 


     bravais-lattice index     =            0
     lattice parameter (alat)  =      13.8397  a.u.
     unit-cell volume          =    2804.9816 (a.u.)^3
     number of atoms/cell      =           32
     number of atomic types    =            2
     number of electrons       =       368.00
     number of Kohn-Sham states=          221
     kinetic-energy cutoff     =     120.0000  Ry
     charge density cutoff     =     480.0000  Ry
     convergence threshold     =      1.0E-08
     mixing beta               =       0.7000
     number of iterations used =            8  plain     mixing
     Exchange-correlation      = SLA PW NOGX NOGC ( 1  4  0  0 0 0)
     nstep                     =           50


     celldm(1)=  13.839685  celldm(2)=   0.000000  celldm(3)=   0.000000
     celldm(4)=   0.000000  celldm(5)=   0.000000  celldm(6)=   0.000000

     crystal axes: (cart. coord. in units of alat)
               a(1) = (   1.000000   0.000000   0.000000 )  
               a(2) = (   0.000000   1.058160   0.000000 )  
               a(3) = (   0.000000   0.000000   1.000000 )  

     reciprocal axes: (cart. coord. in units 2 pi/alat)
               b(1) = (  1.000000  0.000000  0.000000 )  
               b(2) = (  0.000000  0.945037  0.000000 )  
               b(3) = (  0.000000  0.000000  1.000000 )  


     PseudoPot. # 1 for W  read from file:
     /cluster/scratch/mnoe/QE/pps/W_ONCV_LDA-4.0.upf
     MD5 check sum: ba0307d5d4cd419d6f1d13dc49d7c13a
     Pseudo is Norm-conserving + core correction, Zval = 28.0
     Generated using ONCVPSP code by D. R. Hamann
     Using radial grid of 1380 points,  8 beta functions with: 
                l(1) =   0
                l(2) =   0
                l(3) =   1
                l(4) =   1
                l(5) =   2
                l(6) =   2
                l(7) =   3
                l(8) =   3

     PseudoPot. # 2 for O  read from file:
     /cluster/scratch/mnoe/QE/pps/O_ONCV_LDA-3.0.upf
     MD5 check sum: a1bd6164e7280c17a38c229939bfbd54
     Pseudo is Norm-conserving + core correction, Zval =  6.0
     Generated using ONCVPSP code by D. R. Hamann
     Using radial grid of  926 points,  5 beta functions with: 
                l(1) =   0
                l(2) =   0
                l(3) =   1
                l(4) =   1
                l(5) =   2

     atomic species   valence    mass     pseudopotential
        W             28.00   183.84000     W ( 1.00)
        O              6.00    15.99940     O ( 1.00)

      8 Sym. Ops. (no inversion) found ( 4 have fractional translation)



   Cartesian axes

     site n.     atom                  positions (alat units)
         1           W   tau(   1) = (   0.2850800   0.2982530   0.2510000  )
         2           W   tau(   2) = (  -0.2510000   0.7599071  -0.7149199  )
         3           W   tau(   3) = (   0.2149200   0.2308271   0.7510000  )
         4           W   tau(   4) = (   0.7510000   0.8273330   0.7850800  )
         5           W   tau(   5) = (   0.7149200   0.2982530   0.7490000  )
         6           W   tau(   6) = (   0.2510000   0.7599071   0.7149200  )
         7           W   tau(   7) = (  -0.2149199   0.2308271  -0.7510000  )
         8           W   tau(   8) = (   0.2490000   0.8273330   0.2149200  )
         9           O   tau(   9) = (   0.2885700   0.0088039   0.2779700  )
        10           O   tau(  10) = (  -0.2779701   1.0493562  -0.7114300  )
        11           O   tau(  11) = (   0.2114300   0.5202761   0.7779700  )
        12           O   tau(  12) = (   0.7779700   0.5378839   0.7885700  )
        13           O   tau(  13) = (   0.7114300   0.0088039   0.7220300  )
        14           O   tau(  14) = (   0.2779700   1.0493562   0.7114300  )
        15           O   tau(  15) = (  -0.2114300   0.5202761  -0.7779701  )
        16           O   tau(  16) = (   0.2220300   0.5378839   0.2114300  )
        17           O   tau(  17) = (   0.4875899   0.3085383   0.6995400  )
        18           O   tau(  18) = (   0.4974500   0.7653883   0.8004600  )
        19           O   tau(  19) = (  -0.9875900   0.2205417   1.1995400  )
        20           O   tau(  20) = (   0.0025500   0.8218518   0.3004600  )
        21           O   tau(  21) = (   0.5124101   0.3085383   0.3004600  )
        22           O   tau(  22) = (   0.5025500   0.7653883   1.1995400  )
        23           O   tau(  23) = (  -0.0124100   0.2205417   0.8004600  )
        24           O   tau(  24) = (  -1.0025500   0.8218518   0.6995400  )
        25           O   tau(  25) = (   0.6995400   0.2363083   2.0025500  )
        26           O   tau(  26) = (   0.3004600   0.7496218   0.4875900  )
        27           O   tau(  27) = (   0.8004600   0.2927718   0.5025500  )
        28           O   tau(  28) = (   0.1995400   0.8376183   1.9875899  )
        29           O   tau(  29) = (   0.3004600   0.2363083   0.9974500  )
        30           O   tau(  30) = (   0.6995400   0.7496218   0.5124100  )
        31           O   tau(  31) = (   0.1995400   0.2927718   0.4974500  )
        32           O   tau(  32) = (   0.8004600   0.8376183   1.0124101  )

     number of k points=    40  gaussian smearing, width (Ry)=  0.0007
                       cart. coord. in units 2pi/alat
        k(    1) = (   0.0000000   0.0000000   0.0000000), wk =   0.0092593
        k(    2) = (   0.0000000   0.0000000   0.1666667), wk =   0.0370370
        k(    3) = (   0.0000000   0.0000000   0.3333333), wk =   0.0370370
        k(    4) = (   0.0000000   0.0000000  -0.5000000), wk =   0.0185185
        k(    5) = (   0.0000000   0.1575061   0.0000000), wk =   0.0185185
        k(    6) = (   0.0000000   0.1575061   0.1666667), wk =   0.0740741
        k(    7) = (   0.0000000   0.1575061   0.3333333), wk =   0.0740741
        k(    8) = (   0.0000000   0.1575061  -0.5000000), wk =   0.0370370
        k(    9) = (   0.0000000   0.3150122   0.0000000), wk =   0.0185185
        k(   10) = (   0.0000000   0.3150122   0.1666667), wk =   0.0740741
        k(   11) = (   0.0000000   0.3150122   0.3333333), wk =   0.0740741
        k(   12) = (   0.0000000   0.3150122  -0.5000000), wk =   0.0370370
        k(   13) = (   0.0000000  -0.4725183   0.0000000), wk =   0.0092593
        k(   14) = (   0.0000000  -0.4725183   0.1666667), wk =   0.0370370
        k(   15) = (   0.0000000  -0.4725183   0.3333333), wk =   0.0370370
        k(   16) = (   0.0000000  -0.4725183  -0.5000000), wk =   0.0185185
        k(   17) = (   0.1666667   0.0000000   0.1666667), wk =   0.0370370
        k(   18) = (   0.1666667   0.0000000   0.3333333), wk =   0.0740741
        k(   19) = (   0.1666667   0.0000000  -0.5000000), wk =   0.0370370
        k(   20) = (   0.1666667   0.1575061   0.1666667), wk =   0.0740741
        k(   21) = (   0.1666667   0.1575061   0.3333333), wk =   0.1481481
        k(   22) = (   0.1666667   0.1575061  -0.5000000), wk =   0.0740741
        k(   23) = (   0.1666667   0.3150122   0.1666667), wk =   0.0740741
        k(   24) = (   0.1666667   0.3150122   0.3333333), wk =   0.1481481
        k(   25) = (   0.1666667   0.3150122  -0.5000000), wk =   0.0740741
        k(   26) = (   0.1666667  -0.4725183   0.1666667), wk =   0.0370370
        k(   27) = (   0.1666667  -0.4725183   0.3333333), wk =   0.0740741
        k(   28) = (   0.1666667  -0.4725183  -0.5000000), wk =   0.0370370
        k(   29) = (   0.3333333   0.0000000   0.3333333), wk =   0.0370370
        k(   30) = (   0.3333333   0.0000000  -0.5000000), wk =   0.0370370
        k(   31) = (   0.3333333   0.1575061   0.3333333), wk =   0.0740741
        k(   32) = (   0.3333333   0.1575061  -0.5000000), wk =   0.0740741
        k(   33) = (   0.3333333   0.3150122   0.3333333), wk =   0.0740741
        k(   34) = (   0.3333333   0.3150122  -0.5000000), wk =   0.0740741
        k(   35) = (   0.3333333  -0.4725183   0.3333333), wk =   0.0370370
        k(   36) = (   0.3333333  -0.4725183  -0.5000000), wk =   0.0370370
        k(   37) = (  -0.5000000   0.0000000  -0.5000000), wk =   0.0092593
        k(   38) = (  -0.5000000   0.1575061  -0.5000000), wk =   0.0185185
        k(   39) = (  -0.5000000   0.3150122  -0.5000000), wk =   0.0185185
        k(   40) = (  -0.5000000  -0.4725183  -0.5000000), wk =   0.0092593

     Dense  grid:   498127 G-vectors     FFT dimensions: ( 100, 108, 100)

     Estimated max dynamical RAM per process >       3.15 GB

     Estimated total dynamical RAM >     100.65 GB

     Initial potential from superposition of free atoms

     starting charge  367.99656, renormalised to  368.00000
     Starting wfc are  232 randomized atomic wfcs

     total cpu time spent up to now is       45.4 secs

     Self-consistent Calculation

     iteration #  1     ecut=   120.00 Ry     beta= 0.70
     Davidson diagonalization with overlap
     ethr =  1.00E-02,  avg # of iterations =  4.1

     total cpu time spent up to now is      157.0 secs

     total energy              =   -6253.64035003 Ry
     Harris-Foulkes estimate   =   -6264.41512521 Ry
     estimated scf accuracy    <      13.61178827 Ry

     iteration #  2     ecut=   120.00 Ry     beta= 0.70
     Davidson diagonalization with overlap
     ethr =  3.70E-03,  avg # of iterations =  3.3

     total cpu time spent up to now is      264.3 secs

     total energy              =   -6249.17540505 Ry
     Harris-Foulkes estimate   =   -6271.58566124 Ry
     estimated scf accuracy    <      62.76787652 Ry

     iteration #  3     ecut=   120.00 Ry     beta= 0.70
     Davidson diagonalization with overlap
     ethr =  3.70E-03,  avg # of iterations =  3.0

     total cpu time spent up to now is      369.2 secs

     total energy              =   -6260.90169460 Ry
     Harris-Foulkes estimate   =   -6261.38108651 Ry
     estimated scf accuracy    <       1.55595346 Ry

     iteration #  4     ecut=   120.00 Ry     beta= 0.70
     Davidson diagonalization with overlap
     ethr =  4.23E-04,  avg # of iterations =  2.5

     total cpu time spent up to now is      456.2 secs

     total energy              =   -6260.96077158 Ry
     Harris-Foulkes estimate   =   -6261.07049965 Ry
     estimated scf accuracy    <       0.40570544 Ry

     iteration #  5     ecut=   120.00 Ry     beta= 0.70
     Davidson diagonalization with overlap
     ethr =  1.10E-04,  avg # of iterations =  4.4

     total cpu time spent up to now is      543.1 secs

     total energy              =   -6260.93239968 Ry
     Harris-Foulkes estimate   =   -6260.99200953 Ry
     estimated scf accuracy    <       0.13057012 Ry

     iteration #  6     ecut=   120.00 Ry     beta= 0.70
     Davidson diagonalization with overlap
     ethr =  3.55E-05,  avg # of iterations =  5.0

     total cpu time spent up to now is      638.8 secs

     total energy              =   -6260.96199713 Ry
     Harris-Foulkes estimate   =   -6260.96414549 Ry
     estimated scf accuracy    <       0.00709240 Ry

     iteration #  7     ecut=   120.00 Ry     beta= 0.70
     Davidson diagonalization with overlap
     ethr =  1.93E-06,  avg # of iterations =  2.9

     total cpu time spent up to now is      725.8 secs

     total energy              =   -6260.96247315 Ry
     Harris-Foulkes estimate   =   -6260.96287600 Ry
     estimated scf accuracy    <       0.00118605 Ry

     iteration #  8     ecut=   120.00 Ry     beta= 0.70
     Davidson diagonalization with overlap
     ethr =  3.22E-07,  avg # of iterations =  2.8

     total cpu time spent up to now is      812.1 secs

     total energy              =   -6260.96259165 Ry
     Harris-Foulkes estimate   =   -6260.96264683 Ry
     estimated scf accuracy    <       0.00013036 Ry

     iteration #  9     ecut=   120.00 Ry     beta= 0.70
     Davidson diagonalization with overlap
     ethr =  3.54E-08,  avg # of iterations =  2.8

     total cpu time spent up to now is      907.1 secs

     total energy              =   -6260.96261927 Ry
     Harris-Foulkes estimate   =   -6260.96262362 Ry
     estimated scf accuracy    <       0.00000906 Ry

     iteration # 10     ecut=   120.00 Ry     beta= 0.70
     Davidson diagonalization with overlap
     ethr =  2.46E-09,  avg # of iterations =  2.2

     total cpu time spent up to now is     1005.5 secs

     total energy              =   -6260.96262093 Ry
     Harris-Foulkes estimate   =   -6260.96262157 Ry
     estimated scf accuracy    <       0.00000148 Ry

     iteration # 11     ecut=   120.00 Ry     beta= 0.70
     Davidson diagonalization with overlap
     ethr =  4.02E-10,  avg # of iterations =  2.0

     total cpu time spent up to now is     1094.7 secs

     total energy              =   -6260.96262117 Ry
     Harris-Foulkes estimate   =   -6260.96262118 Ry
     estimated scf accuracy    <       0.00000002 Ry

     iteration # 12     ecut=   120.00 Ry     beta= 0.70
     Davidson diagonalization with overlap
     ethr =  5.97E-12,  avg # of iterations =  3.6

     total cpu time spent up to now is     1215.1 secs

     End of self-consistent calculation

          k = 0.0000 0.0000 0.0000 ( 62239 PWs)   bands (ev):

   -66.1928 -66.1924 -66.1919 -66.1919 -66.1915 -66.1914 -66.1909 -66.1905
   -30.7462 -30.7457 -30.7420 -30.7420 -30.6535 -30.6535 -30.6501 -30.6498
   -30.4624 -30.4621 -30.4546 -30.4546 -30.4076 -30.4064 -30.4064 -30.4056
   -30.3771 -30.3771 -30.3760 -30.3682 -30.3574 -30.3535 -30.3535 -30.3493
   -20.3642 -20.3640 -20.3638 -20.3638 -20.3635 -20.3634 -20.3632 -20.3631
   -20.3540 -20.3540 -20.3538 -20.3537 -20.3523 -20.3522 -20.3518 -20.3518
   -20.3480 -20.3478 -20.3477 -20.3477 -20.3436 -20.3436 -20.3433 -20.3433
   -20.3291 -20.3290 -20.3290 -20.3289 -20.3274 -20.3273 -20.3273 -20.3270
   -20.3257 -20.3253 -20.3253 -20.3251 -20.3217 -20.3212 -20.3211 -20.3207
   -20.3185 -20.3183 -20.3177 -20.3177 -20.3148 -20.3148 -20.3143 -20.3142
   -20.3109 -20.3108 -20.3105 -20.3105 -20.3079 -20.3079 -20.3075 -20.3073
    -9.9684  -9.7789  -9.5685  -9.5685  -9.0433  -9.0433  -8.9088  -8.8985
    -8.4781  -8.4134  -8.3908  -8.3908  -8.2357  -8.1819  -8.0536  -8.0536
    -7.7432  -7.7328  -7.6004  -7.6004  -7.5582  -7.4767  -7.4767  -7.4038
     1.2564   1.2752   1.3294   1.3294   1.6647   1.6647   1.8149   1.8383
     2.2264   2.2279   2.2783   2.2783   2.3410   2.3541   2.6679   2.9592
     2.9592   2.9597   4.2504   4.2504   4.4014   4.4713   4.4713   4.4922
     4.6994   4.6994   4.7724   4.8311   5.0240   5.2302   5.2963   5.2963
     5.3129   5.4528   5.4528   5.6503   5.6503   5.7165   5.7240   5.7322
     5.8035   5.8035   5.8772   5.9304   5.9894   5.9895   5.9949   6.1739
     6.2863   6.5238   6.5731   6.5982   6.6547   6.6547   6.7779   6.7779
     6.8505   7.0715   7.0715   7.1605   7.1605   7.1658   7.2434   7.2711
     7.4666   7.4666   7.5270   7.6025   7.8900   7.9981   7.9981   8.1643
     9.9550  10.1421  10.2335  10.2335  10.3034  10.3738  12.0280  12.0322
    12.0322  12.1926  12.1926  12.2686  12.3699  12.7334  12.7437  12.7437
    12.9047  13.0266  13.0943  13.0943  13.4497  13.4497  13.5413  13.8002
    14.2144  14.3967  14.3967  14.8168  14.9327  15.2354  15.6007  15.6423
    15.6423  16.3430  16.6099  16.6099  17.5961

          k = 0.0000 0.0000 0.1667 ( 62262 PWs)   bands (ev):

   -66.1928 -66.1924 -66.1920 -66.1918 -66.1915 -66.1914 -66.1910 -66.1906
   -30.7457 -30.7423 -30.7398 -30.7359 -30.6598 -30.6562 -30.6533 -30.6502
   -30.4618 -30.4569 -30.4552 -30.4495 -30.4071 -30.4071 -30.4062 -30.4060
   -30.3821 -30.3792 -30.3767 -30.3703 -30.3572 -30.3538 -30.3533 -30.3497
   -20.3641 -20.3640 -20.3638 -20.3637 -20.3635 -20.3634 -20.3632 -20.3631
   -20.3540 -20.3539 -20.3537 -20.3535 -20.3524 -20.3522 -20.3519 -20.3519
   -20.3479 -20.3477 -20.3477 -20.3474 -20.3439 -20.3436 -20.3435 -20.3433
   -20.3291 -20.3290 -20.3289 -20.3289 -20.3275 -20.3274 -20.3273 -20.3271
   -20.3256 -20.3253 -20.3253 -20.3251 -20.3216 -20.3212 -20.3211 -20.3208
   -20.3183 -20.3181 -20.3177 -20.3174 -20.3150 -20.3148 -20.3145 -20.3143
   -20.3108 -20.3106 -20.3105 -20.3103 -20.3081 -20.3078 -20.3077 -20.3074
    -9.9206  -9.7269  -9.5848  -9.4893  -9.0713  -8.9728  -8.8870  -8.8522
    -8.5056  -8.4064  -8.4046  -8.3804  -8.3003  -8.1942  -8.1520  -8.0621
    -7.8355  -7.7279  -7.7027  -7.6090  -7.5531  -7.4823  -7.4729  -7.4089
     1.2808   1.3217   1.4677   1.5396   1.6692   1.8660   1.8820   2.0252
     2.2242   2.2661   2.2804   2.3146   2.3768   2.4286   2.7133   2.9484
     3.0109   3.0516   4.0717   4.2060   4.2169   4.3106   4.4334   4.4891
     4.5301   4.6516   4.6828   4.8591   5.0109   5.1510   5.1776   5.2614
     5.2935   5.3935   5.4251   5.4965   5.5347   5.6013   5.6501   5.6942
     5.7470   5.8028   5.8585   5.9049   5.9376   5.9856   6.0195   6.2699
     6.2789   6.5177   6.5839   6.6091   6.6591   6.7312   6.7428   6.8631
     6.9166   7.0302   7.0507   7.0741   7.1552   7.1964   7.2388   7.2677
     7.3632   7.3747   7.5637   7.6164   7.8978   7.9926   8.0150   8.1647
    10.0659  10.2309  10.2595  10.3812  10.5154  10.6277  12.0015  12.0494
    12.0636  12.1812  12.2447  12.3133  12.4236  12.7102  12.7233  12.7946
    12.8240  13.0011  13.1145  13.1183  13.3411  13.4586  13.5753  13.7421
    14.1976  14.3859  14.4037  14.8750  14.9038  15.2518  15.5851  15.6571
    15.8478  16.4732  16.4779  16.7884  17.6326

          k = 0.0000 0.0000 0.3333 ( 62268 PWs)   bands (ev):

   -66.1926 -66.1922 -66.1921 -66.1917 -66.1916 -66.1912 -66.1911 -66.1907
   -30.7450 -30.7431 -30.7230 -30.7192 -30.6768 -30.6732 -30.6526 -30.6508
   -30.4605 -30.4567 -30.4424 -30.4358 -30.4105 -30.4089 -30.4057 -30.4047
   -30.3942 -30.3905 -30.3757 -30.3726 -30.3565 -30.3546 -30.3526 -30.3505
   -20.3641 -20.3639 -20.3639 -20.3636 -20.3636 -20.3634 -20.3633 -20.3632
   -20.3539 -20.3538 -20.3535 -20.3531 -20.3526 -20.3522 -20.3521 -20.3520
   -20.3479 -20.3477 -20.3470 -20.3467 -20.3448 -20.3445 -20.3435 -20.3434
   -20.3291 -20.3291 -20.3287 -20.3286 -20.3278 -20.3277 -20.3273 -20.3272
   -20.3255 -20.3254 -20.3253 -20.3252 -20.3215 -20.3212 -20.3210 -20.3208
   -20.3182 -20.3179 -20.3173 -20.3167 -20.3156 -20.3150 -20.3147 -20.3144
   -20.3107 -20.3105 -20.3102 -20.3099 -20.3087 -20.3083 -20.3077 -20.3075
    -9.8145  -9.6328  -9.5701  -9.2664  -9.1663  -8.8299  -8.7793  -8.7039
    -8.6476  -8.5174  -8.4091  -8.3818  -8.3639  -8.3423  -8.1786  -8.0843
    -8.0733  -7.9487  -7.7014  -7.6328  -7.5390  -7.4976  -7.4604  -7.4228
     1.2953   1.3085   1.6789   1.6810   2.0766   2.1434   2.2192   2.2497
     2.3197   2.4513   2.5076   2.5577   2.6670   2.6758   2.7901   2.9302
     3.2080   3.2660   3.5412   3.7500   3.9178   4.0390   4.2132   4.2601
     4.3620   4.4567   4.5472   4.6052   4.8159   4.8904   4.9580   4.9990
     5.1594   5.2065   5.2738   5.3846   5.4058   5.4528   5.5595   5.7573
     5.7582   5.8127   5.8911   5.9125   5.9332   5.9752   6.1523   6.2765
     6.3402   6.3556   6.4876   6.6168   6.7196   6.7461   6.7909   6.8312
     6.9549   6.9572   7.0747   7.0902   7.1569   7.1627   7.2633   7.2746
     7.4383   7.5322   7.5330   7.6103   7.8779   7.9409   8.0535   8.1428
    10.1504  10.2183  10.6804  10.8716  10.9584  11.2543  11.7698  11.8526
    12.0806  12.1524  12.3119  12.3610  12.4822  12.5116  12.6298  12.7537
    12.8991  12.9119  13.0412  13.1933  13.2355  13.4897  13.5335  13.6394
    14.2142  14.3529  14.4910  14.8140  14.9581  15.4049  15.5494  15.8824
    16.1954  16.4906  16.9081  17.2269  17.3092

          k = 0.0000 0.0000-0.5000 ( 62264 PWs)   bands (ev):

   -66.1924 -66.1924 -66.1919 -66.1919 -66.1914 -66.1914 -66.1910 -66.1910
   -30.7441 -30.7441 -30.7000 -30.7000 -30.6963 -30.6963 -30.6517 -30.6517
   -30.4586 -30.4586 -30.4236 -30.4236 -30.4187 -30.4187 -30.4027 -30.4027
   -30.4013 -30.4013 -30.3743 -30.3743 -30.3556 -30.3556 -30.3516 -30.3516
   -20.3640 -20.3640 -20.3637 -20.3637 -20.3635 -20.3635 -20.3633 -20.3633
   -20.3539 -20.3539 -20.3530 -20.3530 -20.3526 -20.3526 -20.3521 -20.3521
   -20.3478 -20.3478 -20.3460 -20.3460 -20.3457 -20.3457 -20.3434 -20.3434
   -20.3291 -20.3291 -20.3283 -20.3282 -20.3282 -20.3282 -20.3273 -20.3273
   -20.3254 -20.3254 -20.3252 -20.3252 -20.3214 -20.3214 -20.3209 -20.3209
   -20.3181 -20.3181 -20.3164 -20.3164 -20.3158 -20.3158 -20.3146 -20.3146
   -20.3106 -20.3106 -20.3095 -20.3095 -20.3091 -20.3091 -20.3076 -20.3076
    -9.7108  -9.7108  -9.3486  -9.3486  -8.9502  -8.9501  -8.7084  -8.7084
    -8.5477  -8.5476  -8.5063  -8.5063  -8.3031  -8.3031  -8.2407  -8.2407
    -8.1033  -8.1033  -7.6665  -7.6664  -7.5185  -7.5185  -7.4419  -7.4418
     1.3006   1.3006   1.6931   1.6931   2.2152   2.2152   2.2339   2.2339
     2.8184   2.8184   2.8688   2.8689   2.9595   2.9596   3.1232   3.1232
     3.3091   3.3092   3.3175   3.3176   3.6211   3.6211   3.8551   3.8551
     3.9149   3.9149   4.5111   4.5111   4.8634   4.8634   5.0031   5.0031
     5.0862   5.0862   5.2400   5.2400   5.3663   5.3663   5.6663   5.6663
     5.8316   5.8316   5.8948   5.8948   5.9581   5.9581   6.2506   6.2506
     6.3769   6.3770   6.5239   6.5239   6.6124   6.6125   6.8261   6.8261
     6.9242   6.9242   7.0354   7.0354   7.2517   7.2517   7.3771   7.3771
     7.4497   7.4497   7.7384   7.7384   7.7946   7.7946   8.0955   8.0955
    10.1913  10.1913  11.2563  11.2563  11.4346  11.4346  11.5503  11.5503
    11.9360  11.9360  12.2708  12.2708  12.4792  12.4792  12.7709  12.7709
    12.8327  12.8327  13.0604  13.0604  13.3612  13.3612  13.5500  13.5500
    14.2935  14.2935  14.6628  14.6628  15.1410  15.1410  15.9103  15.9103
    16.4881  16.4882  17.3830  17.3831  17.5978

          k = 0.0000 0.1575 0.0000 ( 62231 PWs)   bands (ev):

   -66.1928 -66.1925 -66.1919 -66.1919 -66.1915 -66.1915 -66.1909 -66.1905
   -30.7462 -30.7458 -30.7420 -30.7420 -30.6536 -30.6535 -30.6500 -30.6499
   -30.4623 -30.4621 -30.4546 -30.4546 -30.4043 -30.4033 -30.4033 -30.4026
   -30.3771 -30.3771 -30.3765 -30.3680 -30.3608 -30.3566 -30.3566 -30.3520
   -20.3641 -20.3640 -20.3638 -20.3638 -20.3635 -20.3635 -20.3632 -20.3631
   -20.3540 -20.3540 -20.3537 -20.3537 -20.3523 -20.3522 -20.3518 -20.3518
   -20.3480 -20.3479 -20.3477 -20.3477 -20.3436 -20.3436 -20.3433 -20.3433
   -20.3291 -20.3290 -20.3290 -20.3289 -20.3274 -20.3273 -20.3273 -20.3271
   -20.3254 -20.3251 -20.3250 -20.3248 -20.3219 -20.3214 -20.3214 -20.3210
   -20.3185 -20.3183 -20.3177 -20.3177 -20.3148 -20.3148 -20.3143 -20.3142
   -20.3109 -20.3108 -20.3105 -20.3105 -20.3079 -20.3079 -20.3075 -20.3073
    -9.9526  -9.7890  -9.5628  -9.5628  -9.0391  -9.0391  -8.9066  -8.8984
    -8.4240  -8.3668  -8.3459  -8.3459  -8.2343  -8.1795  -8.0531  -8.0531
    -7.7425  -7.7354  -7.6275  -7.6021  -7.6021  -7.5506  -7.5506  -7.4857
     1.2571   1.2729   1.3288   1.3288   1.6632   1.6632   1.8260   1.8389
     2.2344   2.3266   2.3666   2.4532   2.4532   2.5621   2.7298   3.0351
     3.0351   3.0514   4.1485   4.1485   4.1975   4.2727   4.4568   4.4568
     4.6708   4.6907   4.6907   4.8884   5.0508   5.2706   5.2719   5.2797
     5.2797   5.3897   5.3897   5.5651   5.5651   5.6970   5.7149   5.7265
     5.7265   5.7727   5.7850   5.9333   6.0015   6.0015   6.0024   6.1569
     6.2619   6.4776   6.5488   6.6406   6.7476   6.7477   6.7804   6.7804
     6.9132   6.9815   6.9815   7.0348   7.1886   7.1886   7.2413   7.2638
     7.4425   7.4425   7.5283   7.5883   7.8857   7.9975   7.9975   8.1008
    10.0281  10.1575  10.3620  10.3620  10.4323  10.4717  12.0033  12.0033
    12.0266  12.1380  12.1796  12.1796  12.3792  12.5960  12.7213  12.7213
    12.9007  13.0890  13.0890  13.1195  13.4451  13.4451  13.6008  13.7566
    14.3080  14.5352  14.5353  14.8582  15.2174  15.2914  15.6139  15.6453
    15.6453  16.2093  16.6767  16.6767  17.4328

          k = 0.0000 0.1575 0.1667 ( 62237 PWs)   bands (ev):

   -66.1928 -66.1924 -66.1919 -66.1918 -66.1915 -66.1914 -66.1909 -66.1906
   -30.7457 -30.7423 -30.7398 -30.7359 -30.6598 -30.6562 -30.6533 -30.6502
   -30.4617 -30.4568 -30.4551 -30.4495 -30.4041 -30.4039 -30.4032 -30.4029
   -30.3820 -30.3795 -30.3768 -30.3701 -30.3606 -30.3570 -30.3563 -30.3525
   -20.3641 -20.3640 -20.3638 -20.3637 -20.3635 -20.3634 -20.3632 -20.3631
   -20.3540 -20.3539 -20.3537 -20.3535 -20.3524 -20.3522 -20.3519 -20.3519
   -20.3479 -20.3477 -20.3477 -20.3474 -20.3439 -20.3436 -20.3435 -20.3433
   -20.3291 -20.3290 -20.3289 -20.3289 -20.3275 -20.3274 -20.3273 -20.3271
   -20.3253 -20.3251 -20.3250 -20.3248 -20.3219 -20.3214 -20.3214 -20.3211
   -20.3184 -20.3181 -20.3178 -20.3174 -20.3150 -20.3148 -20.3145 -20.3143
   -20.3108 -20.3106 -20.3105 -20.3103 -20.3081 -20.3078 -20.3077 -20.3074
    -9.9050  -9.7366  -9.5788  -9.4831  -9.0673  -8.9677  -8.8856  -8.8510
    -8.4532  -8.3647  -8.3619  -8.3370  -8.2933  -8.1924  -8.1492  -8.0616
    -7.8365  -7.7292  -7.7051  -7.6223  -7.6106  -7.5551  -7.5481  -7.4886
     1.2802   1.3211   1.4675   1.5393   1.6679   1.8755   1.8832   2.0347
     2.3202   2.3632   2.4205   2.4377   2.4590   2.5625   2.7796   3.0215
     3.1023   3.1262   4.0403   4.1090   4.1946   4.2172   4.2930   4.3136
     4.4978   4.6115   4.6608   4.8589   5.0136   5.1211   5.1675   5.2440
     5.2921   5.3573   5.4091   5.4371   5.5299   5.5487   5.6140   5.6145
     5.6605   5.7289   5.7793   5.8553   5.9430   5.9759   6.0223   6.1665
     6.3423   6.4925   6.5903   6.6285   6.6914   6.7479   6.8382   6.8710
     6.9358   6.9543   6.9991   7.1048   7.1148   7.1783   7.2539   7.2789
     7.3311   7.3858   7.5603   7.6087   7.8985   7.9890   8.0054   8.1048
    10.1665  10.2991  10.3635  10.5137  10.5665  10.7028  11.9725  12.0309
    12.0649  12.1600  12.1812  12.2529  12.4362  12.6174  12.6916  12.7326
    12.8045  13.0048  13.1057  13.1667  13.3327  13.4531  13.6121  13.7172
    14.3126  14.5281  14.5746  14.8957  15.2226  15.2914  15.6012  15.6707
    15.8418  16.3379  16.5410  16.8367  17.4785

          k = 0.0000 0.1575 0.3333 ( 62284 PWs)   bands (ev):

   -66.1926 -66.1922 -66.1921 -66.1917 -66.1916 -66.1912 -66.1911 -66.1908
   -30.7450 -30.7431 -30.7230 -30.7192 -30.6768 -30.6732 -30.6526 -30.6508
   -30.4604 -30.4567 -30.4423 -30.4356 -30.4084 -30.4065 -30.4026 -30.4017
   -30.3932 -30.3901 -30.3758 -30.3726 -30.3599 -30.3579 -30.3556 -30.3535
   -20.3641 -20.3639 -20.3639 -20.3636 -20.3636 -20.3634 -20.3633 -20.3632
   -20.3539 -20.3538 -20.3535 -20.3531 -20.3526 -20.3522 -20.3522 -20.3520
   -20.3479 -20.3477 -20.3470 -20.3467 -20.3448 -20.3445 -20.3435 -20.3434
   -20.3291 -20.3291 -20.3287 -20.3286 -20.3278 -20.3277 -20.3273 -20.3272
   -20.3253 -20.3251 -20.3250 -20.3249 -20.3218 -20.3215 -20.3213 -20.3211
   -20.3182 -20.3179 -20.3174 -20.3167 -20.3156 -20.3150 -20.3147 -20.3144
   -20.3107 -20.3105 -20.3102 -20.3099 -20.3087 -20.3083 -20.3077 -20.3075
    -9.8017  -9.6262  -9.5757  -9.2587  -9.1636  -8.8284  -8.7716  -8.7000
    -8.6191  -8.5050  -8.3705  -8.3548  -8.3343  -8.3043  -8.1747  -8.0868
    -8.0690  -7.9492  -7.7025  -7.6344  -7.6090  -7.5690  -7.5363  -7.5005
     1.2947   1.3079   1.6781   1.6804   2.1047   2.2394   2.3749   2.3920
     2.4593   2.4986   2.5456   2.5720   2.6685   2.6963   2.8637   3.0012
     3.2910   3.3249   3.5437   3.7452   3.9006   4.0060   4.2125   4.2383
     4.3165   4.3545   4.4775   4.5025   4.7259   4.8696   4.8983   4.9147
     5.0851   5.2215   5.2837   5.3520   5.3686   5.4054   5.5471   5.5780
     5.7347   5.7684   5.8054   5.8112   5.8569   5.9494   6.0646   6.1578
     6.3662   6.4194   6.5265   6.7017   6.7223   6.7827   6.8442   6.8551
     6.9095   6.9844   7.0656   7.0895   7.1512   7.1606   7.2631   7.2779
     7.4550   7.5267   7.5631   7.6123   7.8934   7.9403   8.0257   8.0904
    10.2900  10.3509  10.7216  10.9553  10.9826  11.2857  11.7752  11.8686
    12.0931  12.1418  12.2474  12.3436  12.4339  12.4771  12.5959  12.6813
    12.8154  12.8892  13.0279  13.1796  13.2008  13.4828  13.5143  13.6490
    14.3810  14.5044  14.7233  14.9432  15.1761  15.4568  15.5707  15.9027
    16.2150  16.4793  16.7749  17.2855  17.3196

          k = 0.0000 0.1575-0.5000 ( 62234 PWs)   bands (ev):

   -66.1923 -66.1923 -66.1920 -66.1920 -66.1914 -66.1914 -66.1910 -66.1910
   -30.7441 -30.7441 -30.7000 -30.7000 -30.6963 -30.6963 -30.6517 -30.6517
   -30.4586 -30.4586 -30.4231 -30.4231 -30.4179 -30.4179 -30.3999 -30.3999
   -30.3990 -30.3990 -30.3744 -30.3744 -30.3589 -30.3589 -30.3546 -30.3546
   -20.3640 -20.3640 -20.3637 -20.3637 -20.3635 -20.3634 -20.3633 -20.3633
   -20.3539 -20.3539 -20.3530 -20.3530 -20.3526 -20.3526 -20.3521 -20.3521
   -20.3478 -20.3478 -20.3460 -20.3460 -20.3457 -20.3457 -20.3434 -20.3434
   -20.3291 -20.3291 -20.3283 -20.3282 -20.3282 -20.3282 -20.3273 -20.3273
   -20.3252 -20.3252 -20.3249 -20.3249 -20.3216 -20.3216 -20.3212 -20.3212
   -20.3181 -20.3181 -20.3164 -20.3164 -20.3158 -20.3158 -20.3146 -20.3146
   -20.3106 -20.3106 -20.3095 -20.3095 -20.3091 -20.3091 -20.3076 -20.3076
    -9.7019  -9.7019  -9.3492  -9.3491  -8.9382  -8.9381  -8.7068  -8.7068
    -8.5259  -8.5258  -8.4846  -8.4846  -8.2807  -8.2807  -8.2218  -8.2218
    -8.1022  -8.1021  -7.6678  -7.6677  -7.5890  -7.5890  -7.5184  -7.5184
     1.3001   1.3001   1.6925   1.6925   2.3493   2.3493   2.4344   2.4344
     2.8649   2.8649   2.8879   2.8879   2.9575   2.9575   3.1295   3.1295
     3.3140   3.3140   3.3346   3.3347   3.6502   3.6502   3.8720   3.8720
     3.9615   3.9615   4.3485   4.3485   4.7446   4.7446   4.8924   4.8924
     5.0686   5.0686   5.2483   5.2483   5.3227   5.3227   5.6533   5.6533
     5.6862   5.6862   5.7986   5.7986   5.9146   5.9147   6.1137   6.1137
     6.4140   6.4140   6.6014   6.6014   6.6699   6.6699   6.8339   6.8339
     6.9896   6.9896   7.0147   7.0148   7.2468   7.2468   7.3752   7.3752
     7.4466   7.4467   7.7577   7.7577   7.8130   7.8130   8.0532   8.0532
    10.3315  10.3315  11.2812  11.2812  11.4761  11.4761  11.5768  11.5768
    11.9492  11.9492  12.2501  12.2501  12.4049  12.4049  12.7134  12.7135
    12.8229  12.8229  12.9722  12.9722  13.3451  13.3451  13.5464  13.5464
    14.4599  14.4599  14.9125  14.9125  15.2349  15.2349  15.9220  15.9220
    16.5145  16.5145  17.3251  17.3251  17.5246

          k = 0.0000 0.3150 0.0000 ( 62175 PWs)   bands (ev):

   -66.1927 -66.1925 -66.1918 -66.1918 -66.1915 -66.1915 -66.1908 -66.1906
   -30.7461 -30.7459 -30.7420 -30.7420 -30.6536 -30.6536 -30.6500 -30.6499
   -30.4622 -30.4620 -30.4545 -30.4545 -30.3953 -30.3952 -30.3952 -30.3945
   -30.3789 -30.3776 -30.3776 -30.3701 -30.3672 -30.3644 -30.3643 -30.3586
   -20.3641 -20.3640 -20.3638 -20.3638 -20.3635 -20.3635 -20.3632 -20.3631
   -20.3540 -20.3540 -20.3537 -20.3537 -20.3523 -20.3522 -20.3518 -20.3518
   -20.3480 -20.3479 -20.3477 -20.3477 -20.3436 -20.3436 -20.3433 -20.3433
   -20.3291 -20.3290 -20.3290 -20.3290 -20.3273 -20.3273 -20.3273 -20.3271
   -20.3246 -20.3243 -20.3243 -20.3240 -20.3226 -20.3222 -20.3222 -20.3218
   -20.3185 -20.3184 -20.3177 -20.3177 -20.3148 -20.3148 -20.3143 -20.3143
   -20.3108 -20.3108 -20.3105 -20.3105 -20.3079 -20.3079 -20.3074 -20.3074
    -9.9119  -9.8181  -9.5516  -9.5516  -9.0310  -9.0310  -8.9023  -8.8985
    -8.3007  -8.2316  -8.2168  -8.2140  -8.2140  -8.1562  -8.0508  -8.0508
    -7.8160  -7.7469  -7.7469  -7.7403  -7.7328  -7.6964  -7.5991  -7.5991
     1.2590   1.2676   1.3277   1.3277   1.6615   1.6615   1.8373   1.8402
     2.2553   2.3106   2.7251   2.8572   2.8572   2.8949   3.0661   3.3080
     3.3080   3.3807   3.8464   3.8769   3.8959   3.8959   4.2704   4.4396
     4.4396   4.6382   4.6382   4.8385   4.8385   4.9340   4.9635   5.1073
     5.3410   5.3556   5.3556   5.3592   5.4806   5.4806   5.6789   5.7200
     5.7200   5.7443   5.8460   5.9023   6.0429   6.0429   6.0625   6.1311
     6.3906   6.4020   6.4308   6.7064   6.7064   6.7066   6.8259   6.8259
     6.9426   6.9426   6.9685   7.0337   7.2568   7.2644   7.2679   7.2679
     7.4522   7.4522   7.5279   7.5702   7.8250   7.9232   7.9282   7.9282
    10.1301  10.1660  10.6998  10.7137  10.7137  10.8935  11.8135  11.8135
    11.8193  11.9897  12.1592  12.1592  12.3260  12.3561  12.7046  12.7046
    12.9262  13.1071  13.1071  13.1320  13.3406  13.3406  13.6142  13.6678
    14.7230  14.8854  14.8854  15.1309  15.1598  15.6497  15.6497  15.6707
    15.8988  16.1465  16.8802  16.9395  16.9395

          k = 0.0000 0.3150 0.1667 ( 62260 PWs)   bands (ev):

   -66.1927 -66.1925 -66.1919 -66.1917 -66.1916 -66.1915 -66.1909 -66.1907
   -30.7457 -30.7423 -30.7398 -30.7359 -30.6598 -30.6562 -30.6533 -30.6502
   -30.4617 -30.4567 -30.4551 -30.4493 -30.3966 -30.3957 -30.3950 -30.3947
   -30.3820 -30.3806 -30.3773 -30.3698 -30.3694 -30.3652 -30.3640 -30.3594
   -20.3641 -20.3640 -20.3638 -20.3637 -20.3635 -20.3635 -20.3632 -20.3631
   -20.3540 -20.3539 -20.3537 -20.3535 -20.3524 -20.3522 -20.3519 -20.3519
   -20.3479 -20.3477 -20.3477 -20.3475 -20.3439 -20.3436 -20.3435 -20.3433
   -20.3291 -20.3290 -20.3289 -20.3289 -20.3275 -20.3274 -20.3273 -20.3272
   -20.3246 -20.3243 -20.3243 -20.3240 -20.3226 -20.3222 -20.3222 -20.3219
   -20.3184 -20.3181 -20.3178 -20.3175 -20.3150 -20.3148 -20.3145 -20.3143
   -20.3108 -20.3107 -20.3105 -20.3103 -20.3081 -20.3078 -20.3077 -20.3074
    -9.8659  -9.7637  -9.5670  -9.4712  -9.0597  -8.9580  -8.8832  -8.8487
    -8.3506  -8.2795  -8.2372  -8.2188  -8.2067  -8.1740  -8.1281  -8.0596
    -7.8476  -7.8059  -7.7511  -7.7440  -7.7279  -7.7204  -7.6664  -7.6076
     1.2789   1.3199   1.4665   1.5386   1.6663   1.8775   1.8912   2.0443
     2.3423   2.3985   2.7348   2.8159   2.8770   2.9667   3.0503   3.2818
     3.3719   3.4304   3.8404   3.8639   3.9117   3.9540   4.1569   4.2077
     4.3163   4.4745   4.5953   4.6982   4.8259   4.9427   5.0529   5.0889
     5.1668   5.2121   5.3260   5.3729   5.3976   5.4318   5.4937   5.5953
     5.6235   5.6519   5.7385   5.8292   5.8438   5.9652   6.0553   6.1289
     6.4063   6.5034   6.5421   6.6169   6.6872   6.7640   6.8604   6.8760
     6.9192   7.0550   7.0621   7.0970   7.1872   7.2236   7.2721   7.2967
     7.4011   7.4406   7.5526   7.5993   7.8394   7.9185   7.9255   7.9434
    10.3165  10.3671  10.7130  10.7713  10.8487  11.0127  11.7973  11.8393
    11.8908  12.0372  12.1468  12.2207  12.3670  12.4349  12.6325  12.7120
    12.8105  13.0034  13.1190  13.1539  13.2147  13.3482  13.5774  13.6642
    14.7701  14.8792  14.9826  15.1435  15.2146  15.6220  15.7527  15.8173
    16.0300  16.1243  16.7782  16.9195  17.0657

          k = 0.0000 0.3150 0.3333 ( 62269 PWs)   bands (ev):

   -66.1925 -66.1923 -66.1920 -66.1918 -66.1915 -66.1913 -66.1910 -66.1908
   -30.7450 -30.7431 -30.7230 -30.7192 -30.6768 -30.6732 -30.6526 -30.6508
   -30.4604 -30.4566 -30.4421 -30.4353 -30.4045 -30.4011 -30.3941 -30.3937
   -30.3889 -30.3878 -30.3763 -30.3726 -30.3690 -30.3666 -30.3632 -30.3607
   -20.3640 -20.3639 -20.3639 -20.3636 -20.3636 -20.3634 -20.3633 -20.3632
   -20.3539 -20.3538 -20.3535 -20.3531 -20.3526 -20.3522 -20.3522 -20.3520
   -20.3479 -20.3477 -20.3470 -20.3467 -20.3448 -20.3445 -20.3435 -20.3434
   -20.3291 -20.3290 -20.3287 -20.3286 -20.3278 -20.3277 -20.3273 -20.3272
   -20.3245 -20.3243 -20.3242 -20.3241 -20.3225 -20.3223 -20.3221 -20.3219
   -20.3183 -20.3179 -20.3174 -20.3167 -20.3156 -20.3150 -20.3147 -20.3144
   -20.3107 -20.3105 -20.3102 -20.3099 -20.3087 -20.3083 -20.3077 -20.3075
    -9.7741  -9.6144  -9.5879  -9.2441  -9.1581  -8.8260  -8.7564  -8.6932
    -8.5787  -8.4753  -8.2909  -8.2590  -8.2124  -8.1841  -8.1495  -8.0931
    -8.0514  -7.9522  -7.7923  -7.7558  -7.7297  -7.7033  -7.6911  -7.6311
     1.2933   1.3068   1.6773   1.6792   2.1232   2.3391   2.4391   2.5853
     2.6027   2.6447   2.7715   2.7937   2.9270   2.9843   3.1045   3.2387
     3.4719   3.5373   3.5817   3.7243   3.8351   3.8610   3.9761   4.0579
     4.1555   4.2514   4.3525   4.4625   4.5778   4.7023   4.7581   4.8381
     4.9001   5.0297   5.0831   5.1711   5.3058   5.3532   5.3588   5.4243
     5.4935   5.5389   5.5959   5.7372   5.7874   5.9030   6.0636   6.1062
     6.3891   6.4819   6.6191   6.6942   6.7322   6.8319   6.8666   6.9359
     6.9853   7.0276   7.1131   7.1559   7.1909   7.2296   7.2912   7.3101
     7.5132   7.5373   7.6122   7.6501   7.8607   7.8962   7.9220   7.9475
    10.6228  10.6975  10.8221  11.0260  11.2155  11.4300  11.7258  11.8889
    11.9042  12.0867  12.1210  12.2874  12.3494  12.3971  12.4833  12.5906
    12.7502  12.7854  12.9479  13.0420  13.1894  13.3794  13.4805  13.5871
    14.8094  14.8526  15.1393  15.3431  15.4910  15.6519  15.9770  16.0561
    16.2774  16.4529  16.5447  17.0875  17.3962

          k = 0.0000 0.3150-0.5000 ( 62306 PWs)   bands (ev):

   -66.1923 -66.1923 -66.1920 -66.1920 -66.1913 -66.1913 -66.1911 -66.1911
   -30.7441 -30.7441 -30.7000 -30.7000 -30.6963 -30.6963 -30.6517 -30.6517
   -30.4585 -30.4585 -30.4224 -30.4224 -30.4167 -30.4167 -30.3925 -30.3925
   -30.3918 -30.3918 -30.3748 -30.3748 -30.3679 -30.3679 -30.3620 -30.3620
   -20.3640 -20.3640 -20.3637 -20.3637 -20.3634 -20.3634 -20.3633 -20.3633
   -20.3539 -20.3539 -20.3530 -20.3530 -20.3526 -20.3526 -20.3521 -20.3521
   -20.3478 -20.3478 -20.3460 -20.3460 -20.3457 -20.3457 -20.3434 -20.3434
   -20.3291 -20.3291 -20.3283 -20.3282 -20.3282 -20.3282 -20.3273 -20.3273
   -20.3244 -20.3244 -20.3242 -20.3242 -20.3224 -20.3224 -20.3220 -20.3220
   -20.3181 -20.3181 -20.3164 -20.3164 -20.3158 -20.3158 -20.3146 -20.3146
   -20.3106 -20.3106 -20.3095 -20.3095 -20.3091 -20.3091 -20.3076 -20.3076
    -9.6841  -9.6841  -9.3503  -9.3503  -8.9171  -8.9171  -8.7041  -8.7041
    -8.4794  -8.4794  -8.4466  -8.4466  -8.1943  -8.1942  -8.1451  -8.1451
    -8.0931  -8.0931  -7.7740  -7.7740  -7.7136  -7.7136  -7.6639  -7.6639
     1.2988   1.2988   1.6918   1.6918   2.6860   2.6860   2.8684   2.8684
     2.8870   2.8870   2.9700   2.9700   3.0596   3.0596   3.1693   3.1693
     3.3207   3.3207   3.4207   3.4207   3.6878   3.6879   3.8604   3.8604
     4.0306   4.0306   4.1480   4.1480   4.4656   4.4656   4.6186   4.6186
     5.0123   5.0123   5.1071   5.1071   5.2204   5.2204   5.3279   5.3279
     5.4042   5.4042   5.6800   5.6800   5.8710   5.8710   6.0811   6.0811
     6.4629   6.4629   6.6598   6.6599   6.7182   6.7182   6.8314   6.8314
     7.1156   7.1156   7.1845   7.1845   7.2580   7.2580   7.3771   7.3771
     7.4421   7.4421   7.7929   7.7929   7.8237   7.8237   7.9226   7.9226
    10.6957  10.6957  11.3409  11.3409  11.5261  11.5261  11.7079  11.7079
    11.9830  11.9830  12.0364  12.0364  12.3916  12.3916  12.4990  12.4990
    12.7290  12.7290  12.8317  12.8317  13.3305  13.3305  13.4545  13.4546
    14.8191  14.8191  15.3032  15.3032  15.7852  15.7852  16.0300  16.0300
    16.5916  16.5916  17.1110  17.1111  17.2885

          k = 0.0000-0.4725 0.0000 ( 62212 PWs)   bands (ev):

   -66.1926 -66.1926 -66.1918 -66.1918 -66.1916 -66.1916 -66.1907 -66.1907
   -30.7460 -30.7460 -30.7420 -30.7420 -30.6536 -30.6536 -30.6500 -30.6500
   -30.4621 -30.4621 -30.4544 -30.4544 -30.3883 -30.3883 -30.3851 -30.3851
   -30.3827 -30.3827 -30.3792 -30.3792 -30.3698 -30.3698 -30.3646 -30.3646
   -20.3641 -20.3641 -20.3638 -20.3638 -20.3635 -20.3635 -20.3631 -20.3631
   -20.3540 -20.3540 -20.3537 -20.3537 -20.3523 -20.3523 -20.3518 -20.3518
   -20.3479 -20.3479 -20.3477 -20.3477 -20.3436 -20.3436 -20.3433 -20.3433
   -20.3290 -20.3290 -20.3290 -20.3290 -20.3273 -20.3273 -20.3272 -20.3272
   -20.3236 -20.3236 -20.3233 -20.3233 -20.3231 -20.3231 -20.3229 -20.3229
   -20.3184 -20.3184 -20.3177 -20.3177 -20.3148 -20.3148 -20.3143 -20.3143
   -20.3108 -20.3108 -20.3105 -20.3105 -20.3079 -20.3079 -20.3074 -20.3074
    -9.8621  -9.8621  -9.5463  -9.5463  -9.0272  -9.0272  -8.8995  -8.8995
    -8.2368  -8.2368  -8.0815  -8.0814  -8.0276  -8.0275  -8.0112  -8.0112
    -7.9680  -7.9680  -7.9472  -7.9472  -7.7364  -7.7364  -7.5998  -7.5998
     1.2624   1.2624   1.3272   1.3272   1.6609   1.6609   1.8406   1.8406
     2.2830   2.2830   3.0099   3.0099   3.0808   3.0808   3.6067   3.6067
     3.6635   3.6635   3.7048   3.7048   3.8163   3.8163   4.1002   4.1002
     4.1344   4.1344   4.4699   4.4699   4.6975   4.6975   5.0291   5.0291
     5.3684   5.3684   5.4156   5.4156   5.4288   5.4288   5.6986   5.6986
     5.7234   5.7234   5.8799   5.8799   6.0857   6.0857   6.1271   6.1271
     6.3669   6.3669   6.5302   6.5302   6.6342   6.6342   6.8247   6.8247
     6.9056   6.9056   7.0106   7.0107   7.3467   7.3467   7.3999   7.3999
     7.5437   7.5437   7.5700   7.5700   7.7446   7.7446   7.8070   7.8070
    10.1626  10.1626  11.0162  11.0162  11.0839  11.0839  11.5663  11.5663
    11.6962  11.6962  12.1629  12.1629  12.2827  12.2827  12.7113  12.7113
    13.0286  13.0286  13.1885  13.1885  13.1930  13.1931  13.6080  13.6080
    15.0241  15.0241  15.0755  15.0755  15.5602  15.5602  15.6499  15.6499
    16.1381  16.1381  17.1267  17.1267  17.3399

          k = 0.0000-0.4725 0.1667 ( 62246 PWs)   bands (ev):

   -66.1926 -66.1926 -66.1918 -66.1917 -66.1916 -66.1915 -66.1908 -66.1908
   -30.7457 -30.7423 -30.7398 -30.7359 -30.6598 -30.6562 -30.6533 -30.6502
   -30.4616 -30.4567 -30.4550 -30.4493 -30.3914 -30.3881 -30.3879 -30.3853
   -30.3824 -30.3823 -30.3794 -30.3788 -30.3723 -30.3694 -30.3675 -30.3649
   -20.3641 -20.3640 -20.3638 -20.3637 -20.3635 -20.3635 -20.3632 -20.3632
   -20.3540 -20.3539 -20.3537 -20.3535 -20.3524 -20.3522 -20.3519 -20.3519
   -20.3479 -20.3477 -20.3477 -20.3475 -20.3439 -20.3436 -20.3435 -20.3433
   -20.3290 -20.3290 -20.3289 -20.3289 -20.3275 -20.3273 -20.3273 -20.3272
   -20.3236 -20.3236 -20.3233 -20.3233 -20.3232 -20.3231 -20.3230 -20.3229
   -20.3184 -20.3182 -20.3178 -20.3175 -20.3150 -20.3148 -20.3145 -20.3143
   -20.3108 -20.3107 -20.3105 -20.3103 -20.3081 -20.3078 -20.3077 -20.3074
    -9.8322  -9.7914  -9.5614  -9.4655  -9.0560  -8.9533  -8.8823  -8.8475
    -8.3283  -8.2324  -8.1895  -8.0912  -8.0388  -8.0347  -8.0225  -8.0081
    -7.9938  -7.9761  -7.9445  -7.9257  -7.8203  -7.7265  -7.6907  -7.6083
     1.2781   1.3193   1.4658   1.5382   1.6658   1.8775   1.8938   2.0469
     2.3663   2.3749   3.0072   3.0085   3.1186   3.1427   3.5702   3.6060
     3.6068   3.6652   3.7132   3.7282   3.8419   3.9049   4.0640   4.1199
     4.1366   4.1464   4.2530   4.2601   4.4906   4.6533   5.0605   5.1190
     5.1209   5.2256   5.3167   5.3722   5.3985   5.4400   5.4635   5.6010
     5.6280   5.6485   5.7340   5.7349   5.8356   5.9447   6.0933   6.1374
     6.4063   6.5353   6.5420   6.6128   6.6177   6.6697   6.8225   6.8868
     6.8874   7.0684   7.1117   7.1411   7.1955   7.2652   7.4091   7.4208
     7.5386   7.5491   7.5709   7.6159   7.7603   7.7644   7.7994   7.8262
    10.3443  10.3975  11.0183  11.0874  11.1123  11.2157  11.5623  11.6519
    11.6981  11.7849  12.1280  12.2198  12.3544  12.3816  12.6005  12.7209
    12.8893  13.0152  13.0835  13.0979  13.1998  13.2049  13.5501  13.6292
    14.9853  15.0514  15.1473  15.2422  15.6175  15.6234  15.6837  15.7975
    16.1986  16.2221  17.0576  17.0882  17.2155

          k = 0.0000-0.4725 0.3333 ( 62268 PWs)   bands (ev):

   -66.1924 -66.1924 -66.1920 -66.1918 -66.1915 -66.1914 -66.1910 -66.1909
   -30.7450 -30.7431 -30.7230 -30.7192 -30.6768 -30.6732 -30.6526 -30.6508
   -30.4603 -30.4565 -30.4420 -30.4352 -30.4031 -30.3985 -30.3875 -30.3859
   -30.3817 -30.3812 -30.3800 -30.3777 -30.3765 -30.3726 -30.3685 -30.3659
   -20.3640 -20.3639 -20.3639 -20.3636 -20.3636 -20.3634 -20.3633 -20.3633
   -20.3539 -20.3538 -20.3535 -20.3531 -20.3526 -20.3522 -20.3522 -20.3520
   -20.3479 -20.3478 -20.3470 -20.3467 -20.3448 -20.3445 -20.3435 -20.3434
   -20.3291 -20.3290 -20.3287 -20.3286 -20.3278 -20.3277 -20.3273 -20.3273
   -20.3235 -20.3235 -20.3234 -20.3233 -20.3232 -20.3231 -20.3230 -20.3229
   -20.3183 -20.3179 -20.3174 -20.3167 -20.3156 -20.3150 -20.3147 -20.3144
   -20.3107 -20.3105 -20.3102 -20.3099 -20.3087 -20.3083 -20.3077 -20.3075
    -9.7587  -9.6112  -9.5932  -9.2373  -9.1554  -8.8250  -8.7492  -8.6904
    -8.5669  -8.4617  -8.2468  -8.1655  -8.1100  -8.0733  -8.0361  -8.0180
    -7.9972  -7.9948  -7.9486  -7.9396  -7.9172  -7.8541  -7.7000  -7.6320
     1.2927   1.3062   1.6772   1.6787   2.1261   2.3568   2.4425   2.6062
     2.6164   2.6237   3.0039   3.0120   3.2304   3.2861   3.4063   3.5448
     3.5616   3.5964   3.6734   3.6781   3.7763   3.7859   3.9496   4.0015
     4.0636   4.0712   4.1703   4.2043   4.3565   4.5222   4.5914   4.7392
     4.8396   4.8810   4.9268   5.0613   5.2203   5.3363   5.3604   5.3891
     5.3942   5.4420   5.5795   5.7047   5.7794   5.8930   6.1033   6.1376
     6.3974   6.4963   6.6254   6.6291   6.7217   6.7891   6.8462   6.9727
     7.0225   7.0474   7.1199   7.1950   7.2583   7.3345   7.4268   7.4349
     7.5140   7.5655   7.6675   7.7165   7.7769   7.7811   7.8200   7.8550
    10.7659  10.8852  11.0433  11.1265  11.4141  11.5473  11.5637  11.7236
    11.8950  11.9200  12.0065  12.2104  12.3612  12.3850  12.4527  12.5422
    12.7519  12.7851  12.8624  12.9117  13.2347  13.2634  13.4709  13.5423
    14.9160  14.9976  15.3893  15.5867  15.7751  15.9880  15.9963  16.2085
    16.3864  16.5301  16.7909  16.9404  17.0286

          k = 0.0000-0.4725-0.5000 ( 62284 PWs)   bands (ev):

   -66.1922 -66.1922 -66.1921 -66.1921 -66.1912 -66.1912 -66.1911 -66.1911
   -30.7441 -30.7441 -30.7000 -30.7000 -30.6963 -30.6963 -30.6517 -30.6517
   -30.4585 -30.4585 -30.4221 -30.4221 -30.4162 -30.4162 -30.3867 -30.3867
   -30.3808 -30.3808 -30.3794 -30.3794 -30.3758 -30.3758 -30.3672 -30.3672
   -20.3640 -20.3640 -20.3637 -20.3637 -20.3634 -20.3634 -20.3634 -20.3633
   -20.3539 -20.3539 -20.3530 -20.3530 -20.3526 -20.3526 -20.3521 -20.3521
   -20.3478 -20.3478 -20.3460 -20.3460 -20.3457 -20.3457 -20.3434 -20.3434
   -20.3291 -20.3291 -20.3283 -20.3282 -20.3282 -20.3282 -20.3273 -20.3273
   -20.3234 -20.3234 -20.3234 -20.3234 -20.3232 -20.3232 -20.3230 -20.3230
   -20.3181 -20.3181 -20.3164 -20.3164 -20.3158 -20.3158 -20.3146 -20.3146
   -20.3106 -20.3106 -20.3095 -20.3095 -20.3091 -20.3091 -20.3076 -20.3076
    -9.6752  -9.6752  -9.3510  -9.3510  -8.9080  -8.9080  -8.7030  -8.7030
    -8.4581  -8.4580  -8.4309  -8.4309  -8.1262  -8.1262  -8.0303  -8.0303
    -7.9946  -7.9946  -7.9554  -7.9554  -7.9067  -7.9067  -7.6653  -7.6653
     1.2982   1.2982   1.6916   1.6916   2.8254   2.8254   2.8992   2.8992
     2.9602   2.9602   3.1220   3.1220   3.2210   3.2210   3.2812   3.2813
     3.4370   3.4370   3.5764   3.5765   3.6357   3.6357   3.7222   3.7222
     3.9251   3.9251   4.1457   4.1457   4.4393   4.4393   4.5216   4.5216
     4.6936   4.6936   4.7870   4.7870   5.1166   5.1166   5.2853   5.2853
     5.3855   5.3855   5.6659   5.6659   5.8642   5.8642   6.1183   6.1183
     6.4730   6.4730   6.6406   6.6406   6.7042   6.7042   6.8136   6.8136
     7.1981   7.1981   7.2614   7.2614   7.3621   7.3621   7.3961   7.3961
     7.4708   7.4708   7.7533   7.7533   7.8247   7.8247   7.8321   7.8321
    10.9830  10.9830  11.4070  11.4070  11.4552  11.4552  11.7816  11.7816
    11.8898  11.8898  12.0905  12.0905  12.2957  12.2957  12.3980  12.3980
    12.6112  12.6112  12.8035  12.8036  13.3479  13.3479  13.3705  13.3705
    14.9296  14.9297  15.5151  15.5151  16.3252  16.3252  16.4634  16.4634
    16.6503  16.6508  16.7414  16.7418  16.8667

          k = 0.1667 0.0000 0.1667 ( 62234 PWs)   bands (ev):

   -66.1927 -66.1923 -66.1919 -66.1919 -66.1915 -66.1914 -66.1910 -66.1906
   -30.7398 -30.7394 -30.7362 -30.7362 -30.6595 -30.6595 -30.6565 -30.6563
   -30.4565 -30.4564 -30.4501 -30.4500 -30.4069 -30.4068 -30.4067 -30.4066
   -30.3825 -30.3815 -30.3807 -30.3735 -30.3569 -30.3536 -30.3536 -30.3501
   -20.3641 -20.3639 -20.3638 -20.3638 -20.3635 -20.3635 -20.3633 -20.3631
   -20.3538 -20.3538 -20.3536 -20.3535 -20.3524 -20.3522 -20.3520 -20.3520
   -20.3477 -20.3476 -20.3475 -20.3475 -20.3439 -20.3439 -20.3437 -20.3436
   -20.3290 -20.3289 -20.3289 -20.3288 -20.3275 -20.3275 -20.3274 -20.3272
   -20.3256 -20.3253 -20.3253 -20.3251 -20.3216 -20.3212 -20.3211 -20.3208
   -20.3181 -20.3180 -20.3175 -20.3175 -20.3150 -20.3150 -20.3146 -20.3144
   -20.3107 -20.3106 -20.3103 -20.3103 -20.3081 -20.3081 -20.3078 -20.3076
    -9.8673  -9.6774  -9.5077  -9.5039  -9.0043  -8.9991  -8.8453  -8.8298
    -8.5323  -8.3998  -8.3961  -8.3903  -8.3135  -8.2580  -8.1724  -8.1495
    -7.8307  -7.8201  -7.7180  -7.7028  -7.5482  -7.4789  -7.4780  -7.4140
     1.4906   1.5114   1.5362   1.5435   1.8845   1.8889   1.9984   2.0647
     2.2202   2.2627   2.2769   2.3920   2.4070   2.5261   2.7674   3.0144
     3.0476   3.0721   4.0069   4.1082   4.2175   4.3020   4.3265   4.3881
     4.4696   4.5371   4.5622   4.8465   4.9694   4.9865   5.0726   5.1033
     5.2923   5.2952   5.3878   5.4137   5.4705   5.5120   5.5488   5.6233
     5.6376   5.7022   5.8227   5.8671   5.9237   5.9587   6.0756   6.2699
     6.3499   6.5581   6.5783   6.6436   6.7150   6.7324   6.8576   6.8643
     6.9512   6.9903   7.0175   7.1204   7.1436   7.1606   7.2324   7.2470
     7.3307   7.3514   7.5762   7.6082   7.9018   7.9978   8.0251   8.1643
    10.2144  10.2624  10.4484  10.4618  10.7126  10.7536  12.0234  12.0372
    12.1007  12.1644  12.2821  12.3283  12.4690  12.6994  12.7518  12.8006
    12.8060  12.9392  13.1182  13.1581  13.3180  13.3813  13.5899  13.6751
    14.1799  14.3802  14.4030  14.8769  14.9574  15.2601  15.7409  15.7773
    15.7992  16.5540  16.6505  16.6874  17.6670

          k = 0.1667 0.0000 0.3333 ( 62265 PWs)   bands (ev):

   -66.1925 -66.1921 -66.1921 -66.1917 -66.1916 -66.1913 -66.1912 -66.1908
   -30.7389 -30.7369 -30.7228 -30.7195 -30.6766 -30.6734 -30.6589 -30.6571
   -30.4552 -30.4515 -30.4420 -30.4363 -30.4102 -30.4093 -30.4055 -30.4053
   -30.3940 -30.3914 -30.3806 -30.3772 -30.3563 -30.3544 -30.3529 -30.3509
   -20.3640 -20.3638 -20.3638 -20.3636 -20.3636 -20.3634 -20.3634 -20.3632
   -20.3538 -20.3536 -20.3535 -20.3532 -20.3526 -20.3523 -20.3522 -20.3520
   -20.3476 -20.3475 -20.3470 -20.3467 -20.3448 -20.3445 -20.3438 -20.3437
   -20.3290 -20.3290 -20.3287 -20.3286 -20.3278 -20.3278 -20.3275 -20.3274
   -20.3255 -20.3254 -20.3253 -20.3251 -20.3215 -20.3212 -20.3211 -20.3208
   -20.3179 -20.3176 -20.3173 -20.3167 -20.3155 -20.3150 -20.3149 -20.3146
   -20.3106 -20.3104 -20.3102 -20.3099 -20.3087 -20.3084 -20.3080 -20.3077
    -9.7479  -9.5549  -9.5247  -9.2839  -9.1018  -8.8166  -8.7853  -8.6939
    -8.6637  -8.5053  -8.4029  -8.3877  -8.3749  -8.3493  -8.2560  -8.1786
    -8.0633  -7.9556  -7.7988  -7.7319  -7.5343  -7.4935  -7.4658  -7.4280
     1.5203   1.5364   1.8634   1.9031   2.0736   2.1450   2.2135   2.2532
     2.3181   2.4447   2.4910   2.6301   2.6889   2.7979   2.8606   3.0143
     3.2317   3.2637   3.5719   3.7957   3.8972   4.0499   4.1559   4.2286
     4.3597   4.4053   4.5347   4.5734   4.6467   4.7158   4.8008   4.8724
     4.9803   5.0928   5.1834   5.2284   5.2556   5.3827   5.4655   5.5214
     5.5910   5.6440   5.7761   5.8239   5.9899   6.0281   6.1658   6.2685
     6.4163   6.5155   6.5637   6.6985   6.7258   6.7595   6.8184   6.9132
     6.9863   7.0141   7.0918   7.1262   7.1366   7.1632   7.2130   7.2736
     7.4507   7.5203   7.5613   7.5953   7.8787   7.9564   8.0541   8.1412
    10.3387  10.3695  10.7707  10.8874  11.0962  11.3231  11.8111  11.8860
    12.0948  12.1574  12.2727  12.3800  12.5136  12.5417  12.6382  12.7692
    12.8816  12.9136  13.0431  13.1606  13.2514  13.3633  13.5196  13.5648
    14.2027  14.3537  14.4773  14.7919  15.1019  15.5493  15.6199  15.9988
    16.3632  16.4239  16.9570  17.1735  17.2937

          k = 0.1667 0.0000-0.5000 ( 62322 PWs)   bands (ev):

   -66.1923 -66.1923 -66.1919 -66.1919 -66.1915 -66.1915 -66.1910 -66.1910
   -30.7379 -30.7379 -30.6997 -30.6997 -30.6965 -30.6965 -30.6580 -30.6580
   -30.4534 -30.4534 -30.4232 -30.4232 -30.4190 -30.4190 -30.4025 -30.4025
   -30.4020 -30.4019 -30.3791 -30.3791 -30.3553 -30.3553 -30.3519 -30.3519
   -20.3639 -20.3639 -20.3637 -20.3637 -20.3635 -20.3635 -20.3633 -20.3633
   -20.3537 -20.3537 -20.3530 -20.3530 -20.3527 -20.3527 -20.3522 -20.3522
   -20.3476 -20.3476 -20.3459 -20.3459 -20.3457 -20.3457 -20.3438 -20.3438
   -20.3290 -20.3290 -20.3283 -20.3283 -20.3282 -20.3282 -20.3274 -20.3274
   -20.3254 -20.3254 -20.3252 -20.3252 -20.3213 -20.3213 -20.3209 -20.3209
   -20.3178 -20.3178 -20.3164 -20.3164 -20.3158 -20.3158 -20.3148 -20.3147
   -20.3105 -20.3105 -20.3095 -20.3095 -20.3092 -20.3092 -20.3079 -20.3079
    -9.6358  -9.6358  -9.2970  -9.2970  -8.9684  -8.9683  -8.6795  -8.6795
    -8.5824  -8.5824  -8.4958  -8.4958  -8.2993  -8.2993  -8.2642  -8.2642
    -8.1648  -8.1648  -7.7645  -7.7645  -7.5141  -7.5141  -7.4471  -7.4471
     1.5281   1.5281   1.9078   1.9078   2.2053   2.2053   2.2398   2.2398
     2.8585   2.8585   2.9266   2.9266   2.9818   2.9818   3.1448   3.1449
     3.3234   3.3234   3.3599   3.3599   3.6475   3.6475   3.8555   3.8555
     3.9148   3.9148   4.5027   4.5028   4.6626   4.6626   4.8420   4.8420
     4.8928   4.8928   5.1130   5.1131   5.2868   5.2868   5.4329   5.4329
     5.6208   5.6209   5.7888   5.7888   6.0251   6.0251   6.2544   6.2544
     6.4846   6.4846   6.6100   6.6100   6.7135   6.7135   6.8697   6.8697
     6.9355   6.9355   7.1220   7.1220   7.1789   7.1789   7.3941   7.3941
     7.4536   7.4536   7.7416   7.7416   7.8081   7.8082   8.0933   8.0933
    10.3743  10.3743  11.3094  11.3094  11.4522  11.4522  11.6238  11.6238
    11.9873  11.9873  12.2476  12.2476  12.4955  12.4956  12.7562  12.7562
    12.8758  12.8758  13.0562  13.0563  13.2774  13.2774  13.4813  13.4813
    14.2884  14.2884  14.6459  14.6459  15.3178  15.3178  16.0383  16.0383
    16.5521  16.5521  17.3228  17.3228  17.5886

          k = 0.1667 0.1575 0.1667 ( 62255 PWs)   bands (ev):

   -66.1927 -66.1923 -66.1919 -66.1919 -66.1915 -66.1915 -66.1910 -66.1907
   -30.7398 -30.7394 -30.7362 -30.7362 -30.6596 -30.6595 -30.6565 -30.6563
   -30.4564 -30.4563 -30.4500 -30.4499 -30.4040 -30.4038 -30.4037 -30.4033
   -30.3827 -30.3813 -30.3808 -30.3732 -30.3603 -30.3568 -30.3567 -30.3530
   -20.3641 -20.3640 -20.3638 -20.3637 -20.3635 -20.3635 -20.3633 -20.3632
   -20.3538 -20.3538 -20.3536 -20.3535 -20.3524 -20.3523 -20.3520 -20.3520
   -20.3477 -20.3476 -20.3475 -20.3475 -20.3439 -20.3439 -20.3437 -20.3436
   -20.3290 -20.3289 -20.3289 -20.3288 -20.3275 -20.3275 -20.3274 -20.3272
   -20.3253 -20.3251 -20.3250 -20.3248 -20.3218 -20.3214 -20.3214 -20.3211
   -20.3181 -20.3180 -20.3175 -20.3175 -20.3150 -20.3150 -20.3146 -20.3144
   -20.3107 -20.3106 -20.3103 -20.3103 -20.3081 -20.3081 -20.3078 -20.3076
    -9.8511  -9.6873  -9.5010  -9.4976  -8.9992  -8.9946  -8.8423  -8.8299
    -8.4810  -8.3591  -8.3584  -8.3493  -8.3064  -8.2511  -8.1728  -8.1447
    -7.8307  -7.8223  -7.7219  -7.7033  -7.6175  -7.5529  -7.5518  -7.4918
     1.4924   1.5098   1.5372   1.5429   1.8836   1.8874   2.0284   2.0650
     2.3661   2.4084   2.4377   2.4491   2.5043   2.5755   2.8355   3.0931
     3.1158   3.1612   3.9815   4.0600   4.1919   4.1986   4.2973   4.3268
     4.3601   4.3833   4.5487   4.8506   4.9248   5.0082   5.0589   5.0955
     5.2181   5.2762   5.3376   5.4225   5.4379   5.4989   5.5149   5.5521
     5.5820   5.6326   5.6808   5.7930   5.8688   5.9460   6.0162   6.1722
     6.4127   6.5295   6.6003   6.6407   6.7749   6.8020   6.8336   6.8830
     6.9712   6.9717   6.9982   7.1229   7.1337   7.1395   7.2327   7.2895
     7.3511   7.3578   7.5759   7.6031   7.9066   7.9881   8.0111   8.1072
    10.3046  10.3533  10.5494  10.5859  10.7369  10.8132  12.0051  12.0143
    12.1100  12.1463  12.2264  12.2723  12.4809  12.6321  12.7143  12.7181
    12.7740  12.9137  13.1025  13.1885  13.3261  13.3575  13.6322  13.6432
    14.3204  14.5609  14.5724  14.9514  15.2468  15.2719  15.7563  15.7893
    15.7996  16.4396  16.6958  16.7092  17.5203

          k = 0.1667 0.1575 0.3333 ( 62260 PWs)   bands (ev):

   -66.1925 -66.1922 -66.1920 -66.1917 -66.1917 -66.1913 -66.1912 -66.1908
   -30.7389 -30.7370 -30.7228 -30.7195 -30.6766 -30.6734 -30.6589 -30.6571
   -30.4551 -30.4515 -30.4418 -30.4361 -30.4081 -30.4068 -30.4026 -30.4021
   -30.3931 -30.3910 -30.3805 -30.3770 -30.3596 -30.3576 -30.3560 -30.3539
   -20.3640 -20.3639 -20.3638 -20.3636 -20.3636 -20.3634 -20.3634 -20.3632
   -20.3538 -20.3536 -20.3535 -20.3532 -20.3526 -20.3523 -20.3522 -20.3520
   -20.3476 -20.3475 -20.3470 -20.3467 -20.3448 -20.3445 -20.3438 -20.3437
   -20.3290 -20.3290 -20.3287 -20.3286 -20.3278 -20.3278 -20.3275 -20.3274
   -20.3252 -20.3251 -20.3250 -20.3249 -20.3217 -20.3215 -20.3213 -20.3211
   -20.3180 -20.3176 -20.3173 -20.3168 -20.3155 -20.3150 -20.3149 -20.3146
   -20.3106 -20.3104 -20.3102 -20.3099 -20.3087 -20.3084 -20.3080 -20.3077
    -9.7337  -9.5484  -9.5306  -9.2758  -9.0985  -8.8086  -8.7836  -8.6896
    -8.6333  -8.4955  -8.3807  -8.3636  -8.3348  -8.3134  -8.2474  -8.1750
    -8.0618  -7.9562  -7.8000  -7.7336  -7.6047  -7.5659  -7.5403  -7.5041
     1.5208   1.5372   1.8626   1.9025   2.1050   2.2402   2.3758   2.3909
     2.4548   2.4919   2.5214   2.6558   2.6970   2.8020   2.9305   3.0858
     3.3067   3.3281   3.5745   3.7883   3.8874   4.0145   4.1829   4.2175
     4.2908   4.3616   4.4264   4.5000   4.6280   4.6744   4.7831   4.8490
     4.9443   5.0226   5.1197   5.1567   5.2376   5.3382   5.3737   5.5161
     5.5674   5.5899   5.6245   5.7297   5.8643   5.9167   6.0384   6.1402
     6.4717   6.5559   6.6094   6.7246   6.7529   6.8182   6.8773   6.9456
     6.9784   7.0319   7.0688   7.1126   7.1426   7.1712   7.2703   7.3002
     7.4638   7.5412   7.5694   7.6025   7.8952   7.9485   8.0273   8.0916
    10.4553  10.4806  10.8239  10.9820  11.1062  11.3483  11.8209  11.9048
    12.1044  12.1580  12.2618  12.3111  12.4769  12.5140  12.5840  12.7077
    12.7947  12.8654  12.9979  13.1387  13.2370  13.3344  13.5086  13.5705
    14.3961  14.5404  14.7195  15.0129  15.2308  15.5656  15.6522  16.0205
    16.3532  16.4425  16.8264  17.1816  17.3399

          k = 0.1667 0.1575-0.5000 ( 62292 PWs)   bands (ev):

   -66.1923 -66.1923 -66.1919 -66.1919 -66.1914 -66.1914 -66.1911 -66.1911
   -30.7379 -30.7379 -30.6997 -30.6997 -30.6965 -30.6965 -30.6580 -30.6580
   -30.4533 -30.4533 -30.4228 -30.4228 -30.4183 -30.4183 -30.4001 -30.4001
   -30.3995 -30.3995 -30.3790 -30.3790 -30.3586 -30.3586 -30.3550 -30.3550
   -20.3639 -20.3639 -20.3637 -20.3637 -20.3635 -20.3635 -20.3634 -20.3633
   -20.3537 -20.3537 -20.3530 -20.3530 -20.3527 -20.3527 -20.3522 -20.3522
   -20.3476 -20.3476 -20.3459 -20.3459 -20.3457 -20.3457 -20.3438 -20.3438
   -20.3290 -20.3290 -20.3283 -20.3283 -20.3282 -20.3282 -20.3274 -20.3274
   -20.3252 -20.3252 -20.3249 -20.3249 -20.3216 -20.3216 -20.3212 -20.3212
   -20.3178 -20.3178 -20.3164 -20.3164 -20.3158 -20.3158 -20.3148 -20.3147
   -20.3105 -20.3105 -20.3095 -20.3095 -20.3092 -20.3092 -20.3079 -20.3079
    -9.6260  -9.6260  -9.2979  -9.2979  -8.9554  -8.9553  -8.6771  -8.6770
    -8.5659  -8.5659  -8.4738  -8.4738  -8.2776  -8.2776  -8.2443  -8.2443
    -8.1618  -8.1618  -7.7660  -7.7660  -7.5853  -7.5853  -7.5222  -7.5222
     1.5288   1.5288   1.9077   1.9077   2.3511   2.3511   2.4245   2.4245
     2.8875   2.8875   2.9498   2.9498   2.9866   2.9866   3.1564   3.1564
     3.3300   3.3300   3.3770   3.3770   3.6772   3.6773   3.8769   3.8769
     3.9551   3.9551   4.3662   4.3662   4.6370   4.6370   4.7736   4.7736
     4.8616   4.8616   5.0363   5.0363   5.1888   5.1888   5.4301   5.4301
     5.5974   5.5974   5.6345   5.6345   5.8832   5.8832   6.0871   6.0871
     6.5604   6.5604   6.6699   6.6699   6.7607   6.7607   6.9039   6.9039
     6.9896   6.9897   7.0718   7.0719   7.2410   7.2410   7.3972   7.3972
     7.4536   7.4536   7.7639   7.7640   7.8181   7.8181   8.0540   8.0540
    10.4935  10.4935  11.3375  11.3375  11.5066  11.5066  11.6364  11.6364
    11.9977  11.9977  12.2551  12.2551  12.4037  12.4037  12.7116  12.7117
    12.8318  12.8318  12.9668  12.9668  13.2591  13.2591  13.4733  13.4733
    14.4876  14.4876  14.9210  14.9210  15.3783  15.3783  16.0470  16.0470
    16.5752  16.5752  17.2823  17.2823  17.5162

          k = 0.1667 0.3150 0.1667 ( 62249 PWs)   bands (ev):

   -66.1926 -66.1924 -66.1918 -66.1918 -66.1915 -66.1915 -66.1909 -66.1907
   -30.7397 -30.7395 -30.7362 -30.7362 -30.6596 -30.6596 -30.6565 -30.6564
   -30.4563 -30.4562 -30.4499 -30.4498 -30.3965 -30.3963 -30.3963 -30.3944
   -30.3839 -30.3807 -30.3807 -30.3719 -30.3695 -30.3649 -30.3649 -30.3603
   -20.3641 -20.3640 -20.3638 -20.3637 -20.3635 -20.3635 -20.3632 -20.3632
   -20.3538 -20.3538 -20.3536 -20.3535 -20.3524 -20.3523 -20.3520 -20.3520
   -20.3477 -20.3476 -20.3475 -20.3475 -20.3439 -20.3439 -20.3437 -20.3437
   -20.3290 -20.3289 -20.3289 -20.3289 -20.3275 -20.3275 -20.3274 -20.3273
   -20.3246 -20.3243 -20.3243 -20.3241 -20.3226 -20.3222 -20.3222 -20.3219
   -20.3181 -20.3181 -20.3175 -20.3175 -20.3150 -20.3150 -20.3145 -20.3145
   -20.3107 -20.3106 -20.3103 -20.3103 -20.3081 -20.3081 -20.3077 -20.3076
    -9.8098  -9.7160  -9.4878  -9.4858  -8.9890  -8.9864  -8.8364  -8.8304
    -8.3697  -8.3219  -8.2610  -8.2240  -8.2199  -8.1903  -8.1695  -8.1163
    -7.8433  -7.8362  -7.7956  -7.7587  -7.7391  -7.7290  -7.6984  -7.6621
     1.4958   1.5051   1.5387   1.5415   1.8831   1.8852   2.0562   2.0657
     2.4351   2.4883   2.7451   2.8158   2.8714   3.0256   3.0313   3.3455
     3.3508   3.4752   3.8290   3.8851   3.9334   3.9581   4.1302   4.2116
     4.3003   4.3198   4.3296   4.6849   4.7310   4.9203   4.9903   5.0565
     5.0966   5.1814   5.1840   5.2108   5.3184   5.3490   5.4580   5.4785
     5.5297   5.5441   5.6381   5.6387   5.7998   5.8572   5.8891   6.0495
     6.4906   6.5263   6.6015   6.6802   6.7734   6.7929   6.8694   6.8850
     7.0472   7.0641   7.1011   7.1436   7.1705   7.1815   7.2973   7.3352
     7.4269   7.4384   7.5726   7.5945   7.8500   7.9114   7.9347   7.9489
    10.4853  10.4995  10.8328  10.8723  10.8967  11.0868  11.8355  11.8758
    11.9031  12.0820  12.1778  12.2296  12.3991  12.4960  12.6472  12.6544
    12.7722  12.8949  13.0791  13.1557  13.2248  13.2279  13.5859  13.6006
    14.8372  14.9730  14.9958  15.2090  15.2096  15.7713  15.7923  15.8686
    16.1041  16.1282  16.8596  16.8894  17.0164

          k = 0.1667 0.3150 0.3333 ( 62265 PWs)   bands (ev):

   -66.1924 -66.1922 -66.1920 -66.1917 -66.1916 -66.1914 -66.1911 -66.1909
   -30.7389 -30.7370 -30.7228 -30.7195 -30.6766 -30.6734 -30.6589 -30.6571
   -30.4550 -30.4513 -30.4416 -30.4358 -30.4043 -30.4015 -30.3955 -30.3934
   -30.3905 -30.3877 -30.3798 -30.3759 -30.3688 -30.3663 -30.3641 -30.3617
   -20.3640 -20.3639 -20.3638 -20.3636 -20.3636 -20.3634 -20.3633 -20.3633
   -20.3538 -20.3536 -20.3535 -20.3532 -20.3526 -20.3523 -20.3522 -20.3521
   -20.3476 -20.3475 -20.3470 -20.3468 -20.3448 -20.3446 -20.3438 -20.3437
   -20.3290 -20.3289 -20.3287 -20.3286 -20.3278 -20.3277 -20.3275 -20.3274
   -20.3245 -20.3243 -20.3242 -20.3241 -20.3225 -20.3222 -20.3221 -20.3219
   -20.3180 -20.3176 -20.3173 -20.3168 -20.3156 -20.3150 -20.3149 -20.3146
   -20.3106 -20.3104 -20.3102 -20.3099 -20.3087 -20.3083 -20.3080 -20.3077
    -9.7019  -9.5522  -9.5298  -9.2606  -9.0919  -8.7931  -8.7812  -8.6831
    -8.5836  -8.4706  -8.3528  -8.2545  -8.2351  -8.2104  -8.1829  -8.1483
    -8.0512  -7.9599  -7.8157  -7.7833  -7.7575  -7.7348  -7.7212  -7.6824
     1.5208   1.5379   1.8616   1.9017   2.1254   2.3312   2.4478   2.5741
     2.7017   2.7271   2.7859   2.8110   2.9128   2.9937   3.1395   3.3084
     3.4678   3.5531   3.6142   3.7631   3.8401   3.9038   3.9986   4.0725
     4.1336   4.2348   4.3231   4.4009   4.5584   4.6038   4.6866   4.7621
     4.8426   4.9341   4.9649   5.0378   5.1276   5.1606   5.2311   5.2870
     5.3610   5.4511   5.4958   5.5477   5.6065   5.6611   5.8848   5.9504
     6.5315   6.6117   6.6921   6.7420   6.8621   6.9181   6.9684   6.9943
     7.0333   7.0743   7.1335   7.1686   7.1977   7.2464   7.3409   7.3723
     7.5105   7.5609   7.6092   7.6447   7.8645   7.8926   7.9323   7.9523
    10.7384  10.7803  10.9646  11.1492  11.2316  11.4714  11.7889  11.9075
    11.9858  12.0760  12.1665  12.2775  12.3719  12.4082  12.5052  12.6054
    12.7080  12.7559  12.8866  13.0086  13.1814  13.2291  13.4647  13.5021
    14.9273  14.9788  15.2028  15.3798  15.5421  15.7364  16.0053  16.1280
    16.3107  16.4767  16.6123  17.1294  17.2425

          k = 0.1667 0.3150-0.5000 ( 62264 PWs)   bands (ev):

   -66.1922 -66.1922 -66.1920 -66.1920 -66.1914 -66.1914 -66.1911 -66.1911
   -30.7380 -30.7380 -30.6998 -30.6997 -30.6965 -30.6965 -30.6580 -30.6580
   -30.4532 -30.4532 -30.4220 -30.4220 -30.4171 -30.4171 -30.3940 -30.3940
   -30.3915 -30.3915 -30.3782 -30.3782 -30.3677 -30.3676 -30.3630 -30.3630
   -20.3639 -20.3639 -20.3637 -20.3637 -20.3635 -20.3635 -20.3634 -20.3634
   -20.3537 -20.3537 -20.3530 -20.3530 -20.3527 -20.3527 -20.3522 -20.3522
   -20.3476 -20.3476 -20.3460 -20.3459 -20.3457 -20.3457 -20.3438 -20.3438
   -20.3290 -20.3290 -20.3283 -20.3282 -20.3282 -20.3282 -20.3274 -20.3274
   -20.3244 -20.3244 -20.3242 -20.3242 -20.3223 -20.3223 -20.3220 -20.3220
   -20.3178 -20.3178 -20.3164 -20.3164 -20.3159 -20.3159 -20.3148 -20.3148
   -20.3105 -20.3105 -20.3095 -20.3095 -20.3092 -20.3092 -20.3079 -20.3079
    -9.6064  -9.6064  -9.2999  -9.2999  -8.9323  -8.9323  -8.6735  -8.6734
    -8.5304  -8.5303  -8.4345  -8.4345  -8.2096  -8.2096  -8.1690  -8.1690
    -8.1296  -8.1296  -7.7901  -7.7901  -7.7543  -7.7543  -7.7031  -7.7031
     1.5293   1.5293   1.9073   1.9073   2.6982   2.6983   2.8453   2.8453
     2.9311   2.9311   2.9829   2.9829   3.0789   3.0789   3.2166   3.2166
     3.3433   3.3433   3.4634   3.4634   3.7130   3.7131   3.8855   3.8855
     4.0279   4.0279   4.1695   4.1696   4.4533   4.4533   4.5755   4.5755
     4.8265   4.8265   4.8891   4.8891   5.1157   5.1157   5.2214   5.2214
     5.2855   5.2855   5.4358   5.4358   5.6263   5.6263   5.9109   5.9109
     6.6257   6.6258   6.7597   6.7597   6.8145   6.8146   6.9762   6.9762
     7.1259   7.1260   7.2016   7.2017   7.3012   7.3012   7.4017   7.4017
     7.4597   7.4597   7.7924   7.7924   7.8223   7.8223   7.9318   7.9318
    10.8140  10.8140  11.4088  11.4088  11.5987  11.5987  11.7282  11.7282
    12.0129  12.0129  12.0911  12.0911  12.3802  12.3802  12.5132  12.5132
    12.7128  12.7128  12.7921  12.7921  13.2390  13.2390  13.3748  13.3748
    14.9572  14.9572  15.4009  15.4009  15.7948  15.7948  16.1199  16.1199
    16.6428  16.6429  17.1008  17.1009  17.2875

          k = 0.1667-0.4725 0.1667 ( 62220 PWs)   bands (ev):

   -66.1925 -66.1925 -66.1918 -66.1917 -66.1916 -66.1916 -66.1908 -66.1908
   -30.7396 -30.7396 -30.7362 -30.7362 -30.6596 -30.6596 -30.6564 -30.6564
   -30.4562 -30.4562 -30.4498 -30.4498 -30.3912 -30.3912 -30.3882 -30.3882
   -30.3821 -30.3821 -30.3790 -30.3790 -30.3720 -30.3720 -30.3679 -30.3678
   -20.3640 -20.3640 -20.3637 -20.3637 -20.3635 -20.3635 -20.3632 -20.3632
   -20.3538 -20.3538 -20.3536 -20.3536 -20.3523 -20.3523 -20.3520 -20.3520
   -20.3477 -20.3477 -20.3475 -20.3475 -20.3439 -20.3439 -20.3437 -20.3437
   -20.3290 -20.3289 -20.3289 -20.3289 -20.3275 -20.3275 -20.3274 -20.3274
   -20.3236 -20.3236 -20.3233 -20.3233 -20.3231 -20.3231 -20.3230 -20.3230
   -20.3181 -20.3181 -20.3175 -20.3175 -20.3150 -20.3150 -20.3145 -20.3145
   -20.3106 -20.3106 -20.3103 -20.3103 -20.3081 -20.3081 -20.3077 -20.3077
    -9.7598  -9.7598  -9.4808  -9.4808  -8.9833  -8.9833  -8.8323  -8.8323
    -8.3233  -8.3233  -8.1982  -8.1981  -8.0530  -8.0529  -8.0181  -8.0181
    -7.9896  -7.9896  -7.9299  -7.9299  -7.8107  -7.8107  -7.6985  -7.6985
     1.4999   1.4999   1.5399   1.5399   1.8837   1.8837   2.0645   2.0645
     2.4625   2.4625   3.0211   3.0211   3.1629   3.1629   3.5678   3.5678
     3.5994   3.5994   3.7791   3.7791   3.9000   3.9000   4.0945   4.0945
     4.1407   4.1407   4.2432   4.2432   4.3574   4.3574   5.0196   5.0196
     5.1106   5.1106   5.2183   5.2183   5.2985   5.2985   5.4834   5.4834
     5.5264   5.5265   5.6224   5.6224   5.7561   5.7561   5.9059   5.9059
     6.5110   6.5110   6.6578   6.6578   6.7738   6.7738   6.8451   6.8451
     7.1193   7.1193   7.1430   7.1430   7.1982   7.1982   7.4309   7.4309
     7.5600   7.5600   7.5992   7.5992   7.7731   7.7731   7.8206   7.8206
    10.5413  10.5413  11.1147  11.1147  11.2206  11.2206  11.6489  11.6489
    11.7860  11.7860  12.1916  12.1916  12.4316  12.4316  12.6244  12.6244
    12.8774  12.8774  13.0783  13.0783  13.1262  13.1262  13.5644  13.5644
    15.1031  15.1031  15.2408  15.2409  15.7168  15.7168  15.7870  15.7870
    16.2831  16.2832  17.0386  17.0386  17.2403

          k = 0.1667-0.4725 0.3333 ( 62252 PWs)   bands (ev):

   -66.1924 -66.1923 -66.1919 -66.1918 -66.1916 -66.1914 -66.1910 -66.1910
   -30.7389 -30.7370 -30.7228 -30.7195 -30.6766 -30.6734 -30.6589 -30.6571
   -30.4550 -30.4513 -30.4415 -30.4357 -30.4028 -30.3988 -30.3905 -30.3888
   -30.3814 -30.3810 -30.3796 -30.3779 -30.3763 -30.3729 -30.3711 -30.3687
   -20.3640 -20.3639 -20.3638 -20.3636 -20.3636 -20.3635 -20.3633 -20.3633
   -20.3538 -20.3536 -20.3535 -20.3532 -20.3526 -20.3523 -20.3522 -20.3521
   -20.3476 -20.3475 -20.3470 -20.3468 -20.3448 -20.3446 -20.3438 -20.3437
   -20.3290 -20.3289 -20.3287 -20.3286 -20.3278 -20.3277 -20.3275 -20.3274
   -20.3235 -20.3235 -20.3234 -20.3233 -20.3232 -20.3231 -20.3231 -20.3230
   -20.3180 -20.3177 -20.3174 -20.3168 -20.3156 -20.3150 -20.3149 -20.3146
   -20.3105 -20.3104 -20.3102 -20.3099 -20.3087 -20.3083 -20.3080 -20.3078
    -9.6828  -9.5633  -9.5236  -9.2534  -9.0886  -8.7854  -8.7806  -8.6804
    -8.5673  -8.4580  -8.3354  -8.2148  -8.1582  -8.0856  -8.0438  -8.0207
    -8.0085  -7.9921  -7.9514  -7.9430  -7.9140  -7.8595  -7.7848  -7.7208
     1.5205   1.5379   1.8611   1.9015   2.1286   2.3468   2.4512   2.5848
     2.7205   2.7335   3.0321   3.0409   3.2515   3.2832   3.4161   3.5008
     3.5572   3.6000   3.6372   3.7546   3.8457   3.9004   3.9473   4.0306
     4.0536   4.0783   4.1580   4.2037   4.3247   4.4079   4.5821   4.6602
     4.7420   4.8213   4.9154   4.9397   5.0243   5.1403   5.1985   5.2571
     5.2677   5.3233   5.3828   5.5206   5.5794   5.6474   5.7959   5.8627
     6.5363   6.6202   6.7078   6.7584   6.8883   6.9183   7.0132   7.0240
     7.0654   7.0828   7.1454   7.2466   7.2675   7.3193   7.4568   7.4675
     7.5349   7.5725   7.6774   7.7077   7.7862   7.7962   7.8269   7.8509
    10.8810  10.9740  11.1276  11.2740  11.4162  11.5494  11.6717  11.7865
    11.9098  11.9766  12.0245  12.2313  12.3654  12.3875  12.4773  12.5964
    12.6662  12.7668  12.8121  12.8676  13.1217  13.1798  13.4470  13.4575
    15.0733  15.1975  15.4517  15.6986  15.8239  15.9969  16.0331  16.1906
    16.4717  16.5767  16.8344  16.9190  17.0119

          k = 0.1667-0.4725-0.5000 ( 62232 PWs)   bands (ev):

   -66.1921 -66.1921 -66.1920 -66.1920 -66.1913 -66.1913 -66.1912 -66.1912
   -30.7380 -30.7380 -30.6998 -30.6997 -30.6965 -30.6965 -30.6580 -30.6580
   -30.4532 -30.4532 -30.4217 -30.4217 -30.4166 -30.4166 -30.3897 -30.3897
   -30.3805 -30.3805 -30.3791 -30.3791 -30.3760 -30.3760 -30.3700 -30.3699
   -20.3639 -20.3639 -20.3637 -20.3637 -20.3635 -20.3634 -20.3634 -20.3634
   -20.3537 -20.3537 -20.3530 -20.3530 -20.3527 -20.3527 -20.3522 -20.3522
   -20.3476 -20.3476 -20.3460 -20.3459 -20.3457 -20.3457 -20.3438 -20.3438
   -20.3290 -20.3290 -20.3283 -20.3282 -20.3282 -20.3282 -20.3274 -20.3274
   -20.3234 -20.3234 -20.3233 -20.3233 -20.3232 -20.3232 -20.3230 -20.3230
   -20.3178 -20.3178 -20.3164 -20.3164 -20.3159 -20.3159 -20.3148 -20.3148
   -20.3105 -20.3104 -20.3095 -20.3095 -20.3092 -20.3092 -20.3079 -20.3079
    -9.5966  -9.5965  -9.3010  -9.3009  -8.9223  -8.9222  -8.6722  -8.6721
    -8.5130  -8.5129  -8.4189  -8.4189  -8.1871  -8.1871  -8.0434  -8.0434
    -7.9979  -7.9979  -7.9620  -7.9619  -7.9051  -7.9050  -7.7522  -7.7522
     1.5292   1.5292   1.9071   1.9071   2.8388   2.8388   2.9416   2.9416
     2.9721   2.9721   3.1394   3.1394   3.2371   3.2371   3.2977   3.2977
     3.4519   3.4520   3.5786   3.5786   3.6231   3.6232   3.8227   3.8227
     3.9503   3.9503   4.1587   4.1587   4.4107   4.4107   4.5040   4.5040
     4.6727   4.6727   4.7439   4.7439   4.9155   4.9155   5.0032   5.0033
     5.2205   5.2205   5.4170   5.4170   5.6180   5.6180   5.8268   5.8268
     6.6312   6.6312   6.7741   6.7741   6.8289   6.8289   7.0119   7.0119
     7.2129   7.2129   7.2849   7.2849   7.3765   7.3765   7.4012   7.4012
     7.5056   7.5056   7.7720   7.7720   7.8202   7.8202   7.8332   7.8332
    11.0744  11.0744  11.4567  11.4567  11.5674  11.5674  11.8381  11.8381
    11.8897  11.8897  12.1331  12.1331  12.3129  12.3129  12.3967  12.3967
    12.6233  12.6233  12.7120  12.7120  13.2368  13.2368  13.3061  13.3062
    15.1248  15.1248  15.6410  15.6410  16.3424  16.3424  16.4689  16.4689
    16.6654  16.6657  16.7480  16.7482  16.9057

          k = 0.3333 0.0000 0.3333 ( 62316 PWs)   bands (ev):

   -66.1924 -66.1920 -66.1919 -66.1919 -66.1915 -66.1915 -66.1914 -66.1910
   -30.7223 -30.7219 -30.7202 -30.7202 -30.6759 -30.6759 -30.6742 -30.6740
   -30.4412 -30.4405 -30.4378 -30.4372 -30.4114 -30.4090 -30.4089 -30.4039
   -30.3973 -30.3925 -30.3921 -30.3865 -30.3556 -30.3537 -30.3536 -30.3518
   -20.3639 -20.3638 -20.3637 -20.3637 -20.3635 -20.3635 -20.3635 -20.3633
   -20.3534 -20.3534 -20.3533 -20.3532 -20.3526 -20.3525 -20.3523 -20.3523
   -20.3470 -20.3469 -20.3468 -20.3468 -20.3447 -20.3447 -20.3446 -20.3446
   -20.3288 -20.3287 -20.3287 -20.3286 -20.3279 -20.3278 -20.3278 -20.3276
   -20.3255 -20.3254 -20.3252 -20.3252 -20.3214 -20.3212 -20.3211 -20.3209
   -20.3172 -20.3172 -20.3169 -20.3169 -20.3154 -20.3154 -20.3152 -20.3151
   -20.3102 -20.3100 -20.3099 -20.3099 -20.3086 -20.3086 -20.3085 -20.3083
    -9.5834  -9.3921  -9.3462  -9.3266  -8.9483  -8.9176  -8.7751  -8.6617
    -8.6411  -8.5504  -8.4268  -8.4263  -8.3868  -8.3671  -8.3484  -8.3119
    -8.0451  -8.0299  -7.9989  -7.9515  -7.5207  -7.4822  -7.4791  -7.4422
     2.0335   2.0649   2.0718   2.1324   2.2017   2.2859   2.3011   2.3302
     2.4824   2.5016   2.5962   2.7035   2.9346   3.0001   3.0621   3.1930
     3.2979   3.3466   3.5454   3.6932   3.9213   3.9697   4.0665   4.0969
     4.1285   4.2017   4.2963   4.3196   4.4587   4.5156   4.5490   4.5858
     4.5969   4.7373   4.9530   4.9993   5.0974   5.1132   5.1375   5.2276
     5.2403   5.4413   5.6343   5.6997   6.1059   6.1201   6.2045   6.2679
     6.5388   6.5812   6.6594   6.7075   6.7700   6.8032   6.8616   6.9196
     6.9701   7.0963   7.1323   7.1767   7.2042   7.2948   7.3710   7.4048
     7.4864   7.5459   7.5536   7.6119   7.8553   7.9556   8.0387   8.1134
    10.6943  10.7337  10.9619  10.9898  11.4778  11.6003  11.8410  11.8583
    12.0053  12.0549  12.2775  12.2830  12.5453  12.6276  12.6348  12.7032
    12.7311  12.9312  12.9686  13.1031  13.1873  13.2799  13.3096  13.4721
    14.2409  14.4145  14.4462  14.7176  15.5438  15.7740  16.1302  16.2837
    16.3418  16.8150  16.9173  17.1670  17.3924

          k = 0.3333 0.0000-0.5000 ( 62288 PWs)   bands (ev):

   -66.1921 -66.1921 -66.1917 -66.1917 -66.1916 -66.1916 -66.1912 -66.1912
   -30.7212 -30.7212 -30.6991 -30.6991 -30.6972 -30.6972 -30.6750 -30.6750
   -30.4392 -30.4392 -30.4223 -30.4223 -30.4200 -30.4200 -30.4062 -30.4062
   -30.4010 -30.4010 -30.3906 -30.3906 -30.3546 -30.3546 -30.3527 -30.3527
   -20.3638 -20.3638 -20.3637 -20.3637 -20.3636 -20.3636 -20.3634 -20.3634
   -20.3534 -20.3533 -20.3530 -20.3530 -20.3527 -20.3527 -20.3524 -20.3524
   -20.3469 -20.3469 -20.3459 -20.3459 -20.3457 -20.3457 -20.3447 -20.3447
   -20.3287 -20.3287 -20.3283 -20.3283 -20.3282 -20.3282 -20.3278 -20.3278
   -20.3254 -20.3254 -20.3252 -20.3252 -20.3213 -20.3212 -20.3210 -20.3210
   -20.3171 -20.3170 -20.3163 -20.3163 -20.3160 -20.3160 -20.3153 -20.3153
   -20.3100 -20.3100 -20.3094 -20.3094 -20.3092 -20.3092 -20.3085 -20.3085
    -9.4310  -9.4310  -9.1675  -9.1675  -9.0261  -9.0260  -8.7357  -8.7357
    -8.5764  -8.5764  -8.4630  -8.4630  -8.3754  -8.3754  -8.2846  -8.2846
    -8.2194  -8.2193  -8.0019  -8.0018  -7.5009  -7.5009  -7.4616  -7.4616
     2.0676   2.0676   2.1920   2.1920   2.3049   2.3049   2.4706   2.4706
     2.9116   2.9116   3.0233   3.0233   3.0749   3.0749   3.2109   3.2109
     3.3744   3.3744   3.5002   3.5002   3.7268   3.7268   3.8180   3.8180
     3.9528   3.9528   4.1308   4.1308   4.3017   4.3017   4.3975   4.3976
     4.6177   4.6177   4.7957   4.7957   5.0479   5.0479   5.1287   5.1287
     5.2772   5.2773   5.6118   5.6118   6.1467   6.1467   6.2613   6.2613
     6.6006   6.6006   6.6468   6.6468   6.7699   6.7700   6.8717   6.8717
     7.0901   7.0902   7.1624   7.1624   7.3647   7.3647   7.4427   7.4427
     7.4889   7.4889   7.7405   7.7405   7.8227   7.8227   8.0583   8.0583
    10.8191  10.8191  11.4044  11.4044  11.4620  11.4620  11.8869  11.8869
    12.0093  12.0093  12.1563  12.1563  12.5166  12.5166  12.6809  12.6809
    12.8389  12.8389  13.0077  13.0077  13.0947  13.0947  13.3483  13.3483
    14.3439  14.3439  14.5866  14.5866  15.8878  15.8878  16.3920  16.3920
    16.7872  16.7872  17.1178  17.1178  17.5540

          k = 0.3333 0.1575 0.3333 ( 62283 PWs)   bands (ev):

   -66.1923 -66.1920 -66.1919 -66.1918 -66.1915 -66.1915 -66.1914 -66.1910
   -30.7223 -30.7220 -30.7202 -30.7202 -30.6759 -30.6759 -30.6742 -30.6740
   -30.4410 -30.4404 -30.4376 -30.4371 -30.4091 -30.4070 -30.4069 -30.4009
   -30.3975 -30.3915 -30.3911 -30.3856 -30.3589 -30.3570 -30.3568 -30.3549
   -20.3639 -20.3638 -20.3637 -20.3637 -20.3635 -20.3635 -20.3634 -20.3633
   -20.3534 -20.3534 -20.3533 -20.3532 -20.3526 -20.3525 -20.3523 -20.3523
   -20.3470 -20.3469 -20.3468 -20.3468 -20.3447 -20.3447 -20.3446 -20.3446
   -20.3288 -20.3287 -20.3287 -20.3286 -20.3279 -20.3278 -20.3278 -20.3276
   -20.3252 -20.3251 -20.3250 -20.3249 -20.3216 -20.3215 -20.3214 -20.3212
   -20.3172 -20.3172 -20.3169 -20.3169 -20.3154 -20.3154 -20.3152 -20.3151
   -20.3102 -20.3100 -20.3099 -20.3099 -20.3086 -20.3086 -20.3085 -20.3083
    -9.5660  -9.4019  -9.3350  -9.3180  -8.9421  -8.9147  -8.7453  -8.6507
    -8.6426  -8.5528  -8.4246  -8.4237  -8.3521  -8.3327  -8.3120  -8.2858
    -8.0438  -8.0301  -8.0007  -7.9498  -7.5919  -7.5556  -7.5515  -7.5167
     2.0726   2.1053   2.1122   2.1351   2.3696   2.3870   2.3995   2.4321
     2.5020   2.5331   2.5973   2.7239   2.9488   3.0590   3.0618   3.2659
     3.3404   3.4192   3.5518   3.6903   3.9178   3.9639   4.0686   4.1149
     4.1256   4.2180   4.2702   4.3121   4.3978   4.4950   4.5635   4.5741
     4.5913   4.7180   4.8784   4.9509   4.9899   5.0085   5.0382   5.1628
     5.1730   5.3222   5.4554   5.5868   5.8869   5.9631   6.0035   6.0955
[...]
   -19.8064 -19.8064 -19.8060 -19.8060 -19.8059 -19.8059 -19.8055 -19.8055
   -19.8046 -19.8046 -19.8043 -19.8043 -19.8015 -19.8015 -19.8012 -19.8012
   -19.7941 -19.7941 -19.7932 -19.7932 -19.7930 -19.7930 -19.7922 -19.7922
   -19.7856 -19.7856 -19.7852 -19.7852 -19.7851 -19.7851 -19.7846 -19.7846
    -8.9461  -8.9461  -8.6859  -8.6859  -8.6167  -8.6166  -8.3045  -8.3044
    -8.2069  -8.2069  -8.0275  -8.0275  -7.9918  -7.9918  -7.8303  -7.8303
    -7.7422  -7.7422  -7.6437  -7.6437  -7.6148  -7.6147  -7.4623  -7.4623
     2.6035   2.6035   2.7817   2.7817   2.8293   2.8293   3.0227   3.0227
     3.3626   3.3626   3.4913   3.4913   3.5587   3.5587   3.6940   3.6940
     3.8564   3.8564   3.9607   3.9607   4.1004   4.1004   4.2151   4.2151
     4.4119   4.4119   4.5212   4.5212   4.5814   4.5814   4.7235   4.7235
     4.8645   4.8645   5.0285   5.0285   5.0971   5.0971   5.2883   5.2883
     5.3708   5.3708   5.4497   5.4497   5.6073   5.6073   5.8572   5.8572
     7.1452   7.1452   7.3315   7.3315   7.3507   7.3508   7.4734   7.4734
     7.5939   7.5939   7.6446   7.6447   7.7961   7.7961   7.9093   7.9093
     7.9564   7.9564   8.0818   8.0819   8.1060   8.1060   8.2703   8.2703
    11.6609  11.6609  12.0476  12.0476  12.2088  12.2088  12.3729  12.3729
    12.5822  12.5822  12.7088  12.7088  12.8698  12.8698  13.0330  13.0330
    13.1917  13.1917  13.3390  13.3390  13.4514  13.4514  13.7115  13.7115
    16.1598  16.1598  16.5207  16.5207  16.8583  16.8583  17.0123  17.0123
    17.3106  17.3106  17.6315  17.6315  18.0117

          k = 0.3316-0.4901 0.3316 ( 60670 PWs)   bands (ev):

   -65.6894 -65.6894 -65.6890 -65.6890 -65.6889 -65.6889 -65.6885 -65.6885
   -30.2061 -30.2061 -30.2040 -30.2040 -30.1637 -30.1637 -30.1616 -30.1616
   -30.0028 -30.0028 -30.0015 -30.0015 -29.9998 -29.9998 -29.9985 -29.9985
   -29.9298 -29.9298 -29.9263 -29.9263 -29.8904 -29.8904 -29.8875 -29.8875
   -19.8458 -19.8458 -19.8456 -19.8456 -19.8455 -19.8454 -19.8452 -19.8452
   -19.8355 -19.8355 -19.8354 -19.8354 -19.8348 -19.8348 -19.8346 -19.8346
   -19.8219 -19.8219 -19.8217 -19.8217 -19.8197 -19.8197 -19.8195 -19.8195
   -19.8064 -19.8064 -19.8064 -19.8064 -19.8055 -19.8054 -19.8054 -19.8054
   -19.8032 -19.8032 -19.8031 -19.8031 -19.8028 -19.8028 -19.8027 -19.8027
   -19.7942 -19.7942 -19.7940 -19.7940 -19.7923 -19.7923 -19.7921 -19.7921
   -19.7857 -19.7857 -19.7855 -19.7855 -19.7847 -19.7847 -19.7845 -19.7845
    -8.9727  -8.9727  -8.7982  -8.7982  -8.4753  -8.4753  -8.2235  -8.2235
    -8.1515  -8.1515  -7.9956  -7.9956  -7.9428  -7.9428  -7.9070  -7.9070
    -7.8599  -7.8599  -7.8109  -7.8108  -7.5000  -7.5000  -7.4376  -7.4376
     2.6255   2.6255   2.6546   2.6546   2.9606   2.9606   3.0765   3.0765
     3.2782   3.2782   3.4003   3.4003   3.5567   3.5567   3.6327   3.6327
     3.6941   3.6941   4.0632   4.0632   4.2831   4.2831   4.2993   4.2993
     4.3415   4.3415   4.5067   4.5067   4.5912   4.5912   4.7336   4.7336
     4.9909   4.9909   5.0326   5.0326   5.1648   5.1648   5.3036   5.3036
     5.3659   5.3659   5.4545   5.4545   5.5550   5.5550   5.7142   5.7142
     7.1640   7.1640   7.3150   7.3151   7.4563   7.4563   7.5410   7.5410
     7.6252   7.6252   7.6669   7.6669   7.7394   7.7394   7.8604   7.8604
     7.9542   7.9542   8.0518   8.0518   8.1464   8.1464   8.1804   8.1804
    11.6993  11.6993  11.9849  11.9849  12.1881  12.1881  12.4780  12.4780
    12.6163  12.6163  12.7135  12.7135  12.8365  12.8365  12.9166  12.9166
    13.1299  13.1299  13.3140  13.3140  13.3995  13.3995  13.7165  13.7165
    16.0801  16.0801  16.4051  16.4051  16.8818  16.8818  17.0312  17.0312
    17.4645  17.4645  17.9184  17.9185  18.0379

          k = 0.3316-0.4901-0.4975 ( 60672 PWs)   bands (ev):

   -65.6892 -65.6892 -65.6892 -65.6892 -65.6888 -65.6888 -65.6887 -65.6887
   -30.2050 -30.2050 -30.1849 -30.1849 -30.1828 -30.1828 -30.1626 -30.1626
   -30.0023 -30.0023 -30.0013 -30.0013 -30.0001 -30.0001 -29.9992 -29.9992
   -29.9281 -29.9281 -29.9101 -29.9101 -29.9069 -29.9069 -29.8890 -29.8890
   -19.8457 -19.8457 -19.8456 -19.8456 -19.8454 -19.8454 -19.8454 -19.8454
   -19.8355 -19.8355 -19.8352 -19.8352 -19.8350 -19.8350 -19.8347 -19.8347
   -19.8218 -19.8218 -19.8208 -19.8208 -19.8206 -19.8206 -19.8196 -19.8196
   -19.8064 -19.8064 -19.8060 -19.8060 -19.8059 -19.8059 -19.8054 -19.8054
   -19.8032 -19.8032 -19.8030 -19.8030 -19.8029 -19.8029 -19.8027 -19.8027
   -19.7941 -19.7941 -19.7933 -19.7933 -19.7930 -19.7930 -19.7922 -19.7922
   -19.7856 -19.7856 -19.7853 -19.7853 -19.7850 -19.7850 -19.7846 -19.7846
    -8.8774  -8.8774  -8.7051  -8.7051  -8.4959  -8.4959  -8.3165  -8.3165
    -8.1060  -8.1060  -8.0110  -8.0110  -7.9518  -7.9518  -7.9135  -7.9135
    -7.8405  -7.8405  -7.7745  -7.7745  -7.6763  -7.6762  -7.4673  -7.4673
     2.6504   2.6504   2.9618   2.9618   3.1857   3.1858   3.3372   3.3372
     3.4403   3.4403   3.5231   3.5232   3.5801   3.5801   3.6049   3.6049
     3.8416   3.8416   3.9099   3.9099   4.0248   4.0248   4.3132   4.3132
     4.3519   4.3519   4.4622   4.4622   4.5388   4.5388   4.7409   4.7409
     4.8684   4.8684   4.9272   4.9272   4.9850   4.9850   5.0250   5.0250
     5.1691   5.1691   5.3261   5.3261   5.4793   5.4793   5.5180   5.5180
     7.2175   7.2175   7.4443   7.4443   7.4853   7.4854   7.5562   7.5562
     7.6440   7.6440   7.6996   7.6996   7.8468   7.8468   7.8927   7.8927
     7.9590   7.9590   8.0871   8.0872   8.1160   8.1160   8.1698   8.1698
    11.9009  11.9009  12.1495  12.1495  12.3072  12.3072  12.4806  12.4806
    12.5496  12.5496  12.7686  12.7686  12.8420  12.8420  12.9072  12.9072
    13.0369  13.0370  13.0824  13.0824  13.4483  13.4483  13.5100  13.5100
    16.2688  16.2688  16.6792  16.6792  17.2380  17.2380  17.2915  17.2915
    17.6067  17.6067  17.7140  17.7145  17.7992

          k =-0.4975 0.0000-0.4975 ( 60676 PWs)   bands (ev):

   -65.6894 -65.6894 -65.6893 -65.6893 -65.6886 -65.6886 -65.6886 -65.6886
   -30.1860 -30.1859 -30.1852 -30.1852 -30.1827 -30.1827 -30.1821 -30.1821
   -30.0399 -30.0399 -30.0396 -30.0396 -29.9613 -29.9613 -29.9609 -29.9609
   -29.9095 -29.9095 -29.9093 -29.9093 -29.9077 -29.9077 -29.9073 -29.9073
   -19.8457 -19.8456 -19.8456 -19.8456 -19.8454 -19.8454 -19.8454 -19.8454
   -19.8353 -19.8352 -19.8352 -19.8352 -19.8350 -19.8350 -19.8349 -19.8349
   -19.8208 -19.8207 -19.8207 -19.8207 -19.8207 -19.8207 -19.8206 -19.8206
   -19.8066 -19.8066 -19.8064 -19.8064 -19.8061 -19.8061 -19.8061 -19.8060
   -19.8056 -19.8055 -19.8053 -19.8053 -19.7998 -19.7998 -19.7997 -19.7997
   -19.7934 -19.7934 -19.7933 -19.7933 -19.7930 -19.7929 -19.7929 -19.7929
   -19.7854 -19.7854 -19.7854 -19.7854 -19.7849 -19.7849 -19.7848 -19.7848
    -8.9682  -8.9682  -8.9427  -8.9427  -8.4714  -8.4714  -8.3892  -8.3892
    -8.2796  -8.2796  -8.1906  -8.1906  -7.8502  -7.8501  -7.7984  -7.7983
    -7.7503  -7.7503  -7.6922  -7.6922  -7.3038  -7.3038  -7.3007  -7.3007
     2.0160   2.0160   2.0376   2.0376   3.2472   3.2472   3.2779   3.2779
     3.4178   3.4178   3.4284   3.4284   3.6703   3.6703   3.7857   3.7857
     3.8110   3.8111   3.8632   3.8632   3.9267   3.9267   4.0588   4.0588
     4.0913   4.0914   4.3590   4.3590   4.6170   4.6171   4.6782   4.6782
     4.7886   4.7887   4.9328   4.9329   5.5057   5.5057   5.5656   5.5656
     5.8219   5.8219   5.8978   5.8978   6.5346   6.5346   6.5649   6.5649
     6.7797   6.7798   6.8501   6.8502   6.9233   6.9233   6.9238   6.9238
     7.7086   7.7086   7.7381   7.7381   7.8044   7.8044   7.9272   7.9272
     7.9968   7.9968   8.0097   8.0097   8.0958   8.0958   8.3326   8.3326
    11.6737  11.6737  11.8790  11.8790  11.9237  11.9237  12.1376  12.1376
    12.6994  12.6994  12.7521  12.7521  12.8642  12.8642  12.9501  12.9501
    13.4898  13.4898  13.6404  13.6404  13.8072  13.8072  13.9380  13.9380
    15.6839  15.6839  15.7385  15.7385  16.8295  16.8295  17.2526  17.2526
    17.2885  17.2885  17.3876  17.3876  17.7737

          k =-0.4975 0.1634-0.4975 ( 60660 PWs)   bands (ev):

   -65.6893 -65.6893 -65.6893 -65.6893 -65.6886 -65.6886 -65.6886 -65.6886
   -30.1857 -30.1857 -30.1850 -30.1850 -30.1829 -30.1828 -30.1823 -30.1822
   -30.0347 -30.0347 -30.0344 -30.0344 -29.9667 -29.9667 -29.9662 -29.9662
   -29.9094 -29.9093 -29.9092 -29.9092 -29.9079 -29.9078 -29.9075 -29.9075
   -19.8456 -19.8456 -19.8456 -19.8456 -19.8454 -19.8454 -19.8454 -19.8454
   -19.8353 -19.8352 -19.8352 -19.8351 -19.8350 -19.8350 -19.8349 -19.8349
   -19.8208 -19.8207 -19.8207 -19.8207 -19.8207 -19.8207 -19.8206 -19.8206
   -19.8064 -19.8064 -19.8061 -19.8061 -19.8061 -19.8061 -19.8060 -19.8060
   -19.8055 -19.8055 -19.8051 -19.8051 -19.8002 -19.8002 -19.8001 -19.8001
   -19.7934 -19.7933 -19.7933 -19.7933 -19.7930 -19.7930 -19.7930 -19.7929
   -19.7854 -19.7854 -19.7854 -19.7853 -19.7849 -19.7849 -19.7849 -19.7848
    -8.9104  -8.9104  -8.8808  -8.8808  -8.4826  -8.4826  -8.4020  -8.4019
    -8.2592  -8.2592  -8.1735  -8.1735  -7.8523  -7.8523  -7.7985  -7.7984
    -7.7553  -7.7553  -7.6926  -7.6926  -7.4010  -7.4010  -7.3956  -7.3956
     2.2254   2.2254   2.2475   2.2476   3.2595   3.2595   3.2976   3.2976
     3.4239   3.4239   3.4271   3.4271   3.6823   3.6823   3.8165   3.8165
     3.8261   3.8261   3.8678   3.8678   3.9707   3.9707   4.0861   4.0861
     4.1408   4.1408   4.4056   4.4056   4.6026   4.6026   4.6749   4.6749
     4.7707   4.7707   4.9286   4.9287   5.2624   5.2624   5.3159   5.3159
     5.5973   5.5974   5.6342   5.6342   6.2997   6.2997   6.3035   6.3035
     6.9389   6.9389   7.0285   7.0285   7.1010   7.1010   7.1470   7.1470
     7.7147   7.7148   7.7441   7.7442   7.8227   7.8227   7.9298   7.9298
     8.0025   8.0025   8.0323   8.0323   8.0943   8.0943   8.3117   8.3117
    11.7436  11.7437  11.9581  11.9581  11.9686  11.9686  12.2076  12.2076
    12.7051  12.7051  12.7386  12.7386  12.8745  12.8745  12.9547  12.9548
    13.3572  13.3572  13.5090  13.5090  13.7134  13.7134  13.8406  13.8406
    15.9699  15.9700  16.0092  16.0092  16.8871  16.8871  17.2437  17.2438
    17.2627  17.2627  17.4072  17.4073  17.8096

          k =-0.4975 0.3267-0.4975 ( 60724 PWs)   bands (ev):

   -65.6892 -65.6892 -65.6891 -65.6891 -65.6888 -65.6888 -65.6888 -65.6888
   -30.1851 -30.1851 -30.1843 -30.1843 -30.1833 -30.1833 -30.1828 -30.1827
   -30.0205 -30.0205 -30.0202 -30.0202 -29.9812 -29.9812 -29.9808 -29.9808
   -29.9090 -29.9090 -29.9090 -29.9089 -29.9082 -29.9081 -29.9079 -29.9079
   -19.8456 -19.8456 -19.8456 -19.8455 -19.8455 -19.8455 -19.8455 -19.8454
   -19.8352 -19.8352 -19.8351 -19.8351 -19.8351 -19.8350 -19.8350 -19.8350
   -19.8208 -19.8207 -19.8207 -19.8207 -19.8207 -19.8207 -19.8206 -19.8206
   -19.8061 -19.8060 -19.8060 -19.8060 -19.8060 -19.8060 -19.8058 -19.8058
   -19.8046 -19.8046 -19.8044 -19.8043 -19.8014 -19.8014 -19.8013 -19.8013
   -19.7933 -19.7933 -19.7932 -19.7932 -19.7931 -19.7931 -19.7930 -19.7930
   -19.7853 -19.7853 -19.7853 -19.7852 -19.7850 -19.7850 -19.7850 -19.7850
    -8.7681  -8.7681  -8.7224  -8.7224  -8.5197  -8.5197  -8.4478  -8.4477
    -8.1865  -8.1865  -8.1105  -8.1105  -7.8692  -7.8692  -7.7965  -7.7964
    -7.7954  -7.7953  -7.6933  -7.6933  -7.6265  -7.6265  -7.5977  -7.5977
     2.7620   2.7620   2.7837   2.7837   3.2816   3.2816   3.3294   3.3294
     3.4333   3.4333   3.4342   3.4342   3.7249   3.7249   3.7992   3.7992
     3.8568   3.8568   3.8951   3.8951   4.0732   4.0732   4.1185   4.1185
     4.3451   4.3451   4.4291   4.4291   4.6423   4.6423   4.6602   4.6603
     4.6672   4.6672   4.9096   4.9096   4.9214   4.9214   4.9853   4.9854
     5.1893   5.1893   5.2120   5.2121   5.6334   5.6334   5.6739   5.6739
     7.2227   7.2227   7.3524   7.3524   7.3612   7.3612   7.4928   7.4928
     7.7174   7.7174   7.7545   7.7545   7.8357   7.8357   7.9291   7.9291
     8.0329   8.0329   8.0577   8.0577   8.0854   8.0854   8.2412   8.2412
    11.9666  11.9666  12.1022  12.1022  12.1916  12.1916  12.3897  12.3897
    12.6938  12.6938  12.7064  12.7064  12.8962  12.8962  12.9740  12.9740
    13.0676  13.0677  13.2082  13.2082  13.4288  13.4288  13.5324  13.5324
    16.6616  16.6616  16.6814  16.6815  17.0998  17.0998  17.1821  17.1821
    17.2373  17.2374  17.4518  17.4518  17.8886

          k =-0.4975-0.4901-0.4975 ( 60632 PWs)   bands (ev):

   -65.6890 -65.6890 -65.6890 -65.6890 -65.6890 -65.6890 -65.6890 -65.6889
   -30.1846 -30.1846 -30.1837 -30.1837 -30.1835 -30.1835 -30.1835 -30.1835
   -30.0010 -30.0010 -30.0009 -30.0009 -30.0009 -30.0009 -30.0002 -30.0002
   -29.9086 -29.9086 -29.9086 -29.9086 -29.9086 -29.9086 -29.9083 -29.9083
   -19.8455 -19.8455 -19.8455 -19.8455 -19.8455 -19.8455 -19.8455 -19.8455
   -19.8351 -19.8351 -19.8351 -19.8351 -19.8351 -19.8351 -19.8350 -19.8350
   -19.8208 -19.8208 -19.8207 -19.8207 -19.8207 -19.8207 -19.8206 -19.8206
   -19.8060 -19.8060 -19.8060 -19.8060 -19.8059 -19.8059 -19.8059 -19.8059
   -19.8030 -19.8030 -19.8030 -19.8030 -19.8029 -19.8029 -19.8029 -19.8029
   -19.7932 -19.7932 -19.7932 -19.7932 -19.7931 -19.7931 -19.7931 -19.7931
   -19.7852 -19.7852 -19.7852 -19.7852 -19.7851 -19.7851 -19.7851 -19.7851
    -8.6545  -8.6545  -8.5731  -8.5731  -8.5518  -8.5518  -8.5518  -8.5518
    -8.0822  -8.0822  -7.9755  -7.9755  -7.9755  -7.9755  -7.9156  -7.9156
    -7.7749  -7.7749  -7.7749  -7.7749  -7.6935  -7.6935  -7.6731  -7.6731
     3.2358   3.2358   3.2426   3.2426   3.2426   3.2426   3.3209   3.3210
     3.4118   3.4118   3.5952   3.5952   3.5952   3.5952   3.7784   3.7784
     3.8638   3.8638   3.9148   3.9148   3.9725   3.9726   3.9726   3.9726
     4.5141   4.5141   4.5191   4.5191   4.6431   4.6431   4.6431   4.6431
     4.8036   4.8036   4.8473   4.8473   4.8473   4.8474   4.9166   4.9166
     5.0312   5.0312   5.0986   5.0986   5.0987   5.0987   5.1219   5.1219
     7.3411   7.3411   7.4805   7.4805   7.4805   7.4805   7.6529   7.6530
     7.7391   7.7391   7.7391   7.7391   7.8368   7.8368   7.9195   7.9195
     8.0696   8.0696   8.0697   8.0697   8.1034   8.1034   8.1431   8.1432
    12.2174  12.2175  12.2985  12.2985  12.2985  12.2985  12.3807  12.3807
    12.7279  12.7279  12.7279  12.7279  12.7982  12.7982  12.9348  12.9348
    13.0151  13.0151  13.1669  13.1669  13.1669  13.1669  13.2090  13.2090
    17.0332  17.0332  17.0332  17.0332  17.1955  17.1955  17.2263  17.2263
    17.7479  17.7479  17.7559  17.7559  17.7559

     the Fermi energy is     9.2893 ev

!    total energy              =   -6261.03316078 Ry
     Harris-Foulkes estimate   =   -6261.03316078 Ry
     estimated scf accuracy    <          6.0E-11 Ry

     The total energy is the sum of the following terms:

     one-electron contribution =   -4583.89665356 Ry
     hartree contribution      =    2534.85792272 Ry
     xc contribution           =    -965.60141661 Ry
     ewald contribution        =   -3246.39301333 Ry
     smearing contrib. (-TS)   =      -0.00000000 Ry

     convergence has been achieved in  14 iterations

     Forces acting on atoms (cartesian axes, Ry/au):

     atom    1 type  1   force =    -0.09478196   -0.02966854   -0.01392003
     atom    2 type  1   force =     0.01392003    0.02966854   -0.09478196
     atom    3 type  1   force =     0.09478196    0.02966854   -0.01392003
     atom    4 type  1   force =    -0.01392003   -0.02966854   -0.09478196
     atom    5 type  1   force =     0.09478196   -0.02966854    0.01392003
     atom    6 type  1   force =    -0.01392003    0.02966854    0.09478196
     atom    7 type  1   force =    -0.09478196    0.02966854    0.01392003
     atom    8 type  1   force =     0.01392003   -0.02966854    0.09478196
     atom    9 type  2   force =     0.00225972    0.00688608   -0.00675305
     atom   10 type  2   force =     0.00675305   -0.00688608    0.00225972
     atom   11 type  2   force =    -0.00225972   -0.00688608   -0.00675305
     atom   12 type  2   force =    -0.00675305    0.00688608    0.00225972
     atom   13 type  2   force =    -0.00225972    0.00688608    0.00675305
     atom   14 type  2   force =    -0.00675305   -0.00688608   -0.00225972
     atom   15 type  2   force =     0.00225972   -0.00688608    0.00675305
     atom   16 type  2   force =     0.00675305    0.00688608   -0.00225972
     atom   17 type  2   force =    -0.06049884    0.00757821   -0.00478659
     atom   18 type  2   force =    -0.00145130    0.00934316   -0.00803004
     atom   19 type  2   force =     0.06049884   -0.00757821   -0.00478659
     atom   20 type  2   force =     0.00145130   -0.00934316   -0.00803004
     atom   21 type  2   force =     0.06049884    0.00757821    0.00478659
     atom   22 type  2   force =     0.00145130    0.00934316    0.00803004
     atom   23 type  2   force =    -0.06049884   -0.00757821    0.00478659
     atom   24 type  2   force =    -0.00145130   -0.00934316    0.00803004
     atom   25 type  2   force =     0.00803004    0.00934316    0.00145130
     atom   26 type  2   force =     0.00478659   -0.00757821   -0.06049884
     atom   27 type  2   force =    -0.00803004   -0.00934316    0.00145130
     atom   28 type  2   force =    -0.00478659    0.00757821   -0.06049884
     atom   29 type  2   force =    -0.00803004    0.00934316   -0.00145130
     atom   30 type  2   force =    -0.00478659   -0.00757821    0.06049884
     atom   31 type  2   force =     0.00803004   -0.00934316   -0.00145130
     atom   32 type  2   force =     0.00478659    0.00757821    0.06049884

     Total force =     0.000000     Total SCF correction =     0.000000


     Computing stress (Cartesian axis) and pressure

          total   stress  (Ry/bohr**3)                   (kbar)     P=   -0.17
  -0.00000023   0.00000000   0.00000000         -0.03      0.00      0.00
   0.00000000  -0.00000309   0.00000000          0.00     -0.46      0.00
   0.00000000   0.00000000  -0.00000023          0.00      0.00     -0.03


     Writing output data file Landau_39.save
 
     init_run     :     71.39s CPU     74.44s WALL (       2 calls)
     electrons    :   7677.33s CPU   7889.82s WALL (       6 calls)
     update_pot   :     78.73s CPU     79.07s WALL (       4 calls)
     forces       :    130.33s CPU    133.10s WALL (       6 calls)
     stress       :   1323.26s CPU   1345.43s WALL (       6 calls)

     Called by init_run:
     wfcinit      :     55.60s CPU     58.36s WALL (       2 calls)
     potinit      :      6.41s CPU      6.49s WALL (       2 calls)

     Called by electrons:
     c_bands      :   6738.39s CPU   6939.99s WALL (      79 calls)
     sum_band     :    903.37s CPU    909.57s WALL (      79 calls)
     v_of_rho     :      8.36s CPU      8.52s WALL (      84 calls)
     mix_rho      :     22.78s CPU     26.29s WALL (      79 calls)

     Called by c_bands:
     init_us_2    :     75.31s CPU     79.24s WALL (     344 calls)
     cegterg      :   5898.20s CPU   6090.60s WALL (     158 calls)

     Called by sum_band:

     Called by *egterg:
     h_psi        :   4643.83s CPU   4673.52s WALL (     708 calls)
     g_psi        :     11.53s CPU     11.60s WALL (     546 calls)
     cdiaghg      :     86.42s CPU     86.77s WALL (     694 calls)

     Called by h_psi:
     h_psi:pot    :   4607.28s CPU   4635.53s WALL (     708 calls)
     h_psi:calbec :    454.41s CPU    466.98s WALL (     708 calls)
     vloc_psi     :   3666.97s CPU   3679.72s WALL (     708 calls)
     add_vuspsi   :    485.89s CPU    488.83s WALL (     708 calls)

     General routines
     calbec       :    520.09s CPU    532.96s WALL (     768 calls)
     fft          :      6.65s CPU      6.67s WALL (     384 calls)
     fftw         :   3701.84s CPU   3712.54s WALL (  209834 calls)
 
     Parallel routines
 
     PWSCF        :     2h34m CPU        2h38m WALL

 
   This run was terminated on:   8:11:27   1May2019            

=------------------------------------------------------------------------------=
   JOB DONE.
=------------------------------------------------------------------------------=
