
     Program PWSCF v.6.2 (svn rev. 14038) starts on 23Mar2020 at  1: 0:30 

     This program is part of the open-source Quantum ESPRESSO suite
     for quantum simulation of materials; please cite
         "P. Giannozzi et al., J. Phys.:Condens. Matter 21 395502 (2009);
         "P. Giannozzi et al., J. Phys.:Condens. Matter 29 465901 (2017);
          URL http://www.quantum-espresso.org", 
     in publications or presentations arising from this work. More details at
     http://www.quantum-espresso.org/quote

     Parallel version (MPI), running on    40 processors

     MPI processes distributed on     8 nodes
     K-points division:     npool     =      40
     Reading input from rscf.in

     Current dimensions of program PWSCF are:
     Max number of different atomic species (ntypx) = 10
     Max number of k-points (npk) =  40000
     Max angular momentum in pseudopotentials (lmaxx) =  3

     Subspace diagonalization in iterative solution of the eigenvalue problem:
     a serial algorithm will be used

 
     G-vector sticks info
     --------------------
     sticks:   dense  smooth     PW     G-vecs:    dense   smooth      PW
     Sum        7747    7747   2077               498127   498127   69057
 


     bravais-lattice index     =            0
     lattice parameter (alat)  =      13.8397  a.u.
     unit-cell volume          =    2804.9816 (a.u.)^3
     number of atoms/cell      =           32
     number of atomic types    =            2
     number of electrons       =       368.00
     number of Kohn-Sham states=          221
     kinetic-energy cutoff     =     120.0000  Ry
     charge density cutoff     =     480.0000  Ry
     convergence threshold     =      1.0E-08
     mixing beta               =       0.7000
     number of iterations used =            8  plain     mixing
     Exchange-correlation      = SLA PW NOGX NOGC ( 1  4  0  0 0 0)
     nstep                     =           50


     celldm(1)=  13.839685  celldm(2)=   0.000000  celldm(3)=   0.000000
     celldm(4)=   0.000000  celldm(5)=   0.000000  celldm(6)=   0.000000

     crystal axes: (cart. coord. in units of alat)
               a(1) = (   1.000000   0.000000   0.000000 )  
               a(2) = (   0.000000   1.058160   0.000000 )  
               a(3) = (   0.000000   0.000000   1.000000 )  

     reciprocal axes: (cart. coord. in units 2 pi/alat)
               b(1) = (  1.000000  0.000000  0.000000 )  
               b(2) = (  0.000000  0.945037  0.000000 )  
               b(3) = (  0.000000  0.000000  1.000000 )  


     PseudoPot. # 1 for W  read from file:
     /cluster/scratch/mnoe/QE/pps/W_ONCV_LDA-4.0.upf
     MD5 check sum: ba0307d5d4cd419d6f1d13dc49d7c13a
     Pseudo is Norm-conserving + core correction, Zval = 28.0
     Generated using ONCVPSP code by D. R. Hamann
     Using radial grid of 1380 points,  8 beta functions with: 
                l(1) =   0
                l(2) =   0
                l(3) =   1
                l(4) =   1
                l(5) =   2
                l(6) =   2
                l(7) =   3
                l(8) =   3

     PseudoPot. # 2 for O  read from file:
     /cluster/scratch/mnoe/QE/pps/O_ONCV_LDA-3.0.upf
     MD5 check sum: a1bd6164e7280c17a38c229939bfbd54
     Pseudo is Norm-conserving + core correction, Zval =  6.0
     Generated using ONCVPSP code by D. R. Hamann
     Using radial grid of  926 points,  5 beta functions with: 
                l(1) =   0
                l(2) =   0
                l(3) =   1
                l(4) =   1
                l(5) =   2

     atomic species   valence    mass     pseudopotential
        W             28.00   183.84000     W ( 1.00)
        O              6.00    15.99940     O ( 1.00)

      4 Sym. Ops. (no inversion) found ( 3 have fractional translation)



   Cartesian axes

     site n.     atom                  positions (alat units)
         1           W   tau(   1) = (   0.2327924   0.2932725   0.0040143  )
         2           W   tau(   2) = (   0.7549924   0.7648876  -0.0169497  )
         3           W   tau(   3) = (   0.2672076   0.2358076   0.5040143  )
         4           W   tau(   4) = (   0.7450076   0.8223526   0.4830503  )
         5           W   tau(   5) = (   0.7672075   0.2932725   0.4959857  )
         6           W   tau(   6) = (   0.2450076   0.7648876   0.5169497  )
         7           W   tau(   7) = (   0.7327924   0.2358076  -0.0040143  )
         8           W   tau(   8) = (   0.2549924   0.8223526   0.0169497  )
         9           O   tau(   9) = (   0.2276236   0.0074471  -0.0086740  )
        10           O   tau(  10) = (   0.7685796  -0.0074471  -0.0151900  )
        11           O   tau(  11) = (   0.2723763   0.5216330   0.4913260  )
        12           O   tau(  12) = (   0.7314203   0.5365271   0.4848100  )
        13           O   tau(  13) = (   0.7723763   0.0074471   0.5086740  )
        14           O   tau(  14) = (   0.2314203  -0.0074471   0.5151900  )
        15           O   tau(  15) = (   0.7276236   0.5216330   0.0086740  )
        16           O   tau(  16) = (   0.2685796   0.5365271   0.0151900  )
        17           O   tau(  17) = (   0.5057175   0.2394860   0.4610490  )
        18           O   tau(  18) = (   0.4996455   0.8130215   0.5389511  )
        19           O   tau(  19) = (  -0.0057175   0.2895940   0.9610490  )
        20           O   tau(  20) = (   0.0003545   0.7742187   0.0389510  )
        21           O   tau(  21) = (   0.4942825   0.2394860   0.0389510  )
        22           O   tau(  22) = (   0.5003545   0.8130215   0.9610490  )
        23           O   tau(  23) = (   0.0057174   0.2895940   0.5389511  )
        24           O   tau(  24) = (  -0.0003546   0.7742187   0.4610490  )
        25           O   tau(  25) = (   0.7110490   0.2726409   0.7471670  )
        26           O   tau(  26) = (   0.2889510   0.8114222   0.2563710  )
        27           O   tau(  27) = (   0.7889511   0.2564391   0.2471670  )
        28           O   tau(  28) = (   0.2110490   0.7758180   0.7563710  )
        29           O   tau(  29) = (   0.2889510   0.2726409   0.7528330  )
        30           O   tau(  30) = (   0.7110490   0.8114222   0.2436290  )
        31           O   tau(  31) = (   0.2110490   0.2564391   0.2528330  )
        32           O   tau(  32) = (   0.7889511   0.7758180   0.7436290  )

     number of k points=    64  gaussian smearing, width (Ry)=  0.0007
                       cart. coord. in units 2pi/alat
        k(    1) = (   0.0000000   0.0000000   0.0000000), wk =   0.0092593
        k(    2) = (   0.0000000   0.0000000   0.1666667), wk =   0.0185185
        k(    3) = (   0.0000000   0.0000000   0.3333333), wk =   0.0185185
        k(    4) = (   0.0000000   0.0000000  -0.5000000), wk =   0.0092593
        k(    5) = (   0.0000000   0.1575061   0.0000000), wk =   0.0185185
        k(    6) = (   0.0000000   0.1575061   0.1666667), wk =   0.0370370
        k(    7) = (   0.0000000   0.1575061   0.3333333), wk =   0.0370370
        k(    8) = (   0.0000000   0.1575061  -0.5000000), wk =   0.0185185
        k(    9) = (   0.0000000   0.3150122   0.0000000), wk =   0.0185185
        k(   10) = (   0.0000000   0.3150122   0.1666667), wk =   0.0370370
        k(   11) = (   0.0000000   0.3150122   0.3333333), wk =   0.0370370
        k(   12) = (   0.0000000   0.3150122  -0.5000000), wk =   0.0185185
        k(   13) = (   0.0000000  -0.4725183   0.0000000), wk =   0.0092593
        k(   14) = (   0.0000000  -0.4725183   0.1666667), wk =   0.0185185
        k(   15) = (   0.0000000  -0.4725183   0.3333333), wk =   0.0185185
        k(   16) = (   0.0000000  -0.4725183  -0.5000000), wk =   0.0092593
        k(   17) = (   0.1666667   0.0000000   0.1666667), wk =   0.0370370
        k(   18) = (   0.1666667   0.0000000   0.3333333), wk =   0.0370370
        k(   19) = (   0.1666667   0.0000000  -0.5000000), wk =   0.0185185
        k(   20) = (   0.1666667   0.1575061   0.1666667), wk =   0.0740741
        k(   21) = (   0.1666667   0.1575061   0.3333333), wk =   0.0740741
        k(   22) = (   0.1666667   0.1575061  -0.5000000), wk =   0.0370370
        k(   23) = (   0.1666667   0.3150122   0.1666667), wk =   0.0740741
        k(   24) = (   0.1666667   0.3150122   0.3333333), wk =   0.0740741
        k(   25) = (   0.1666667   0.3150122  -0.5000000), wk =   0.0370370
        k(   26) = (   0.1666667  -0.4725183   0.1666667), wk =   0.0370370
        k(   27) = (   0.1666667  -0.4725183   0.3333333), wk =   0.0370370
        k(   28) = (   0.1666667  -0.4725183  -0.5000000), wk =   0.0185185
        k(   29) = (   0.3333333   0.0000000   0.3333333), wk =   0.0370370
        k(   30) = (   0.3333333   0.0000000  -0.5000000), wk =   0.0185185
        k(   31) = (   0.3333333   0.1575061   0.3333333), wk =   0.0740741
        k(   32) = (   0.3333333   0.1575061  -0.5000000), wk =   0.0370370
        k(   33) = (   0.3333333   0.3150122   0.3333333), wk =   0.0740741
        k(   34) = (   0.3333333   0.3150122  -0.5000000), wk =   0.0370370
        k(   35) = (   0.3333333  -0.4725183   0.3333333), wk =   0.0370370
        k(   36) = (   0.3333333  -0.4725183  -0.5000000), wk =   0.0185185
        k(   37) = (  -0.5000000   0.0000000  -0.5000000), wk =   0.0092593
        k(   38) = (  -0.5000000   0.1575061  -0.5000000), wk =   0.0185185
        k(   39) = (  -0.5000000   0.3150122  -0.5000000), wk =   0.0185185
        k(   40) = (  -0.5000000  -0.4725183  -0.5000000), wk =   0.0092593
        k(   41) = (   0.1666667   0.0000000   0.0000000), wk =   0.0185185
        k(   42) = (   0.3333333   0.0000000   0.0000000), wk =   0.0185185
        k(   43) = (  -0.5000000   0.0000000   0.0000000), wk =   0.0092593
        k(   44) = (   0.1666667  -0.1575061   0.0000000), wk =   0.0370370
        k(   45) = (   0.3333333  -0.1575061   0.0000000), wk =   0.0370370
        k(   46) = (  -0.5000000  -0.1575061   0.0000000), wk =   0.0185185
        k(   47) = (   0.1666667  -0.3150122   0.0000000), wk =   0.0370370
        k(   48) = (   0.3333333  -0.3150122   0.0000000), wk =   0.0370370
        k(   49) = (  -0.5000000  -0.3150122   0.0000000), wk =   0.0185185
        k(   50) = (   0.1666667   0.4725183   0.0000000), wk =   0.0185185
        k(   51) = (   0.3333333   0.4725183   0.0000000), wk =   0.0185185
        k(   52) = (  -0.5000000   0.4725183   0.0000000), wk =   0.0092593
        k(   53) = (   0.3333333   0.0000000   0.1666667), wk =   0.0370370
        k(   54) = (  -0.5000000   0.0000000   0.1666667), wk =   0.0185185
        k(   55) = (   0.3333333  -0.1575061   0.1666667), wk =   0.0740741
        k(   56) = (  -0.5000000  -0.1575061   0.1666667), wk =   0.0370370
        k(   57) = (   0.3333333  -0.3150122   0.1666667), wk =   0.0740741
        k(   58) = (  -0.5000000  -0.3150122   0.1666667), wk =   0.0370370
        k(   59) = (   0.3333333   0.4725183   0.1666667), wk =   0.0370370
        k(   60) = (  -0.5000000   0.4725183   0.1666667), wk =   0.0185185
        k(   61) = (  -0.5000000   0.0000000   0.3333333), wk =   0.0185185
        k(   62) = (  -0.5000000  -0.1575061   0.3333333), wk =   0.0370370
        k(   63) = (  -0.5000000  -0.3150122   0.3333333), wk =   0.0370370
        k(   64) = (  -0.5000000   0.4725183   0.3333333), wk =   0.0185185

     Dense  grid:   498127 G-vectors     FFT dimensions: ( 100, 108, 100)

     Estimated max dynamical RAM per process >       3.15 GB

     Estimated total dynamical RAM >     125.81 GB

     Initial potential from superposition of free atoms

     starting charge  367.99656, renormalised to  368.00000
     Starting wfc are  232 randomized atomic wfcs

     total cpu time spent up to now is       65.1 secs

     Self-consistent Calculation

     iteration #  1     ecut=   120.00 Ry     beta= 0.70
     Davidson diagonalization with overlap
     ethr =  1.00E-02,  avg # of iterations =  5.2

     total cpu time spent up to now is      248.5 secs

     total energy              =   -6254.01284556 Ry
     Harris-Foulkes estimate   =   -6264.55204511 Ry
     estimated scf accuracy    <      13.35682815 Ry

     iteration #  2     ecut=   120.00 Ry     beta= 0.70
     Davidson diagonalization with overlap
     ethr =  3.63E-03,  avg # of iterations =  3.5

     total cpu time spent up to now is      437.5 secs

     total energy              =   -6250.86011583 Ry
     Harris-Foulkes estimate   =   -6270.63200627 Ry
     estimated scf accuracy    <      53.10936576 Ry

     iteration #  3     ecut=   120.00 Ry     beta= 0.70
     Davidson diagonalization with overlap
     ethr =  3.63E-03,  avg # of iterations =  3.6

     total cpu time spent up to now is      622.1 secs

     total energy              =   -6261.02658151 Ry
     Harris-Foulkes estimate   =   -6261.41918494 Ry
     estimated scf accuracy    <       1.23985481 Ry

     iteration #  4     ecut=   120.00 Ry     beta= 0.70
     Davidson diagonalization with overlap
     ethr =  3.37E-04,  avg # of iterations =  2.5

     total cpu time spent up to now is      762.4 secs

     total energy              =   -6261.07208571 Ry
     Harris-Foulkes estimate   =   -6261.16174136 Ry
     estimated scf accuracy    <       0.30975490 Ry

     iteration #  5     ecut=   120.00 Ry     beta= 0.70
     Davidson diagonalization with overlap
     ethr =  8.42E-05,  avg # of iterations =  4.8

     total cpu time spent up to now is      909.7 secs

     total energy              =   -6261.05759260 Ry
     Harris-Foulkes estimate   =   -6261.10054511 Ry
     estimated scf accuracy    <       0.09291467 Ry

     iteration #  6     ecut=   120.00 Ry     beta= 0.70
     Davidson diagonalization with overlap
     ethr =  2.52E-05,  avg # of iterations =  6.4

     total cpu time spent up to now is     1082.7 secs

     total energy              =   -6261.07876307 Ry
     Harris-Foulkes estimate   =   -6261.08041605 Ry
     estimated scf accuracy    <       0.00554401 Ry

     iteration #  7     ecut=   120.00 Ry     beta= 0.70
     Davidson diagonalization with overlap
     ethr =  1.51E-06,  avg # of iterations =  7.3

     total cpu time spent up to now is     1238.2 secs

     total energy              =   -6261.07887514 Ry
     Harris-Foulkes estimate   =   -6261.07971695 Ry
     estimated scf accuracy    <       0.00286849 Ry

     iteration #  8     ecut=   120.00 Ry     beta= 0.70
     Davidson diagonalization with overlap
     ethr =  7.79E-07,  avg # of iterations =  2.0

     total cpu time spent up to now is     1372.2 secs

     total energy              =   -6261.07916481 Ry
     Harris-Foulkes estimate   =   -6261.07923574 Ry
     estimated scf accuracy    <       0.00017911 Ry

     iteration #  9     ecut=   120.00 Ry     beta= 0.70
     Davidson diagonalization with overlap
     ethr =  4.87E-08,  avg # of iterations =  3.2

     total cpu time spent up to now is     1532.7 secs

     total energy              =   -6261.07919716 Ry
     Harris-Foulkes estimate   =   -6261.07920885 Ry
     estimated scf accuracy    <       0.00002559 Ry

     iteration # 10     ecut=   120.00 Ry     beta= 0.70
     Davidson diagonalization with overlap
     ethr =  6.96E-09,  avg # of iterations =  3.0

     total cpu time spent up to now is     1689.9 secs

     total energy              =   -6261.07920270 Ry
     Harris-Foulkes estimate   =   -6261.07920435 Ry
     estimated scf accuracy    <       0.00000426 Ry

     iteration # 11     ecut=   120.00 Ry     beta= 0.70
     Davidson diagonalization with overlap
     ethr =  1.16E-09,  avg # of iterations =  2.0

     total cpu time spent up to now is     1830.3 secs

     total energy              =   -6261.07920322 Ry
     Harris-Foulkes estimate   =   -6261.07920337 Ry
     estimated scf accuracy    <       0.00000031 Ry

     iteration # 12     ecut=   120.00 Ry     beta= 0.70
     Davidson diagonalization with overlap
     ethr =  8.46E-11,  avg # of iterations =  3.0

     total cpu time spent up to now is     2019.1 secs

     total energy              =   -6261.07920327 Ry
     Harris-Foulkes estimate   =   -6261.07920330 Ry
     estimated scf accuracy    <       0.00000005 Ry

     iteration # 13     ecut=   120.00 Ry     beta= 0.70
     Davidson diagonalization with overlap
     ethr =  1.34E-11,  avg # of iterations =  3.0

     total cpu time spent up to now is     2191.6 secs

     total energy              =   -6261.07920328 Ry
     Harris-Foulkes estimate   =   -6261.07920329 Ry
     estimated scf accuracy    <       0.00000003 Ry

     iteration # 14     ecut=   120.00 Ry     beta= 0.70
     Davidson diagonalization with overlap
     ethr =  8.95E-12,  avg # of iterations =  2.6

     total cpu time spent up to now is     2336.2 secs

     End of self-consistent calculation

          k = 0.0000 0.0000 0.0000 ( 62239 PWs)   bands (ev):

   -66.1600 -66.1590 -66.1589 -66.1583 -66.1580 -66.1573 -66.1573 -66.1563
   -30.6116 -30.6063 -30.6036 -30.5974 -30.5393 -30.5383 -30.5301 -30.5263
   -30.5055 -30.5035 -30.4960 -30.4955 -30.4613 -30.4572 -30.4555 -30.4527
   -30.4357 -30.4296 -30.4276 -30.4226 -30.4046 -30.4005 -30.4000 -30.3960
   -20.3152 -20.3150 -20.3148 -20.3147 -20.3132 -20.3129 -20.3128 -20.3126
   -20.2952 -20.2948 -20.2948 -20.2944 -20.2921 -20.2916 -20.2916 -20.2913
   -20.2911 -20.2910 -20.2909 -20.2908 -20.2888 -20.2886 -20.2883 -20.2877
   -20.2870 -20.2864 -20.2863 -20.2860 -20.2859 -20.2857 -20.2837 -20.2830
   -20.2822 -20.2817 -20.2814 -20.2813 -20.2812 -20.2804 -20.2799 -20.2796
   -20.2795 -20.2777 -20.2760 -20.2759 -20.2741 -20.2733 -20.2729 -20.2726
   -20.2720 -20.2719 -20.2706 -20.2697 -20.2695 -20.2690 -20.2674 -20.2662
   -10.0464  -9.8496  -9.6352  -9.6013  -9.4392  -9.3966  -9.2053  -9.1892
    -8.8124  -8.7188  -8.7166  -8.7165  -7.9241  -7.8938  -7.8031  -7.7946
    -7.7862  -7.7677  -7.6808  -7.6679  -7.6563  -7.5967  -7.5927  -7.5424
     0.9275   0.9453   1.0256   1.0856   1.1173   1.1765   1.3444   1.4129
     1.8333   1.8412   1.8550   1.9263   2.1839   2.2686   2.5835   2.6456
     2.7533   2.7536   4.1096   4.1702   4.2162   4.2989   4.4918   4.5111
     4.5656   4.5869   4.8493   5.0790   5.1712   5.1831   5.2161   5.4519
     5.4769   5.4931   5.5561   5.5568   5.5716   5.6298   5.6663   5.6786
     5.8584   5.8872   5.9365   5.9385   5.9571   5.9855   6.0296   6.0704
     6.1686   6.3124   6.3730   6.3971   6.4583   6.6643   6.8614   6.9743
     6.9808   7.0076   7.0311   7.0349   7.0644   7.0717   7.0809   7.1032
     7.2106   7.2557   7.8691   7.8863   8.0665   8.1031   8.1233   8.1950
     9.4094   9.4403   9.8613   9.8758   9.8791   9.9075  12.2212  12.3020
    12.3983  12.4567  12.4686  12.5073  12.6922  12.6999  12.7683  13.0226
    13.2344  13.2965  13.3282  13.5396  13.6797  13.7719  13.9594  14.1052
    14.3448  14.4559  14.5625  14.8961  15.3065  15.4708  15.4790  16.1832
    16.1865  16.9714  17.1213  17.1505  17.3697

          k = 0.0000 0.0000 0.1667 ( 62262 PWs)   bands (ev):

   -66.1599 -66.1591 -66.1589 -66.1582 -66.1580 -66.1573 -66.1572 -66.1563
   -30.6049 -30.6030 -30.5995 -30.5978 -30.5332 -30.5317 -30.5296 -30.5274
   -30.5118 -30.5103 -30.4961 -30.4953 -30.4608 -30.4584 -30.4550 -30.4544
   -30.4416 -30.4354 -30.4273 -30.4230 -30.4042 -30.4002 -30.4001 -30.3963
   -20.3152 -20.3150 -20.3148 -20.3147 -20.3131 -20.3129 -20.3129 -20.3126
   -20.2952 -20.2949 -20.2948 -20.2944 -20.2921 -20.2917 -20.2917 -20.2913
   -20.2912 -20.2908 -20.2908 -20.2906 -20.2889 -20.2887 -20.2883 -20.2877
   -20.2870 -20.2864 -20.2863 -20.2860 -20.2859 -20.2857 -20.2834 -20.2828
   -20.2820 -20.2816 -20.2815 -20.2813 -20.2810 -20.2800 -20.2798 -20.2797
   -20.2794 -20.2773 -20.2767 -20.2761 -20.2744 -20.2732 -20.2728 -20.2726
   -20.2723 -20.2718 -20.2705 -20.2700 -20.2696 -20.2693 -20.2673 -20.2663
    -9.9921  -9.7918  -9.6154  -9.5475  -9.4092  -9.3474  -9.1646  -9.1487
    -8.8242  -8.7226  -8.7107  -8.7077  -8.0469  -7.9437  -7.9236  -7.8974
    -7.8181  -7.8015  -7.7632  -7.6747  -7.6528  -7.6009  -7.5914  -7.5462
     1.0250   1.0780   1.0857   1.1793   1.2945   1.3868   1.4683   1.5817
     1.8274   1.8466   1.8538   1.9681   2.2739   2.3586   2.6149   2.7142
     2.7444   2.8414   4.0797   4.1134   4.2013   4.2276   4.2567   4.2879
     4.5730   4.6105   4.7134   4.7985   4.9158   5.1706   5.2006   5.2181
     5.3481   5.4270   5.4849   5.5572   5.5616   5.6385   5.6476   5.6762
     5.6933   5.8979   5.9135   5.9425   6.0013   6.0163   6.0500   6.1691
     6.1827   6.3457   6.4439   6.5013   6.6773   6.7708   6.8001   6.8151
     6.9002   6.9131   6.9240   6.9576   6.9960   7.0359   7.0403   7.0895
     7.0973   7.1408   7.8499   7.8597   8.0821   8.0880   8.0941   8.1678
     9.7048   9.7534   9.8612   9.9162  10.1514  10.1894  12.2682  12.2871
    12.3645  12.4290  12.5049  12.5591  12.5658  12.7478  12.7887  12.9248
    13.0701  13.2403  13.3691  13.5432  13.7075  13.7730  13.9020  13.9847
    14.3426  14.5096  14.5564  15.0156  15.2767  15.5333  15.5570  16.1582
    16.5115  16.8700  17.1399  17.3431  17.4589

          k = 0.0000 0.0000 0.3333 ( 62268 PWs)   bands (ev):

   -66.1597 -66.1592 -66.1587 -66.1582 -66.1580 -66.1575 -66.1570 -66.1565
   -30.6020 -30.5989 -30.5859 -30.5808 -30.5363 -30.5293 -30.5285 -30.5231
   -30.5171 -30.5140 -30.4979 -30.4921 -30.4670 -30.4630 -30.4594 -30.4536
   -30.4524 -30.4465 -30.4264 -30.4239 -30.4033 -30.4010 -30.3993 -30.3970
   -20.3151 -20.3150 -20.3149 -20.3148 -20.3131 -20.3129 -20.3128 -20.3127
   -20.2952 -20.2950 -20.2947 -20.2945 -20.2920 -20.2918 -20.2916 -20.2913
   -20.2913 -20.2910 -20.2902 -20.2900 -20.2892 -20.2890 -20.2882 -20.2879
   -20.2869 -20.2865 -20.2864 -20.2861 -20.2859 -20.2857 -20.2828 -20.2823
   -20.2818 -20.2815 -20.2814 -20.2810 -20.2805 -20.2803 -20.2799 -20.2790
   -20.2785 -20.2781 -20.2771 -20.2763 -20.2753 -20.2733 -20.2731 -20.2728
   -20.2724 -20.2714 -20.2708 -20.2703 -20.2701 -20.2698 -20.2671 -20.2665
    -9.8651  -9.6596  -9.6556  -9.4494  -9.3084  -9.0884  -9.0406  -8.9910
    -8.8722  -8.7454  -8.6872  -8.6637  -8.3710  -8.2938  -8.2512  -8.1764
    -7.8711  -7.8204  -7.7448  -7.6933  -7.6428  -7.6124  -7.5830  -7.5562
     1.0805   1.0871   1.1830   1.1866   1.7444   1.7644   1.8156   1.8300
     2.0707   2.1728   2.2460   2.3695   2.5333   2.6113   2.6542   2.7243
     2.9568   3.0712   3.5427   3.6409   3.9205   3.9236   4.1817   4.1964
     4.2607   4.4265   4.4404   4.6192   4.7470   4.8059   4.8207   4.8927
     5.0872   5.1318   5.2199   5.3045   5.3706   5.3912   5.7047   5.7787
     5.8140   5.9079   5.9399   5.9605   6.0446   6.0789   6.1862   6.2021
     6.2475   6.3580   6.3718   6.4576   6.5325   6.6203   6.6684   6.7651
     6.7951   6.9598   6.9728   7.0191   7.0340   7.0506   7.0764   7.0908
     7.2648   7.3369   7.7329   7.7413   7.9471   7.9922   8.1174   8.1377
     9.8448   9.8593  10.4356  10.5287  10.7971  10.8763  11.9329  12.0458
    12.1689  12.4213  12.4588  12.4941  12.6345  12.6708  12.7581  12.8463
    12.9061  13.2730  13.2822  13.3267  13.5460  13.6870  13.7793  13.8499
    14.4096  14.5363  14.7424  15.1816  15.2971  15.7421  16.0375  16.0556
    16.3407  17.3936  17.5304  17.6881  17.7022

          k = 0.0000 0.0000-0.5000 ( 62264 PWs)   bands (ev):

   -66.1595 -66.1595 -66.1585 -66.1584 -66.1578 -66.1578 -66.1568 -66.1568
   -30.6004 -30.6004 -30.5603 -30.5603 -30.5551 -30.5551 -30.5267 -30.5266
   -30.5028 -30.5028 -30.4899 -30.4899 -30.4808 -30.4808 -30.4572 -30.4572
   -30.4513 -30.4513 -30.4252 -30.4251 -30.4021 -30.4021 -30.3981 -30.3981
   -20.3150 -20.3150 -20.3149 -20.3149 -20.3130 -20.3130 -20.3127 -20.3127
   -20.2951 -20.2951 -20.2946 -20.2946 -20.2919 -20.2919 -20.2915 -20.2915
   -20.2912 -20.2911 -20.2896 -20.2896 -20.2895 -20.2895 -20.2881 -20.2881
   -20.2867 -20.2867 -20.2863 -20.2863 -20.2858 -20.2858 -20.2822 -20.2822
   -20.2817 -20.2817 -20.2809 -20.2809 -20.2802 -20.2802 -20.2797 -20.2797
   -20.2783 -20.2783 -20.2767 -20.2767 -20.2748 -20.2748 -20.2730 -20.2729
   -20.2717 -20.2717 -20.2709 -20.2709 -20.2701 -20.2701 -20.2668 -20.2668
    -9.7415  -9.7414  -9.5275  -9.5275  -9.0233  -9.0233  -8.8376  -8.8376
    -8.7223  -8.7223  -8.7028  -8.7028  -8.5818  -8.5818  -8.5181  -8.5181
    -7.8462  -7.8462  -7.7190  -7.7190  -7.6278  -7.6278  -7.5698  -7.5698
     1.0888   1.0888   1.1934   1.1934   1.8023   1.8023   1.8101   1.8101
     2.6687   2.6687   2.8685   2.8685   2.9610   2.9610   3.0647   3.0647
     3.1122   3.1122   3.1803   3.1803   3.3890   3.3890   3.7227   3.7227
     3.8257   3.8257   4.3471   4.3471   4.6999   4.6999   4.9146   4.9146
     5.0907   5.0907   5.1865   5.1865   5.2700   5.2700   5.8007   5.8007
     5.8737   5.8737   5.9906   5.9906   6.0614   6.0614   6.1977   6.1977
     6.2363   6.2363   6.3208   6.3208   6.4747   6.4747   6.6612   6.6612
     6.8330   6.8330   6.9984   6.9984   7.0816   7.0817   7.4424   7.4424
     7.4696   7.4697   7.6783   7.6784   7.7350   7.7350   8.1304   8.1304
     9.8545   9.8545  11.2332  11.2332  11.3476  11.3477  11.5550  11.5550
    11.6912  11.6912  12.5070  12.5070  12.7247  12.7247  12.9386  12.9386
    13.0432  13.0432  13.1900  13.1900  13.4026  13.4026  13.8014  13.8014
    14.4930  14.4930  15.0048  15.0048  15.7119  15.7119  15.9839  15.9839
    16.8354  16.8354  17.9363  17.9365  18.0890

          k = 0.0000 0.1575 0.0000 ( 62231 PWs)   bands (ev):

   -66.1600 -66.1590 -66.1589 -66.1583 -66.1580 -66.1573 -66.1573 -66.1563
   -30.6116 -30.6063 -30.6036 -30.5974 -30.5393 -30.5383 -30.5301 -30.5263
   -30.5054 -30.5034 -30.4958 -30.4954 -30.4575 -30.4538 -30.4520 -30.4495
   -30.4355 -30.4294 -30.4276 -30.4226 -30.4084 -30.4042 -30.4037 -30.3996
   -20.3152 -20.3150 -20.3148 -20.3147 -20.3132 -20.3129 -20.3128 -20.3126
   -20.2952 -20.2948 -20.2948 -20.2944 -20.2921 -20.2916 -20.2916 -20.2913
   -20.2911 -20.2910 -20.2909 -20.2908 -20.2887 -20.2886 -20.2882 -20.2877
   -20.2867 -20.2862 -20.2860 -20.2860 -20.2857 -20.2857 -20.2837 -20.2830
   -20.2823 -20.2820 -20.2816 -20.2816 -20.2814 -20.2804 -20.2800 -20.2796
   -20.2795 -20.2777 -20.2760 -20.2759 -20.2741 -20.2733 -20.2729 -20.2726
   -20.2720 -20.2719 -20.2706 -20.2697 -20.2695 -20.2690 -20.2674 -20.2662
   -10.0281  -9.8589  -9.6226  -9.5871  -9.4410  -9.3990  -9.2044  -9.1899
    -8.7423  -8.6635  -8.6624  -8.6621  -7.9282  -7.8943  -7.8067  -7.8006
    -7.7865  -7.7700  -7.7403  -7.6915  -7.6891  -7.6767  -7.6627  -7.6436
     0.9275   0.9449   1.0257   1.0862   1.1175   1.1773   1.3707   1.4138
     2.0068   2.0647   2.0803   2.1688   2.1942   2.2629   2.6528   2.7213
     2.8213   2.8250   3.9699   4.0084   4.0335   4.0800   4.4925   4.5066
     4.5606   4.5801   4.7164   5.1390   5.1565   5.1759   5.2157   5.3304
     5.3506   5.4657   5.4871   5.5798   5.6152   5.6226   5.6450   5.6983
     5.7418   5.8312   5.8763   5.9654   5.9840   6.0249   6.0630   6.0787
     6.0797   6.3022   6.3738   6.4416   6.5216   6.6795   6.8467   6.8709
     6.8768   6.8886   6.9954   7.0131   7.0463   7.0573   7.0668   7.0717
     7.2112   7.2577   7.8698   7.8852   8.0400   8.0534   8.0865   8.1185
     9.4205   9.4423  10.0538  10.0591  10.0922  10.0936  12.0972  12.1804
    12.2433  12.3400  12.4647  12.4773  12.6951  12.7036  12.7972  13.0423
    13.2407  13.2996  13.3244  13.5851  13.7909  13.8120  13.9310  14.0300
    14.4573  14.6803  14.7403  14.9934  15.4642  15.4775  15.7109  16.1489
    16.1536  16.6914  17.2269  17.2597  17.4324

          k = 0.0000 0.1575 0.1667 ( 62237 PWs)   bands (ev):

   -66.1599 -66.1591 -66.1589 -66.1582 -66.1580 -66.1573 -66.1572 -66.1563
   -30.6048 -30.6030 -30.5995 -30.5978 -30.5332 -30.5317 -30.5296 -30.5274
   -30.5117 -30.5102 -30.4961 -30.4951 -30.4571 -30.4554 -30.4516 -30.4515
   -30.4410 -30.4349 -30.4273 -30.4230 -30.4081 -30.4040 -30.4038 -30.3999
   -20.3152 -20.3150 -20.3148 -20.3147 -20.3131 -20.3129 -20.3128 -20.3126
   -20.2952 -20.2949 -20.2948 -20.2944 -20.2921 -20.2917 -20.2916 -20.2913
   -20.2912 -20.2908 -20.2908 -20.2906 -20.2888 -20.2887 -20.2882 -20.2878
   -20.2867 -20.2862 -20.2861 -20.2859 -20.2858 -20.2856 -20.2834 -20.2828
   -20.2821 -20.2819 -20.2817 -20.2816 -20.2812 -20.2801 -20.2799 -20.2797
   -20.2794 -20.2773 -20.2767 -20.2761 -20.2744 -20.2732 -20.2728 -20.2726
   -20.2723 -20.2718 -20.2705 -20.2700 -20.2696 -20.2693 -20.2673 -20.2663
    -9.9732  -9.8010  -9.6008  -9.5333  -9.4118  -9.3491  -9.1637  -9.1493
    -8.7542  -8.6689  -8.6572  -8.6539  -8.0480  -7.9458  -7.9251  -7.9006
    -7.8199  -7.8069  -7.7667  -7.7363  -7.6951  -7.6863  -7.6688  -7.6442
     1.0253   1.0776   1.0866   1.1803   1.2967   1.3893   1.5117   1.5842
     2.0095   2.0646   2.0763   2.1839   2.2812   2.3528   2.6845   2.7907
     2.8134   2.9131   3.9826   3.9928   4.0622   4.0704   4.1935   4.2171
     4.5639   4.5967   4.6658   4.7878   4.8946   5.1594   5.1824   5.1889
     5.2921   5.3283   5.4229   5.4411   5.5233   5.5611   5.6450   5.6969
     5.7860   5.7976   5.8574   5.9457   6.0083   6.0246   6.0522   6.0775
     6.2161   6.2766   6.4777   6.5181   6.7146   6.7346   6.7850   6.8215
     6.8601   6.8830   6.8938   6.9376   6.9599   6.9957   7.0518   7.0670
     7.0802   7.1536   7.8494   7.8598   8.0427   8.0479   8.0509   8.0966
     9.7354   9.7650  10.0608  10.0991  10.2989  10.3406  12.1623  12.1691
    12.2783  12.3646  12.3716  12.5365  12.5635  12.7464  12.8194  12.9591
    13.0750  13.2451  13.3600  13.5422  13.7666  13.7924  13.8667  13.9410
    14.4950  14.7267  14.7968  15.1035  15.5276  15.5580  15.6843  16.1245
    16.4772  16.8440  16.9724  17.4254  17.5161

          k = 0.0000 0.1575 0.3333 ( 62284 PWs)   bands (ev):

   -66.1597 -66.1592 -66.1587 -66.1582 -66.1580 -66.1575 -66.1570 -66.1565
   -30.6020 -30.5989 -30.5859 -30.5807 -30.5363 -30.5292 -30.5285 -30.5230
   -30.5172 -30.5140 -30.4979 -30.4919 -30.4662 -30.4616 -30.4558 -30.4502
   -30.4499 -30.4442 -30.4264 -30.4239 -30.4071 -30.4047 -30.4030 -30.4007
   -20.3151 -20.3150 -20.3149 -20.3148 -20.3131 -20.3129 -20.3128 -20.3127
   -20.2952 -20.2950 -20.2947 -20.2945 -20.2920 -20.2917 -20.2916 -20.2913
   -20.2913 -20.2910 -20.2902 -20.2900 -20.2891 -20.2890 -20.2882 -20.2879
   -20.2866 -20.2863 -20.2862 -20.2860 -20.2858 -20.2856 -20.2828 -20.2824
   -20.2820 -20.2817 -20.2816 -20.2811 -20.2807 -20.2803 -20.2800 -20.2790
   -20.2785 -20.2781 -20.2771 -20.2763 -20.2753 -20.2733 -20.2731 -20.2728
   -20.2724 -20.2714 -20.2708 -20.2703 -20.2701 -20.2698 -20.2671 -20.2665
    -9.8458  -9.6639  -9.6438  -9.4529  -9.2869  -9.0894  -9.0395  -8.9899
    -8.8052  -8.6955  -8.6375  -8.6177  -8.3704  -8.2952  -8.2508  -8.1760
    -7.8740  -7.8250  -7.7502  -7.7252  -7.7080  -7.6858  -7.6786  -7.6532
     1.0817   1.0881   1.1845   1.1882   1.9069   1.9281   2.0253   2.0554
     2.0912   2.2159   2.2503   2.4159   2.5407   2.6104   2.7174   2.7937
     3.0333   3.1377   3.5443   3.6364   3.8697   3.9014   4.0792   4.0945
     4.2425   4.3374   4.4382   4.5653   4.6584   4.6852   4.7529   4.8702
     5.0261   5.0697   5.1930   5.2534   5.3250   5.3988   5.4542   5.7543
     5.8002   5.8501   5.8927   5.9072   5.9890   6.0231   6.1033   6.1447
     6.2644   6.3506   6.4497   6.5050   6.5398   6.6868   6.7321   6.7960
     6.8289   6.8895   6.9450   6.9585   7.0206   7.0323   7.0642   7.1343
     7.2756   7.3399   7.7371   7.7392   7.9209   7.9499   8.0645   8.0779
    10.0512  10.0638  10.4462  10.5379  10.8980  10.9632  11.9291  12.0379
    12.1428  12.3081  12.3938  12.4606  12.5377  12.6112  12.7282  12.8720
    12.8960  13.2634  13.2731  13.3007  13.4567  13.6516  13.7989  13.8750
    14.6084  14.7144  15.0889  15.3617  15.5864  15.7383  16.0373  16.0653
    16.4239  17.2998  17.3476  17.5928  17.7715

          k = 0.0000 0.1575-0.5000 ( 62234 PWs)   bands (ev):

   -66.1595 -66.1595 -66.1584 -66.1584 -66.1578 -66.1578 -66.1568 -66.1568
   -30.6004 -30.6004 -30.5603 -30.5603 -30.5550 -30.5550 -30.5267 -30.5267
   -30.5027 -30.5027 -30.4898 -30.4898 -30.4804 -30.4804 -30.4537 -30.4537
   -30.4481 -30.4481 -30.4252 -30.4252 -30.4059 -30.4059 -30.4018 -30.4018
   -20.3150 -20.3150 -20.3149 -20.3149 -20.3130 -20.3130 -20.3127 -20.3127
   -20.2951 -20.2951 -20.2946 -20.2946 -20.2919 -20.2919 -20.2915 -20.2915
   -20.2911 -20.2911 -20.2895 -20.2895 -20.2895 -20.2895 -20.2881 -20.2881
   -20.2865 -20.2865 -20.2861 -20.2861 -20.2857 -20.2857 -20.2824 -20.2824
   -20.2820 -20.2820 -20.2809 -20.2809 -20.2803 -20.2803 -20.2797 -20.2797
   -20.2783 -20.2783 -20.2768 -20.2767 -20.2748 -20.2748 -20.2730 -20.2729
   -20.2717 -20.2717 -20.2709 -20.2709 -20.2701 -20.2701 -20.2668 -20.2668
    -9.7237  -9.7237  -9.5331  -9.5331  -8.9781  -8.9781  -8.8177  -8.8177
    -8.7168  -8.7167  -8.7021  -8.7021  -8.5572  -8.5572  -8.4969  -8.4969
    -7.8500  -7.8500  -7.7280  -7.7280  -7.7067  -7.7067  -7.6662  -7.6662
     1.0901   1.0901   1.1953   1.1953   1.9879   1.9879   2.0570   2.0570
     2.7330   2.7330   2.8750   2.8750   2.9600   2.9600   3.0722   3.0722
     3.1143   3.1143   3.2044   3.2044   3.3920   3.3920   3.7462   3.7462
     3.8824   3.8824   4.1807   4.1807   4.5407   4.5407   4.7649   4.7649
     5.0750   5.0750   5.1663   5.1663   5.2584   5.2584   5.5637   5.5637
     5.8364   5.8364   5.9470   5.9470   6.0158   6.0158   6.1245   6.1245
     6.2723   6.2723   6.3898   6.3898   6.4847   6.4847   6.7963   6.7963
     6.8869   6.8869   6.9230   6.9230   7.0305   7.0305   7.4552   7.4552
     7.4673   7.4673   7.6692   7.6692   7.7139   7.7139   8.0736   8.0736
    10.0635  10.0635  11.2383  11.2383  11.3520  11.3520  11.6144  11.6144
    11.7426  11.7426  12.3572  12.3572  12.7115  12.7115  12.8551  12.8551
    13.0375  13.0375  13.1189  13.1189  13.3897  13.3897  13.8197  13.8197
    14.6821  14.6821  15.3745  15.3745  15.7902  15.7902  15.9826  15.9826
    16.8813  16.8813  17.7353  17.7353  18.1065

          k = 0.0000 0.3150 0.0000 ( 62175 PWs)   bands (ev):

   -66.1600 -66.1590 -66.1589 -66.1583 -66.1579 -66.1573 -66.1573 -66.1563
   -30.6115 -30.6063 -30.6036 -30.5974 -30.5392 -30.5383 -30.5301 -30.5263
   -30.5052 -30.5031 -30.4955 -30.4954 -30.4472 -30.4456 -30.4424 -30.4415
   -30.4342 -30.4284 -30.4277 -30.4226 -30.4187 -30.4143 -30.4136 -30.4092
   -20.3152 -20.3150 -20.3148 -20.3147 -20.3132 -20.3129 -20.3128 -20.3126
   -20.2952 -20.2948 -20.2948 -20.2944 -20.2920 -20.2916 -20.2915 -20.2912
   -20.2912 -20.2911 -20.2909 -20.2908 -20.2885 -20.2885 -20.2882 -20.2879
   -20.2860 -20.2859 -20.2857 -20.2856 -20.2853 -20.2851 -20.2837 -20.2829
   -20.2828 -20.2826 -20.2823 -20.2822 -20.2818 -20.2804 -20.2802 -20.2797
   -20.2795 -20.2777 -20.2760 -20.2759 -20.2741 -20.2733 -20.2729 -20.2726
   -20.2720 -20.2719 -20.2706 -20.2697 -20.2696 -20.2690 -20.2674 -20.2662
    -9.9827  -9.8862  -9.5978  -9.5589  -9.4452  -9.4045  -9.2020  -9.1917
    -8.5477  -8.4998  -8.4986  -8.4968  -8.0170  -7.9532  -7.9453  -7.9090
    -7.8976  -7.8753  -7.7901  -7.7863  -7.7773  -7.7695  -7.6814  -7.6675
     0.9275   0.9442   1.0257   1.0868   1.1177   1.1783   1.3942   1.4163
     2.2036   2.2466   2.5371   2.6538   2.6850   2.7924   2.8553   2.9870
     3.0281   3.0560   3.5980   3.6400   3.6667   3.7089   4.1990   4.4761
     4.4975   4.5317   4.5493   4.6238   4.6611   4.8857   5.2577   5.2740
     5.2928   5.3248   5.4220   5.4262   5.6166   5.6779   5.6909   5.6986
     5.7465   5.8216   5.8468   6.0066   6.0152   6.0208   6.0351   6.0604
     6.1244   6.2095   6.3046   6.4706   6.4953   6.5263   6.7278   6.7506
     6.7897   6.8776   7.0076   7.0429   7.1771   7.1868   7.1925   7.1935
     7.2366   7.2757   7.8309   7.8710   7.8937   7.9074   7.9119   7.9172
     9.4332   9.4437  10.5257  10.5662  10.5837  10.6281  11.7168  11.7932
    11.8199  11.9042  12.4783  12.4901  12.7028  12.7121  12.8773  13.0626
    13.3033  13.3401  13.3649  13.5866  13.6654  13.7517  13.7842  13.8767
    15.0424  15.2457  15.2662  15.3917  15.4575  15.5017  16.0262  16.0426
    16.1663  16.6881  17.0716  17.6028  17.6431

          k = 0.0000 0.3150 0.1667 ( 62260 PWs)   bands (ev):

   -66.1599 -66.1590 -66.1589 -66.1582 -66.1580 -66.1573 -66.1572 -66.1564
   -30.6047 -30.6031 -30.5994 -30.5977 -30.5332 -30.5317 -30.5297 -30.5274
   -30.5116 -30.5100 -30.4960 -30.4947 -30.4490 -30.4468 -30.4452 -30.4419
   -30.4375 -30.4321 -30.4273 -30.4230 -30.4184 -30.4141 -30.4138 -30.4096
   -20.3152 -20.3150 -20.3148 -20.3147 -20.3131 -20.3129 -20.3128 -20.3126
   -20.2952 -20.2949 -20.2948 -20.2944 -20.2919 -20.2917 -20.2916 -20.2913
   -20.2912 -20.2908 -20.2908 -20.2906 -20.2886 -20.2886 -20.2882 -20.2879
   -20.2860 -20.2860 -20.2857 -20.2855 -20.2854 -20.2851 -20.2835 -20.2830
   -20.2825 -20.2824 -20.2823 -20.2822 -20.2816 -20.2803 -20.2799 -20.2798
   -20.2794 -20.2773 -20.2767 -20.2761 -20.2744 -20.2732 -20.2728 -20.2727
   -20.2723 -20.2718 -20.2705 -20.2700 -20.2697 -20.2693 -20.2673 -20.2663
    -9.9267  -9.8285  -9.5717  -9.5054  -9.4180  -9.3531  -9.1615  -9.1509
    -8.5585  -8.5077  -8.4967  -8.4912  -8.0669  -8.0005  -7.9677  -7.9626
    -7.9303  -7.9019  -7.8929  -7.8681  -7.8074  -7.7839  -7.7634  -7.6743
     1.0254   1.0772   1.0875   1.1815   1.2987   1.3916   1.5463   1.5903
     2.2930   2.3364   2.5427   2.6378   2.6797   2.7866   2.8891   3.0135
     3.0571   3.1473   3.6393   3.6584   3.7004   3.7085   4.1534   4.1820
     4.2315   4.5272   4.5602   4.5807   4.6724   4.8860   4.9081   5.0194
     5.1494   5.2859   5.3203   5.3424   5.4235   5.4521   5.6328   5.6593
     5.7374   5.7733   5.8182   5.8559   5.9834   5.9989   6.0190   6.0886
     6.1958   6.3032   6.4098   6.5052   6.5613   6.7166   6.7558   6.8519
     6.8619   6.8994   6.9234   6.9413   6.9955   7.0618   7.1867   7.2106
     7.2253   7.2452   7.8170   7.8516   7.8839   7.8867   7.8930   7.9085
     9.7505   9.7785  10.5701  10.6094  10.7068  10.7742  11.7910  11.8040
    11.8607  11.9515  12.3706  12.5439  12.5653  12.7528  12.9057  13.0325
    13.1522  13.3048  13.3092  13.4802  13.5905  13.6653  13.7649  13.8491
    15.1214  15.2459  15.4156  15.4766  15.5584  15.5975  16.0051  16.3243
    16.3561  16.6584  17.1403  17.3059  17.6952

          k = 0.0000 0.3150 0.3333 ( 62269 PWs)   bands (ev):

   -66.1597 -66.1592 -66.1587 -66.1582 -66.1580 -66.1575 -66.1571 -66.1565
   -30.6019 -30.5988 -30.5858 -30.5807 -30.5362 -30.5291 -30.5285 -30.5230
   -30.5172 -30.5139 -30.4978 -30.4915 -30.4650 -30.4593 -30.4456 -30.4415
   -30.4408 -30.4366 -30.4264 -30.4239 -30.4174 -30.4148 -30.4130 -30.4105
   -20.3151 -20.3150 -20.3149 -20.3148 -20.3131 -20.3129 -20.3128 -20.3127
   -20.2952 -20.2950 -20.2947 -20.2945 -20.2919 -20.2917 -20.2916 -20.2913
   -20.2913 -20.2910 -20.2901 -20.2900 -20.2890 -20.2889 -20.2881 -20.2880
   -20.2860 -20.2859 -20.2858 -20.2856 -20.2854 -20.2852 -20.2832 -20.2829
   -20.2826 -20.2824 -20.2819 -20.2813 -20.2810 -20.2804 -20.2801 -20.2790
   -20.2785 -20.2782 -20.2771 -20.2763 -20.2753 -20.2733 -20.2731 -20.2728
   -20.2724 -20.2714 -20.2708 -20.2703 -20.2701 -20.2698 -20.2671 -20.2665
    -9.8005  -9.6874  -9.6115  -9.4615  -9.2454  -9.0922  -9.0378  -8.9883
    -8.6228  -8.5524  -8.4863  -8.4702  -8.3680  -8.3055  -8.2461  -8.1726
    -7.9791  -7.9540  -7.9216  -7.8940  -7.8529  -7.8025  -7.7447  -7.6930
     1.0827   1.0890   1.1860   1.1897   2.0235   2.1118   2.1679   2.2587
     2.5403   2.5663   2.5974   2.6222   2.6881   2.7949   2.9270   2.9991
     3.2691   3.3405   3.5323   3.6112   3.6819   3.6859   3.7476   3.8079
     4.1249   4.2905   4.3716   4.4284   4.4840   4.5477   4.6073   4.6442
     4.8057   4.8925   4.9501   5.0491   5.2262   5.2919   5.3227   5.3484
     5.4555   5.5225   5.7777   5.8897   6.0030   6.0486   6.1171   6.1714
     6.2967   6.4305   6.4952   6.5118   6.5691   6.6339   6.6995   6.7506
     6.8822   6.9631   7.0546   7.0570   7.1307   7.1695   7.1953   7.2633
     7.3168   7.3680   7.7182   7.7437   7.7999   7.8077   7.8835   7.8990
    10.4250  10.4899  10.5839  10.6612  11.1855  11.2503  11.7695  11.8754
    11.9681  12.0715  12.1184  12.1915  12.5825  12.6210  12.7154  12.8849
    12.9479  13.0621  13.2255  13.2879  13.3217  13.6171  13.6687  13.7691
    15.1858  15.2343  15.6074  15.7862  15.9057  15.9689  16.1750  16.5536
    16.7239  16.8294  17.1757  17.4238  17.7433

          k = 0.0000 0.3150-0.5000 ( 62306 PWs)   bands (ev):

   -66.1595 -66.1595 -66.1584 -66.1584 -66.1578 -66.1578 -66.1568 -66.1568
   -30.6004 -30.6003 -30.5602 -30.5602 -30.5550 -30.5550 -30.5267 -30.5267
   -30.5027 -30.5027 -30.4895 -30.4895 -30.4797 -30.4797 -30.4439 -30.4439
   -30.4390 -30.4390 -30.4252 -30.4252 -30.4161 -30.4161 -30.4117 -30.4117
   -20.3150 -20.3150 -20.3149 -20.3149 -20.3130 -20.3130 -20.3127 -20.3127
   -20.2951 -20.2951 -20.2946 -20.2946 -20.2918 -20.2918 -20.2915 -20.2915
   -20.2911 -20.2911 -20.2895 -20.2895 -20.2894 -20.2894 -20.2881 -20.2881
   -20.2860 -20.2859 -20.2858 -20.2858 -20.2853 -20.2853 -20.2829 -20.2828
   -20.2826 -20.2826 -20.2810 -20.2810 -20.2806 -20.2806 -20.2798 -20.2798
   -20.2783 -20.2783 -20.2768 -20.2767 -20.2748 -20.2748 -20.2730 -20.2730
   -20.2717 -20.2717 -20.2709 -20.2709 -20.2701 -20.2701 -20.2668 -20.2668
    -9.6854  -9.6854  -9.5475  -9.5475  -8.8840  -8.8839  -8.7860  -8.7860
    -8.7118  -8.7118  -8.6944  -8.6944  -8.4503  -8.4503  -8.4065  -8.4065
    -7.9684  -7.9684  -7.9102  -7.9102  -7.8279  -7.8278  -7.7187  -7.7187
     1.0913   1.0913   1.1971   1.1972   2.5244   2.5244   2.6496   2.6496
     2.8864   2.8864   2.9036   2.9036   2.9778   2.9778   3.0971   3.0971
     3.1261   3.1261   3.2614   3.2614   3.4039   3.4039   3.6644   3.6644
     4.0034   4.0034   4.0415   4.0415   4.1648   4.1648   4.3585   4.3585
     4.9052   4.9053   5.0427   5.0427   5.1017   5.1017   5.2118   5.2118
     5.4042   5.4042   5.8525   5.8525   6.0976   6.0976   6.1314   6.1314
     6.3360   6.3360   6.4625   6.4625   6.4969   6.4969   6.6730   6.6730
     7.1078   7.1078   7.1250   7.1250   7.1543   7.1543   7.4491   7.4491
     7.4876   7.4876   7.6136   7.6136   7.6391   7.6391   7.8904   7.8904
    10.5806  10.5806  11.2473  11.2473  11.3592  11.3592  11.7144  11.7144
    11.9144  11.9144  12.0379  12.0379  12.5439  12.5439  12.6023  12.6023
    12.9702  12.9702  13.0905  13.0905  13.4072  13.4072  13.6921  13.6921
    15.2143  15.2143  15.7994  15.7994  16.1866  16.1866  16.3493  16.3493
    17.0350  17.0350  17.3367  17.3367  17.9762

          k = 0.0000-0.4725 0.0000 ( 62212 PWs)   bands (ev):

   -66.1600 -66.1590 -66.1589 -66.1583 -66.1579 -66.1573 -66.1573 -66.1563
   -30.6115 -30.6063 -30.6036 -30.5973 -30.5392 -30.5383 -30.5302 -30.5263
   -30.5051 -30.5029 -30.4954 -30.4953 -30.4408 -30.4363 -30.4341 -30.4321
   -30.4311 -30.4283 -30.4267 -30.4264 -30.4247 -30.4247 -30.4207 -30.4200
   -20.3152 -20.3150 -20.3148 -20.3147 -20.3132 -20.3129 -20.3128 -20.3126
   -20.2952 -20.2948 -20.2948 -20.2944 -20.2919 -20.2916 -20.2915 -20.2912
   -20.2912 -20.2912 -20.2909 -20.2908 -20.2885 -20.2883 -20.2881 -20.2880
   -20.2860 -20.2857 -20.2854 -20.2851 -20.2848 -20.2846 -20.2838 -20.2833
   -20.2830 -20.2830 -20.2829 -20.2826 -20.2820 -20.2804 -20.2803 -20.2797
   -20.2795 -20.2777 -20.2760 -20.2759 -20.2741 -20.2733 -20.2729 -20.2726
   -20.2720 -20.2719 -20.2706 -20.2696 -20.2696 -20.2690 -20.2674 -20.2662
    -9.9337  -9.9262  -9.5854  -9.5447  -9.4477  -9.4078  -9.2004  -9.1932
    -8.2848  -8.2828  -8.2460  -8.2419  -8.2392  -8.2369  -8.2260  -8.2246
    -7.9029  -7.8880  -7.7934  -7.7864  -7.7809  -7.7706  -7.6818  -7.6682
     0.9274   0.9438   1.0256   1.0870   1.1178   1.1786   1.3994   1.4180
     2.2244   2.2260   3.0447   3.0698   3.1216   3.1496   3.2469   3.2798
     3.3368   3.3756   3.4413   3.4468   3.6094   3.6265   3.7515   3.7648
     3.8633   3.8663   4.5027   4.5116   4.5570   4.5703   5.3249   5.3554
     5.3682   5.3942   5.4694   5.4864   5.5326   5.5334   5.7679   5.7837
     5.7965   5.8010   5.8691   5.8902   5.9847   5.9854   6.0513   6.0515
     6.1310   6.2008   6.2520   6.2846   6.5089   6.5273   6.6257   6.6471
     6.8282   6.8317   7.0116   7.0471   7.2081   7.2484   7.4889   7.4952
     7.5471   7.5574   7.5890   7.5953   7.6245   7.6397   7.8850   7.8899
     9.4382   9.4432  11.0689  11.1375  11.1394  11.1955  11.2127  11.2733
    11.3141  11.3647  12.4832  12.4956  12.7062  12.7164  12.9822  12.9999
    13.4430  13.4529  13.4634  13.4848  13.5243  13.5313  13.7520  13.7749
    15.3873  15.4485  15.6172  15.6601  15.6786  15.6863  15.8263  15.8534
    16.2884  16.2892  17.8508  17.8517  17.9550

          k = 0.0000-0.4725 0.1667 ( 62246 PWs)   bands (ev):

   -66.1599 -66.1590 -66.1588 -66.1582 -66.1580 -66.1573 -66.1572 -66.1564
   -30.6046 -30.6031 -30.5994 -30.5977 -30.5332 -30.5317 -30.5297 -30.5274
   -30.5115 -30.5099 -30.4959 -30.4946 -30.4468 -30.4421 -30.4337 -30.4317
   -30.4308 -30.4279 -30.4275 -30.4268 -30.4252 -30.4245 -30.4214 -30.4210
   -20.3152 -20.3150 -20.3148 -20.3147 -20.3131 -20.3129 -20.3128 -20.3126
   -20.2952 -20.2949 -20.2948 -20.2944 -20.2919 -20.2917 -20.2915 -20.2913
   -20.2912 -20.2908 -20.2908 -20.2906 -20.2886 -20.2884 -20.2881 -20.2880
   -20.2860 -20.2857 -20.2854 -20.2851 -20.2849 -20.2847 -20.2837 -20.2834
   -20.2830 -20.2828 -20.2827 -20.2824 -20.2817 -20.2803 -20.2799 -20.2798
   -20.2794 -20.2774 -20.2767 -20.2761 -20.2744 -20.2732 -20.2728 -20.2727
   -20.2723 -20.2718 -20.2705 -20.2700 -20.2697 -20.2693 -20.2673 -20.2663
    -9.8776  -9.8681  -9.5569  -9.4917  -9.4218  -9.3556  -9.1600  -9.1521
    -8.2920  -8.2872  -8.2564  -8.2559  -8.2398  -8.2350  -8.2331  -8.2296
    -8.0253  -7.9255  -7.9160  -7.8821  -7.8133  -7.7878  -7.7644  -7.6750
     1.0254   1.0770   1.0877   1.1818   1.2991   1.3922   1.5531   1.5933
     2.3136   2.3164   3.0666   3.0701   3.1596   3.1700   3.2733   3.2906
     3.3685   3.3946   3.4384   3.4388   3.6089   3.6675   3.7513   3.7825
     3.8838   3.8869   4.1964   4.1984   4.5682   4.5862   5.0280   5.0894
     5.2270   5.2519   5.3138   5.3372   5.4910   5.5096   5.5355   5.5569
     5.7345   5.7407   5.7611   5.7999   5.8996   5.9934   6.0391   6.1047
     6.2350   6.3361   6.3501   6.4162   6.5091   6.6264   6.7676   6.8607
     6.8793   6.9041   6.9350   6.9462   6.9980   7.0903   7.4846   7.5002
     7.5388   7.5537   7.5913   7.5978   7.6163   7.6312   7.8650   7.8671
     9.7538   9.7824  11.1377  11.1898  11.1953  11.2604  11.2717  11.3335
    11.3742  11.4320  12.3731  12.5489  12.5673  12.7570  13.0187  13.0275
    13.3089  13.3369  13.3438  13.3678  13.4534  13.4628  13.7451  13.7713
    15.3826  15.5075  15.6491  15.7668  15.8073  15.8922  15.9793  16.1137
    16.3527  16.3651  17.7234  17.8174  17.8534

          k = 0.0000-0.4725 0.3333 ( 62268 PWs)   bands (ev):

   -66.1597 -66.1592 -66.1587 -66.1582 -66.1581 -66.1575 -66.1571 -66.1565
   -30.6019 -30.5988 -30.5858 -30.5807 -30.5362 -30.5291 -30.5285 -30.5230
   -30.5172 -30.5139 -30.4977 -30.4913 -30.4646 -30.4585 -30.4327 -30.4308
   -30.4301 -30.4288 -30.4279 -30.4269 -30.4264 -30.4238 -30.4235 -30.4217
   -20.3151 -20.3150 -20.3149 -20.3148 -20.3131 -20.3129 -20.3128 -20.3127
   -20.2951 -20.2949 -20.2947 -20.2945 -20.2918 -20.2917 -20.2916 -20.2914
   -20.2913 -20.2910 -20.2901 -20.2900 -20.2890 -20.2888 -20.2881 -20.2881
   -20.2860 -20.2858 -20.2854 -20.2851 -20.2849 -20.2847 -20.2835 -20.2833
   -20.2832 -20.2829 -20.2820 -20.2813 -20.2812 -20.2805 -20.2802 -20.2790
   -20.2785 -20.2782 -20.2771 -20.2763 -20.2753 -20.2733 -20.2731 -20.2728
   -20.2724 -20.2714 -20.2708 -20.2703 -20.2701 -20.2698 -20.2671 -20.2665
    -9.7671  -9.7100  -9.5946  -9.4671  -9.2256  -9.0941  -9.0370  -8.9877
    -8.4496  -8.4064  -8.3679  -8.3542  -8.2522  -8.2457  -8.2270  -8.2234
    -8.1954  -8.1602  -8.1419  -8.0903  -7.8587  -7.8068  -7.7455  -7.6938
     1.0829   1.0892   1.1864   1.1901   2.0320   2.1182   2.2003   2.2663
     2.5740   2.5744   3.0618   3.0950   3.2101   3.2484   3.3143   3.3290
     3.3371   3.3981   3.4335   3.5131   3.5765   3.6272   3.6441   3.7196
     3.7968   3.8451   3.9055   3.9293   4.4189   4.4212   4.5480   4.6313
     4.7309   4.7720   4.8682   4.8883   5.0535   5.1116   5.2824   5.2894
     5.5366   5.6131   5.6683   5.7628   5.9860   6.0700   6.1302   6.1972
     6.3121   6.4500   6.4728   6.5187   6.5494   6.5701   6.6064   6.7691
     6.9332   6.9742   7.1189   7.1529   7.2353   7.2444   7.4489   7.5077
     7.5174   7.5547   7.5685   7.5959   7.6043   7.6173   7.7567   7.7739
    10.4497  10.5204  11.1490  11.1889  11.2831  11.3195  11.5888  11.6475
    11.6844  11.7757  11.9612  12.1023  12.7123  12.7689  12.7836  12.8000
    12.8860  12.8972  13.1524  13.2266  13.4610  13.4685  13.6471  13.6560
    15.4340  15.5974  15.6146  15.7735  16.3076  16.4178  16.6425  16.6547
    16.7164  16.7739  17.2556  17.3099  17.7058

          k = 0.0000-0.4725-0.5000 ( 62284 PWs)   bands (ev):

   -66.1595 -66.1595 -66.1584 -66.1584 -66.1578 -66.1578 -66.1568 -66.1568
   -30.6003 -30.6003 -30.5602 -30.5602 -30.5550 -30.5549 -30.5267 -30.5267
   -30.5027 -30.5027 -30.4894 -30.4894 -30.4795 -30.4794 -30.4312 -30.4312
   -30.4293 -30.4293 -30.4280 -30.4280 -30.4253 -30.4253 -30.4227 -30.4227
   -20.3150 -20.3150 -20.3149 -20.3149 -20.3130 -20.3130 -20.3127 -20.3127
   -20.2951 -20.2951 -20.2946 -20.2946 -20.2917 -20.2917 -20.2915 -20.2915
   -20.2911 -20.2911 -20.2895 -20.2895 -20.2893 -20.2893 -20.2881 -20.2881
   -20.2859 -20.2859 -20.2853 -20.2853 -20.2848 -20.2848 -20.2833 -20.2833
   -20.2831 -20.2831 -20.2810 -20.2810 -20.2807 -20.2807 -20.2798 -20.2798
   -20.2783 -20.2783 -20.2768 -20.2768 -20.2748 -20.2748 -20.2730 -20.2730
   -20.2717 -20.2717 -20.2709 -20.2709 -20.2701 -20.2701 -20.2668 -20.2668
    -9.6632  -9.6631  -9.5581  -9.5581  -8.8391  -8.8391  -8.7720  -8.7720
    -8.7141  -8.7141  -8.6885  -8.6885  -8.2479  -8.2479  -8.2225  -8.2225
    -8.2082  -8.2082  -8.1811  -8.1811  -7.8329  -7.8329  -7.7196  -7.7196
     1.0916   1.0916   1.1977   1.1977   2.8608   2.8608   2.9090   2.9090
     2.9727   2.9727   3.0483   3.0483   3.1265   3.1265   3.2057   3.2057
     3.2931   3.2931   3.3585   3.3585   3.3993   3.3993   3.5256   3.5256
     3.6352   3.6352   3.7908   3.7908   4.3152   4.3152   4.3783   4.3783
     4.4169   4.4170   4.4904   4.4904   5.0804   5.0805   5.1526   5.1526
     5.5781   5.5781   5.6824   5.6824   6.1240   6.1240   6.1379   6.1379
     6.3568   6.3568   6.4779   6.4779   6.5052   6.5052   6.5665   6.5665
     7.2802   7.2802   7.3208   7.3208   7.3315   7.3315   7.4173   7.4173
     7.5277   7.5277   7.5498   7.5498   7.5859   7.5859   7.6626   7.6626
    11.1041  11.1041  11.2265  11.2265  11.3326  11.3326  11.4245  11.4245
    12.1460  12.1460  12.1579  12.1579  12.2733  12.2733  12.3127  12.3127
    12.9707  12.9707  13.0881  13.0881  13.5068  13.5068  13.5154  13.5154
    15.5309  15.5309  15.7042  15.7042  16.7871  16.7872  16.8011  16.8011
    17.3326  17.3326  17.4155  17.4176  17.4385

          k = 0.1667 0.0000 0.1667 ( 62234 PWs)   bands (ev):

   -66.1598 -66.1590 -66.1589 -66.1581 -66.1581 -66.1573 -66.1573 -66.1564
   -30.6044 -30.5998 -30.5965 -30.5910 -30.5336 -30.5318 -30.5236 -30.5217
   -30.5108 -30.5100 -30.5028 -30.5014 -30.4603 -30.4581 -30.4559 -30.4547
   -30.4413 -30.4366 -30.4334 -30.4297 -30.4039 -30.4003 -30.3999 -30.3964
   -20.3152 -20.3150 -20.3148 -20.3147 -20.3131 -20.3129 -20.3128 -20.3126
   -20.2952 -20.2949 -20.2948 -20.2945 -20.2919 -20.2917 -20.2914 -20.2913
   -20.2911 -20.2909 -20.2908 -20.2906 -20.2890 -20.2887 -20.2884 -20.2878
   -20.2869 -20.2865 -20.2863 -20.2860 -20.2857 -20.2855 -20.2833 -20.2829
   -20.2822 -20.2817 -20.2816 -20.2813 -20.2810 -20.2802 -20.2797 -20.2793
   -20.2788 -20.2776 -20.2767 -20.2760 -20.2743 -20.2735 -20.2729 -20.2727
   -20.2725 -20.2718 -20.2704 -20.2700 -20.2695 -20.2694 -20.2676 -20.2667
    -9.9381  -9.7350  -9.5616  -9.5304  -9.3599  -9.3189  -9.1247  -9.1090
    -8.8370  -8.7142  -8.7099  -8.7036  -8.0482  -8.0201  -7.9536  -7.9413
    -7.9136  -7.8941  -7.8274  -7.8050  -7.6505  -7.6008  -7.5959  -7.5503
     1.2028   1.2204   1.2953   1.3459   1.3904   1.4406   1.5381   1.6918
     1.8221   1.8467   1.8626   2.0140   2.3644   2.4508   2.6812   2.7447
     2.8238   2.8455   4.0518   4.0747   4.1854   4.2385   4.2699   4.2886
     4.3187   4.3717   4.6374   4.7319   4.7932   4.8836   5.0919   5.1712
     5.2026   5.3016   5.3083   5.5254   5.5384   5.5630   5.5915   5.6474
     5.6891   5.8134   5.8330   5.9644   6.0513   6.0673   6.1246   6.1600
     6.2530   6.4907   6.5311   6.5972   6.5996   6.7176   6.7296   6.8047
     6.8288   6.8900   6.9099   6.9263   6.9548   6.9604   7.0038   7.0378
     7.0901   7.1415   7.8318   7.8376   8.0540   8.0711   8.1083   8.1578
     9.9421   9.9736  10.1108  10.1321  10.1998  10.2707  12.2502  12.3355
    12.4004  12.4094  12.4781  12.5583  12.6089  12.6359  12.7668  12.9140
    13.0306  13.0902  13.4530  13.4851  13.6729  13.7453  13.9036  13.9359
    14.2990  14.5011  14.5655  15.1607  15.2460  15.6242  15.6477  16.4673
    16.4870  17.0391  17.0570  17.2770  17.5436

          k = 0.1667 0.0000 0.3333 ( 62265 PWs)   bands (ev):

   -66.1597 -66.1592 -66.1588 -66.1583 -66.1580 -66.1574 -66.1571 -66.1566
   -30.5953 -30.5921 -30.5855 -30.5811 -30.5351 -30.5296 -30.5218 -30.5192
   -30.5175 -30.5139 -30.5045 -30.4970 -30.4667 -30.4633 -30.4590 -30.4545
   -30.4521 -30.4475 -30.4330 -30.4306 -30.4030 -30.4007 -30.3994 -30.3971
   -20.3151 -20.3150 -20.3149 -20.3148 -20.3131 -20.3129 -20.3128 -20.3127
   -20.2952 -20.2950 -20.2948 -20.2946 -20.2918 -20.2916 -20.2916 -20.2913
   -20.2912 -20.2910 -20.2902 -20.2900 -20.2892 -20.2890 -20.2883 -20.2880
   -20.2869 -20.2865 -20.2864 -20.2861 -20.2856 -20.2855 -20.2828 -20.2824
   -20.2819 -20.2817 -20.2814 -20.2810 -20.2807 -20.2804 -20.2797 -20.2786
   -20.2784 -20.2781 -20.2770 -20.2765 -20.2752 -20.2735 -20.2734 -20.2730
   -20.2723 -20.2715 -20.2708 -20.2702 -20.2701 -20.2697 -20.2674 -20.2669
    -9.7991  -9.5850  -9.5763  -9.3601  -9.3239  -9.1006  -9.0076  -8.9705
    -8.8862  -8.7310  -8.6815  -8.6690  -8.3652  -8.3030  -8.2444  -8.1900
    -7.9975  -7.9473  -7.8775  -7.8270  -7.6410  -7.6118  -7.5874  -7.5605
     1.3383   1.3498   1.4312   1.4501   1.7491   1.7582   1.8096   1.8471
     2.0736   2.1762   2.2395   2.3679   2.6369   2.7082   2.7506   2.8112
     2.9667   3.0666   3.5960   3.7133   3.8955   3.9381   4.1782   4.1943
     4.2276   4.3628   4.4307   4.5147   4.5661   4.6467   4.7190   4.7467
     4.9275   4.9727   5.0220   5.0924   5.1568   5.3339   5.5703   5.6270
     5.6838   5.8368   5.8481   5.8944   5.9770   6.0391   6.0800   6.1728
     6.3630   6.4573   6.5398   6.5943   6.6534   6.6756   6.7798   6.7958
     6.8469   6.8630   6.9234   6.9515   6.9790   7.0327   7.0909   7.1327
     7.2789   7.3475   7.7282   7.7346   7.9612   7.9911   8.0884   8.1069
    10.1125  10.1160  10.5804  10.6685  10.8058  10.9094  12.0004  12.0967
    12.2043  12.4212  12.4393  12.5344  12.5720  12.6674  12.7098  12.7843
    12.8539  13.0740  13.2744  13.3484  13.5375  13.5863  13.7614  13.7745
    14.3821  14.5386  14.7279  15.1538  15.4736  15.9572  16.1185  16.3469
    16.5381  17.3445  17.5447  17.6323  17.7010

          k = 0.1667 0.0000-0.5000 ( 62322 PWs)   bands (ev):

   -66.1594 -66.1594 -66.1585 -66.1585 -66.1577 -66.1577 -66.1568 -66.1568
   -30.5936 -30.5936 -30.5599 -30.5599 -30.5554 -30.5554 -30.5201 -30.5201
   -30.5083 -30.5083 -30.4896 -30.4896 -30.4823 -30.4823 -30.4568 -30.4568
   -30.4522 -30.4522 -30.4318 -30.4318 -30.4018 -30.4018 -30.3983 -30.3982
   -20.3150 -20.3150 -20.3149 -20.3149 -20.3130 -20.3130 -20.3128 -20.3127
   -20.2951 -20.2951 -20.2947 -20.2947 -20.2917 -20.2917 -20.2914 -20.2914
   -20.2912 -20.2911 -20.2896 -20.2896 -20.2895 -20.2895 -20.2882 -20.2882
   -20.2867 -20.2867 -20.2863 -20.2863 -20.2856 -20.2856 -20.2824 -20.2823
   -20.2817 -20.2817 -20.2809 -20.2809 -20.2802 -20.2802 -20.2797 -20.2797
   -20.2780 -20.2780 -20.2767 -20.2766 -20.2750 -20.2749 -20.2732 -20.2732
   -20.2717 -20.2716 -20.2709 -20.2709 -20.2699 -20.2699 -20.2671 -20.2671
    -9.6638  -9.6638  -9.4432  -9.4432  -9.0406  -9.0406  -8.8175  -8.8175
    -8.7249  -8.7249  -8.7019  -8.7019  -8.5768  -8.5768  -8.5216  -8.5216
    -7.9745  -7.9745  -7.8523  -7.8523  -7.6267  -7.6267  -7.5742  -7.5742
     1.3513   1.3514   1.4540   1.4540   1.7964   1.7964   1.8262   1.8262
     2.7455   2.7455   2.9083   2.9083   2.9742   2.9742   3.0794   3.0794
     3.1143   3.1143   3.2456   3.2456   3.4299   3.4299   3.7379   3.7379
     3.8158   3.8158   4.3339   4.3339   4.5808   4.5808   4.7761   4.7761
     4.8374   4.8374   4.9354   4.9354   5.1245   5.1245   5.6417   5.6417
     5.7213   5.7213   5.7495   5.7495   6.0129   6.0129   6.1680   6.1680
     6.3709   6.3709   6.5749   6.5749   6.6347   6.6347   6.7468   6.7468
     6.8823   6.8823   6.9109   6.9109   6.9958   6.9958   7.4646   7.4646
     7.4864   7.4864   7.6909   7.6909   7.7369   7.7369   8.0980   8.0980
    10.1222  10.1222  11.3215  11.3215  11.4264  11.4264  11.5678  11.5678
    11.7127  11.7127  12.5585  12.5585  12.6292  12.6292  12.8946  12.8946
    13.0245  13.0245  13.1625  13.1626  13.2772  13.2772  13.7467  13.7467
    14.4825  14.4825  14.9824  14.9824  15.9018  15.9018  16.2511  16.2511
    16.9401  16.9401  17.8921  17.8921  18.0258

          k = 0.1667 0.1575 0.1667 ( 62255 PWs)   bands (ev):

   -66.1598 -66.1590 -66.1589 -66.1582 -66.1581 -66.1573 -66.1573 -66.1564
   -30.6044 -30.5998 -30.5965 -30.5910 -30.5336 -30.5318 -30.5236 -30.5217
   -30.5107 -30.5099 -30.5028 -30.5012 -30.4566 -30.4550 -30.4525 -30.4518
   -30.4408 -30.4364 -30.4331 -30.4297 -30.4077 -30.4040 -30.4036 -30.4000
   -20.3152 -20.3150 -20.3148 -20.3147 -20.3131 -20.3129 -20.3128 -20.3126
   -20.2952 -20.2949 -20.2948 -20.2944 -20.2918 -20.2916 -20.2914 -20.2913
   -20.2911 -20.2909 -20.2907 -20.2906 -20.2889 -20.2886 -20.2884 -20.2879
   -20.2867 -20.2863 -20.2861 -20.2858 -20.2857 -20.2854 -20.2834 -20.2829
   -20.2823 -20.2819 -20.2818 -20.2816 -20.2813 -20.2804 -20.2798 -20.2793
   -20.2788 -20.2776 -20.2767 -20.2760 -20.2743 -20.2735 -20.2729 -20.2727
   -20.2725 -20.2718 -20.2704 -20.2700 -20.2695 -20.2694 -20.2676 -20.2667
    -9.9187  -9.7442  -9.5470  -9.5140  -9.3619  -9.3214  -9.1238  -9.1095
    -8.7671  -8.6610  -8.6580  -8.6511  -8.0500  -8.0208  -7.9564  -7.9430
    -7.9145  -7.8961  -7.8304  -7.8067  -7.7382  -7.6926  -7.6886  -7.6459
     1.2034   1.2199   1.2979   1.3500   1.3933   1.4448   1.6049   1.6921
     2.0115   2.0618   2.0769   2.1982   2.3708   2.4460   2.7530   2.8217
     2.8976   2.9127   3.9532   3.9785   4.0683   4.1072   4.2424   4.2595
     4.2820   4.2900   4.5977   4.7357   4.8327   4.8877   5.0082   5.1288
     5.1697   5.2733   5.2952   5.3388   5.3863   5.5081   5.5342   5.6199
     5.6853   5.8056   5.8909   5.9355   5.9576   6.0334   6.0692   6.1295
     6.2849   6.4367   6.4783   6.5680   6.6425   6.7223   6.7311   6.7703
     6.7785   6.8728   6.8855   6.9393   6.9706   7.0084   7.0415   7.0563
     7.1128   7.1531   7.8306   7.8381   8.0155   8.0276   8.0611   8.0877
     9.9784   9.9998  10.2636  10.2837  10.3459  10.4075  12.1463  12.2325
    12.3061  12.3777  12.4278  12.4511  12.6037  12.6163  12.7993  12.9501
    13.0241  13.0875  13.4329  13.4760  13.6986  13.7356  13.8575  13.8748
    14.5184  14.7809  14.8084  15.2434  15.6131  15.6389  15.6715  16.4360
    16.4524  16.9527  17.1306  17.1424  17.5895

          k = 0.1667 0.1575 0.3333 ( 62260 PWs)   bands (ev):

   -66.1597 -66.1592 -66.1588 -66.1583 -66.1580 -66.1575 -66.1571 -66.1566
   -30.5952 -30.5921 -30.5855 -30.5811 -30.5351 -30.5295 -30.5218 -30.5192
   -30.5175 -30.5138 -30.5045 -30.4968 -30.4659 -30.4619 -30.4553 -30.4510
   -30.4496 -30.4453 -30.4329 -30.4306 -30.4068 -30.4044 -30.4031 -30.4008
   -20.3151 -20.3150 -20.3149 -20.3148 -20.3131 -20.3129 -20.3128 -20.3127
   -20.2952 -20.2950 -20.2948 -20.2945 -20.2918 -20.2916 -20.2915 -20.2913
   -20.2912 -20.2910 -20.2902 -20.2900 -20.2891 -20.2890 -20.2883 -20.2880
   -20.2866 -20.2863 -20.2862 -20.2859 -20.2856 -20.2855 -20.2829 -20.2825
   -20.2821 -20.2818 -20.2816 -20.2811 -20.2809 -20.2805 -20.2797 -20.2786
   -20.2784 -20.2781 -20.2770 -20.2765 -20.2752 -20.2735 -20.2734 -20.2731
   -20.2723 -20.2715 -20.2708 -20.2702 -20.2701 -20.2697 -20.2674 -20.2669
    -9.7785  -9.5936  -9.5587  -9.3637  -9.3019  -9.1022  -9.0068  -8.9694
    -8.8198  -8.6828  -8.6322  -8.6234  -8.3647  -8.3049  -8.2440  -8.1892
    -7.9983  -7.9483  -7.8798  -7.8299  -7.7301  -7.7024  -7.6811  -7.6551
     1.3432   1.3550   1.4345   1.4550   1.9069   1.9259   2.0194   2.0585
     2.0935   2.2171   2.2436   2.4104   2.6438   2.7174   2.8083   2.8825
     3.0418   3.1326   3.5960   3.7081   3.8504   3.9247   4.0790   4.1252
     4.2352   4.3241   4.3609   4.4612   4.5293   4.6089   4.6935   4.7402
     4.8650   4.8774   4.9467   5.0636   5.1369   5.1624   5.4014   5.5481
     5.6583   5.7302   5.8174   5.8488   5.8856   5.9721   6.0119   6.0605
     6.3234   6.4716   6.5650   6.6685   6.6905   6.7282   6.7619   6.7723
     6.8384   6.8983   6.9428   6.9921   7.0293   7.0533   7.1098   7.1563
     7.2842   7.3520   7.7292   7.7333   7.9249   7.9489   8.0403   8.0508
    10.2714  10.2880  10.6020  10.6809  10.9064  10.9870  11.9962  12.0902
    12.1859  12.3491  12.3949  12.4702  12.5226  12.6221  12.6392  12.7472
    12.8668  13.0518  13.2364  13.3451  13.4503  13.5259  13.7483  13.7579
    14.6447  14.7830  15.0778  15.4874  15.6080  15.9545  16.1336  16.3437
    16.5911  17.3102  17.3515  17.5955  17.6852

          k = 0.1667 0.1575-0.5000 ( 62292 PWs)   bands (ev):

   -66.1594 -66.1594 -66.1585 -66.1585 -66.1577 -66.1577 -66.1569 -66.1568
   -30.5936 -30.5936 -30.5599 -30.5599 -30.5554 -30.5554 -30.5201 -30.5201
   -30.5083 -30.5083 -30.4894 -30.4894 -30.4820 -30.4820 -30.4533 -30.4533
   -30.4490 -30.4490 -30.4318 -30.4318 -30.4056 -30.4056 -30.4019 -30.4019
   -20.3150 -20.3150 -20.3149 -20.3149 -20.3130 -20.3130 -20.3128 -20.3127
   -20.2951 -20.2951 -20.2947 -20.2947 -20.2917 -20.2917 -20.2914 -20.2914
   -20.2912 -20.2912 -20.2896 -20.2896 -20.2895 -20.2895 -20.2882 -20.2882
   -20.2864 -20.2864 -20.2861 -20.2861 -20.2855 -20.2855 -20.2825 -20.2825
   -20.2820 -20.2819 -20.2810 -20.2810 -20.2804 -20.2803 -20.2797 -20.2797
   -20.2780 -20.2780 -20.2767 -20.2766 -20.2750 -20.2750 -20.2732 -20.2732
   -20.2717 -20.2716 -20.2709 -20.2709 -20.2699 -20.2699 -20.2671 -20.2671
    -9.6441  -9.6441  -9.4491  -9.4491  -8.9956  -8.9956  -8.8001  -8.8001
    -8.7221  -8.7221  -8.6974  -8.6974  -8.5524  -8.5524  -8.5006  -8.5006
    -7.9755  -7.9755  -7.8549  -7.8549  -7.7165  -7.7165  -7.6683  -7.6683
     1.3575   1.3575   1.4593   1.4593   1.9902   1.9902   2.0537   2.0537
     2.8050   2.8050   2.9178   2.9178   2.9783   2.9783   3.0880   3.0880
     3.1181   3.1181   3.2656   3.2656   3.4335   3.4335   3.7627   3.7627
     3.8725   3.8725   4.1937   4.1937   4.4956   4.4956   4.6912   4.6912
     4.7960   4.7960   4.8927   4.8927   5.0121   5.0121   5.5122   5.5122
     5.6352   5.6352   5.7243   5.7243   5.8769   5.8769   6.0328   6.0329
     6.4593   6.4593   6.5995   6.5995   6.7050   6.7050   6.7856   6.7856
     6.8396   6.8396   6.9512   6.9513   7.0599   7.0600   7.4673   7.4673
     7.4851   7.4851   7.6748   7.6748   7.7151   7.7151   8.0460   8.0460
    10.2929  10.2929  11.3287  11.3287  11.4320  11.4320  11.6283  11.6283
    11.7612  11.7612  12.4129  12.4130  12.6308  12.6308  12.8355  12.8355
    12.9977  12.9977  13.0722  13.0722  13.2510  13.2510  13.7282  13.7282
    14.7380  14.7380  15.3575  15.3575  15.9777  15.9777  16.2369  16.2369
    16.9756  16.9756  17.7476  17.7476  17.9853

          k = 0.1667 0.3150 0.1667 ( 62249 PWs)   bands (ev):

   -66.1598 -66.1590 -66.1589 -66.1582 -66.1581 -66.1573 -66.1573 -66.1564
   -30.6043 -30.5998 -30.5965 -30.5910 -30.5336 -30.5318 -30.5236 -30.5217
   -30.5105 -30.5097 -30.5028 -30.5009 -30.4487 -30.4464 -30.4456 -30.4429
   -30.4374 -30.4355 -30.4312 -30.4294 -30.4181 -30.4140 -30.4136 -30.4097
   -20.3152 -20.3150 -20.3148 -20.3147 -20.3131 -20.3129 -20.3128 -20.3126
   -20.2952 -20.2949 -20.2948 -20.2944 -20.2917 -20.2916 -20.2913 -20.2913
   -20.2911 -20.2909 -20.2907 -20.2906 -20.2887 -20.2886 -20.2883 -20.2880
   -20.2860 -20.2859 -20.2856 -20.2854 -20.2853 -20.2851 -20.2835 -20.2830
   -20.2826 -20.2824 -20.2824 -20.2822 -20.2817 -20.2806 -20.2798 -20.2793
   -20.2788 -20.2776 -20.2768 -20.2760 -20.2743 -20.2735 -20.2729 -20.2727
   -20.2726 -20.2718 -20.2704 -20.2699 -20.2695 -20.2694 -20.2676 -20.2667
    -9.8709  -9.7717  -9.5181  -9.4813  -9.3666  -9.3276  -9.1214  -9.1111
    -8.5713  -8.5014  -8.4993  -8.4934  -8.0780  -8.0318  -8.0019  -7.9739
    -7.9575  -7.9385  -7.9206  -7.8947  -7.8796  -7.8679  -7.8148  -7.7970
     1.2039   1.2188   1.3001   1.3533   1.3959   1.4486   1.6639   1.6929
     2.3841   2.4254   2.5477   2.6342   2.6585   2.7675   2.9698   3.0749
     3.1149   3.1478   3.6316   3.6718   3.7179   3.7737   4.1478   4.2206
     4.2488   4.2580   4.2810   4.5779   4.6043   4.8619   4.8722   4.9821
     5.0247   5.0576   5.1270   5.1456   5.3267   5.3790   5.4287   5.4578
     5.6751   5.6950   5.7587   5.7723   5.8542   5.8973   6.0230   6.0444
     6.3693   6.4175   6.4403   6.5923   6.6505   6.6629   6.7556   6.7789
     6.8981   6.9140   6.9815   7.0009   7.0259   7.0443   7.1840   7.2043
     7.2524   7.2593   7.8010   7.8346   7.8629   7.8791   7.8866   7.9015
    10.0092  10.0171  10.6876  10.7166  10.7706  10.8291  11.7977  11.8689
    11.9120  11.9911  12.4280  12.4317  12.6094  12.6139  12.8936  13.0285
    13.0871  13.1476  13.3510  13.4199  13.5208  13.5711  13.7371  13.7552
    15.2612  15.4006  15.4463  15.5557  15.6169  15.7067  16.3071  16.3276
    16.4409  16.6311  17.1911  17.4011  17.4221

          k = 0.1667 0.3150 0.3333 ( 62265 PWs)   bands (ev):

   -66.1596 -66.1592 -66.1587 -66.1583 -66.1580 -66.1575 -66.1571 -66.1566
   -30.5952 -30.5921 -30.5855 -30.5811 -30.5350 -30.5294 -30.5218 -30.5192
   -30.5174 -30.5138 -30.5044 -30.4965 -30.4647 -30.4598 -30.4453 -30.4418
   -30.4412 -30.4383 -30.4321 -30.4303 -30.4171 -30.4145 -30.4131 -30.4106
   -20.3151 -20.3150 -20.3149 -20.3148 -20.3131 -20.3129 -20.3128 -20.3127
   -20.2952 -20.2950 -20.2948 -20.2945 -20.2917 -20.2915 -20.2914 -20.2913
   -20.2912 -20.2910 -20.2901 -20.2900 -20.2890 -20.2889 -20.2883 -20.2881
   -20.2860 -20.2859 -20.2857 -20.2855 -20.2853 -20.2851 -20.2832 -20.2829
   -20.2826 -20.2825 -20.2819 -20.2813 -20.2813 -20.2808 -20.2798 -20.2786
   -20.2784 -20.2782 -20.2770 -20.2765 -20.2752 -20.2735 -20.2734 -20.2731
   -20.2723 -20.2715 -20.2708 -20.2702 -20.2701 -20.2697 -20.2674 -20.2669
    -9.7293  -9.6191  -9.5225  -9.3727  -9.2590  -9.1064  -9.0054  -8.9681
    -8.6389  -8.5431  -8.4823  -8.4777  -8.3635  -8.3172  -8.2399  -8.1838
    -8.0168  -7.9800  -7.9527  -7.9254  -7.9212  -7.8907  -7.8597  -7.8149
     1.3469   1.3590   1.4370   1.4591   2.0260   2.1160   2.1649   2.2524
     2.5573   2.6188   2.6544   2.6594   2.6828   2.7992   3.0207   3.0995
     3.2745   3.3355   3.5726   3.6648   3.6895   3.7263   3.7938   3.8525
     4.1103   4.2609   4.3330   4.3842   4.4407   4.4783   4.5406   4.6038
     4.7190   4.7798   4.8520   4.9157   5.0007   5.0508   5.0816   5.1821
     5.3304   5.4132   5.4799   5.6961   5.7089   5.8708   5.9105   5.9470
     6.4318   6.5229   6.5961   6.7038   6.7689   6.7997   6.8395   6.8660
     6.9516   7.0151   7.0586   7.0746   7.1346   7.1788   7.2248   7.2775
     7.3230   7.3758   7.7112   7.7364   7.7936   7.8044   7.8712   7.8853
    10.5731  10.6201  10.7620  10.8198  11.1962  11.2624  11.8489  11.9309
    12.0379  12.0901  12.1688  12.1970  12.5768  12.6147  12.6353  12.7466
    12.9283  13.0514  13.0794  13.1978  13.3346  13.4196  13.6057  13.6335
    15.3614  15.4120  15.7787  15.8821  15.9975  16.1705  16.2858  16.5295
    16.8137  16.8994  17.1649  17.4491  17.7060

          k = 0.1667 0.3150-0.5000 ( 62264 PWs)   bands (ev):

   -66.1594 -66.1594 -66.1585 -66.1585 -66.1577 -66.1577 -66.1569 -66.1569
   -30.5936 -30.5936 -30.5598 -30.5598 -30.5553 -30.5553 -30.5201 -30.5201
   -30.5082 -30.5082 -30.4892 -30.4892 -30.4814 -30.4814 -30.4435 -30.4435
   -30.4403 -30.4403 -30.4313 -30.4313 -30.4158 -30.4158 -30.4118 -30.4118
   -20.3150 -20.3150 -20.3149 -20.3149 -20.3130 -20.3130 -20.3128 -20.3128
   -20.2951 -20.2951 -20.2947 -20.2947 -20.2916 -20.2916 -20.2914 -20.2914
   -20.2912 -20.2912 -20.2895 -20.2895 -20.2894 -20.2894 -20.2883 -20.2882
   -20.2859 -20.2859 -20.2857 -20.2857 -20.2852 -20.2852 -20.2829 -20.2829
   -20.2826 -20.2826 -20.2811 -20.2811 -20.2806 -20.2806 -20.2798 -20.2798
   -20.2780 -20.2780 -20.2767 -20.2767 -20.2750 -20.2750 -20.2732 -20.2732
   -20.2717 -20.2716 -20.2709 -20.2709 -20.2699 -20.2699 -20.2671 -20.2671
    -9.6013  -9.6013  -9.4650  -9.4650  -8.9009  -8.9009  -8.7727  -8.7727
    -8.7257  -8.7257  -8.6806  -8.6806  -8.4460  -8.4460  -8.4115  -8.4115
    -8.0004  -8.0004  -7.9416  -7.9416  -7.9076  -7.9076  -7.8380  -7.8380
     1.3621   1.3621   1.4638   1.4638   2.5287   2.5287   2.6271   2.6271
     2.9109   2.9109   2.9550   2.9550   3.0223   3.0223   3.1135   3.1135
     3.1607   3.1607   3.3101   3.3101   3.4452   3.4453   3.7071   3.7071
     3.9997   3.9997   4.0435   4.0435   4.1585   4.1585   4.3635   4.3635
     4.7354   4.7354   4.8095   4.8095   4.9785   4.9785   5.0834   5.0834
     5.1220   5.1220   5.5478   5.5478   5.7574   5.7574   5.8795   5.8795
     6.5612   6.5612   6.6777   6.6777   6.7267   6.7267   6.8325   6.8326
     7.0873   7.0873   7.1371   7.1371   7.2073   7.2073   7.4606   7.4606
     7.4976   7.4976   7.6110   7.6110   7.6406   7.6406   7.8760   7.8760
    10.7389  10.7389  11.3412  11.3412  11.4416  11.4416  11.7625  11.7625
    11.9288  11.9288  12.0722  12.0722  12.5312  12.5312  12.5971  12.5971
    12.8908  12.8908  13.0035  13.0035  13.2577  13.2577  13.5641  13.5641
    15.3956  15.3956  16.0530  16.0530  16.2814  16.2814  16.3680  16.3680
    17.0964  17.0964  17.3837  17.3838  17.8945

          k = 0.1667-0.4725 0.1667 ( 62220 PWs)   bands (ev):

   -66.1598 -66.1590 -66.1589 -66.1582 -66.1581 -66.1573 -66.1573 -66.1564
   -30.6043 -30.5998 -30.5965 -30.5910 -30.5336 -30.5317 -30.5237 -30.5217
   -30.5104 -30.5097 -30.5028 -30.5008 -30.4465 -30.4424 -30.4364 -30.4338
   -30.4320 -30.4314 -30.4283 -30.4270 -30.4264 -30.4250 -30.4221 -30.4219
   -20.3152 -20.3150 -20.3148 -20.3147 -20.3131 -20.3129 -20.3128 -20.3126
   -20.2952 -20.2949 -20.2948 -20.2944 -20.2917 -20.2915 -20.2914 -20.2912
   -20.2912 -20.2909 -20.2908 -20.2906 -20.2886 -20.2884 -20.2883 -20.2882
   -20.2858 -20.2856 -20.2853 -20.2850 -20.2848 -20.2846 -20.2837 -20.2834
   -20.2831 -20.2828 -20.2828 -20.2824 -20.2819 -20.2807 -20.2798 -20.2793
   -20.2789 -20.2776 -20.2768 -20.2760 -20.2743 -20.2735 -20.2729 -20.2727
   -20.2726 -20.2718 -20.2704 -20.2699 -20.2695 -20.2694 -20.2676 -20.2667
    -9.8201  -9.8125  -9.5038  -9.4648  -9.3695  -9.3315  -9.1198  -9.1125
    -8.3010  -8.2982  -8.2553  -8.2538  -8.2501  -8.2475  -8.2363  -8.2341
    -8.0197  -8.0023  -7.9327  -7.9191  -7.9062  -7.8892  -7.8194  -7.8030
     1.2041   1.2183   1.3006   1.3541   1.3965   1.4495   1.6766   1.6935
     2.4050   2.4070   3.0733   3.0868   3.1782   3.1973   3.2764   3.3039
     3.3963   3.3994   3.4462   3.4786   3.6476   3.6693   3.7735   3.7841
     3.8974   3.8993   4.2265   4.2457   4.2697   4.2800   4.9871   5.0040
     5.0922   5.1009   5.2159   5.2344   5.2727   5.2828   5.4392   5.4503
     5.5312   5.5394   5.6951   5.7241   5.7479   5.7651   6.0288   6.0502
     6.4083   6.4372   6.5226   6.5343   6.6339   6.6456   6.7697   6.7826
     6.8928   6.9054   7.0137   7.0174   7.0533   7.0669   7.4847   7.4901
     7.5435   7.5516   7.5887   7.5962   7.6200   7.6299   7.8448   7.8486
    10.0162  10.0215  11.1910  11.2429  11.2541  11.3119  11.3412  11.3905
    11.4446  11.4806  12.4308  12.4338  12.6151  12.6156  13.0155  13.0346
    13.2470  13.2980  13.3004  13.3054  13.3240  13.3552  13.6922  13.6960
    15.5648  15.5970  15.8721  15.8852  15.9784  15.9886  16.0765  16.1040
    16.4179  16.4199  17.7080  17.7207  17.8461

          k = 0.1667-0.4725 0.3333 ( 62252 PWs)   bands (ev):

   -66.1596 -66.1592 -66.1587 -66.1582 -66.1580 -66.1575 -66.1571 -66.1566
   -30.5952 -30.5921 -30.5855 -30.5810 -30.5350 -30.5294 -30.5218 -30.5192
   -30.5174 -30.5137 -30.5044 -30.4963 -30.4643 -30.4591 -30.4356 -30.4337
   -30.4317 -30.4303 -30.4287 -30.4275 -30.4272 -30.4246 -30.4239 -30.4228
   -20.3151 -20.3150 -20.3149 -20.3148 -20.3131 -20.3129 -20.3128 -20.3127
   -20.2952 -20.2950 -20.2948 -20.2945 -20.2917 -20.2915 -20.2914 -20.2913
   -20.2913 -20.2910 -20.2901 -20.2900 -20.2890 -20.2888 -20.2883 -20.2882
   -20.2858 -20.2857 -20.2854 -20.2850 -20.2849 -20.2847 -20.2835 -20.2834
   -20.2832 -20.2829 -20.2819 -20.2815 -20.2813 -20.2808 -20.2798 -20.2786
   -20.2784 -20.2782 -20.2770 -20.2765 -20.2752 -20.2735 -20.2734 -20.2731
   -20.2723 -20.2715 -20.2708 -20.2702 -20.2701 -20.2697 -20.2674 -20.2669
    -9.6897  -9.6469  -9.5035  -9.3787  -9.2381  -9.1092  -9.0048  -8.9676
    -8.4578  -8.4064  -8.3899  -8.3476  -8.2531  -8.2445  -8.2368  -8.2308
    -8.1926  -8.1578  -8.1465  -8.0952  -7.9802  -7.9315  -7.8715  -7.8216
     1.3476   1.3600   1.4376   1.4601   2.0348   2.1226   2.1977   2.2607
     2.6727   2.6766   3.0902   3.1178   3.2171   3.2516   3.3146   3.3204
     3.3710   3.3947   3.5004   3.5378   3.6248   3.6670   3.7070   3.7564
     3.8099   3.8452   3.9140   3.9479   4.3210   4.3963   4.4480   4.5879
     4.6156   4.6790   4.8387   4.8495   4.9600   4.9792   5.0204   5.0917
     5.2460   5.3140   5.3296   5.4737   5.7303   5.7507   5.9068   5.9288
     6.4706   6.5304   6.6445   6.7071   6.7643   6.8420   6.8555   6.8829
     6.9700   7.0330   7.1216   7.1825   7.2358   7.2535   7.4562   7.4959
     7.5272   7.5489   7.5671   7.5857   7.6030   7.6298   7.7474   7.7666
    10.6061  10.6530  11.2605  11.3065  11.3796  11.4279  11.5948  11.6596
    11.6954  11.7738  12.0317  12.1621  12.6026  12.7507  12.7765  12.7976
    12.8174  12.8929  13.0770  13.1316  13.2975  13.3201  13.5234  13.5603
    15.6922  15.8371  15.8874  16.0223  16.3766  16.4871  16.6484  16.6809
    16.7193  16.7690  17.3047  17.3623  17.6538

          k = 0.1667-0.4725-0.5000 ( 62232 PWs)   bands (ev):

   -66.1594 -66.1594 -66.1585 -66.1585 -66.1577 -66.1577 -66.1569 -66.1569
   -30.5936 -30.5936 -30.5598 -30.5598 -30.5553 -30.5553 -30.5201 -30.5201
   -30.5082 -30.5082 -30.4891 -30.4891 -30.4812 -30.4812 -30.4345 -30.4345
   -30.4304 -30.4304 -30.4289 -30.4289 -30.4257 -30.4257 -30.4238 -30.4238
   -20.3150 -20.3150 -20.3149 -20.3149 -20.3130 -20.3130 -20.3128 -20.3128
   -20.2951 -20.2951 -20.2947 -20.2947 -20.2915 -20.2915 -20.2914 -20.2914
   -20.2912 -20.2912 -20.2895 -20.2895 -20.2893 -20.2893 -20.2883 -20.2883
   -20.2858 -20.2858 -20.2853 -20.2852 -20.2847 -20.2847 -20.2834 -20.2834
   -20.2831 -20.2831 -20.2811 -20.2811 -20.2807 -20.2807 -20.2798 -20.2798
   -20.2780 -20.2780 -20.2767 -20.2767 -20.2750 -20.2750 -20.2732 -20.2732
   -20.2717 -20.2716 -20.2709 -20.2709 -20.2699 -20.2699 -20.2671 -20.2671
    -9.5759  -9.5759  -9.4772  -9.4772  -8.8540  -8.8540  -8.7562  -8.7561
    -8.7362  -8.7362  -8.6721  -8.6721  -8.2469  -8.2469  -8.2228  -8.2228
    -8.2136  -8.2136  -8.1892  -8.1892  -7.9566  -7.9566  -7.8465  -7.8465
     1.3632   1.3632   1.4648   1.4648   2.8824   2.8824   2.9220   2.9220
     2.9975   2.9975   3.0515   3.0515   3.1622   3.1622   3.2429   3.2429
     3.3020   3.3020   3.3988   3.3988   3.4269   3.4269   3.5563   3.5563
     3.6724   3.6724   3.8143   3.8144   4.3117   4.3118   4.3697   4.3697
     4.4112   4.4113   4.4778   4.4779   4.7816   4.7816   4.8759   4.8759
     5.2434   5.2434   5.3726   5.3726   5.7664   5.7664   5.7924   5.7924
     6.5945   6.5945   6.6927   6.6927   6.7394   6.7394   6.8437   6.8438
     7.2807   7.2807   7.3203   7.3203   7.3610   7.3610   7.4283   7.4283
     7.5135   7.5135   7.5630   7.5630   7.5826   7.5826   7.6645   7.6645
    11.2012  11.2012  11.3205  11.3205  11.4305  11.4305  11.5337  11.5337
    12.1459  12.1459  12.1661  12.1661  12.2800  12.2800  12.3105  12.3105
    12.8861  12.8861  12.9900  12.9900  13.3356  13.3356  13.3936  13.3936
    15.8122  15.8123  15.9584  15.9584  16.8447  16.8447  16.8600  16.8600
    17.3239  17.3240  17.4052  17.4058  17.4542

          k = 0.3333 0.0000 0.3333 ( 62316 PWs)   bands (ev):

   -66.1595 -66.1590 -66.1590 -66.1585 -66.1578 -66.1573 -66.1573 -66.1568
   -30.5847 -30.5821 -30.5769 -30.5736 -30.5334 -30.5307 -30.5299 -30.5229
   -30.5127 -30.5058 -30.5037 -30.5004 -30.4659 -30.4643 -30.4580 -30.4577
   -30.4545 -30.4510 -30.4473 -30.4460 -30.4022 -30.4000 -30.3998 -30.3977
   -20.3151 -20.3150 -20.3149 -20.3148 -20.3130 -20.3129 -20.3129 -20.3127
   -20.2951 -20.2949 -20.2949 -20.2947 -20.2917 -20.2915 -20.2914 -20.2912
   -20.2909 -20.2906 -20.2903 -20.2899 -20.2894 -20.2889 -20.2887 -20.2883
   -20.2868 -20.2865 -20.2864 -20.2862 -20.2850 -20.2848 -20.2831 -20.2827
   -20.2822 -20.2819 -20.2814 -20.2811 -20.2809 -20.2808 -20.2790 -20.2782
   -20.2781 -20.2773 -20.2771 -20.2763 -20.2749 -20.2743 -20.2740 -20.2738
   -20.2721 -20.2717 -20.2706 -20.2703 -20.2698 -20.2693 -20.2682 -20.2677
    -9.6374  -9.4089  -9.3749  -9.3525  -9.1437  -9.1076  -8.9464  -8.8955
    -8.8784  -8.6872  -8.6756  -8.6582  -8.3943  -8.3349  -8.3184  -8.2919
    -8.2253  -8.2006  -8.1618  -8.1295  -7.6314  -7.6028  -7.5995  -7.5721
     1.7164   1.7427   1.7463   1.7970   1.9592   1.9689   2.0786   2.1160
     2.1847   2.2185   2.3696   2.4944   2.9040   2.9360   2.9689   3.0083
     3.0621   3.1120   3.6533   3.7255   3.8509   3.9086   3.9262   3.9677
     4.1249   4.1615   4.2047   4.2872   4.3165   4.3256   4.4472   4.4885
     4.6321   4.7458   4.8380   4.8926   4.9198   4.9380   5.0380   5.2680
     5.3025   5.3802   5.4435   5.7085   6.1077   6.1157   6.1480   6.1879
     6.5008   6.5427   6.5523   6.6499   6.6562   6.6964   6.7374   6.7436
     6.9992   7.0385   7.0481   7.0978   7.1219   7.1812   7.2372   7.2759
     7.3124   7.4539   7.6556   7.6622   7.9262   7.9503   8.0263   8.0295
    10.6839  10.7179  10.8097  10.8388  11.1011  11.2100  12.1168  12.1357
    12.1998  12.2342  12.2857  12.3345  12.4907  12.5159  12.6973  12.7911
    12.7922  12.8754  13.0092  13.1547  13.4340  13.5013  13.5376  13.6339
    14.4474  14.6784  14.6837  15.0649  15.9097  16.5186  16.5227  16.8243
    16.9475  17.2795  17.3861  17.8151  17.8416

          k = 0.3333 0.0000-0.5000 ( 62288 PWs)   bands (ev):

   -66.1592 -66.1592 -66.1587 -66.1587 -66.1575 -66.1575 -66.1570 -66.1570
   -30.5752 -30.5752 -30.5589 -30.5589 -30.5563 -30.5563 -30.5253 -30.5253
   -30.5022 -30.5022 -30.4886 -30.4885 -30.4848 -30.4848 -30.4568 -30.4568
   -30.4555 -30.4555 -30.4475 -30.4475 -30.4010 -30.4010 -30.3988 -30.3988
   -20.3150 -20.3150 -20.3149 -20.3149 -20.3129 -20.3129 -20.3128 -20.3128
   -20.2951 -20.2950 -20.2948 -20.2948 -20.2916 -20.2916 -20.2913 -20.2913
   -20.2907 -20.2907 -20.2898 -20.2898 -20.2893 -20.2893 -20.2886 -20.2886
   -20.2866 -20.2866 -20.2864 -20.2863 -20.2849 -20.2849 -20.2829 -20.2829
   -20.2817 -20.2817 -20.2812 -20.2812 -20.2801 -20.2801 -20.2797 -20.2797
   -20.2769 -20.2769 -20.2764 -20.2764 -20.2754 -20.2754 -20.2741 -20.2741
   -20.2715 -20.2715 -20.2711 -20.2711 -20.2695 -20.2695 -20.2679 -20.2679
    -9.4610  -9.4610  -9.2123  -9.2123  -9.1008  -9.1008  -8.7833  -8.7833
    -8.7218  -8.7218  -8.6729  -8.6729  -8.5653  -8.5653  -8.5308  -8.5308
    -8.2838  -8.2838  -8.1752  -8.1751  -7.6173  -7.6173  -7.5860  -7.5860
[...]
   -20.4085 -20.4084 -20.4080 -20.4079 -20.4053 -20.4052 -20.4049 -20.4049
   -20.4041 -20.4041 -20.4035 -20.4035 -20.4031 -20.4031 -20.4007 -20.4007
   -20.3985 -20.3985 -20.3971 -20.3970 -20.3967 -20.3967 -20.3962 -20.3962
   -20.3936 -20.3936 -20.3913 -20.3912 -20.3910 -20.3910 -20.3901 -20.3901
    -9.5822  -9.5822  -9.3995  -9.3995  -9.0636  -9.0636  -8.8270  -8.8270
    -8.7077  -8.7077  -8.6550  -8.6550  -8.5511  -8.5511  -8.5121  -8.5121
    -8.2193  -8.2193  -8.1879  -8.1879  -7.9826  -7.9826  -7.8630  -7.8630
     1.4277   1.4277   1.5310   1.5310   2.2294   2.2294   2.3308   2.3308
     2.9085   2.9085   2.9757   2.9757   3.0152   3.0152   3.1465   3.1465
     3.1752   3.1752   3.3517   3.3517   3.4776   3.4776   3.6532   3.6532
     3.8315   3.8315   3.9183   3.9183   4.1134   4.1134   4.2891   4.2891
     4.6211   4.6211   4.7396   4.7396   4.8782   4.8782   4.9109   4.9109
     5.0090   5.0090   5.3966   5.3966   5.7078   5.7078   5.7840   5.7840
     6.5265   6.5265   6.6450   6.6450   6.7216   6.7217   6.7655   6.7655
     6.9519   6.9519   7.0094   7.0094   7.0874   7.0874   7.4218   7.4218
     7.4432   7.4432   7.5124   7.5124   7.5444   7.5444   7.7827   7.7827
    10.6364  10.6364  11.1752  11.1752  11.2802  11.2802  11.5949  11.5949
    11.7899  11.7899  12.0457  12.0457  12.4972  12.4972  12.5249  12.5250
    12.7313  12.7313  12.8359  12.8359  13.0150  13.0150  13.4491  13.4491
    15.2908  15.2908  15.7368  15.7368  16.2922  16.2922  16.4889  16.4889
    16.7579  16.7579  17.2705  17.2705  17.7760

          k = 0.3299 0.4802 0.1647 ( 62658 PWs)   bands (ev):

   -66.2744 -66.2740 -66.2737 -66.2733 -66.2728 -66.2724 -66.2721 -66.2717
   -30.6600 -30.6575 -30.6478 -30.6433 -30.6204 -30.6169 -30.6150 -30.6123
   -30.6021 -30.6017 -30.5990 -30.5961 -30.5944 -30.5849 -30.5759 -30.5731
   -30.5702 -30.5667 -30.5629 -30.5615 -30.5265 -30.5230 -30.5127 -30.5101
   -20.4386 -20.4386 -20.4383 -20.4382 -20.4368 -20.4366 -20.4365 -20.4363
   -20.4195 -20.4191 -20.4190 -20.4187 -20.4164 -20.4162 -20.4156 -20.4154
   -20.4120 -20.4118 -20.4114 -20.4112 -20.4109 -20.4107 -20.4101 -20.4099
   -20.4082 -20.4079 -20.4077 -20.4074 -20.4057 -20.4055 -20.4053 -20.4052
   -20.4049 -20.4046 -20.4042 -20.4039 -20.4026 -20.4019 -20.4011 -20.4002
   -20.3991 -20.3986 -20.3983 -20.3979 -20.3965 -20.3959 -20.3956 -20.3954
   -20.3937 -20.3935 -20.3914 -20.3914 -20.3911 -20.3905 -20.3904 -20.3896
    -9.6258  -9.5793  -9.4507  -9.3291  -9.1716  -9.0547  -8.9082  -8.8731
    -8.6587  -8.6487  -8.5741  -8.5628  -8.5319  -8.5267  -8.5211  -8.5078
    -8.3016  -8.2393  -8.1882  -8.1350  -8.0049  -7.9579  -7.8877  -7.8403
     1.4245   1.4261   1.5198   1.5304   2.1148   2.2034   2.2573   2.3337
     2.8219   2.8280   2.9385   2.9514   3.0642   3.0974   3.1320   3.1577
     3.2204   3.2258   3.3528   3.4444   3.4664   3.5658   3.6387   3.6877
     3.7151   3.7315   3.8161   3.8652   4.2235   4.2409   4.4484   4.4727
     4.5423   4.5896   4.7241   4.7832   4.8095   4.8889   4.9033   4.9370
     5.0141   5.0717   5.2649   5.3351   5.6533   5.6791   5.8982   5.9236
     6.5075   6.5374   6.5798   6.6115   6.6865   6.8011   6.8472   6.8728
     6.9698   7.0064   7.0242   7.1049   7.1254   7.1591   7.3283   7.3834
     7.4010   7.4380   7.4538   7.4778   7.5102   7.5168   7.7256   7.7432
    10.4716  10.5284  11.1763  11.2107  11.3142  11.3377  11.5905  11.6139
    11.6798  11.7348  11.8446  11.9745  12.3942  12.5365  12.5964  12.6172
    12.6774  12.7344  12.9470  13.0314  13.1314  13.1678  13.2552  13.3108
    15.3690  15.5061  15.6306  15.7962  16.1436  16.2496  16.5015  16.6101
    16.7794  16.8054  17.3241  17.3623  17.7553

          k =-0.4949 0.4802 0.1647 ( 62652 PWs)   bands (ev):

   -66.2742 -66.2742 -66.2735 -66.2735 -66.2726 -66.2726 -66.2719 -66.2719
   -30.6587 -30.6587 -30.6316 -30.6316 -30.6274 -30.6274 -30.6136 -30.6136
   -30.6003 -30.6003 -30.5983 -30.5983 -30.5887 -30.5886 -30.5800 -30.5800
   -30.5650 -30.5650 -30.5476 -30.5475 -30.5446 -30.5446 -30.5115 -30.5115
   -20.4386 -20.4386 -20.4382 -20.4382 -20.4367 -20.4367 -20.4364 -20.4364
   -20.4193 -20.4193 -20.4189 -20.4189 -20.4163 -20.4163 -20.4155 -20.4155
   -20.4119 -20.4119 -20.4108 -20.4108 -20.4106 -20.4106 -20.4105 -20.4105
   -20.4080 -20.4080 -20.4075 -20.4075 -20.4056 -20.4056 -20.4052 -20.4052
   -20.4041 -20.4041 -20.4037 -20.4037 -20.4033 -20.4033 -20.4008 -20.4007
   -20.3985 -20.3985 -20.3971 -20.3971 -20.3967 -20.3967 -20.3963 -20.3963
   -20.3936 -20.3936 -20.3912 -20.3912 -20.3910 -20.3910 -20.3901 -20.3901
    -9.5215  -9.5215  -9.4255  -9.4255  -8.8618  -8.8618  -8.7843  -8.7843
    -8.7042  -8.7042  -8.6593  -8.6593  -8.5037  -8.5036  -8.4679  -8.4679
    -8.4468  -8.4468  -8.3981  -8.3980  -7.9840  -7.9840  -7.8639  -7.8639
     1.4308   1.4308   1.5349   1.5349   2.8237   2.8237   2.9410   2.9410
     2.9890   2.9890   3.0165   3.0165   3.1100   3.1100   3.1346   3.1346
     3.2645   3.2645   3.3294   3.3294   3.3705   3.3705   3.4716   3.4717
     3.5329   3.5329   3.7472   3.7472   4.1476   4.1476   4.2063   4.2063
     4.2474   4.2474   4.3246   4.3246   4.7531   4.7531   4.8695   4.8695
     5.0570   5.0570   5.1856   5.1856   5.7106   5.7106   5.7385   5.7385
     6.5776   6.5776   6.6810   6.6810   6.7179   6.7179   6.7938   6.7938
     7.1678   7.1678   7.1993   7.1993   7.2787   7.2787   7.3546   7.3546
     7.4107   7.4108   7.4796   7.4796   7.5104   7.5104   7.5857   7.5857
    11.0929  11.0929  11.2142  11.2142  11.3024  11.3024  11.3757  11.3757
    12.0505  12.0505  12.0805  12.0805  12.2035  12.2035  12.2282  12.2282
    12.6961  12.6961  12.8117  12.8117  13.1442  13.1442  13.2057  13.2057
    15.5210  15.5210  15.6891  15.6891  16.7492  16.7493  16.8628  16.8628
    17.2898  17.2898  17.3621  17.3621  17.4559

          k =-0.4949 0.0000 0.3294 ( 62660 PWs)   bands (ev):

   -66.2741 -66.2741 -66.2737 -66.2737 -66.2724 -66.2724 -66.2720 -66.2720
   -30.6554 -30.6554 -30.6480 -30.6480 -30.6329 -30.6329 -30.6141 -30.6141
   -30.6102 -30.6102 -30.5906 -30.5906 -30.5741 -30.5741 -30.5634 -30.5634
   -30.5612 -30.5612 -30.5459 -30.5459 -30.5444 -30.5444 -30.5269 -30.5269
   -20.4385 -20.4385 -20.4383 -20.4383 -20.4367 -20.4367 -20.4365 -20.4365
   -20.4192 -20.4192 -20.4190 -20.4190 -20.4161 -20.4161 -20.4157 -20.4156
   -20.4124 -20.4124 -20.4120 -20.4120 -20.4104 -20.4104 -20.4100 -20.4100
   -20.4091 -20.4091 -20.4088 -20.4088 -20.4049 -20.4048 -20.4046 -20.4046
   -20.4032 -20.4032 -20.4025 -20.4025 -20.4023 -20.4023 -20.3997 -20.3997
   -20.3997 -20.3997 -20.3971 -20.3971 -20.3970 -20.3970 -20.3967 -20.3967
   -20.3932 -20.3932 -20.3919 -20.3919 -20.3908 -20.3908 -20.3903 -20.3903
    -9.5819  -9.5819  -9.3740  -9.3739  -9.1467  -9.1467  -8.8624  -8.8624
    -8.7215  -8.7215  -8.6158  -8.6158  -8.5844  -8.5843  -8.5169  -8.5169
    -8.2735  -8.2735  -8.1654  -8.1654  -7.8430  -7.8430  -7.8194  -7.8194
     1.3541   1.3541   1.3802   1.3802   2.1502   2.1502   2.2452   2.2452
     2.8243   2.8243   2.9485   2.9486   2.9892   2.9893   3.1161   3.1161
     3.1837   3.1838   3.4681   3.4681   3.5922   3.5922   3.6683   3.6683
     3.8013   3.8013   3.8984   3.8984   4.0912   4.0912   4.3113   4.3113
     4.5947   4.5947   4.8218   4.8218   4.9382   4.9382   4.9835   4.9835
     5.2157   5.2157   5.4926   5.4926   5.9329   5.9329   6.0208   6.0208
     6.3144   6.3144   6.3551   6.3551   6.4564   6.4564   6.4699   6.4699
     7.0300   7.0300   7.1330   7.1330   7.2061   7.2061   7.4250   7.4250
     7.4618   7.4618   7.5626   7.5626   7.5965   7.5966   7.8908   7.8908
    10.6401  10.6401  11.2890  11.2890  11.3465  11.3465  11.5259  11.5259
    11.6821  11.6821  12.0885  12.0885  12.4068  12.4068  12.5411  12.5411
    12.7744  12.7744  13.1035  13.1036  13.1365  13.1365  13.4966  13.4966
    14.7694  14.7694  15.1215  15.1215  16.1755  16.1755  16.5856  16.5856
    16.8839  16.8839  17.3170  17.3170  17.8966

          k =-0.4949-0.1601 0.3294 ( 62624 PWs)   bands (ev):

   -66.2741 -66.2741 -66.2737 -66.2737 -66.2724 -66.2724 -66.2720 -66.2720
   -30.6528 -30.6528 -30.6443 -30.6443 -30.6326 -30.6326 -30.6145 -30.6145
   -30.6092 -30.6092 -30.5906 -30.5906 -30.5758 -30.5758 -30.5658 -30.5658
   -30.5638 -30.5638 -30.5464 -30.5464 -30.5447 -30.5447 -30.5270 -30.5270
   -20.4385 -20.4385 -20.4383 -20.4383 -20.4367 -20.4367 -20.4365 -20.4365
   -20.4192 -20.4192 -20.4190 -20.4190 -20.4161 -20.4161 -20.4157 -20.4156
   -20.4122 -20.4122 -20.4118 -20.4118 -20.4104 -20.4104 -20.4101 -20.4101
   -20.4089 -20.4089 -20.4086 -20.4086 -20.4049 -20.4049 -20.4046 -20.4046
   -20.4032 -20.4032 -20.4027 -20.4027 -20.4025 -20.4025 -20.3997 -20.3997
   -20.3997 -20.3997 -20.3971 -20.3971 -20.3970 -20.3970 -20.3968 -20.3968
   -20.3932 -20.3932 -20.3919 -20.3919 -20.3908 -20.3908 -20.3903 -20.3903
    -9.5291  -9.5291  -9.3026  -9.3026  -9.1561  -9.1561  -8.8379  -8.8379
    -8.7276  -8.7276  -8.6174  -8.6174  -8.5780  -8.5780  -8.5167  -8.5167
    -8.2737  -8.2737  -8.1681  -8.1681  -7.9473  -7.9473  -7.9241  -7.9241
     1.5856   1.5856   1.6185   1.6185   2.1527   2.1527   2.2499   2.2499
     2.8838   2.8838   2.9680   2.9680   3.0129   3.0129   3.1257   3.1258
     3.1897   3.1897   3.4955   3.4956   3.6150   3.6150   3.6960   3.6960
     3.7997   3.7997   3.9474   3.9474   4.0653   4.0653   4.3096   4.3096
     4.4688   4.4688   4.6440   4.6440   4.8626   4.8626   4.9078   4.9078
     4.9750   4.9750   5.2519   5.2519   5.6797   5.6797   5.7920   5.7920
     6.4703   6.4703   6.5087   6.5087   6.5757   6.5757   6.6871   6.6871
     7.0454   7.0454   7.1311   7.1312   7.2114   7.2115   7.4258   7.4258
     7.4571   7.4571   7.5521   7.5521   7.5882   7.5882   7.8453   7.8453
    10.7475  10.7475  11.3346  11.3346  11.4187  11.4187  11.5353  11.5353
    11.7108  11.7108  12.1256  12.1256  12.4032  12.4033  12.5451  12.5451
    12.6258  12.6258  12.9738  12.9738  13.0068  13.0068  13.3842  13.3842
    15.1183  15.1183  15.4934  15.4934  16.2516  16.2516  16.5880  16.5880
    16.8947  16.8947  17.3459  17.3459  17.7432

          k =-0.4949-0.3202 0.3294 ( 62610 PWs)   bands (ev):

   -66.2741 -66.2741 -66.2737 -66.2737 -66.2724 -66.2724 -66.2720 -66.2720
   -30.6475 -30.6475 -30.6352 -30.6352 -30.6313 -30.6313 -30.6160 -30.6160
   -30.6050 -30.6050 -30.5903 -30.5903 -30.5833 -30.5833 -30.5724 -30.5724
   -30.5672 -30.5672 -30.5471 -30.5471 -30.5453 -30.5453 -30.5271 -30.5271
   -20.4385 -20.4385 -20.4383 -20.4383 -20.4367 -20.4367 -20.4365 -20.4365
   -20.4192 -20.4192 -20.4190 -20.4190 -20.4161 -20.4161 -20.4157 -20.4156
   -20.4118 -20.4118 -20.4113 -20.4113 -20.4105 -20.4105 -20.4103 -20.4103
   -20.4084 -20.4084 -20.4081 -20.4081 -20.4053 -20.4053 -20.4050 -20.4050
   -20.4035 -20.4035 -20.4032 -20.4032 -20.4028 -20.4028 -20.3997 -20.3997
   -20.3997 -20.3997 -20.3971 -20.3971 -20.3970 -20.3970 -20.3968 -20.3968
   -20.3932 -20.3932 -20.3919 -20.3919 -20.3908 -20.3908 -20.3903 -20.3903
    -9.4024  -9.4024  -9.1890  -9.1890  -9.1101  -9.1101  -8.7666  -8.7666
    -8.7429  -8.7429  -8.6208  -8.6208  -8.5521  -8.5521  -8.5138  -8.5138
    -8.2826  -8.2826  -8.2172  -8.2172  -8.1959  -8.1959  -8.1289  -8.1289
     2.0639   2.0639   2.1787   2.1787   2.2495   2.2495   2.3786   2.3786
     2.9667   2.9668   3.0179   3.0179   3.0841   3.0841   3.1622   3.1622
     3.2463   3.2463   3.5402   3.5402   3.6288   3.6288   3.7416   3.7416
     3.7991   3.7992   3.9610   3.9610   4.0493   4.0493   4.1434   4.1434
     4.2420   4.2420   4.4135   4.4135   4.5045   4.5045   4.7401   4.7401
     4.8065   4.8065   4.9063   4.9063   4.9572   4.9572   5.2515   5.2515
     6.7629   6.7629   6.8474   6.8474   6.9005   6.9005   6.9548   6.9548
     7.0790   7.0790   7.1421   7.1421   7.2392   7.2392   7.4127   7.4128
     7.4391   7.4391   7.5144   7.5144   7.5436   7.5436   7.7070   7.7070
    11.0643  11.0643  11.4194  11.4194  11.5289  11.5289  11.6568  11.6568
    11.8501  11.8501  12.1817  12.1817  12.2657  12.2657  12.3752  12.3752
    12.5691  12.5691  12.6640  12.6640  12.6938  12.6938  13.0970  13.0970
    15.9076  15.9076  16.3542  16.3542  16.5004  16.5004  16.6244  16.6244
    16.9496  16.9496  17.3334  17.3334  17.5177

          k =-0.4949 0.4802 0.3294 ( 62584 PWs)   bands (ev):

   -66.2740 -66.2740 -66.2736 -66.2736 -66.2725 -66.2724 -66.2720 -66.2720
   -30.6451 -30.6451 -30.6306 -30.6306 -30.6282 -30.6282 -30.6184 -30.6184
   -30.5969 -30.5969 -30.5941 -30.5941 -30.5897 -30.5897 -30.5768 -30.5768
   -30.5680 -30.5680 -30.5474 -30.5474 -30.5455 -30.5454 -30.5272 -30.5272
   -20.4385 -20.4385 -20.4383 -20.4383 -20.4367 -20.4367 -20.4365 -20.4365
   -20.4192 -20.4192 -20.4190 -20.4190 -20.4161 -20.4161 -20.4157 -20.4156
   -20.4116 -20.4116 -20.4110 -20.4110 -20.4106 -20.4106 -20.4105 -20.4105
   -20.4079 -20.4079 -20.4077 -20.4077 -20.4056 -20.4056 -20.4053 -20.4053
   -20.4036 -20.4036 -20.4034 -20.4034 -20.4029 -20.4029 -20.3998 -20.3997
   -20.3997 -20.3997 -20.3971 -20.3971 -20.3970 -20.3970 -20.3968 -20.3968
   -20.3932 -20.3932 -20.3919 -20.3919 -20.3908 -20.3908 -20.3903 -20.3903
    -9.3041  -9.3041  -9.2359  -9.2359  -8.9128  -8.9127  -8.8509  -8.8509
    -8.6440  -8.6440  -8.6146  -8.6146  -8.4965  -8.4965  -8.4739  -8.4739
    -8.4425  -8.4425  -8.4034  -8.4033  -8.2609  -8.2609  -8.1526  -8.1526
     2.1181   2.1181   2.2081   2.2081   2.8524   2.8524   2.9233   2.9233
     3.0088   3.0088   3.0428   3.0428   3.1113   3.1113   3.1359   3.1359
     3.3347   3.3347   3.3726   3.3726   3.4961   3.4961   3.6353   3.6353
     3.7110   3.7110   3.8435   3.8435   4.0950   4.0951   4.1502   4.1502
     4.2246   4.2246   4.2647   4.2647   4.3665   4.3665   4.4316   4.4316
     4.5816   4.5816   4.6993   4.6993   4.9353   4.9353   4.9598   4.9598
     6.8656   6.8656   7.0001   7.0001   7.0350   7.0350   7.0614   7.0614
     7.1675   7.1675   7.2379   7.2380   7.3086   7.3086   7.3377   7.3377
     7.4057   7.4057   7.4848   7.4849   7.5003   7.5003   7.5739   7.5739
    11.3764  11.3764  11.4627  11.4627  11.5872  11.5872  11.6907  11.6907
    12.0371  12.0371  12.1061  12.1061  12.1682  12.1682  12.2452  12.2452
    12.3786  12.3786  12.5227  12.5227  12.7408  12.7408  12.8295  12.8295
    16.3366  16.3366  16.4608  16.4608  16.9212  16.9212  17.0204  17.0204
    17.2663  17.2663  17.3673  17.3674  17.4565

     the Fermi energy is     8.8148 ev

!    total energy              =   -6261.10911230 Ry
     Harris-Foulkes estimate   =   -6261.10911230 Ry
     estimated scf accuracy    <          2.9E-11 Ry

     The total energy is the sum of the following terms:

     one-electron contribution =   -4741.22145017 Ry
     hartree contribution      =    2605.98701007 Ry
     xc contribution           =    -965.66474059 Ry
     ewald contribution        =   -3160.20993160 Ry
     smearing contrib. (-TS)   =      -0.00000000 Ry

     convergence has been achieved in  16 iterations

     Forces acting on atoms (cartesian axes, Ry/au):

     atom    1 type  1   force =     0.00484431    0.00435783    0.00444939
     atom    2 type  1   force =     0.00282890   -0.00510656    0.00583269
     atom    3 type  1   force =    -0.00484431   -0.00435783    0.00444939
     atom    4 type  1   force =    -0.00282890    0.00510656    0.00583269
     atom    5 type  1   force =    -0.00484431    0.00435783   -0.00444939
     atom    6 type  1   force =    -0.00282890   -0.00510656   -0.00583269
     atom    7 type  1   force =     0.00484431   -0.00435783   -0.00444939
     atom    8 type  1   force =     0.00282890    0.00510656   -0.00583269
     atom    9 type  2   force =    -0.00073693   -0.00281755    0.00040866
     atom   10 type  2   force =    -0.00087679    0.00265486   -0.00021766
     atom   11 type  2   force =     0.00073693    0.00281755    0.00040866
     atom   12 type  2   force =     0.00087679   -0.00265486   -0.00021766
     atom   13 type  2   force =     0.00073693   -0.00281755   -0.00040866
     atom   14 type  2   force =     0.00087679    0.00265486    0.00021766
     atom   15 type  2   force =    -0.00073693    0.00281755   -0.00040866
     atom   16 type  2   force =    -0.00087679   -0.00265486    0.00021766
     atom   17 type  2   force =     0.00378097   -0.00102201   -0.00049379
     atom   18 type  2   force =     0.00212739   -0.00048251   -0.00020338
     atom   19 type  2   force =    -0.00378097    0.00102201   -0.00049379
     atom   20 type  2   force =    -0.00212739    0.00048251   -0.00020338
     atom   21 type  2   force =    -0.00378097   -0.00102201    0.00049379
     atom   22 type  2   force =    -0.00212739   -0.00048251    0.00020338
     atom   23 type  2   force =     0.00378097    0.00102201    0.00049379
     atom   24 type  2   force =     0.00212739    0.00048251    0.00020338
     atom   25 type  2   force =    -0.00128823   -0.00021467    0.00297455
     atom   26 type  2   force =     0.00132247    0.00008023    0.00383493
     atom   27 type  2   force =     0.00128823    0.00021467    0.00297455
     atom   28 type  2   force =    -0.00132247   -0.00008023    0.00383493
     atom   29 type  2   force =     0.00128823   -0.00021467   -0.00297455
     atom   30 type  2   force =    -0.00132247    0.00008023   -0.00383493
     atom   31 type  2   force =    -0.00128823    0.00021467   -0.00297455
     atom   32 type  2   force =     0.00132247   -0.00008023   -0.00383493

     Total force =     0.000000     Total SCF correction =     0.000000


     Computing stress (Cartesian axis) and pressure

          total   stress  (Ry/bohr**3)                   (kbar)     P=    0.35
   0.00000384   0.00000000   0.00000000          0.56      0.00      0.00
   0.00000000  -0.00000105   0.00000000          0.00     -0.15      0.00
   0.00000000   0.00000000   0.00000443          0.00      0.00      0.65


     Writing output data file Landau_12.save
 
     init_run     :    103.79s CPU    107.42s WALL (       2 calls)
     electrons    :  13444.31s CPU  13746.00s WALL (       6 calls)
     update_pot   :     95.84s CPU     96.25s WALL (       4 calls)
     forces       :    223.35s CPU    226.44s WALL (       6 calls)
     stress       :   1344.04s CPU   1363.43s WALL (       6 calls)

     Called by init_run:
     wfcinit      :     83.51s CPU     86.84s WALL (       2 calls)
     potinit      :      8.47s CPU      8.55s WALL (       2 calls)

     Called by electrons:
     c_bands      :  12243.61s CPU  12528.80s WALL (      90 calls)
     sum_band     :   1129.94s CPU   1140.56s WALL (      90 calls)
     v_of_rho     :      9.61s CPU      9.84s WALL (      95 calls)
     mix_rho      :     15.57s CPU     19.98s WALL (      90 calls)

     Called by c_bands:
     init_us_2    :     56.05s CPU     61.14s WALL (     388 calls)
     cegterg      :  10337.18s CPU  10605.00s WALL (     180 calls)

     Called by sum_band:

     Called by *egterg:
     h_psi        :   7287.79s CPU   7344.44s WALL (     744 calls)
     g_psi        :     11.12s CPU     11.22s WALL (     560 calls)
     cdiaghg      :    130.65s CPU    131.23s WALL (     730 calls)

     Called by h_psi:
     h_psi:pot    :   7259.76s CPU   7314.47s WALL (     744 calls)
     h_psi:calbec :   1192.61s CPU   1223.28s WALL (     744 calls)
     vloc_psi     :   4844.63s CPU   4861.08s WALL (     744 calls)
     add_vuspsi   :   1222.51s CPU   1230.10s WALL (     744 calls)

     General routines
     calbec       :   1348.79s CPU   1380.07s WALL (     804 calls)
     fft          :      9.34s CPU      9.40s WALL (     428 calls)
     fftw         :   5199.87s CPU   5214.69s WALL (  237214 calls)
 
     Parallel routines
 
     PWSCF        :     4h13m CPU        4h19m WALL

 
   This run was terminated on:   5:19:51  23Mar2020            

=------------------------------------------------------------------------------=
   JOB DONE.
=------------------------------------------------------------------------------=
