
     Program PWSCF v.6.2 (svn rev. 14038) starts on 23Mar2020 at 23:18:37 

     This program is part of the open-source Quantum ESPRESSO suite
     for quantum simulation of materials; please cite
         "P. Giannozzi et al., J. Phys.:Condens. Matter 21 395502 (2009);
         "P. Giannozzi et al., J. Phys.:Condens. Matter 29 465901 (2017);
          URL http://www.quantum-espresso.org", 
     in publications or presentations arising from this work. More details at
     http://www.quantum-espresso.org/quote

     Parallel version (MPI), running on    40 processors

     MPI processes distributed on     7 nodes
     K-points division:     npool     =      40
     Reading input from rscf.in

     Current dimensions of program PWSCF are:
     Max number of different atomic species (ntypx) = 10
     Max number of k-points (npk) =  40000
     Max angular momentum in pseudopotentials (lmaxx) =  3

     Subspace diagonalization in iterative solution of the eigenvalue problem:
     a serial algorithm will be used

 
     G-vector sticks info
     --------------------
     sticks:   dense  smooth     PW     G-vecs:    dense   smooth      PW
     Sum        7747    7747   2077               498127   498127   69057
 


     bravais-lattice index     =            0
     lattice parameter (alat)  =      13.8397  a.u.
     unit-cell volume          =    2804.9816 (a.u.)^3
     number of atoms/cell      =           32
     number of atomic types    =            2
     number of electrons       =       368.00
     number of Kohn-Sham states=          221
     kinetic-energy cutoff     =     120.0000  Ry
     charge density cutoff     =     480.0000  Ry
     convergence threshold     =      1.0E-08
     mixing beta               =       0.7000
     number of iterations used =            8  plain     mixing
     Exchange-correlation      = SLA PW NOGX NOGC ( 1  4  0  0 0 0)
     nstep                     =           50


     celldm(1)=  13.839685  celldm(2)=   0.000000  celldm(3)=   0.000000
     celldm(4)=   0.000000  celldm(5)=   0.000000  celldm(6)=   0.000000

     crystal axes: (cart. coord. in units of alat)
               a(1) = (   1.000000   0.000000   0.000000 )  
               a(2) = (   0.000000   1.058160   0.000000 )  
               a(3) = (   0.000000   0.000000   1.000000 )  

     reciprocal axes: (cart. coord. in units 2 pi/alat)
               b(1) = (  1.000000  0.000000  0.000000 )  
               b(2) = (  0.000000  0.945037  0.000000 )  
               b(3) = (  0.000000  0.000000  1.000000 )  


     PseudoPot. # 1 for W  read from file:
     /cluster/scratch/mnoe/QE/pps/W_ONCV_LDA-4.0.upf
     MD5 check sum: ba0307d5d4cd419d6f1d13dc49d7c13a
     Pseudo is Norm-conserving + core correction, Zval = 28.0
     Generated using ONCVPSP code by D. R. Hamann
     Using radial grid of 1380 points,  8 beta functions with: 
                l(1) =   0
                l(2) =   0
                l(3) =   1
                l(4) =   1
                l(5) =   2
                l(6) =   2
                l(7) =   3
                l(8) =   3

     PseudoPot. # 2 for O  read from file:
     /cluster/scratch/mnoe/QE/pps/O_ONCV_LDA-3.0.upf
     MD5 check sum: a1bd6164e7280c17a38c229939bfbd54
     Pseudo is Norm-conserving + core correction, Zval =  6.0
     Generated using ONCVPSP code by D. R. Hamann
     Using radial grid of  926 points,  5 beta functions with: 
                l(1) =   0
                l(2) =   0
                l(3) =   1
                l(4) =   1
                l(5) =   2

     atomic species   valence    mass     pseudopotential
        W             28.00   183.84000     W ( 1.00)
        O              6.00    15.99940     O ( 1.00)

      4 Sym. Ops. (no inversion) found ( 3 have fractional translation)



   Cartesian axes

     site n.     atom                  positions (alat units)
         1           W   tau(   1) = (   0.2414942   0.2867719   0.0039527  )
         2           W   tau(   2) = (   0.7544329   0.7713882  -0.0082657  )
         3           W   tau(   3) = (   0.2585058   0.2423081   0.5039527  )
         4           W   tau(   4) = (   0.7455670   0.8158520   0.4917343  )
         5           W   tau(   5) = (   0.7585057   0.2867719   0.4960473  )
         6           W   tau(   6) = (   0.2455670   0.7713882   0.5082657  )
         7           W   tau(   7) = (   0.7414942   0.2423081  -0.0039527  )
         8           W   tau(   8) = (   0.2544330   0.8158520   0.0082657  )
         9           O   tau(   9) = (   0.2374319   0.0056761  -0.0020795  )
        10           O   tau(  10) = (   0.7613021  -0.0056762  -0.0058772  )
        11           O   tau(  11) = (   0.2625681   0.5234040   0.4979205  )
        12           O   tau(  12) = (   0.7386977   0.5347562   0.4941228  )
        13           O   tau(  13) = (   0.7625680   0.0056761   0.5020795  )
        14           O   tau(  14) = (   0.2386978  -0.0056762   0.5058772  )
        15           O   tau(  15) = (   0.7374318   0.5234040   0.0020795  )
        16           O   tau(  16) = (   0.2613022   0.5347562   0.0058772  )
        17           O   tau(  17) = (   0.5026635   0.2506427   0.4760705  )
        18           O   tau(  18) = (   0.4991246   0.8056327   0.5239296  )
        19           O   tau(  19) = (  -0.0026635   0.2784373   0.9760705  )
        20           O   tau(  20) = (   0.0008754   0.7816075   0.0239294  )
        21           O   tau(  21) = (   0.4973365   0.2506427   0.0239294  )
        22           O   tau(  22) = (   0.5008754   0.8056327   0.9760705  )
        23           O   tau(  23) = (   0.0026635   0.2784373   0.5239296  )
        24           O   tau(  24) = (  -0.0008754   0.7816075   0.4760705  )
        25           O   tau(  25) = (   0.7260705   0.2660313   0.7479076  )
        26           O   tau(  26) = (   0.2739295   0.8007655   0.2532720  )
        27           O   tau(  27) = (   0.7739297   0.2630488   0.2479077  )
        28           O   tau(  28) = (   0.2260705   0.7864747   0.7532719  )
        29           O   tau(  29) = (   0.2739295   0.2660313   0.7520923  )
        30           O   tau(  30) = (   0.7260705   0.8007655   0.2467280  )
        31           O   tau(  31) = (   0.2260705   0.2630488   0.2520923  )
        32           O   tau(  32) = (   0.7739297   0.7864747   0.7467280  )

     number of k points=    64  gaussian smearing, width (Ry)=  0.0007
                       cart. coord. in units 2pi/alat
        k(    1) = (   0.0000000   0.0000000   0.0000000), wk =   0.0092593
        k(    2) = (   0.0000000   0.0000000   0.1666667), wk =   0.0185185
        k(    3) = (   0.0000000   0.0000000   0.3333333), wk =   0.0185185
        k(    4) = (   0.0000000   0.0000000  -0.5000000), wk =   0.0092593
        k(    5) = (   0.0000000   0.1575061   0.0000000), wk =   0.0185185
        k(    6) = (   0.0000000   0.1575061   0.1666667), wk =   0.0370370
        k(    7) = (   0.0000000   0.1575061   0.3333333), wk =   0.0370370
        k(    8) = (   0.0000000   0.1575061  -0.5000000), wk =   0.0185185
        k(    9) = (   0.0000000   0.3150122   0.0000000), wk =   0.0185185
        k(   10) = (   0.0000000   0.3150122   0.1666667), wk =   0.0370370
        k(   11) = (   0.0000000   0.3150122   0.3333333), wk =   0.0370370
        k(   12) = (   0.0000000   0.3150122  -0.5000000), wk =   0.0185185
        k(   13) = (   0.0000000  -0.4725183   0.0000000), wk =   0.0092593
        k(   14) = (   0.0000000  -0.4725183   0.1666667), wk =   0.0185185
        k(   15) = (   0.0000000  -0.4725183   0.3333333), wk =   0.0185185
        k(   16) = (   0.0000000  -0.4725183  -0.5000000), wk =   0.0092593
        k(   17) = (   0.1666667   0.0000000   0.1666667), wk =   0.0370370
        k(   18) = (   0.1666667   0.0000000   0.3333333), wk =   0.0370370
        k(   19) = (   0.1666667   0.0000000  -0.5000000), wk =   0.0185185
        k(   20) = (   0.1666667   0.1575061   0.1666667), wk =   0.0740741
        k(   21) = (   0.1666667   0.1575061   0.3333333), wk =   0.0740741
        k(   22) = (   0.1666667   0.1575061  -0.5000000), wk =   0.0370370
        k(   23) = (   0.1666667   0.3150122   0.1666667), wk =   0.0740741
        k(   24) = (   0.1666667   0.3150122   0.3333333), wk =   0.0740741
        k(   25) = (   0.1666667   0.3150122  -0.5000000), wk =   0.0370370
        k(   26) = (   0.1666667  -0.4725183   0.1666667), wk =   0.0370370
        k(   27) = (   0.1666667  -0.4725183   0.3333333), wk =   0.0370370
        k(   28) = (   0.1666667  -0.4725183  -0.5000000), wk =   0.0185185
        k(   29) = (   0.3333333   0.0000000   0.3333333), wk =   0.0370370
        k(   30) = (   0.3333333   0.0000000  -0.5000000), wk =   0.0185185
        k(   31) = (   0.3333333   0.1575061   0.3333333), wk =   0.0740741
        k(   32) = (   0.3333333   0.1575061  -0.5000000), wk =   0.0370370
        k(   33) = (   0.3333333   0.3150122   0.3333333), wk =   0.0740741
        k(   34) = (   0.3333333   0.3150122  -0.5000000), wk =   0.0370370
        k(   35) = (   0.3333333  -0.4725183   0.3333333), wk =   0.0370370
        k(   36) = (   0.3333333  -0.4725183  -0.5000000), wk =   0.0185185
        k(   37) = (  -0.5000000   0.0000000  -0.5000000), wk =   0.0092593
        k(   38) = (  -0.5000000   0.1575061  -0.5000000), wk =   0.0185185
        k(   39) = (  -0.5000000   0.3150122  -0.5000000), wk =   0.0185185
        k(   40) = (  -0.5000000  -0.4725183  -0.5000000), wk =   0.0092593
        k(   41) = (   0.1666667   0.0000000   0.0000000), wk =   0.0185185
        k(   42) = (   0.3333333   0.0000000   0.0000000), wk =   0.0185185
        k(   43) = (  -0.5000000   0.0000000   0.0000000), wk =   0.0092593
        k(   44) = (   0.1666667  -0.1575061   0.0000000), wk =   0.0370370
        k(   45) = (   0.3333333  -0.1575061   0.0000000), wk =   0.0370370
        k(   46) = (  -0.5000000  -0.1575061   0.0000000), wk =   0.0185185
        k(   47) = (   0.1666667  -0.3150122   0.0000000), wk =   0.0370370
        k(   48) = (   0.3333333  -0.3150122   0.0000000), wk =   0.0370370
        k(   49) = (  -0.5000000  -0.3150122   0.0000000), wk =   0.0185185
        k(   50) = (   0.1666667   0.4725183   0.0000000), wk =   0.0185185
        k(   51) = (   0.3333333   0.4725183   0.0000000), wk =   0.0185185
        k(   52) = (  -0.5000000   0.4725183   0.0000000), wk =   0.0092593
        k(   53) = (   0.3333333   0.0000000   0.1666667), wk =   0.0370370
        k(   54) = (  -0.5000000   0.0000000   0.1666667), wk =   0.0185185
        k(   55) = (   0.3333333  -0.1575061   0.1666667), wk =   0.0740741
        k(   56) = (  -0.5000000  -0.1575061   0.1666667), wk =   0.0370370
        k(   57) = (   0.3333333  -0.3150122   0.1666667), wk =   0.0740741
        k(   58) = (  -0.5000000  -0.3150122   0.1666667), wk =   0.0370370
        k(   59) = (   0.3333333   0.4725183   0.1666667), wk =   0.0370370
        k(   60) = (  -0.5000000   0.4725183   0.1666667), wk =   0.0185185
        k(   61) = (  -0.5000000   0.0000000   0.3333333), wk =   0.0185185
        k(   62) = (  -0.5000000  -0.1575061   0.3333333), wk =   0.0370370
        k(   63) = (  -0.5000000  -0.3150122   0.3333333), wk =   0.0370370
        k(   64) = (  -0.5000000   0.4725183   0.3333333), wk =   0.0185185

     Dense  grid:   498127 G-vectors     FFT dimensions: ( 100, 108, 100)

     Estimated max dynamical RAM per process >       3.15 GB

     Estimated total dynamical RAM >     125.81 GB

     Initial potential from superposition of free atoms

     starting charge  367.99656, renormalised to  368.00000
     Starting wfc are  232 randomized atomic wfcs

     total cpu time spent up to now is       63.5 secs

     Self-consistent Calculation

     iteration #  1     ecut=   120.00 Ry     beta= 0.70
     Davidson diagonalization with overlap
     ethr =  1.00E-02,  avg # of iterations =  5.2

     total cpu time spent up to now is      236.1 secs

     total energy              =   -6254.03487632 Ry
     Harris-Foulkes estimate   =   -6264.53662862 Ry
     estimated scf accuracy    <      13.33320187 Ry

     iteration #  2     ecut=   120.00 Ry     beta= 0.70
     Davidson diagonalization with overlap
     ethr =  3.62E-03,  avg # of iterations =  3.8

     total cpu time spent up to now is      402.6 secs

     total energy              =   -6251.14894218 Ry
     Harris-Foulkes estimate   =   -6270.26947559 Ry
     estimated scf accuracy    <      50.80275263 Ry

     iteration #  3     ecut=   120.00 Ry     beta= 0.70
     Davidson diagonalization with overlap
     ethr =  3.62E-03,  avg # of iterations =  3.7

     total cpu time spent up to now is      559.4 secs

     total energy              =   -6260.96242744 Ry
     Harris-Foulkes estimate   =   -6261.37615760 Ry
     estimated scf accuracy    <       1.29866532 Ry

     iteration #  4     ecut=   120.00 Ry     beta= 0.70
     Davidson diagonalization with overlap
     ethr =  3.53E-04,  avg # of iterations =  3.8

     total cpu time spent up to now is      689.7 secs

     total energy              =   -6261.01409755 Ry
     Harris-Foulkes estimate   =   -6261.10488390 Ry
     estimated scf accuracy    <       0.31341162 Ry

     iteration #  5     ecut=   120.00 Ry     beta= 0.70
     Davidson diagonalization with overlap
     ethr =  8.52E-05,  avg # of iterations =  3.7

     total cpu time spent up to now is      819.2 secs

     total energy              =   -6260.99757859 Ry
     Harris-Foulkes estimate   =   -6261.04153300 Ry
     estimated scf accuracy    <       0.09467687 Ry

     iteration #  6     ecut=   120.00 Ry     beta= 0.70
     Davidson diagonalization with overlap
     ethr =  2.57E-05,  avg # of iterations =  6.3

     total cpu time spent up to now is      963.7 secs

     total energy              =   -6261.01936431 Ry
     Harris-Foulkes estimate   =   -6261.02107765 Ry
     estimated scf accuracy    <       0.00514437 Ry

     iteration #  7     ecut=   120.00 Ry     beta= 0.70
     Davidson diagonalization with overlap
     ethr =  1.40E-06,  avg # of iterations =  6.4

     total cpu time spent up to now is     1106.5 secs

     total energy              =   -6261.01985253 Ry
     Harris-Foulkes estimate   =   -6261.01997827 Ry
     estimated scf accuracy    <       0.00035022 Ry

     iteration #  8     ecut=   120.00 Ry     beta= 0.70
     Davidson diagonalization with overlap
     ethr =  9.52E-08,  avg # of iterations =  3.0

     total cpu time spent up to now is     1243.4 secs

     total energy              =   -6261.01989311 Ry
     Harris-Foulkes estimate   =   -6261.01993097 Ry
     estimated scf accuracy    <       0.00009554 Ry

     iteration #  9     ecut=   120.00 Ry     beta= 0.70
     Davidson diagonalization with overlap
     ethr =  2.60E-08,  avg # of iterations =  2.8

     total cpu time spent up to now is     1376.1 secs

     total energy              =   -6261.01991136 Ry
     Harris-Foulkes estimate   =   -6261.01991800 Ry
     estimated scf accuracy    <       0.00002139 Ry

     iteration # 10     ecut=   120.00 Ry     beta= 0.70
     Davidson diagonalization with overlap
     ethr =  5.81E-09,  avg # of iterations =  2.1

     total cpu time spent up to now is     1499.0 secs

     total energy              =   -6261.01991374 Ry
     Harris-Foulkes estimate   =   -6261.01991510 Ry
     estimated scf accuracy    <       0.00000381 Ry

     iteration # 11     ecut=   120.00 Ry     beta= 0.70
     Davidson diagonalization with overlap
     ethr =  1.04E-09,  avg # of iterations =  2.0

     total cpu time spent up to now is     1619.4 secs

     total energy              =   -6261.01991406 Ry
     Harris-Foulkes estimate   =   -6261.01991424 Ry
     estimated scf accuracy    <       0.00000035 Ry

     iteration # 12     ecut=   120.00 Ry     beta= 0.70
     Davidson diagonalization with overlap
     ethr =  9.46E-11,  avg # of iterations =  3.1

     total cpu time spent up to now is     1791.1 secs

     total energy              =   -6261.01991416 Ry
     Harris-Foulkes estimate   =   -6261.01991418 Ry
     estimated scf accuracy    <       0.00000005 Ry

     iteration # 13     ecut=   120.00 Ry     beta= 0.70
     Davidson diagonalization with overlap
     ethr =  1.34E-11,  avg # of iterations =  2.5

     total cpu time spent up to now is     1924.8 secs

     total energy              =   -6261.01991416 Ry
     Harris-Foulkes estimate   =   -6261.01991417 Ry
     estimated scf accuracy    <       0.00000001 Ry

     iteration # 14     ecut=   120.00 Ry     beta= 0.70
     Davidson diagonalization with overlap
     ethr =  3.84E-12,  avg # of iterations =  2.0

     total cpu time spent up to now is     2065.3 secs

     End of self-consistent calculation

          k = 0.0000 0.0000 0.0000 ( 62239 PWs)   bands (ev):

   -66.1521 -66.1516 -66.1511 -66.1510 -66.1506 -66.1506 -66.1500 -66.1496
   -30.6096 -30.6079 -30.6033 -30.6012 -30.5940 -30.5922 -30.5886 -30.5861
   -30.4962 -30.4941 -30.4909 -30.4895 -30.4820 -30.4799 -30.4760 -30.4742
   -30.4459 -30.4405 -30.4402 -30.4350 -30.3874 -30.3826 -30.3825 -30.3778
   -20.2966 -20.2965 -20.2964 -20.2963 -20.2963 -20.2962 -20.2962 -20.2961
   -20.2735 -20.2732 -20.2726 -20.2724 -20.2718 -20.2714 -20.2712 -20.2709
   -20.2706 -20.2702 -20.2702 -20.2700 -20.2699 -20.2696 -20.2695 -20.2693
   -20.2691 -20.2688 -20.2687 -20.2681 -20.2653 -20.2648 -20.2646 -20.2644
   -20.2644 -20.2637 -20.2635 -20.2627 -20.2625 -20.2622 -20.2620 -20.2612
   -20.2604 -20.2599 -20.2598 -20.2594 -20.2594 -20.2588 -20.2574 -20.2571
   -20.2545 -20.2539 -20.2533 -20.2528 -20.2526 -20.2521 -20.2517 -20.2508
   -10.1592  -9.9939  -9.7641  -9.7519  -9.6470  -9.6307  -9.4050  -9.3876
    -8.8133  -8.7523  -8.7517  -8.7453  -7.8218  -7.8122  -7.7770  -7.7722
    -7.7412  -7.7389  -7.7041  -7.7018  -7.5927  -7.5334  -7.5305  -7.4768
     0.6164   0.6225   0.8008   0.8192   0.8261   0.8445   1.0869   1.1428
     1.7525   1.7810   1.7866   1.8633   2.0460   2.1287   2.5340   2.5437
     2.6645   2.6676   4.0985   4.1167   4.1280   4.1495   4.3147   4.3246
     4.3587   4.3675   4.9114   5.1151   5.1179   5.1320   5.1676   5.3874
     5.3905   5.5194   5.5489   5.5607   5.5683   5.5712   5.5978   5.6351
     5.8849   5.8953   5.9716   5.9823   6.0801   6.0938   6.1261   6.1766
     6.1884   6.2874   6.3674   6.4233   6.4507   6.6482   6.8491   7.0428
     7.0518   7.0580   7.0682   7.1018   7.1083   7.1131   7.1610   7.1775
     7.1929   7.2085   8.0934   8.0967   8.1974   8.2239   8.2280   8.2549
     9.0967   9.1265   9.4972   9.5022   9.5551   9.5674  12.2846  12.3203
    12.3717  12.3973  12.7708  12.7769  12.8226  12.8339  13.1252  13.2237
    13.2698  13.3063  13.7791  13.9313  13.9876  14.0118  14.1716  14.2188
    14.3318  14.3716  14.5119  14.9225  15.3776  15.4328  15.4436  16.4748
    16.4845  17.1024  17.4194  17.5015  17.5234

          k = 0.0000 0.0000 0.1667 ( 62262 PWs)   bands (ev):

   -66.1520 -66.1515 -66.1511 -66.1510 -66.1507 -66.1505 -66.1501 -66.1497
   -30.6074 -30.6021 -30.6016 -30.5960 -30.5917 -30.5868 -30.5865 -30.5812
   -30.5039 -30.4986 -30.4937 -30.4911 -30.4893 -30.4829 -30.4795 -30.4746
   -30.4454 -30.4405 -30.4401 -30.4353 -30.3870 -30.3827 -30.3823 -30.3781
   -20.2966 -20.2964 -20.2964 -20.2963 -20.2963 -20.2962 -20.2962 -20.2961
   -20.2735 -20.2732 -20.2724 -20.2722 -20.2717 -20.2714 -20.2712 -20.2709
   -20.2706 -20.2703 -20.2702 -20.2701 -20.2697 -20.2697 -20.2694 -20.2692
   -20.2692 -20.2688 -20.2687 -20.2682 -20.2652 -20.2648 -20.2646 -20.2644
   -20.2642 -20.2638 -20.2636 -20.2626 -20.2625 -20.2618 -20.2617 -20.2609
   -20.2605 -20.2599 -20.2595 -20.2592 -20.2591 -20.2587 -20.2576 -20.2572
   -20.2550 -20.2539 -20.2538 -20.2534 -20.2525 -20.2525 -20.2521 -20.2510
   -10.1031  -9.9356  -9.7626  -9.6668  -9.6388  -9.5440  -9.3585  -9.3400
    -8.8245  -8.7590  -8.7436  -8.7400  -7.9709  -7.9396  -7.9013  -7.8753
    -7.8096  -7.7693  -7.7463  -7.7067  -7.5885  -7.5374  -7.5273  -7.4805
     0.7297   0.7424   0.8268   0.8457   1.1036   1.1245   1.2554   1.3416
     1.7485   1.7804   1.7935   1.8952   2.1359   2.2183   2.5466   2.6324
     2.6558   2.7574   3.9711   4.0401   4.1203   4.1215   4.1410   4.1713
     4.4034   4.4320   4.6697   4.7403   4.8958   5.1202   5.1624   5.1770
     5.2902   5.3476   5.4475   5.5059   5.5486   5.5774   5.6612   5.7021
     5.7788   5.9000   5.9076   6.0388   6.0717   6.1045   6.1941   6.2180
     6.2776   6.3554   6.4351   6.5363   6.6429   6.7340   6.7914   6.8519
     6.8567   6.8660   6.9088   6.9381   7.0403   7.0687   7.0883   7.0940
     7.1798   7.2051   8.0387   8.0409   8.1819   8.2059   8.2145   8.2283
     9.4748   9.5011   9.5116   9.5763   9.8416   9.8908  12.3114  12.3570
    12.3942  12.4475  12.6036  12.6477  12.8272  12.8771  12.9974  13.0689
    13.1362  13.2705  13.7777  13.9232  13.9767  13.9864  14.0863  14.0935
    14.3239  14.4898  14.5066  15.0539  15.3489  15.5686  15.6099  16.4610
    16.8853  17.0813  17.1967  17.5752  17.5980

          k = 0.0000 0.0000 0.3333 ( 62268 PWs)   bands (ev):

   -66.1518 -66.1514 -66.1513 -66.1509 -66.1508 -66.1504 -66.1503 -66.1499
   -30.6060 -30.6028 -30.5910 -30.5877 -30.5814 -30.5756 -30.5668 -30.5610
   -30.5250 -30.5195 -30.5109 -30.5057 -30.4927 -30.4894 -30.4785 -30.4757
   -30.4443 -30.4414 -30.4390 -30.4362 -30.3860 -30.3835 -30.3813 -30.3789
   -20.2965 -20.2965 -20.2964 -20.2963 -20.2963 -20.2962 -20.2962 -20.2961
   -20.2734 -20.2732 -20.2720 -20.2718 -20.2715 -20.2714 -20.2711 -20.2710
   -20.2705 -20.2704 -20.2704 -20.2702 -20.2698 -20.2696 -20.2694 -20.2691
   -20.2690 -20.2689 -20.2688 -20.2683 -20.2650 -20.2647 -20.2646 -20.2643
   -20.2641 -20.2639 -20.2638 -20.2630 -20.2618 -20.2613 -20.2608 -20.2605
   -20.2603 -20.2597 -20.2589 -20.2585 -20.2581 -20.2580 -20.2580 -20.2577
   -20.2565 -20.2555 -20.2548 -20.2540 -20.2535 -20.2525 -20.2522 -20.2513
    -9.9770  -9.8127  -9.7972  -9.6651  -9.3969  -9.2492  -9.1966  -9.1593
    -8.8732  -8.7877  -8.7203  -8.7119  -8.3525  -8.3258  -8.3066  -8.2703
    -7.7976  -7.7602  -7.7562  -7.7200  -7.5779  -7.5484  -7.5176  -7.4906
     0.8104   0.8282   0.8309   0.8483   1.6578   1.6639   1.7401   1.7670
     1.9425   2.0645   2.0950   2.2505   2.3995   2.4792   2.5701   2.6333
     2.8927   3.0014   3.3864   3.4635   3.9207   3.9791   4.1251   4.1269
     4.1612   4.2382   4.4324   4.5881   4.6292   4.7264   4.7625   4.8082
     4.8358   5.1018   5.1439   5.2040   5.2732   5.3036   5.6286   5.8115
     5.9347   5.9464   6.0287   6.0476   6.0833   6.1384   6.2100   6.2196
     6.3189   6.3508   6.3647   6.4121   6.4456   6.5881   6.6306   6.8120
     6.8805   6.9892   6.9971   7.0028   7.0570   7.0582   7.1757   7.1979
     7.2387   7.2997   7.8424   7.8536   8.0262   8.0525   8.2299   8.2301
     9.5117   9.5386  10.3214  10.3412  10.6206  10.6491  12.0500  12.0840
    12.2097  12.3907  12.3942  12.5527  12.5867  12.6762  13.0051  13.0473
    13.1283  13.2845  13.5378  13.5933  13.6448  13.8058  13.9844  14.0227
    14.3905  14.4897  14.8065  15.2568  15.3674  15.9285  16.2744  16.3795
    16.4458  17.4629  17.7206  17.8162  17.8900

          k = 0.0000 0.0000-0.5000 ( 62264 PWs)   bands (ev):

   -66.1516 -66.1515 -66.1511 -66.1511 -66.1506 -66.1505 -66.1501 -66.1501
   -30.6044 -30.6044 -30.5893 -30.5893 -30.5534 -30.5534 -30.5477 -30.5476
   -30.5390 -30.5390 -30.5334 -30.5334 -30.4912 -30.4912 -30.4771 -30.4771
   -30.4428 -30.4428 -30.4376 -30.4376 -30.3848 -30.3847 -30.3801 -30.3801
   -20.2965 -20.2965 -20.2964 -20.2964 -20.2963 -20.2963 -20.2962 -20.2961
   -20.2733 -20.2733 -20.2717 -20.2717 -20.2714 -20.2714 -20.2710 -20.2710
   -20.2708 -20.2707 -20.2701 -20.2701 -20.2700 -20.2700 -20.2691 -20.2691
   -20.2689 -20.2689 -20.2686 -20.2686 -20.2647 -20.2647 -20.2645 -20.2645
   -20.2641 -20.2640 -20.2635 -20.2635 -20.2611 -20.2611 -20.2609 -20.2608
   -20.2588 -20.2588 -20.2586 -20.2585 -20.2579 -20.2578 -20.2576 -20.2576
   -20.2567 -20.2566 -20.2561 -20.2560 -20.2530 -20.2530 -20.2518 -20.2518
    -9.8649  -9.8649  -9.7172  -9.7172  -9.0554  -9.0554  -8.9255  -8.9254
    -8.8107  -8.8107  -8.8002  -8.8002  -8.6439  -8.6439  -8.6022  -8.6022
    -7.7790  -7.7790  -7.7382  -7.7382  -7.5633  -7.5632  -7.5042  -7.5042
     0.8269   0.8269   0.8480   0.8480   1.7286   1.7286   1.7462   1.7462
     2.5951   2.5952   2.7981   2.7981   2.8769   2.8769   3.0096   3.0096
     3.0495   3.0495   3.1194   3.1194   3.2550   3.2550   3.6424   3.6424
     3.7155   3.7155   4.1665   4.1665   4.6653   4.6653   4.8627   4.8627
     4.9449   4.9449   4.9966   4.9966   5.1797   5.1797   5.7743   5.7743
     5.9987   5.9987   6.0437   6.0437   6.0787   6.0787   6.2322   6.2322
     6.2476   6.2476   6.2737   6.2737   6.3704   6.3704   6.7204   6.7204
     6.8897   6.8897   7.0508   7.0508   7.1894   7.1894   7.4829   7.4829
     7.4939   7.4939   7.7183   7.7183   7.7506   7.7506   8.2325   8.2325
     9.5255   9.5255  11.2325  11.2325  11.2618  11.2618  11.5144  11.5145
    11.5475  11.5475  12.4049  12.4049  12.9496  12.9496  13.0625  13.0625
    13.2391  13.2391  13.3217  13.3217  13.4371  13.4371  13.9880  13.9880
    14.4554  14.4555  15.0831  15.0831  15.8417  15.8417  16.2239  16.2239
    17.1459  17.1459  17.8565  17.8566  17.9425

          k = 0.0000 0.1575 0.0000 ( 62231 PWs)   bands (ev):

   -66.1520 -66.1516 -66.1510 -66.1510 -66.1506 -66.1506 -66.1500 -66.1496
   -30.6095 -30.6079 -30.6033 -30.6011 -30.5941 -30.5923 -30.5886 -30.5861
   -30.4961 -30.4941 -30.4909 -30.4895 -30.4821 -30.4799 -30.4760 -30.4743
   -30.4420 -30.4367 -30.4364 -30.4313 -30.3913 -30.3865 -30.3864 -30.3817
   -20.2966 -20.2965 -20.2964 -20.2963 -20.2963 -20.2962 -20.2962 -20.2961
   -20.2734 -20.2731 -20.2725 -20.2724 -20.2718 -20.2714 -20.2712 -20.2708
   -20.2707 -20.2701 -20.2699 -20.2698 -20.2698 -20.2693 -20.2693 -20.2693
   -20.2691 -20.2687 -20.2685 -20.2681 -20.2653 -20.2652 -20.2649 -20.2648
   -20.2644 -20.2639 -20.2638 -20.2627 -20.2625 -20.2622 -20.2620 -20.2613
   -20.2604 -20.2599 -20.2598 -20.2594 -20.2594 -20.2588 -20.2574 -20.2571
   -20.2545 -20.2539 -20.2533 -20.2528 -20.2526 -20.2521 -20.2517 -20.2508
   -10.1438 -10.0018  -9.7521  -9.7394  -9.6515  -9.6353  -9.4039  -9.3887
    -8.7398  -8.6898  -8.6888  -8.6849  -7.8225  -7.8108  -7.7788  -7.7740
    -7.7416  -7.7383  -7.7065  -7.7034  -7.6891  -7.6350  -7.6324  -7.5852
     0.6168   0.6220   0.8018   0.8203   0.8273   0.8458   1.1068   1.1428
     1.9572   2.0185   2.0253   2.0515   2.1162   2.1231   2.6038   2.6151
     2.7321   2.7369   3.9221   3.9442   3.9513   3.9735   4.3173   4.3247
     4.3545   4.3638   4.7535   5.1324   5.1444   5.1909   5.2100   5.2938
     5.3086   5.3735   5.3882   5.5953   5.5956   5.6383   5.6857   5.6977
     5.7985   5.8669   5.8758   5.9716   5.9791   6.1274   6.1292   6.1343
     6.2121   6.3639   6.4371   6.4551   6.4704   6.6795   6.8441   6.8638
     6.8879   6.8897   7.0323   7.0403   7.0884   7.0925   7.1192   7.1265
     7.1324   7.1361   8.0930   8.0967   8.1497   8.1566   8.1747   8.1783
     9.1014   9.1265   9.7433   9.7515   9.8082   9.8179  12.1265  12.1634
    12.2050  12.2304  12.7776  12.7849  12.8268  12.8370  13.1623  13.2597
    13.2970  13.3334  13.8316  13.9884  14.0050  14.0639  14.1097  14.1547
    14.4456  14.6606  14.7235  15.0207  15.4329  15.4418  15.7973  16.4333
    16.4415  16.9566  17.1807  17.6047  17.6053

          k = 0.0000 0.1575 0.1667 ( 62237 PWs)   bands (ev):

   -66.1520 -66.1516 -66.1511 -66.1509 -66.1507 -66.1506 -66.1501 -66.1497
   -30.6073 -30.6021 -30.6015 -30.5960 -30.5918 -30.5869 -30.5865 -30.5812
   -30.5039 -30.4986 -30.4937 -30.4912 -30.4893 -30.4828 -30.4795 -30.4747
   -30.4416 -30.4367 -30.4363 -30.4315 -30.3909 -30.3867 -30.3862 -30.3820
   -20.2966 -20.2964 -20.2964 -20.2963 -20.2963 -20.2962 -20.2962 -20.2961
   -20.2734 -20.2731 -20.2724 -20.2722 -20.2717 -20.2714 -20.2712 -20.2708
   -20.2706 -20.2702 -20.2701 -20.2700 -20.2696 -20.2694 -20.2693 -20.2692
   -20.2692 -20.2688 -20.2685 -20.2682 -20.2653 -20.2651 -20.2649 -20.2648
   -20.2643 -20.2640 -20.2639 -20.2627 -20.2625 -20.2618 -20.2617 -20.2609
   -20.2605 -20.2599 -20.2595 -20.2592 -20.2592 -20.2587 -20.2576 -20.2572
   -20.2550 -20.2539 -20.2538 -20.2534 -20.2525 -20.2525 -20.2521 -20.2510
   -10.0872  -9.9434  -9.7499  -9.6536  -9.6436  -9.5485  -9.3573  -9.3412
    -8.7510  -8.6970  -8.6818  -8.6803  -7.9701  -7.9422  -7.9011  -7.8784
    -7.8090  -7.7711  -7.7466  -7.7083  -7.6855  -7.6374  -7.6304  -7.5867
     0.7300   0.7425   0.8281   0.8470   1.1078   1.1268   1.2882   1.3417
     1.9573   2.0161   2.0259   2.1265   2.1428   2.2126   2.6160   2.7063
     2.7237   2.8281   3.9143   3.9595   3.9689   3.9970   4.0227   4.0398
     4.3962   4.4260   4.7055   4.7207   4.8154   5.1367   5.1424   5.1880
     5.2568   5.2933   5.3382   5.3419   5.5226   5.5383   5.7032   5.7569
     5.8110   5.8707   5.8740   5.9584   6.0573   6.1208   6.1326   6.1862
     6.2823   6.3225   6.4405   6.5426   6.6676   6.7605   6.7848   6.8321
     6.8523   6.8654   6.8718   6.8863   6.9004   6.9109   7.0927   7.1030
     7.1093   7.1423   8.0390   8.0410   8.1309   8.1380   8.1544   8.1603
     9.4926   9.5139   9.7591   9.8155  10.0271  10.0840  12.1597  12.2029
    12.2275  12.2847  12.6065  12.6496  12.8338  12.8804  13.0356  13.0975
    13.1747  13.2966  13.8284  13.8661  13.9152  14.0046  14.0525  14.1267
    14.4997  14.7161  14.8333  15.1466  15.5677  15.6148  15.7698  16.4187
    16.8403  17.0784  17.1663  17.2706  17.7182

          k = 0.0000 0.1575 0.3333 ( 62284 PWs)   bands (ev):

   -66.1518 -66.1514 -66.1513 -66.1509 -66.1508 -66.1504 -66.1503 -66.1499
   -30.6060 -30.6027 -30.5910 -30.5877 -30.5814 -30.5755 -30.5669 -30.5611
   -30.5249 -30.5194 -30.5109 -30.5057 -30.4927 -30.4894 -30.4785 -30.4757
   -30.4404 -30.4376 -30.4352 -30.4324 -30.3900 -30.3875 -30.3852 -30.3828
   -20.2965 -20.2965 -20.2964 -20.2963 -20.2963 -20.2962 -20.2962 -20.2961
   -20.2733 -20.2732 -20.2720 -20.2717 -20.2715 -20.2714 -20.2710 -20.2710
   -20.2705 -20.2704 -20.2703 -20.2699 -20.2696 -20.2695 -20.2693 -20.2690
   -20.2689 -20.2689 -20.2686 -20.2683 -20.2651 -20.2650 -20.2649 -20.2646
   -20.2642 -20.2641 -20.2639 -20.2630 -20.2618 -20.2613 -20.2608 -20.2605
   -20.2603 -20.2597 -20.2589 -20.2585 -20.2581 -20.2580 -20.2580 -20.2577
   -20.2565 -20.2555 -20.2548 -20.2540 -20.2535 -20.2525 -20.2522 -20.2513
    -9.9609  -9.8199  -9.7836  -9.6703  -9.3781  -9.2538  -9.1932  -9.1609
    -8.8035  -8.7302  -8.6635  -8.6556  -8.3543  -8.3223  -8.3105  -8.2654
    -7.7973  -7.7603  -7.7580  -7.7217  -7.6756  -7.6473  -7.6213  -7.5955
     0.8115   0.8296   0.8321   0.8497   1.8076   1.8312   1.9422   1.9636
     2.0085   2.0948   2.1449   2.3230   2.4050   2.4735   2.6377   2.7027
     2.9689   3.0709   3.3886   3.4596   3.8887   3.9180   3.9641   4.0470
     4.1397   4.1999   4.4448   4.5676   4.5814   4.6438   4.6484   4.7552
     4.7866   5.0065   5.1412   5.1909   5.2319   5.3459   5.3886   5.8017
     5.8409   5.9039   5.9188   6.0071   6.0634   6.0907   6.1084   6.1703
     6.3065   6.3304   6.4338   6.4484   6.4710   6.5838   6.7811   6.8490
     6.8620   6.8864   6.9223   6.9980   7.0168   7.0780   7.0815   7.1893
     7.2436   7.3043   7.8482   7.8529   7.9875   8.0013   8.1602   8.1646
     9.7648   9.7967  10.3254  10.3454  10.7287  10.7659  12.0451  12.0818
    12.1291  12.2313  12.4314  12.4527  12.5181  12.5350  13.0108  13.0497
    13.1628  13.3052  13.4379  13.4874  13.6784  13.7967  14.0036  14.0422
    14.6164  14.7047  15.1923  15.4453  15.6815  15.9163  16.3077  16.3441
    16.5280  17.3882  17.5222  17.8209  17.8795

          k = 0.0000 0.1575-0.5000 ( 62234 PWs)   bands (ev):

   -66.1515 -66.1515 -66.1511 -66.1511 -66.1505 -66.1505 -66.1501 -66.1501
   -30.6043 -30.6043 -30.5893 -30.5893 -30.5534 -30.5533 -30.5476 -30.5476
   -30.5391 -30.5390 -30.5334 -30.5334 -30.4912 -30.4912 -30.4771 -30.4771
   -30.4390 -30.4389 -30.4338 -30.4337 -30.3887 -30.3887 -30.3840 -30.3839
   -20.2965 -20.2965 -20.2964 -20.2964 -20.2963 -20.2963 -20.2962 -20.2961
   -20.2732 -20.2732 -20.2717 -20.2717 -20.2713 -20.2713 -20.2710 -20.2709
   -20.2707 -20.2707 -20.2700 -20.2700 -20.2697 -20.2697 -20.2691 -20.2691
   -20.2688 -20.2688 -20.2686 -20.2686 -20.2650 -20.2650 -20.2646 -20.2646
   -20.2644 -20.2644 -20.2635 -20.2635 -20.2611 -20.2611 -20.2609 -20.2609
   -20.2588 -20.2588 -20.2586 -20.2585 -20.2579 -20.2578 -20.2576 -20.2576
   -20.2567 -20.2567 -20.2561 -20.2560 -20.2530 -20.2530 -20.2518 -20.2518
    -9.8499  -9.8499  -9.7233  -9.7233  -9.0145  -9.0145  -8.9036  -8.9035
    -8.8147  -8.8147  -8.8035  -8.8035  -8.6047  -8.6047  -8.5678  -8.5678
    -7.7789  -7.7789  -7.7399  -7.7399  -7.6615  -7.6615  -7.6084  -7.6084
     0.8284   0.8284   0.8494   0.8494   1.9386   1.9386   1.9970   1.9970
     2.6604   2.6604   2.8030   2.8030   2.8746   2.8746   3.0176   3.0176
     3.0479   3.0479   3.1511   3.1511   3.2509   3.2509   3.6808   3.6808
     3.7765   3.7765   4.0058   4.0058   4.4942   4.4942   4.7070   4.7070
     4.9332   4.9332   4.9802   4.9802   5.2222   5.2222   5.5247   5.5247
     5.8951   5.8952   6.0087   6.0087   6.0903   6.0903   6.1443   6.1443
     6.2594   6.2594   6.3141   6.3141   6.4107   6.4107   6.8589   6.8589
     6.9037   6.9037   6.9900   6.9900   7.0650   7.0650   7.4863   7.4863
     7.5124   7.5124   7.7016   7.7016   7.7258   7.7258   8.1643   8.1643
     9.7825   9.7826  11.2345  11.2345  11.2634  11.2634  11.5800  11.5800
    11.6136  11.6136  12.2441  12.2441  12.8586  12.8586  12.9395  12.9395
    13.2244  13.2244  13.3378  13.3378  13.4419  13.4419  14.0086  14.0086
    14.6770  14.6770  15.4879  15.4880  15.9316  15.9317  16.1949  16.1950
    17.2003  17.2003  17.7198  17.7199  17.8889

          k = 0.0000 0.3150 0.0000 ( 62175 PWs)   bands (ev):

   -66.1520 -66.1517 -66.1510 -66.1510 -66.1507 -66.1507 -66.1500 -66.1497
   -30.6094 -30.6079 -30.6032 -30.6010 -30.5941 -30.5924 -30.5887 -30.5862
   -30.4961 -30.4940 -30.4908 -30.4894 -30.4821 -30.4800 -30.4759 -30.4743
   -30.4313 -30.4262 -30.4259 -30.4209 -30.4021 -30.3972 -30.3970 -30.3922
   -20.2966 -20.2964 -20.2964 -20.2963 -20.2963 -20.2962 -20.2962 -20.2961
   -20.2732 -20.2730 -20.2726 -20.2723 -20.2717 -20.2715 -20.2712 -20.2708
   -20.2706 -20.2699 -20.2699 -20.2698 -20.2693 -20.2693 -20.2689 -20.2687
   -20.2684 -20.2684 -20.2684 -20.2676 -20.2662 -20.2658 -20.2657 -20.2653
   -20.2649 -20.2644 -20.2638 -20.2627 -20.2626 -20.2622 -20.2620 -20.2613
   -20.2604 -20.2599 -20.2598 -20.2594 -20.2594 -20.2588 -20.2574 -20.2571
   -20.2545 -20.2539 -20.2533 -20.2528 -20.2526 -20.2521 -20.2517 -20.2508
   -10.1057 -10.0250  -9.7248  -9.7110  -9.6643  -9.6488  -9.4007  -9.3919
    -8.5355  -8.5059  -8.5040  -8.5035  -7.9522  -7.9045  -7.9009  -7.8652
    -7.8080  -7.8052  -7.7813  -7.7782  -7.7327  -7.7317  -7.7074  -7.7070
     0.6178   0.6209   0.8030   0.8216   0.8288   0.8474   1.1296   1.1423
     2.0661   2.1077   2.5474   2.6598   2.6793   2.7579   2.8085   2.8739
     2.9304   2.9519   3.5233   3.5525   3.5943   3.6253   4.2198   4.3236
     4.3305   4.3444   4.3539   4.5919   4.5992   4.9026   5.2261   5.2326
     5.3431   5.3460   5.3543   5.3607   5.6990   5.7023   5.7230   5.7485
     5.7937   5.8456   5.8567   5.9659   5.9713   6.1410   6.1549   6.1652
     6.1944   6.3011   6.3321   6.3923   6.4148   6.4676   6.6280   6.6599
     6.7119   6.8152   7.0627   7.0728   7.1043   7.1142   7.2203   7.2213
     7.2483   7.2489   7.9388   7.9531   7.9558   7.9700   8.0972   8.0990
     9.1092   9.1233  10.3309  10.3550  10.3988  10.4183  11.6783  11.7145
    11.7468  11.7728  12.7854  12.7937  12.8332  12.8420  13.2780  13.3753
    13.3989  13.4369  13.6982  13.8334  13.8347  13.8851  14.0373  14.0854
    15.2827  15.3365  15.3539  15.3686  15.4345  15.4407  16.2851  16.2932
    16.3481  16.8406  17.1855  17.9683  17.9855

          k = 0.0000 0.3150 0.1667 ( 62260 PWs)   bands (ev):

   -66.1519 -66.1516 -66.1510 -66.1509 -66.1508 -66.1506 -66.1500 -66.1498
   -30.6073 -30.6020 -30.6015 -30.5959 -30.5919 -30.5870 -30.5866 -30.5813
   -30.5038 -30.4985 -30.4936 -30.4912 -30.4893 -30.4828 -30.4796 -30.4747
   -30.4309 -30.4262 -30.4258 -30.4211 -30.4017 -30.3973 -30.3968 -30.3925
   -20.2966 -20.2964 -20.2964 -20.2963 -20.2963 -20.2962 -20.2962 -20.2961
   -20.2732 -20.2730 -20.2724 -20.2721 -20.2716 -20.2716 -20.2711 -20.2708
   -20.2706 -20.2701 -20.2700 -20.2698 -20.2694 -20.2693 -20.2688 -20.2687
   -20.2686 -20.2683 -20.2683 -20.2676 -20.2662 -20.2658 -20.2657 -20.2652
   -20.2650 -20.2643 -20.2639 -20.2627 -20.2625 -20.2618 -20.2617 -20.2609
   -20.2605 -20.2599 -20.2595 -20.2592 -20.2592 -20.2587 -20.2576 -20.2572
   -20.2550 -20.2539 -20.2538 -20.2534 -20.2525 -20.2525 -20.2521 -20.2510
   -10.0483  -9.9666  -9.7208  -9.6575  -9.6240  -9.5616  -9.3540  -9.3443
    -8.5449  -8.5147  -8.5027  -8.4992  -7.9876  -7.9572  -7.9513  -7.9166
    -7.8975  -7.8864  -7.8756  -7.8251  -7.7997  -7.7751  -7.7366  -7.7119
     0.7304   0.7425   0.8296   0.8487   1.1114   1.1301   1.3219   1.3416
     2.1558   2.1972   2.5489   2.6346   2.6761   2.7644   2.8224   2.9218
     2.9547   3.0571   3.5505   3.5824   3.6180   3.6564   4.0055   4.0267
     4.2070   4.3969   4.4129   4.5679   4.6108   4.8376   4.9036   4.9757
     5.0975   5.2274   5.2938   5.3636   5.3684   5.4335   5.6504   5.7095
     5.7949   5.8460   5.8759   5.9684   6.0000   6.0263   6.1311   6.1544
     6.1645   6.2813   6.3949   6.4339   6.5261   6.6232   6.7169   6.8305
     6.8566   6.8678   6.8845   6.9005   6.9128   6.9521   7.2167   7.2280
     7.2476   7.2644   7.9267   7.9397   7.9415   7.9468   8.0440   8.0534
     9.5005   9.5140  10.3614  10.4141  10.5219  10.5863  11.7165  11.7648
    11.7749  11.8411  12.6103  12.6525  12.8413  12.8865  13.1571  13.2062
    13.2932  13.3968  13.6394  13.6791  13.7237  13.8308  14.0269  14.0637
    15.3262  15.3623  15.4367  15.5586  15.6099  15.6704  16.2719  16.4818
    16.6774  16.8117  17.2954  17.4317  18.0770

          k = 0.0000 0.3150 0.3333 ( 62269 PWs)   bands (ev):

   -66.1517 -66.1514 -66.1512 -66.1509 -66.1507 -66.1504 -66.1502 -66.1499
   -30.6059 -30.6026 -30.5911 -30.5878 -30.5813 -30.5755 -30.5669 -30.5611
   -30.5249 -30.5193 -30.5109 -30.5057 -30.4926 -30.4893 -30.4786 -30.4758
   -30.4298 -30.4271 -30.4247 -30.4220 -30.4007 -30.3981 -30.3959 -30.3933
   -20.2965 -20.2965 -20.2964 -20.2963 -20.2963 -20.2962 -20.2962 -20.2961
   -20.2731 -20.2730 -20.2721 -20.2716 -20.2716 -20.2713 -20.2709 -20.2708
   -20.2705 -20.2704 -20.2702 -20.2697 -20.2696 -20.2692 -20.2689 -20.2688
   -20.2686 -20.2683 -20.2681 -20.2677 -20.2661 -20.2659 -20.2656 -20.2651
   -20.2649 -20.2642 -20.2639 -20.2631 -20.2618 -20.2614 -20.2608 -20.2605
   -20.2603 -20.2597 -20.2589 -20.2585 -20.2581 -20.2580 -20.2580 -20.2577
   -20.2565 -20.2555 -20.2548 -20.2540 -20.2535 -20.2525 -20.2522 -20.2513
    -9.9220  -9.8415  -9.7523  -9.6855  -9.3380  -9.2676  -9.1859  -9.1650
    -8.6147  -8.5702  -8.4937  -8.4830  -8.3653  -8.3295  -8.2990  -8.2418
    -7.9319  -7.9061  -7.8843  -7.8588  -7.7868  -7.7619  -7.7502  -7.7254
     0.8128   0.8312   0.8336   0.8515   1.9200   1.9463   2.0373   2.0925
     2.4181   2.4582   2.5526   2.6213   2.6747   2.7804   2.8418   2.9030
     3.2081   3.2881   3.3836   3.4490   3.5953   3.6042   3.7055   3.7554
     4.1502   4.2123   4.3553   4.3902   4.4303   4.5218   4.5451   4.5997
     4.6738   4.7747   4.8134   4.9626   5.1636   5.1784   5.3066   5.3529
     5.4500   5.5154   5.8171   5.9931   6.0459   6.1200   6.1432   6.1938
     6.2969   6.4119   6.4491   6.4955   6.5231   6.5691   6.6016   6.6167
     6.8128   6.9252   7.1026   7.1162   7.1618   7.2253   7.2413   7.2751
     7.3089   7.3346   7.8179   7.8392   7.8405   7.8660   7.9510   7.9788
    10.2800  10.3329  10.3939  10.4353  11.0550  11.1071  11.7191  11.7635
    12.0514  12.0672  12.0967  12.1337  12.5799  12.6232  13.0155  13.0547
    13.1380  13.1814  13.3361  13.4004  13.6502  13.7945  13.8263  13.9038
    15.3389  15.3590  15.7403  15.8666  16.1069  16.2130  16.4624  16.7091
    16.8022  16.8544  17.5796  17.7315  17.7713

          k = 0.0000 0.3150-0.5000 ( 62306 PWs)   bands (ev):

   -66.1515 -66.1515 -66.1512 -66.1512 -66.1505 -66.1505 -66.1502 -66.1502
   -30.6043 -30.6043 -30.5894 -30.5894 -30.5533 -30.5533 -30.5476 -30.5475
   -30.5391 -30.5391 -30.5335 -30.5334 -30.4911 -30.4911 -30.4772 -30.4772
   -30.4284 -30.4284 -30.4233 -30.4233 -30.3994 -30.3994 -30.3946 -30.3945
   -20.2965 -20.2965 -20.2964 -20.2964 -20.2963 -20.2963 -20.2962 -20.2961
   -20.2731 -20.2730 -20.2718 -20.2718 -20.2711 -20.2711 -20.2709 -20.2709
   -20.2706 -20.2706 -20.2701 -20.2701 -20.2693 -20.2693 -20.2690 -20.2690
   -20.2684 -20.2684 -20.2679 -20.2679 -20.2660 -20.2659 -20.2654 -20.2654
   -20.2646 -20.2646 -20.2635 -20.2635 -20.2611 -20.2611 -20.2609 -20.2609
   -20.2588 -20.2588 -20.2586 -20.2585 -20.2579 -20.2578 -20.2576 -20.2576
   -20.2567 -20.2567 -20.2561 -20.2560 -20.2530 -20.2530 -20.2518 -20.2518
    -9.8146  -9.8146  -9.7412  -9.7412  -8.9301  -8.9301  -8.8637  -8.8637
    -8.8286  -8.8286  -8.8127  -8.8127  -8.4655  -8.4655  -8.4383  -8.4383
    -7.9196  -7.9196  -7.8728  -7.8728  -7.7686  -7.7686  -7.7437  -7.7437
     0.8301   0.8301   0.8513   0.8513   2.5228   2.5229   2.6254   2.6254
     2.8141   2.8141   2.8216   2.8216   2.9004   2.9004   3.0406   3.0406
     3.0542   3.0542   3.2165   3.2165   3.2521   3.2521   3.5812   3.5812
     3.9043   3.9043   3.9765   3.9765   4.0661   4.0661   4.2975   4.2975
     4.8708   4.8708   4.9283   4.9283   4.9613   4.9613   5.1060   5.1060
     5.4098   5.4098   5.9004   5.9004   6.1850   6.1850   6.2065   6.2065
     6.2928   6.2928   6.3211   6.3211   6.4580   6.4580   6.5997   6.5997
     7.1054   7.1054   7.1911   7.1911   7.2250   7.2250   7.4697   7.4697
     7.5532   7.5532   7.6267   7.6267   7.6436   7.6436   7.9607   7.9607
    10.3822  10.3822  11.2349  11.2349  11.2663  11.2663  11.6780  11.6780
    11.8182  11.8182  11.9174  11.9174  12.5522  12.5522  12.6128  12.6128
    13.2624  13.2625  13.3453  13.3453  13.4813  13.4813  13.8362  13.8362
    15.3502  15.3503  16.0878  16.0878  16.2113  16.2113  16.5044  16.5044
    17.2669  17.2669  17.4085  17.4085  17.9773

          k = 0.0000-0.4725 0.0000 ( 62212 PWs)   bands (ev):

   -66.1519 -66.1517 -66.1509 -66.1509 -66.1507 -66.1507 -66.1499 -66.1497
   -30.6093 -30.6079 -30.6032 -30.6010 -30.5941 -30.5924 -30.5887 -30.5862
   -30.4960 -30.4940 -30.4907 -30.4894 -30.4821 -30.4800 -30.4759 -30.4744
   -30.4168 -30.4166 -30.4118 -30.4117 -30.4117 -30.4114 -30.4067 -30.4065
   -20.2966 -20.2964 -20.2964 -20.2963 -20.2963 -20.2962 -20.2962 -20.2961
   -20.2731 -20.2729 -20.2726 -20.2722 -20.2717 -20.2716 -20.2711 -20.2710
   -20.2705 -20.2699 -20.2698 -20.2697 -20.2695 -20.2694 -20.2686 -20.2685
   -20.2677 -20.2675 -20.2673 -20.2671 -20.2670 -20.2670 -20.2664 -20.2662
   -20.2653 -20.2644 -20.2638 -20.2627 -20.2626 -20.2622 -20.2620 -20.2613
   -20.2604 -20.2599 -20.2598 -20.2594 -20.2594 -20.2588 -20.2574 -20.2571
   -20.2545 -20.2539 -20.2533 -20.2528 -20.2526 -20.2521 -20.2517 -20.2508
   -10.0619 -10.0613  -9.7048  -9.6900  -9.6774  -9.6627  -9.3966  -9.3960
    -8.2556  -8.2554  -8.2240  -8.2237  -8.2213  -8.2211  -8.2055  -8.2053
    -7.8071  -7.8056  -7.7829  -7.7814  -7.7311  -7.7307  -7.7098  -7.7093
     0.6187   0.6199   0.8034   0.8220   0.8293   0.8479   1.1386   1.1400
     2.0868   2.0869   3.0906   3.0989   3.1363   3.1451   3.1813   3.1942
     3.2311   3.2451   3.4106   3.4108   3.6226   3.6247   3.6555   3.6566
     3.8265   3.8268   4.3304   4.3375   4.3419   4.3494   5.2941   5.3012
     5.3014   5.3083   5.5661   5.5685   5.5772   5.5805   5.8763   5.8820
     5.9007   5.9073   5.9328   5.9404   5.9592   5.9627   6.0093   6.0105
     6.2212   6.2300   6.2664   6.2742   6.4378   6.4507   6.4515   6.4656
     6.7538   6.7544   7.0661   7.0761   7.1064   7.1165   7.5930   7.5975
     7.6044   7.6125   7.6165   7.6210   7.6212   7.6295   8.0977   8.0980
     9.1167   9.1173  11.0192  11.0471  11.0533  11.0786  11.0804  11.1007
    11.1246  11.1461  12.7880  12.7963  12.8355  12.8439  13.4626  13.4745
    13.5757  13.5867  13.5896  13.5929  13.6279  13.6341  14.0464  14.0481
    15.4320  15.4348  15.7758  15.7788  15.9352  15.9472  15.9706  15.9822
    16.3509  16.3511  17.7626  17.7627  18.0736

          k = 0.0000-0.4725 0.1667 ( 62246 PWs)   bands (ev):

   -66.1519 -66.1517 -66.1510 -66.1508 -66.1508 -66.1507 -66.1500 -66.1498
   -30.6072 -30.6020 -30.6014 -30.5958 -30.5919 -30.5870 -30.5866 -30.5813
   -30.5038 -30.4984 -30.4936 -30.4912 -30.4893 -30.4828 -30.4796 -30.4748
   -30.4165 -30.4162 -30.4119 -30.4116 -30.4114 -30.4113 -30.4069 -30.4068
   -20.2966 -20.2964 -20.2964 -20.2963 -20.2963 -20.2962 -20.2962 -20.2961
   -20.2731 -20.2729 -20.2725 -20.2720 -20.2716 -20.2716 -20.2710 -20.2709
   -20.2705 -20.2701 -20.2698 -20.2698 -20.2696 -20.2693 -20.2687 -20.2686
   -20.2676 -20.2674 -20.2672 -20.2671 -20.2670 -20.2669 -20.2664 -20.2662
   -20.2652 -20.2643 -20.2639 -20.2627 -20.2625 -20.2618 -20.2617 -20.2609
   -20.2605 -20.2599 -20.2595 -20.2592 -20.2592 -20.2587 -20.2576 -20.2572
   -20.2550 -20.2539 -20.2538 -20.2534 -20.2525 -20.2525 -20.2521 -20.2510
   -10.0053 -10.0018  -9.6990  -9.6720  -9.6025  -9.5753  -9.3507  -9.3475
    -8.2584  -8.2579  -8.2373  -8.2366  -8.2195  -8.2182  -8.2162  -8.2145
    -7.9561  -7.9349  -7.8872  -7.8669  -7.7990  -7.7777  -7.7356  -7.7142
     0.7306   0.7423   0.8302   0.8493   1.1124   1.1311   1.3316   1.3412
     2.1763   2.1765   3.1001   3.1314   3.1485   3.1829   3.1951   3.2394
     3.2460   3.2984   3.4058   3.4073   3.6155   3.6491   3.6550   3.6850
     3.8429   3.8438   4.0168   4.0182   4.4039   4.4096   4.9909   5.0028
     5.2143   5.2226   5.2697   5.2753   5.5068   5.5179   5.5788   5.5887
     5.7909   5.7971   5.8666   5.8811   5.9518   5.9933   6.1484   6.1925
     6.2167   6.2669   6.3034   6.3428   6.4351   6.4499   6.7934   6.8178
     6.8476   6.8609   6.8700   6.9054   6.9262   6.9482   7.5833   7.5977
     7.6001   7.6065   7.6096   7.6133   7.6225   7.6231   8.0460   8.0472
     9.5041   9.5123  11.0567  11.0834  11.1048  11.1187  11.1648  11.1748
    11.2125  11.2426  12.6117  12.6537  12.8438  12.8888  13.3600  13.3728
    13.4055  13.4127  13.4917  13.5069  13.5843  13.5896  14.0308  14.0326
    15.5304  15.5524  15.9262  15.9320  15.9401  15.9683  16.2843  16.3116
    16.4595  16.4610  17.7974  17.8086  17.8179

          k = 0.0000-0.4725 0.3333 ( 62268 PWs)   bands (ev):

   -66.1517 -66.1515 -66.1512 -66.1510 -66.1507 -66.1505 -66.1502 -66.1500
   -30.6059 -30.6026 -30.5911 -30.5878 -30.5813 -30.5754 -30.5670 -30.5611
   -30.5248 -30.5193 -30.5109 -30.5058 -30.4926 -30.4893 -30.4786 -30.4758
   -30.4154 -30.4152 -30.4128 -30.4125 -30.4104 -30.4103 -30.4078 -30.4076
   -20.2965 -20.2965 -20.2964 -20.2963 -20.2963 -20.2962 -20.2962 -20.2961
   -20.2730 -20.2729 -20.2722 -20.2717 -20.2715 -20.2713 -20.2708 -20.2707
   -20.2706 -20.2704 -20.2701 -20.2698 -20.2696 -20.2692 -20.2689 -20.2688
   -20.2675 -20.2673 -20.2672 -20.2671 -20.2670 -20.2668 -20.2666 -20.2664
   -20.2649 -20.2642 -20.2639 -20.2631 -20.2618 -20.2614 -20.2608 -20.2605
   -20.2603 -20.2597 -20.2589 -20.2585 -20.2581 -20.2580 -20.2580 -20.2577
   -20.2565 -20.2555 -20.2548 -20.2540 -20.2535 -20.2525 -20.2522 -20.2513
    -9.8846  -9.8704  -9.7280  -9.7020  -9.3099  -9.2836  -9.1811  -9.1684
    -8.4253  -8.4075  -8.4035  -8.3959  -8.2310  -8.2302  -8.2091  -8.2090
    -8.1773  -8.1729  -8.1372  -8.1307  -7.7861  -7.7645  -7.7493  -7.7278
     0.8133   0.8317   0.8341   0.8521   1.9317   1.9494   2.0758   2.0879
     2.4378   2.4386   3.1011   3.1453   3.1624   3.2136   3.2620   3.2891
     3.3590   3.3747   3.4048   3.4362   3.4599   3.4661   3.5851   3.6204
     3.7606   3.7776   3.8704   3.8768   4.3530   4.3635   4.5029   4.5238
     4.6295   4.6453   4.8245   4.8263   4.9667   4.9720   5.1742   5.1763
     5.6079   5.6234   5.7616   5.7888   6.0575   6.1128   6.1915   6.2403
     6.3608   6.3690   6.3905   6.4229   6.4877   6.5055   6.5368   6.5862
     6.8846   6.8919   7.1975   7.2221   7.2302   7.2519   7.5437   7.5625
     7.5757   7.5787   7.5817   7.5893   7.6234   7.6419   7.8758   7.8828
    10.3207  10.3385  11.0712  11.0905  11.1009  11.1203  11.5408  11.5577
    11.5961  11.6241  12.0613  12.0940  12.8287  12.8310  12.8634  12.8780
    13.0242  13.0614  13.4865  13.4974  13.5828  13.5848  13.8119  13.8179
    15.7146  15.7511  15.9041  15.9384  16.3191  16.3314  16.9838  16.9850
    17.0464  17.0584  17.2495  17.2622  17.9564

          k = 0.0000-0.4725-0.5000 ( 62284 PWs)   bands (ev):

   -66.1514 -66.1514 -66.1512 -66.1512 -66.1504 -66.1504 -66.1502 -66.1502
   -30.6042 -30.6042 -30.5894 -30.5894 -30.5533 -30.5532 -30.5475 -30.5475
   -30.5391 -30.5391 -30.5335 -30.5334 -30.4911 -30.4911 -30.4772 -30.4772
   -30.4140 -30.4140 -30.4138 -30.4138 -30.4090 -30.4090 -30.4089 -30.4089
   -20.2965 -20.2965 -20.2964 -20.2964 -20.2963 -20.2963 -20.2962 -20.2961
   -20.2730 -20.2729 -20.2719 -20.2719 -20.2710 -20.2709 -20.2709 -20.2709
   -20.2704 -20.2704 -20.2702 -20.2702 -20.2692 -20.2692 -20.2690 -20.2690
   -20.2673 -20.2673 -20.2672 -20.2672 -20.2668 -20.2668 -20.2666 -20.2666
   -20.2646 -20.2646 -20.2635 -20.2635 -20.2611 -20.2611 -20.2610 -20.2609
   -20.2588 -20.2588 -20.2586 -20.2585 -20.2579 -20.2578 -20.2576 -20.2576
   -20.2567 -20.2567 -20.2561 -20.2560 -20.2530 -20.2530 -20.2518 -20.2518
    -9.7851  -9.7851  -9.7624  -9.7624  -8.8771  -8.8771  -8.8510  -8.8510
    -8.8412  -8.8412  -8.8225  -8.8225  -8.2222  -8.2221  -8.2139  -8.2139
    -8.1904  -8.1903  -8.1822  -8.1821  -7.7678  -7.7678  -7.7462  -7.7462
     0.8306   0.8307   0.8519   0.8519   2.8152   2.8152   2.8358   2.8359
     2.9629   2.9629   2.9950   2.9950   3.1073   3.1073   3.1489   3.1489
     3.2029   3.2030   3.2271   3.2271   3.4010   3.4010   3.4538   3.4538
     3.6157   3.6158   3.6814   3.6814   4.2550   4.2550   4.2756   4.2757
     4.3497   4.3497   4.3726   4.3726   4.9319   4.9319   4.9502   4.9502
     5.6553   5.6553   5.6780   5.6780   6.2298   6.2298   6.2499   6.2499
     6.3030   6.3030   6.3277   6.3277   6.4242   6.4242   6.4421   6.4421
     7.3480   7.3480   7.3506   7.3507   7.4301   7.4301   7.4648   7.4648
     7.4898   7.4899   7.5197   7.5198   7.6790   7.6790   7.6969   7.6969
    11.0512  11.0512  11.0778  11.0778  11.2726  11.2726  11.2918  11.2918
    12.1372  12.1372  12.1606  12.1606  12.1972  12.1972  12.2247  12.2247
    13.3092  13.3092  13.3343  13.3343  13.6117  13.6117  13.6157  13.6157
    15.8404  15.8404  15.8763  15.8763  16.7415  16.7415  16.7429  16.7429
    17.6575  17.6575  17.6800  17.6800  17.8486

          k = 0.1667 0.0000 0.1667 ( 62234 PWs)   bands (ev):

   -66.1519 -66.1515 -66.1511 -66.1510 -66.1506 -66.1506 -66.1502 -66.1497
   -30.6018 -30.6002 -30.5964 -30.5942 -30.5862 -30.5844 -30.5816 -30.5791
   -30.5036 -30.5015 -30.4991 -30.4977 -30.4893 -30.4872 -30.4840 -30.4823
   -30.4450 -30.4403 -30.4401 -30.4355 -30.3867 -30.3825 -30.3824 -30.3783
   -20.2966 -20.2965 -20.2964 -20.2963 -20.2963 -20.2962 -20.2962 -20.2961
   -20.2733 -20.2730 -20.2724 -20.2723 -20.2718 -20.2713 -20.2711 -20.2711
   -20.2705 -20.2703 -20.2701 -20.2701 -20.2697 -20.2695 -20.2694 -20.2693
   -20.2692 -20.2688 -20.2687 -20.2682 -20.2650 -20.2647 -20.2645 -20.2644
   -20.2640 -20.2636 -20.2636 -20.2625 -20.2623 -20.2617 -20.2617 -20.2610
   -20.2607 -20.2601 -20.2596 -20.2593 -20.2590 -20.2584 -20.2573 -20.2570
   -20.2549 -20.2543 -20.2538 -20.2535 -20.2530 -20.2527 -20.2524 -20.2515
   -10.0430  -9.8723  -9.6778  -9.6665  -9.5523  -9.5366  -9.3161  -9.2982
    -8.8363  -8.7503  -8.7501  -8.7345  -7.9729  -7.9638  -7.9352  -7.9298
    -7.9187  -7.9113  -7.8768  -7.8516  -7.5846  -7.5341  -7.5315  -7.4845
     0.9258   0.9345   1.1043   1.1240   1.1272   1.1482   1.3366   1.4587
     1.7445   1.7878   1.7938   1.9289   2.2277   2.3103   2.6344   2.6445
     2.7373   2.7585   4.0051   4.0179   4.0794   4.1141   4.1380   4.1685
     4.2036   4.2264   4.6003   4.6934   4.7387   4.7914   4.9501   5.0892
     5.1841   5.2011   5.2874   5.4629   5.4869   5.5504   5.5603   5.7015
     5.7108   5.8859   5.8967   6.1249   6.1750   6.1886   6.2460   6.2670
     6.2780   6.4572   6.4728   6.5478   6.5634   6.6280   6.6527   6.7130
     6.9033   6.9157   6.9365   6.9503   6.9734   6.9992   7.0480   7.0729
     7.0865   7.1246   7.9934   7.9950   8.1663   8.1818   8.2017   8.2104
     9.7602   9.7780   9.8023   9.8617   9.8973   9.9365  12.3379  12.3871
    12.4446  12.4663  12.6518  12.6638  12.6926  12.7068  12.9455  13.0011
    13.0451  13.0786  13.8215  13.8465  13.9234  13.9451  14.0363  14.0736
    14.2509  14.4810  14.5428  15.2066  15.3197  15.7741  15.7794  16.8573
    16.8630  17.2485  17.2525  17.2840  17.6256

          k = 0.1667 0.0000 0.3333 ( 62265 PWs)   bands (ev):

   -66.1517 -66.1513 -66.1512 -66.1509 -66.1508 -66.1504 -66.1504 -66.1499
   -30.5987 -30.5954 -30.5840 -30.5815 -30.5796 -30.5759 -30.5664 -30.5614
   -30.5246 -30.5199 -30.5106 -30.5065 -30.5004 -30.4966 -30.4862 -30.4834
   -30.4439 -30.4410 -30.4392 -30.4364 -30.3857 -30.3832 -30.3816 -30.3791
   -20.2965 -20.2965 -20.2964 -20.2964 -20.2963 -20.2962 -20.2962 -20.2961
   -20.2732 -20.2731 -20.2720 -20.2718 -20.2715 -20.2714 -20.2712 -20.2709
   -20.2705 -20.2704 -20.2703 -20.2701 -20.2697 -20.2696 -20.2694 -20.2692
   -20.2690 -20.2689 -20.2688 -20.2684 -20.2648 -20.2647 -20.2644 -20.2643
   -20.2640 -20.2638 -20.2636 -20.2628 -20.2618 -20.2614 -20.2609 -20.2605
   -20.2604 -20.2596 -20.2587 -20.2586 -20.2581 -20.2580 -20.2577 -20.2574
   -20.2564 -20.2554 -20.2550 -20.2542 -20.2539 -20.2530 -20.2527 -20.2518
    -9.9015  -9.7288  -9.7027  -9.5635  -9.4092  -9.2577  -9.1686  -9.1382
    -8.8866  -8.7773  -8.7176  -8.7154  -8.3483  -8.3214  -8.3159  -8.2763
    -7.9512  -7.9187  -7.9140  -7.8818  -7.5741  -7.5449  -7.5218  -7.4946
     1.1021   1.1195   1.1295   1.1512   1.6579   1.6603   1.7356   1.7807
     1.9441   2.0638   2.0947   2.2550   2.5040   2.5840   2.6628   2.7223
     2.8981   2.9952   3.4551   3.5435   3.9326   3.9570   4.0997   4.1164
     4.1701   4.2586   4.3314   4.3581   4.4775   4.6411   4.6647   4.7091
     4.7877   4.8086   4.8816   5.0012   5.0373   5.2390   5.5485   5.5707
     5.7180   5.8587   5.9214   5.9462   6.0853   6.0962   6.2172   6.2206
     6.4097   6.4435   6.5069   6.5891   6.6257   6.6376   6.8007   6.8321
     6.8649   6.8732   6.9195   7.0076   7.0094   7.0800   7.0864   7.1167
     7.2380   7.3207   7.8242   7.8281   8.0324   8.0531   8.1867   8.1893
     9.8379   9.8684  10.4732  10.5020  10.6321  10.6619  12.1182  12.1490
    12.2502  12.3960  12.4657  12.5431  12.6074  12.6722  12.8338  12.8744
    12.9658  13.0709  13.5173  13.5825  13.6088  13.6764  13.9205  13.9421
    14.3611  14.5158  14.7898  15.2291  15.5460  16.2528  16.4435  16.6033
    16.7852  17.5259  17.6097  17.7662  17.8705

          k = 0.1667 0.0000-0.5000 ( 62322 PWs)   bands (ev):

   -66.1515 -66.1515 -66.1511 -66.1510 -66.1506 -66.1506 -66.1502 -66.1502
   -30.5970 -30.5970 -30.5820 -30.5820 -30.5530 -30.5530 -30.5481 -30.5480
   -30.5386 -30.5386 -30.5338 -30.5338 -30.4989 -30.4989 -30.4848 -30.4848
   -30.4424 -30.4424 -30.4378 -30.4378 -30.3844 -30.3844 -30.3803 -30.3803
   -20.2965 -20.2965 -20.2964 -20.2964 -20.2963 -20.2962 -20.2962 -20.2961
   -20.2731 -20.2731 -20.2716 -20.2716 -20.2715 -20.2714 -20.2710 -20.2710
   -20.2707 -20.2707 -20.2700 -20.2700 -20.2699 -20.2699 -20.2692 -20.2692
   -20.2689 -20.2689 -20.2687 -20.2686 -20.2647 -20.2646 -20.2643 -20.2643
   -20.2641 -20.2641 -20.2632 -20.2632 -20.2613 -20.2613 -20.2610 -20.2610
   -20.2587 -20.2587 -20.2583 -20.2583 -20.2576 -20.2576 -20.2575 -20.2575
   -20.2568 -20.2568 -20.2562 -20.2562 -20.2535 -20.2535 -20.2523 -20.2523
    -9.7758  -9.7758  -9.6193  -9.6193  -9.0703  -9.0703  -8.9099  -8.9098
    -8.8169  -8.8169  -8.7947  -8.7947  -8.6404  -8.6404  -8.6055  -8.6055
    -7.9336  -7.9335  -7.9000  -7.9000  -7.5597  -7.5596  -7.5083  -7.5082
     1.1254   1.1254   1.1506   1.1506   1.7237   1.7237   1.7580   1.7580
     2.6824   2.6824   2.8540   2.8540   2.9178   2.9178   3.0113   3.0114
     3.0488   3.0488   3.1643   3.1643   3.2880   3.2880   3.6533   3.6534
     3.7075   3.7075   4.1772   4.1772   4.5980   4.5980   4.6628   4.6628
     4.6853   4.6853   4.7726   4.7726   4.9645   4.9646   5.6380   5.6380
     5.6923   5.6923   5.7745   5.7745   6.1680   6.1680   6.2356   6.2356
     6.3636   6.3636   6.5575   6.5575   6.6540   6.6540   6.7080   6.7080
     6.8917   6.8917   6.9492   6.9492   7.0697   7.0697   7.4896   7.4896
     7.5091   7.5091   7.7220   7.7220   7.7539   7.7539   8.1898   8.1898
     9.8549   9.8549  11.3256  11.3256  11.3542  11.3543  11.5231  11.5231
    11.5592  11.5592  12.4699  12.4699  12.8472  12.8472  13.0482  13.0482
    13.1478  13.1478  13.2028  13.2028  13.2735  13.2735  13.9229  13.9229
    14.4604  14.4604  15.0591  15.0591  16.0167  16.0167  16.6047  16.6048
    17.3189  17.3190  17.8745  17.8758  17.9137

          k = 0.1667 0.1575 0.1667 ( 62255 PWs)   bands (ev):

   -66.1519 -66.1515 -66.1510 -66.1510 -66.1506 -66.1506 -66.1502 -66.1498
   -30.6017 -30.6001 -30.5963 -30.5942 -30.5863 -30.5845 -30.5816 -30.5791
   -30.5035 -30.5015 -30.4990 -30.4976 -30.4893 -30.4872 -30.4840 -30.4823
   -30.4412 -30.4365 -30.4363 -30.4317 -30.3906 -30.3864 -30.3863 -30.3822
   -20.2966 -20.2965 -20.2964 -20.2963 -20.2963 -20.2962 -20.2962 -20.2961
   -20.2732 -20.2729 -20.2724 -20.2722 -20.2717 -20.2713 -20.2711 -20.2710
   -20.2706 -20.2702 -20.2701 -20.2699 -20.2696 -20.2693 -20.2693 -20.2692
   -20.2692 -20.2688 -20.2686 -20.2682 -20.2652 -20.2650 -20.2648 -20.2647
   -20.2640 -20.2640 -20.2636 -20.2626 -20.2623 -20.2617 -20.2617 -20.2610
   -20.2607 -20.2601 -20.2596 -20.2593 -20.2590 -20.2584 -20.2573 -20.2570
   -20.2549 -20.2543 -20.2538 -20.2535 -20.2530 -20.2527 -20.2524 -20.2515
   -10.0266  -9.8801  -9.6643  -9.6525  -9.5569  -9.5414  -9.3149  -9.2994
    -8.7630  -8.6895  -8.6890  -8.6754  -7.9731  -7.9627  -7.9379  -7.9323
    -7.9171  -7.9162  -7.8760  -7.8534  -7.6824  -7.6354  -7.6329  -7.5887
     0.9263   0.9339   1.1087   1.1274   1.1315   1.1506   1.3850   1.4586
     1.9569   2.0171   2.0235   2.1387   2.2332   2.3059   2.7067   2.7181
     2.8100   2.8263   3.9231   3.9437   3.9721   4.0279   4.0976   4.1096
     4.1164   4.1198   4.6331   4.6611   4.7922   4.8247   4.8718   5.0597
     5.1492   5.2130   5.2456   5.2753   5.3096   5.5240   5.5331   5.6951
     5.7147   5.8257   5.9922   6.0025   6.0807   6.1799   6.2291   6.2759
     6.2964   6.3761   6.4323   6.4799   6.5220   6.6510   6.6848   6.7375
     6.7723   6.8907   6.9031   6.9306   6.9496   6.9699   7.0664   7.1020
     7.1109   7.1416   7.9922   7.9949   8.1094   8.1201   8.1383   8.1455
     9.7813   9.7880   9.9987  10.0491  10.0896  10.1114  12.1894  12.2396
    12.2834  12.3043  12.6537  12.6657  12.6950  12.7079  12.9857  13.0385
    13.0720  13.1038  13.7947  13.8170  13.8719  13.9045  13.9923  14.0257
    14.5431  14.8234  14.8467  15.3008  15.7390  15.7764  15.7799  16.8135
    16.8191  17.1679  17.3178  17.3217  17.3556

          k = 0.1667 0.1575 0.3333 ( 62260 PWs)   bands (ev):

   -66.1517 -66.1513 -66.1512 -66.1508 -66.1508 -66.1504 -66.1503 -66.1499
   -30.5987 -30.5954 -30.5841 -30.5815 -30.5796 -30.5759 -30.5664 -30.5615
   -30.5246 -30.5198 -30.5106 -30.5065 -30.5003 -30.4966 -30.4862 -30.4834
   -30.4400 -30.4372 -30.4354 -30.4326 -30.3896 -30.3871 -30.3855 -30.3830
   -20.2965 -20.2964 -20.2964 -20.2964 -20.2963 -20.2962 -20.2962 -20.2961
   -20.2731 -20.2730 -20.2720 -20.2718 -20.2714 -20.2714 -20.2711 -20.2709
   -20.2705 -20.2703 -20.2703 -20.2699 -20.2696 -20.2694 -20.2693 -20.2691
   -20.2690 -20.2688 -20.2686 -20.2684 -20.2651 -20.2649 -20.2647 -20.2646
   -20.2642 -20.2640 -20.2637 -20.2628 -20.2618 -20.2615 -20.2610 -20.2605
   -20.2604 -20.2596 -20.2587 -20.2586 -20.2581 -20.2580 -20.2577 -20.2574
   -20.2564 -20.2554 -20.2550 -20.2542 -20.2539 -20.2530 -20.2527 -20.2518
    -9.8842  -9.7362  -9.6878  -9.5687  -9.3900  -9.2624  -9.1661  -9.1396
    -8.8173  -8.7211  -8.6618  -8.6589  -8.3502  -8.3211  -8.3172  -8.2709
    -7.9502  -7.9214  -7.9131  -7.8845  -7.6728  -7.6451  -7.6237  -7.5977
     1.1053   1.1231   1.1336   1.1537   1.8071   1.8282   1.9431   1.9601
     2.0124   2.0948   2.1421   2.3208   2.5091   2.5826   2.7322   2.7942
     2.9731   3.0645   3.4564   3.5399   3.8938   3.9256   3.9822   4.0633
     4.1494   4.1968   4.2934   4.3321   4.4830   4.5957   4.6083   4.7077
     4.7203   4.7699   4.8329   4.9713   5.0491   5.0592   5.3275   5.5512
     5.7098   5.7544   5.8344   5.8659   5.9422   6.0350   6.1507   6.2140
     6.2676   6.4525   6.5253   6.6370   6.6612   6.7026   6.7263   6.7739
     6.8319   6.8994   6.9982   7.0211   7.0470   7.0641   7.1326   7.1611
     7.2418   7.3240   7.8215   7.8299   7.9867   8.0014   8.1233   8.1292
    10.0321  10.0690  10.4835  10.5098  10.7403  10.7702  12.1124  12.1451
    12.1888  12.3082  12.4307  12.4490  12.5194  12.5477  12.8334  12.8770
    13.0033  13.0843  13.4301  13.4723  13.6077  13.6533  13.8787  13.8996
    14.6844  14.8238  15.1782  15.5973  15.6811  16.2446  16.4600  16.6740
    16.7478  17.4349  17.5808  17.6572  17.8079

          k = 0.1667 0.1575-0.5000 ( 62292 PWs)   bands (ev):

   -66.1515 -66.1515 -66.1511 -66.1511 -66.1506 -66.1506 -66.1502 -66.1502
   -30.5970 -30.5970 -30.5820 -30.5820 -30.5530 -30.5529 -30.5480 -30.5480
   -30.5387 -30.5386 -30.5338 -30.5338 -30.4989 -30.4988 -30.4848 -30.4848
   -30.4386 -30.4386 -30.4340 -30.4340 -30.3883 -30.3883 -30.3842 -30.3842
   -20.2965 -20.2965 -20.2964 -20.2964 -20.2963 -20.2963 -20.2962 -20.2961
   -20.2731 -20.2730 -20.2716 -20.2716 -20.2714 -20.2713 -20.2710 -20.2710
   -20.2707 -20.2706 -20.2700 -20.2700 -20.2697 -20.2697 -20.2692 -20.2692
   -20.2688 -20.2688 -20.2686 -20.2686 -20.2650 -20.2649 -20.2645 -20.2645
   -20.2643 -20.2643 -20.2633 -20.2632 -20.2613 -20.2613 -20.2610 -20.2610
   -20.2587 -20.2587 -20.2583 -20.2583 -20.2576 -20.2576 -20.2575 -20.2575
   -20.2568 -20.2568 -20.2562 -20.2562 -20.2535 -20.2535 -20.2523 -20.2523
    -9.7594  -9.7594  -9.6255  -9.6255  -9.0293  -9.0293  -8.8899  -8.8898
    -8.8213  -8.8213  -8.7971  -8.7971  -8.6012  -8.6012  -8.5716  -8.5716
    -7.9327  -7.9327  -7.9028  -7.9028  -7.6590  -7.6590  -7.6108  -7.6107
     1.1312   1.1312   1.1529   1.1529   1.9390   1.9390   1.9955   1.9955
     2.7467   2.7467   2.8598   2.8598   2.9202   2.9202   3.0195   3.0195
     3.0483   3.0483   3.1923   3.1923   3.2844   3.2844   3.6929   3.6929
     3.7689   3.7689   4.0351   4.0351   4.4739   4.4739   4.6195   4.6195
     4.6599   4.6599   4.7442   4.7442   4.8616   4.8616   5.4652   5.4652
     5.6281   5.6281   5.7697   5.7697   5.9067   5.9067   6.1892   6.1892
     6.4361   6.4361   6.5945   6.5946   6.6392   6.6392   6.7414   6.7414
     6.8819   6.8820   7.0155   7.0155   7.0948   7.0948   7.4859   7.4859
     7.5173   7.5173   7.7001   7.7001   7.7294   7.7294   8.1274   8.1274
    10.0540  10.0541  11.3282  11.3282  11.3580  11.3580  11.5882  11.5882
    11.6237  11.6237  12.3112  12.3113  12.8131  12.8131  12.9307  12.9307
    13.0791  13.0791  13.2060  13.2060  13.2723  13.2723  13.8766  13.8766
    14.7771  14.7771  15.4666  15.4667  16.0976  16.0976  16.5758  16.5758
    17.3564  17.3564  17.7427  17.7427  17.8950

          k = 0.1667 0.3150 0.1667 ( 62249 PWs)   bands (ev):

   -66.1518 -66.1516 -66.1510 -66.1510 -66.1507 -66.1507 -66.1501 -66.1498
   -30.6016 -30.6001 -30.5962 -30.5941 -30.5863 -30.5846 -30.5817 -30.5792
   -30.5035 -30.5014 -30.4989 -30.4976 -30.4893 -30.4873 -30.4840 -30.4824
   -30.4305 -30.4260 -30.4258 -30.4214 -30.4013 -30.3971 -30.3969 -30.3928
   -20.2966 -20.2964 -20.2964 -20.2963 -20.2963 -20.2962 -20.2962 -20.2961
   -20.2730 -20.2728 -20.2724 -20.2721 -20.2717 -20.2714 -20.2710 -20.2707
   -20.2707 -20.2701 -20.2699 -20.2698 -20.2694 -20.2694 -20.2689 -20.2687
   -20.2686 -20.2683 -20.2682 -20.2676 -20.2661 -20.2658 -20.2657 -20.2650
   -20.2649 -20.2640 -20.2637 -20.2626 -20.2623 -20.2618 -20.2617 -20.2610
   -20.2607 -20.2601 -20.2596 -20.2593 -20.2590 -20.2584 -20.2573 -20.2570
   -20.2549 -20.2543 -20.2538 -20.2536 -20.2530 -20.2527 -20.2524 -20.2515
    -9.9865  -9.9035  -9.6339  -9.6209  -9.5704  -9.5555  -9.3116  -9.3027
    -8.5568  -8.5095  -8.5082  -8.5003  -8.0027  -7.9749  -7.9671  -7.9496
    -7.9413  -7.9200  -7.9128  -7.8814  -7.8722  -7.8628  -7.8552  -7.8189
     0.9277   0.9321   1.1125   1.1309   1.1358   1.1541   1.4341   1.4573
     2.2474   2.2874   2.5501   2.6332   2.6453   2.7451   2.9329   2.9610
     3.0259   3.0580   3.5758   3.6056   3.6368   3.6964   4.0740   4.0818
     4.0945   4.1029   4.1957   4.5758   4.5827   4.7766   4.8827   4.9447
     4.9776   4.9892   5.0358   5.1077   5.2616   5.3753   5.4329   5.4397
     5.7245   5.7315   5.8252   5.8314   5.9537   5.9640   6.1607   6.1683
     6.3087   6.3294   6.3780   6.4912   6.5111   6.6806   6.7060   6.7512
     6.8826   6.8948   6.9448   6.9572   6.9830   6.9979   7.2101   7.2399
     7.2586   7.2669   7.9117   7.9169   7.9308   7.9352   7.9985   8.0175
     9.7878   9.7963  10.5040  10.5508  10.5953  10.6074  11.7603  11.8091
    11.8442  11.8623  12.6569  12.6684  12.6996  12.7103  13.1109  13.1566
    13.1818  13.2098  13.5947  13.6335  13.6559  13.6735  13.9628  13.9658
    15.4612  15.5829  15.5907  15.6039  15.7773  15.7851  16.5848  16.6510
    16.6599  16.7855  17.3699  17.5251  17.5417

          k = 0.1667 0.3150 0.3333 ( 62265 PWs)   bands (ev):

   -66.1517 -66.1514 -66.1512 -66.1509 -66.1508 -66.1505 -66.1503 -66.1500
   -30.5986 -30.5953 -30.5841 -30.5815 -30.5796 -30.5758 -30.5665 -30.5615
   -30.5245 -30.5197 -30.5106 -30.5066 -30.5003 -30.4965 -30.4863 -30.4835
   -30.4295 -30.4267 -30.4249 -30.4222 -30.4003 -30.3978 -30.3961 -30.3936
   -20.2965 -20.2964 -20.2964 -20.2964 -20.2963 -20.2962 -20.2962 -20.2961
   -20.2729 -20.2728 -20.2720 -20.2716 -20.2715 -20.2714 -20.2709 -20.2708
   -20.2704 -20.2704 -20.2702 -20.2697 -20.2696 -20.2693 -20.2690 -20.2689
   -20.2685 -20.2682 -20.2681 -20.2678 -20.2660 -20.2658 -20.2656 -20.2652
   -20.2646 -20.2640 -20.2637 -20.2629 -20.2618 -20.2615 -20.2610 -20.2605
   -20.2604 -20.2596 -20.2587 -20.2586 -20.2581 -20.2580 -20.2577 -20.2574
   -20.2564 -20.2554 -20.2550 -20.2542 -20.2539 -20.2530 -20.2527 -20.2518
    -9.8426  -9.7587  -9.6537  -9.5843  -9.3488  -9.2768  -9.1604  -9.1433
    -8.6301  -8.5633  -8.4913  -8.4900  -8.3615  -8.3405  -8.2952  -8.2461
    -7.9647  -7.9481  -7.9220  -7.9144  -7.9034  -7.8845  -7.8610  -7.8347
     1.1080   1.1262   1.1377   1.1574   1.9216   1.9480   2.0372   2.0931
     2.5204   2.5413   2.5600   2.6227   2.6443   2.7666   2.9519   3.0160
     3.2075   3.2819   3.4463   3.5315   3.6362   3.6461   3.7262   3.7743
     4.1394   4.1950   4.2723   4.2960   4.3613   4.4099   4.4896   4.5466
     4.5691   4.7383   4.7708   4.8470   4.9380   4.9806   4.9881   5.1400
     5.3006   5.4144   5.4606   5.6924   5.7404   5.9489   5.9529   6.0152
     6.3667   6.4630   6.5759   6.6862   6.7211   6.7705   6.8036   6.8186
     6.9178   6.9742   7.0996   7.1168   7.1691   7.2281   7.2511   7.2864
     7.3227   7.3373   7.7918   7.8290   7.8408   7.8435   7.9290   7.9576
    10.4407  10.4909  10.5785  10.6160  11.0657  11.1080  11.8028  11.8458
    12.0665  12.1172  12.1359  12.1734  12.5852  12.6200  12.8370  12.8854
    13.0927  13.1685  13.1744  13.2217  13.5451  13.6041  13.6982  13.7493
    15.5456  15.5884  15.8797  16.0936  16.2112  16.5313  16.6140  16.6860
    16.9034  16.9269  17.5819  17.6895  17.7410

          k = 0.1667 0.3150-0.5000 ( 62264 PWs)   bands (ev):

   -66.1514 -66.1514 -66.1511 -66.1511 -66.1505 -66.1505 -66.1503 -66.1502
   -30.5969 -30.5969 -30.5821 -30.5821 -30.5529 -30.5529 -30.5480 -30.5479
   -30.5387 -30.5387 -30.5339 -30.5339 -30.4988 -30.4988 -30.4849 -30.4849
   -30.4280 -30.4280 -30.4235 -30.4235 -30.3990 -30.3990 -30.3948 -30.3948
   -20.2965 -20.2965 -20.2964 -20.2964 -20.2963 -20.2963 -20.2962 -20.2962
   -20.2729 -20.2729 -20.2717 -20.2717 -20.2712 -20.2711 -20.2709 -20.2709
   -20.2705 -20.2705 -20.2700 -20.2700 -20.2694 -20.2693 -20.2691 -20.2691
   -20.2683 -20.2683 -20.2679 -20.2679 -20.2659 -20.2659 -20.2654 -20.2654
   -20.2643 -20.2643 -20.2633 -20.2633 -20.2613 -20.2613 -20.2610 -20.2610
   -20.2587 -20.2587 -20.2583 -20.2583 -20.2576 -20.2576 -20.2575 -20.2575
   -20.2568 -20.2568 -20.2562 -20.2562 -20.2535 -20.2535 -20.2523 -20.2523
    -9.7210  -9.7210  -9.6441  -9.6441  -8.9438  -8.9438  -8.8564  -8.8564
    -8.8337  -8.8337  -8.8042  -8.8042  -8.4621  -8.4621  -8.4440  -8.4440
    -7.9516  -7.9516  -7.9206  -7.9206  -7.8986  -7.8986  -7.8485  -7.8485
     1.1360   1.1360   1.1563   1.1563   2.5247   2.5247   2.6031   2.6031
     2.8595   2.8596   2.8883   2.8883   2.9809   2.9809   3.0480   3.0480
     3.0637   3.0637   3.2498   3.2498   3.2864   3.2864   3.6327   3.6327
     3.9107   3.9107   3.9690   3.9690   4.0625   4.0625   4.3035   4.3035
     4.6167   4.6167   4.6653   4.6653   4.8917   4.8917   5.0052   5.0052
     5.0955   5.0955   5.5221   5.5221   5.7876   5.7876   5.9574   5.9574
     6.5349   6.5349   6.6210   6.6210   6.6683   6.6683   6.8252   6.8252
     7.1097   7.1097   7.1886   7.1887   7.2541   7.2541   7.4688   7.4689
     7.5497   7.5497   7.6213   7.6213   7.6485   7.6485   7.9387   7.9387
    10.5614  10.5614  11.3298  11.3298  11.3624  11.3625  11.7339  11.7339
    11.8300  11.8300  11.9461  11.9461  12.5531  12.5531  12.6078  12.6078
    13.0824  13.0824  13.2080  13.2080  13.2986  13.2986  13.6671  13.6671
    15.5750  15.5750  16.3239  16.3239  16.4559  16.4559  16.5014  16.5014
    17.3200  17.3200  17.5097  17.5098  17.9335

          k = 0.1667-0.4725 0.1667 ( 62220 PWs)   bands (ev):

   -66.1518 -66.1516 -66.1509 -66.1509 -66.1507 -66.1507 -66.1501 -66.1499
   -30.6015 -30.6001 -30.5962 -30.5941 -30.5863 -30.5846 -30.5817 -30.5793
   -30.5034 -30.5014 -30.4989 -30.4976 -30.4894 -30.4873 -30.4840 -30.4824
   -30.4161 -30.4159 -30.4116 -30.4116 -30.4115 -30.4113 -30.4072 -30.4070
   -20.2966 -20.2964 -20.2964 -20.2963 -20.2963 -20.2962 -20.2962 -20.2961
   -20.2729 -20.2727 -20.2724 -20.2720 -20.2716 -20.2715 -20.2709 -20.2709
   -20.2706 -20.2701 -20.2699 -20.2698 -20.2695 -20.2694 -20.2688 -20.2687
   -20.2676 -20.2674 -20.2672 -20.2671 -20.2670 -20.2669 -20.2665 -20.2663
   -20.2649 -20.2640 -20.2637 -20.2626 -20.2623 -20.2618 -20.2617 -20.2610
   -20.2607 -20.2601 -20.2596 -20.2593 -20.2590 -20.2584 -20.2573 -20.2570
   -20.2549 -20.2543 -20.2538 -20.2536 -20.2530 -20.2527 -20.2524 -20.2515
    -9.9412  -9.9405  -9.6116  -9.5975  -9.5847  -9.5707  -9.3074  -9.3069
    -8.2662  -8.2658  -8.2345  -8.2340  -8.2323  -8.2314  -8.2222  -8.2214
    -7.9528  -7.9496  -7.9299  -7.9266  -7.8964  -7.8947  -7.8637  -7.8621
     0.9293   0.9303   1.1135   1.1319   1.1369   1.1553   1.4513   1.4525
     2.2674   2.2677   3.1382   3.1435   3.1856   3.1897   3.2285   3.2333
     3.3149   3.3208   3.4062   3.4077   3.6460   3.6489   3.6778   3.6794
     3.8555   3.8558   4.0797   4.0873   4.0936   4.0999   4.9226   4.9316
     5.0409   5.0466   5.2091   5.2189   5.2287   5.2349   5.4265   5.4350
     5.5489   5.5527   5.7692   5.7828   5.7887   5.7973   6.1832   6.1866
     6.3260   6.3325   6.4974   6.5048   6.5357   6.5372   6.7843   6.7923
     6.8065   6.8153   6.9518   6.9549   7.0209   7.0219   7.5793   7.5821
     7.5996   7.6033   7.6053   7.6117   7.6175   7.6243   8.0024   8.0026
     9.7930   9.7940  11.1351  11.1515  11.1877  11.2023  11.2210  11.2265
    11.2570  11.2725  12.6583  12.6694  12.7015  12.7114  13.3119  13.3235
    13.3573  13.3785  13.3912  13.3939  13.4142  13.4219  13.9546  13.9552
    15.7697  15.7729  16.0328  16.0358  16.2657  16.2796  16.2929  16.3072
    16.5288  16.5304  17.8114  17.8193  17.8319

          k = 0.1667-0.4725 0.3333 ( 62252 PWs)   bands (ev):

   -66.1516 -66.1514 -66.1511 -66.1509 -66.1507 -66.1505 -66.1502 -66.1500
   -30.5985 -30.5952 -30.5841 -30.5815 -30.5796 -30.5758 -30.5665 -30.5616
   -30.5245 -30.5197 -30.5107 -30.5066 -30.5002 -30.4965 -30.4863 -30.4835
   -30.4150 -30.4148 -30.4124 -30.4121 -30.4106 -30.4105 -30.4080 -30.4079
   -20.2965 -20.2964 -20.2964 -20.2963 -20.2963 -20.2962 -20.2962 -20.2961
   -20.2728 -20.2727 -20.2721 -20.2716 -20.2715 -20.2713 -20.2708 -20.2707
   -20.2706 -20.2704 -20.2700 -20.2698 -20.2696 -20.2693 -20.2690 -20.2689
   -20.2674 -20.2673 -20.2671 -20.2671 -20.2670 -20.2668 -20.2666 -20.2664
   -20.2647 -20.2640 -20.2637 -20.2629 -20.2618 -20.2616 -20.2610 -20.2605
   -20.2604 -20.2597 -20.2587 -20.2586 -20.2581 -20.2580 -20.2577 -20.2574
   -20.2564 -20.2554 -20.2550 -20.2542 -20.2539 -20.2530 -20.2527 -20.2518
    -9.8015  -9.7903  -9.6274  -9.6018  -9.3196  -9.2937  -9.1565  -9.1463
    -8.4342  -8.4163  -8.4089  -8.3948  -8.2299  -8.2278  -8.2210  -8.2189
    -8.1750  -8.1704  -8.1433  -8.1366  -7.9355  -7.9146  -7.9006  -7.8797
     1.1087   1.1269   1.1388   1.1586   1.9332   1.9512   2.0770   2.0889
     2.5381   2.5397   3.1455   3.1905   3.1987   3.2417   3.2638   3.2916
     3.3705   3.3831   3.4360   3.4566   3.5139   3.5349   3.6238   3.6549
     3.7625   3.7778   3.8756   3.8859   4.2510   4.2894   4.3631   4.4235
     4.5340   4.5622   4.8043   4.8099   4.8869   4.9402   4.9506   4.9574
     5.2241   5.2496   5.3398   5.4082   5.7812   5.7927   5.9510   5.9673
     6.4247   6.4431   6.6708   6.7002   6.7602   6.7814   6.7914   6.8078
     6.9036   6.9431   7.1925   7.2162   7.2503   7.2719   7.5444   7.5513
     7.5709   7.5761   7.5824   7.5891   7.6148   7.6381   7.8506   7.8589
    10.4834  10.4955  11.1896  11.2084  11.2221  11.2404  11.5527  11.5677
    11.5913  11.6210  12.1277  12.1663  12.7983  12.8311  12.8548  12.8675
    12.8804  12.9078  13.3052  13.3347  13.3868  13.3978  13.6639  13.6987
    16.0575  16.0906  16.2439  16.2695  16.4078  16.4240  16.9932  16.9943
    17.0458  17.0563  17.3022  17.3173  17.8368

          k = 0.1667-0.4725-0.5000 ( 62232 PWs)   bands (ev):

   -66.1514 -66.1514 -66.1512 -66.1512 -66.1505 -66.1505 -66.1503 -66.1503
   -30.5969 -30.5968 -30.5821 -30.5821 -30.5528 -30.5528 -30.5479 -30.5479
   -30.5387 -30.5387 -30.5339 -30.5339 -30.4987 -30.4987 -30.4849 -30.4849
   -30.4137 -30.4137 -30.4134 -30.4134 -30.4093 -30.4093 -30.4091 -30.4091
   -20.2965 -20.2965 -20.2964 -20.2964 -20.2963 -20.2963 -20.2962 -20.2962
   -20.2728 -20.2728 -20.2718 -20.2718 -20.2710 -20.2710 -20.2710 -20.2709
   -20.2704 -20.2704 -20.2701 -20.2701 -20.2693 -20.2693 -20.2691 -20.2691
   -20.2673 -20.2672 -20.2671 -20.2671 -20.2668 -20.2668 -20.2666 -20.2666
   -20.2643 -20.2643 -20.2633 -20.2633 -20.2613 -20.2613 -20.2611 -20.2610
   -20.2587 -20.2587 -20.2583 -20.2583 -20.2576 -20.2576 -20.2575 -20.2575
   -20.2568 -20.2568 -20.2562 -20.2562 -20.2535 -20.2535 -20.2523 -20.2523
    -9.6886  -9.6886  -9.6669  -9.6669  -8.8890  -8.8890  -8.8643  -8.8643
    -8.8304  -8.8304  -8.8117  -8.8117  -8.2211  -8.2210  -8.2128  -8.2127
    -8.1995  -8.1995  -8.1915  -8.1914  -7.9183  -7.9183  -7.8973  -7.8973
     1.1371   1.1371   1.1573   1.1574   2.8625   2.8625   2.8800   2.8800
     2.9703   2.9703   3.0001   3.0001   3.1227   3.1227   3.1715   3.1715
     3.2579   3.2579   3.2946   3.2946   3.4061   3.4061   3.4556   3.4556
     3.6437   3.6437   3.7043   3.7043   4.2540   4.2540   4.2738   4.2738
     4.3402   4.3402   4.3645   4.3645   4.6359   4.6359   4.6795   4.6795
     5.2371   5.2372   5.2913   5.2914   5.8133   5.8133   5.8279   5.8279
     6.5816   6.5816   6.6073   6.6073   6.7462   6.7462   6.7682   6.7682
     7.3314   7.3314   7.3828   7.3828   7.4220   7.4221   7.4654   7.4654
     7.4838   7.4838   7.5287   7.5287   7.6683   7.6684   7.6929   7.6929
    11.1551  11.1551  11.1948  11.1948  11.3641  11.3641  11.4114  11.4114
    12.1443  12.1443  12.1628  12.1628  12.1985  12.1985  12.2206  12.2206
    13.1294  13.1295  13.2060  13.2060  13.3933  13.3933  13.4603  13.4603
    16.1911  16.1912  16.2202  16.2202  16.8097  16.8098  16.8111  16.8112
    17.6232  17.6233  17.6596  17.6597  17.8415

          k = 0.3333 0.0000 0.3333 ( 62316 PWs)   bands (ev):

   -66.1516 -66.1511 -66.1511 -66.1510 -66.1506 -66.1506 -66.1505 -66.1501
   -30.5804 -30.5788 -30.5772 -30.5752 -30.5649 -30.5631 -30.5624 -30.5600
   -30.5236 -30.5215 -30.5209 -30.5197 -30.5090 -30.5069 -30.5058 -30.5041
   -30.4428 -30.4400 -30.4399 -30.4372 -30.3847 -30.3823 -30.3823 -30.3799
   -20.2965 -20.2965 -20.2964 -20.2964 -20.2963 -20.2962 -20.2962 -20.2961
   -20.2728 -20.2726 -20.2720 -20.2718 -20.2716 -20.2715 -20.2711 -20.2707
   -20.2706 -20.2703 -20.2703 -20.2699 -20.2698 -20.2695 -20.2694 -20.2693
   -20.2691 -20.2689 -20.2687 -20.2685 -20.2647 -20.2645 -20.2644 -20.2640
   -20.2637 -20.2633 -20.2630 -20.2623 -20.2620 -20.2618 -20.2615 -20.2609
   -20.2601 -20.2594 -20.2589 -20.2586 -20.2579 -20.2573 -20.2570 -20.2567
   -20.2560 -20.2554 -20.2553 -20.2551 -20.2544 -20.2542 -20.2541 -20.2532
    -9.7173  -9.5242  -9.4511  -9.4431  -9.2867  -9.2733  -9.0613  -9.0429
    -8.9420  -8.7399  -8.7373  -8.6979  -8.4137  -8.3340  -8.3291  -8.3207
    -8.3079  -8.3015  -8.2434  -8.2188  -7.5634  -7.5346  -7.5331  -7.5054
     1.6369   1.6528   1.6537   1.7263   1.7653   1.7761   1.9465   1.9623
     2.0594   2.0720   2.2384   2.3953   2.7976   2.8685   2.9045   2.9253
     2.9415   3.0152   3.6212   3.6395   3.7475   3.7679   3.8803   3.9169
     4.0725   4.0940   4.1115   4.1892   4.2359   4.2452   4.3655   4.3812
     4.5641   4.7170   4.7358   4.7798   4.7850   4.8025   4.8657   5.1822
     5.2282   5.2992   5.3216   5.7037   6.2227   6.2275   6.2389   6.3023
     6.5394   6.5555   6.5761   6.6839   6.7245   6.8178   6.8356   6.8377
     6.9795   7.0094   7.0228   7.0350   7.1466   7.1545   7.1920   7.2257
     7.2355   7.4483   7.7077   7.7237   7.9817   8.0394   8.0591   8.0953
    10.5303  10.6120  10.6337  10.6807  10.9775  11.0190  12.2506  12.2630
    12.2990  12.3333  12.3601  12.3813  12.4567  12.4711  12.6702  12.6987
    12.7070  12.7817  13.2171  13.2701  13.5023  13.5657  13.5865  13.6747
    14.4790  14.7354  14.7409  15.1414  15.9570  16.9679  16.9770  17.0142
    17.0494  17.6950  17.8057  17.8089  17.8534

          k = 0.3333 0.0000-0.5000 ( 62288 PWs)   bands (ev):

   -66.1513 -66.1513 -66.1509 -66.1509 -66.1508 -66.1508 -66.1504 -66.1503
   -30.5768 -30.5768 -30.5622 -30.5622 -30.5516 -30.5516 -30.5491 -30.5491
   -30.5377 -30.5377 -30.5352 -30.5351 -30.5193 -30.5193 -30.5056 -30.5056
   -30.4413 -30.4413 -30.4386 -30.4386 -30.3835 -30.3835 -30.3811 -30.3811
   -20.2965 -20.2965 -20.2964 -20.2964 -20.2963 -20.2962 -20.2962 -20.2962
   -20.2727 -20.2727 -20.2717 -20.2717 -20.2714 -20.2714 -20.2711 -20.2711
   -20.2705 -20.2705 -20.2700 -20.2700 -20.2697 -20.2697 -20.2695 -20.2695
   -20.2689 -20.2689 -20.2687 -20.2687 -20.2645 -20.2645 -20.2642 -20.2642
   -20.2636 -20.2635 -20.2626 -20.2626 -20.2618 -20.2618 -20.2613 -20.2613
   -20.2584 -20.2583 -20.2577 -20.2577 -20.2574 -20.2573 -20.2571 -20.2571
   -20.2566 -20.2566 -20.2565 -20.2565 -20.2547 -20.2547 -20.2537 -20.2537
    -9.5387  -9.5387  -9.3462  -9.3462  -9.1257  -9.1257  -8.8635  -8.8635
    -8.8358  -8.8358  -8.7665  -8.7665  -8.6306  -8.6306  -8.6156  -8.6156
    -8.3059  -8.3059  -8.2835  -8.2835  -7.5491  -7.5491  -7.5193  -7.5193
[...]
   -20.7431 -20.7431 -20.7427 -20.7427 -20.7405 -20.7405 -20.7398 -20.7398
   -20.7386 -20.7386 -20.7386 -20.7386 -20.7373 -20.7373 -20.7366 -20.7366
   -20.7365 -20.7365 -20.7363 -20.7363 -20.7348 -20.7348 -20.7340 -20.7340
   -20.7337 -20.7337 -20.7330 -20.7330 -20.7316 -20.7316 -20.7307 -20.7307
    -9.8391  -9.8391  -9.6800  -9.6800  -9.3646  -9.3646  -9.1477  -9.1477
    -8.9657  -8.9656  -8.9061  -8.9060  -8.8567  -8.8566  -8.8331  -8.8330
    -8.4993  -8.4993  -8.4743  -8.4743  -8.1733  -8.1733  -8.1426  -8.1426
     1.1076   1.1076   1.1308   1.1308   1.9121   1.9121   1.9994   1.9994
     2.6627   2.6627   2.7868   2.7868   2.8113   2.8114   2.8844   2.8845
     2.9109   2.9109   3.1044   3.1045   3.1449   3.1450   3.4147   3.4147
     3.5417   3.5417   3.5793   3.5793   3.8036   3.8037   4.0054   4.0054
     4.2979   4.2979   4.4396   4.4396   4.5174   4.5174   4.6027   4.6027
     4.6760   4.6760   5.1036   5.1036   5.4755   5.4755   5.5951   5.5951
     6.3022   6.3022   6.3715   6.3715   6.4639   6.4640   6.5076   6.5076
     6.7116   6.7116   6.7649   6.7649   6.8787   6.8788   7.1975   7.1975
     7.2300   7.2301   7.2668   7.2668   7.3128   7.3129   7.5755   7.5755
    10.1604  10.1604  10.8116  10.8116  10.8407  10.8407  11.2730  11.2730
    11.3277  11.3277  11.6081  11.6081  12.1860  12.1860  12.2216  12.2216
    12.4803  12.4803  12.5660  12.5660  12.6234  12.6234  13.1431  13.1431
    15.0321  15.0321  15.4977  15.4977  15.9832  15.9833  16.3379  16.3379
    16.6627  16.6627  16.9419  16.9419  17.4733

          k = 0.3267 0.4808 0.1633 ( 63738 PWs)   bands (ev):

   -66.6011 -66.6009 -66.6007 -66.6005 -66.6005 -66.6002 -66.6001 -66.5999
   -30.9383 -30.9361 -30.9294 -30.9262 -30.9254 -30.9229 -30.9207 -30.9200
   -30.9185 -30.9167 -30.9162 -30.9162 -30.9110 -30.9095 -30.9065 -30.9033
   -30.8763 -30.8733 -30.8661 -30.8624 -30.8595 -30.8572 -30.8490 -30.8468
   -20.7728 -20.7728 -20.7727 -20.7726 -20.7726 -20.7725 -20.7724 -20.7724
   -20.7473 -20.7471 -20.7466 -20.7465 -20.7463 -20.7461 -20.7456 -20.7453
   -20.7446 -20.7442 -20.7441 -20.7438 -20.7437 -20.7435 -20.7429 -20.7428
   -20.7423 -20.7421 -20.7418 -20.7417 -20.7415 -20.7414 -20.7412 -20.7410
   -20.7390 -20.7389 -20.7385 -20.7384 -20.7383 -20.7377 -20.7376 -20.7376
   -20.7364 -20.7359 -20.7357 -20.7357 -20.7353 -20.7349 -20.7346 -20.7340
   -20.7336 -20.7328 -20.7323 -20.7319 -20.7317 -20.7312 -20.7308 -20.7306
    -9.8594  -9.8490  -9.6858  -9.6604  -9.4129  -9.3887  -9.1926  -9.1846
    -8.9467  -8.9449  -8.8732  -8.8708  -8.8350  -8.8342  -8.8295  -8.8263
    -8.5086  -8.4842  -8.4731  -8.4503  -8.1858  -8.1611  -8.1548  -8.1303
     1.1024   1.1099   1.1224   1.1309   1.8402   1.8591   1.9462   1.9614
     2.6278   2.6304   2.7960   2.8088   2.8611   2.8714   2.8963   2.9093
     2.9327   2.9507   3.0954   3.1326   3.1526   3.1949   3.3308   3.3500
     3.3964   3.4051   3.5466   3.5752   3.9414   3.9514   4.1101   4.1239
     4.2384   4.2808   4.4391   4.4687   4.4796   4.5462   4.5905   4.5993
     4.6947   4.7223   5.0209   5.0571   5.4370   5.4461   5.7049   5.7127
     6.2773   6.2986   6.3287   6.3482   6.4508   6.4792   6.6063   6.6089
     6.7241   6.7346   6.7991   6.8287   6.9032   6.9194   7.1512   7.1585
     7.1808   7.1940   7.2105   7.2222   7.2444   7.2702   7.5976   7.6044
    10.0298  10.0423  10.8393  10.8568  10.8695  10.8847  11.2069  11.2223
    11.2299  11.2595  11.5428  11.5832  12.1963  12.2477  12.3001  12.3055
    12.3296  12.3456  12.7311  12.7813  12.7995  12.8148  12.9468  12.9977
    15.1264  15.1542  15.4503  15.4835  15.9304  15.9491  16.4129  16.4389
    16.6264  16.6346  16.9710  16.9985  17.4691

          k =-0.4901 0.4808 0.1633 ( 63740 PWs)   bands (ev):

   -66.6009 -66.6009 -66.6007 -66.6007 -66.6003 -66.6003 -66.6001 -66.6001
   -30.9372 -30.9372 -30.9249 -30.9249 -30.9210 -30.9210 -30.9193 -30.9193
   -30.9177 -30.9177 -30.9175 -30.9175 -30.8962 -30.8962 -30.8935 -30.8935
   -30.8870 -30.8870 -30.8832 -30.8832 -30.8586 -30.8586 -30.8479 -30.8479
   -20.7728 -20.7728 -20.7727 -20.7727 -20.7726 -20.7726 -20.7724 -20.7724
   -20.7472 -20.7472 -20.7464 -20.7464 -20.7463 -20.7463 -20.7455 -20.7455
   -20.7444 -20.7444 -20.7439 -20.7439 -20.7433 -20.7433 -20.7432 -20.7432
   -20.7422 -20.7422 -20.7417 -20.7417 -20.7416 -20.7416 -20.7411 -20.7411
   -20.7386 -20.7386 -20.7386 -20.7386 -20.7373 -20.7373 -20.7366 -20.7366
   -20.7365 -20.7365 -20.7365 -20.7365 -20.7348 -20.7348 -20.7340 -20.7340
   -20.7337 -20.7337 -20.7330 -20.7330 -20.7316 -20.7316 -20.7307 -20.7307
    -9.7506  -9.7506  -9.7299  -9.7299  -9.1085  -9.1084  -9.0906  -9.0905
    -8.9730  -8.9730  -8.9615  -8.9614  -8.7838  -8.7838  -8.7657  -8.7656
    -8.7504  -8.7503  -8.7313  -8.7313  -8.1707  -8.1707  -8.1459  -8.1459
     1.1132   1.1132   1.1344   1.1344   2.6619   2.6619   2.7310   2.7310
     2.7553   2.7553   2.7983   2.7983   2.8682   2.8683   2.9055   2.9055
     2.9794   2.9794   3.0565   3.0565   3.0988   3.0988   3.1510   3.1510
     3.1981   3.1981   3.3524   3.3524   3.8389   3.8389   3.8998   3.8999
     3.9146   3.9146   3.9772   3.9772   4.4218   4.4218   4.4778   4.4779
     4.7971   4.7972   4.8592   4.8592   5.4960   5.4960   5.5066   5.5066
     6.3788   6.3788   6.4220   6.4220   6.4483   6.4483   6.4838   6.4838
     6.9884   6.9884   7.0173   7.0173   7.0652   7.0653   7.0998   7.0998
     7.1125   7.1125   7.1832   7.1832   7.3516   7.3516   7.3802   7.3803
    10.7431  10.7431  10.7893  10.7893  10.8963  10.8963  10.9490  10.9490
    11.6888  11.6888  11.7252  11.7252  11.7709  11.7709  11.7930  11.7930
    12.4977  12.4977  12.5624  12.5624  12.7976  12.7976  12.8514  12.8514
    15.3387  15.3387  15.3726  15.3726  16.4562  16.4562  16.4945  16.4945
    17.2710  17.2710  17.3154  17.3154  17.3797

          k =-0.4901 0.0000 0.3265 ( 63698 PWs)   bands (ev):

   -66.6009 -66.6009 -66.6006 -66.6006 -66.6004 -66.6004 -66.6000 -66.6000
   -30.9562 -30.9562 -30.9538 -30.9538 -30.9196 -30.9196 -30.9080 -30.9080
   -30.9000 -30.9000 -30.8990 -30.8990 -30.8889 -30.8889 -30.8871 -30.8871
   -30.8813 -30.8813 -30.8766 -30.8766 -30.8705 -30.8705 -30.8630 -30.8630
   -20.7728 -20.7728 -20.7727 -20.7727 -20.7725 -20.7725 -20.7724 -20.7724
   -20.7472 -20.7472 -20.7468 -20.7468 -20.7461 -20.7461 -20.7456 -20.7456
   -20.7453 -20.7453 -20.7450 -20.7450 -20.7441 -20.7441 -20.7438 -20.7438
   -20.7431 -20.7431 -20.7429 -20.7429 -20.7392 -20.7392 -20.7386 -20.7386
   -20.7377 -20.7377 -20.7375 -20.7375 -20.7370 -20.7370 -20.7365 -20.7365
   -20.7361 -20.7361 -20.7358 -20.7358 -20.7346 -20.7346 -20.7342 -20.7342
   -20.7337 -20.7337 -20.7333 -20.7333 -20.7326 -20.7326 -20.7318 -20.7318
    -9.8681  -9.8681  -9.6909  -9.6909  -9.4044  -9.4043  -9.1781  -9.1781
    -8.9605  -8.9604  -8.8912  -8.8911  -8.8674  -8.8673  -8.8444  -8.8443
    -8.4947  -8.4947  -8.4648  -8.4648  -8.0909  -8.0909  -8.0687  -8.0687
     0.9549   0.9549   0.9753   0.9753   1.8559   1.8559   1.9157   1.9157
     2.5828   2.5828   2.7432   2.7432   2.7627   2.7627   2.8550   2.8551
     2.9028   2.9028   3.2247   3.2248   3.2989   3.2989   3.3694   3.3694
     3.4721   3.4721   3.5868   3.5868   3.7729   3.7729   4.0204   4.0204
     4.3416   4.3416   4.5652   4.5653   4.6271   4.6271   4.6477   4.6477
     4.9152   4.9152   5.2747   5.2747   5.7458   5.7458   5.7917   5.7917
     6.0703   6.0703   6.1001   6.1001   6.2432   6.2432   6.2496   6.2496
     6.7442   6.7442   6.8765   6.8765   6.9480   6.9481   7.2309   7.2309
     7.2404   7.2404   7.2954   7.2954   7.3576   7.3576   7.6618   7.6618
    10.1307  10.1307  10.9323  10.9323  10.9429  10.9430  11.1329  11.1329
    11.1807  11.1807  11.7458  11.7458  12.1278  12.1278  12.1675  12.1675
    12.4326  12.4326  12.7715  12.7715  12.7922  12.7922  13.2017  13.2017
    14.5119  14.5119  14.8910  14.8910  15.8887  15.8887  16.4808  16.4808
    16.7851  16.7851  16.9587  16.9587  17.6024

          k =-0.4901-0.1603 0.3265 ( 63702 PWs)   bands (ev):

   -66.6009 -66.6009 -66.6006 -66.6006 -66.6004 -66.6004 -66.6001 -66.6000
   -30.9515 -30.9515 -30.9491 -30.9491 -30.9196 -30.9196 -30.9080 -30.9080
   -30.9006 -30.9006 -30.8996 -30.8996 -30.8896 -30.8896 -30.8885 -30.8885
   -30.8828 -30.8828 -30.8797 -30.8797 -30.8718 -30.8718 -30.8631 -30.8631
   -20.7728 -20.7728 -20.7727 -20.7727 -20.7725 -20.7725 -20.7724 -20.7724
   -20.7472 -20.7472 -20.7467 -20.7467 -20.7461 -20.7461 -20.7456 -20.7456
   -20.7450 -20.7450 -20.7447 -20.7447 -20.7440 -20.7440 -20.7437 -20.7437
   -20.7431 -20.7431 -20.7430 -20.7430 -20.7394 -20.7394 -20.7389 -20.7389
   -20.7378 -20.7378 -20.7375 -20.7375 -20.7371 -20.7371 -20.7365 -20.7365
   -20.7361 -20.7361 -20.7358 -20.7358 -20.7346 -20.7346 -20.7342 -20.7342
   -20.7337 -20.7337 -20.7333 -20.7333 -20.7326 -20.7326 -20.7319 -20.7319
    -9.8087  -9.8087  -9.6137  -9.6137  -9.4143  -9.4143  -9.1542  -9.1542
    -8.9699  -8.9698  -8.8856  -8.8855  -8.8650  -8.8649  -8.8447  -8.8447
    -8.4940  -8.4940  -8.4686  -8.4686  -8.2061  -8.2061  -8.1840  -8.1840
     1.2072   1.2072   1.2323   1.2323   1.8563   1.8563   1.9217   1.9217
     2.6560   2.6560   2.7585   2.7586   2.7901   2.7902   2.8603   2.8603
     2.9042   2.9042   3.2607   3.2607   3.3398   3.3398   3.3819   3.3819
     3.4775   3.4775   3.6427   3.6427   3.7437   3.7437   4.0299   4.0299
     4.1983   4.1983   4.3587   4.3587   4.5516   4.5517   4.6104   4.6104
     4.6534   4.6534   4.9983   4.9983   5.4198   5.4198   5.5696   5.5696
     6.2389   6.2389   6.2786   6.2786   6.3550   6.3550   6.4822   6.4822
     6.7558   6.7558   6.8716   6.8717   6.9604   6.9604   7.2212   7.2213
     7.2364   7.2364   7.2887   7.2887   7.3428   7.3429   7.6173   7.6173
    10.2555  10.2555  10.9902  10.9902  11.0182  11.0182  11.1475  11.1475
    11.2009  11.2009  11.7954  11.7954  12.1281  12.1281  12.1635  12.1635
    12.2696  12.2696  12.6267  12.6267  12.6446  12.6446  13.0691  13.0691
    14.8987  14.8987  15.2986  15.2986  15.9693  15.9694  16.4776  16.4777
    16.7997  16.7997  16.9943  16.9943  17.4192

          k =-0.4901-0.3205 0.3265 ( 63696 PWs)   bands (ev):

   -66.6008 -66.6008 -66.6005 -66.6005 -66.6005 -66.6005 -66.6001 -66.6001
   -30.9392 -30.9392 -30.9364 -30.9364 -30.9197 -30.9197 -30.9084 -30.9084
   -30.9050 -30.9050 -30.9041 -30.9041 -30.8932 -30.8932 -30.8926 -30.8926
   -30.8857 -30.8857 -30.8835 -30.8835 -30.8733 -30.8733 -30.8634 -30.8634
   -20.7728 -20.7728 -20.7727 -20.7727 -20.7725 -20.7725 -20.7724 -20.7724
   -20.7471 -20.7471 -20.7466 -20.7466 -20.7461 -20.7461 -20.7456 -20.7456
   -20.7445 -20.7445 -20.7442 -20.7442 -20.7434 -20.7434 -20.7432 -20.7432
   -20.7431 -20.7431 -20.7429 -20.7429 -20.7404 -20.7404 -20.7400 -20.7399
   -20.7379 -20.7379 -20.7375 -20.7375 -20.7373 -20.7373 -20.7366 -20.7365
   -20.7362 -20.7362 -20.7359 -20.7359 -20.7346 -20.7346 -20.7342 -20.7342
   -20.7337 -20.7337 -20.7333 -20.7333 -20.7325 -20.7325 -20.7319 -20.7319
    -9.6646  -9.6646  -9.4489  -9.4489  -9.4029  -9.4029  -9.0659  -9.0659
    -9.0099  -9.0099  -8.8786  -8.8786  -8.8470  -8.8469  -8.8379  -8.8378
    -8.5322  -8.5322  -8.4877  -8.4877  -8.4787  -8.4787  -8.4180  -8.4180
     1.7558   1.7558   1.8568   1.8568   1.9179   1.9179   2.0648   2.0648
     2.7838   2.7838   2.8086   2.8086   2.8420   2.8421   2.8884   2.8884
     2.9569   2.9569   3.3247   3.3247   3.3592   3.3593   3.4711   3.4711
     3.5306   3.5306   3.6172   3.6172   3.7677   3.7677   3.8198   3.8198
     3.9209   3.9209   4.1028   4.1029   4.1558   4.1559   4.4406   4.4406
     4.4999   4.4999   4.6080   4.6080   4.6222   4.6222   4.9804   4.9804
     6.5766   6.5766   6.6289   6.6289   6.6901   6.6901   6.7224   6.7224
     6.7925   6.7926   6.8639   6.8639   7.0151   7.0151   7.1708   7.1708
     7.2057   7.2057   7.2806   7.2807   7.2924   7.2924   7.4840   7.4840
    10.6208  10.6208  11.0733  11.0733  11.1241  11.1241  11.2983  11.2983
    11.3704  11.3704  11.8037  11.8037  11.9519  11.9519  12.0959  12.0959
    12.1839  12.1839  12.2646  12.2646  12.2944  12.2944  12.7406  12.7406
    15.7602  15.7602  16.2147  16.2148  16.2809  16.2809  16.4535  16.4535
    16.8727  16.8727  17.0354  17.0355  17.1357

          k =-0.4901 0.4808 0.3265 ( 63712 PWs)   bands (ev):

   -66.6008 -66.6008 -66.6005 -66.6005 -66.6004 -66.6004 -66.6002 -66.6002
   -30.9262 -30.9262 -30.9223 -30.9223 -30.9201 -30.9201 -30.9186 -30.9186
   -30.9125 -30.9125 -30.9079 -30.9079 -30.8950 -30.8950 -30.8941 -30.8941
   -30.8865 -30.8865 -30.8841 -30.8841 -30.8737 -30.8737 -30.8635 -30.8635
   -20.7728 -20.7728 -20.7727 -20.7727 -20.7725 -20.7725 -20.7724 -20.7724
   -20.7471 -20.7471 -20.7466 -20.7466 -20.7461 -20.7461 -20.7456 -20.7456
   -20.7443 -20.7443 -20.7440 -20.7440 -20.7433 -20.7433 -20.7432 -20.7432
   -20.7421 -20.7421 -20.7418 -20.7418 -20.7416 -20.7416 -20.7412 -20.7412
   -20.7379 -20.7379 -20.7375 -20.7375 -20.7373 -20.7373 -20.7366 -20.7366
   -20.7363 -20.7362 -20.7360 -20.7360 -20.7346 -20.7346 -20.7342 -20.7342
   -20.7337 -20.7337 -20.7333 -20.7333 -20.7325 -20.7325 -20.7320 -20.7320
    -9.5341  -9.5341  -9.5189  -9.5189  -9.1555  -9.1554  -9.1402  -9.1401
    -8.9222  -8.9221  -8.9131  -8.9131  -8.7780  -8.7780  -8.7619  -8.7618
    -8.7542  -8.7541  -8.7373  -8.7372  -8.4798  -8.4798  -8.4566  -8.4566
     1.8416   1.8416   1.8605   1.8605   2.6730   2.6730   2.7098   2.7099
     2.7648   2.7648   2.7908   2.7909   2.8778   2.8779   2.9273   2.9273
     3.0375   3.0375   3.0574   3.0574   3.2829   3.2829   3.3425   3.3425
     3.4045   3.4045   3.4914   3.4914   3.8152   3.8152   3.8417   3.8418
     3.8988   3.8988   3.9261   3.9261   4.0042   4.0043   4.0344   4.0344
     4.2905   4.2905   4.3527   4.3527   4.6557   4.6557   4.6640   4.6640
     6.6934   6.6934   6.7564   6.7564   6.7865   6.7865   6.7991   6.7991
     6.9631   6.9631   7.0210   7.0210   7.0578   7.0579   7.0737   7.0737
     7.1492   7.1492   7.2044   7.2045   7.3147   7.3147   7.3463   7.3463
    11.0266  11.0266  11.0693  11.0693  11.2098  11.2098  11.2788  11.2788
    11.6816  11.6816  11.7291  11.7292  11.7639  11.7639  11.7973  11.7973
    12.0815  12.0815  12.1965  12.1965  12.3342  12.3342  12.4161  12.4161
    16.2624  16.2624  16.3035  16.3035  16.6676  16.6677  16.6898  16.6898
    17.1481  17.1481  17.2390  17.2391  17.3682

     the Fermi energy is     8.5231 ev

!    total energy              =   -6261.09491041 Ry
     Harris-Foulkes estimate   =   -6261.09491041 Ry
     estimated scf accuracy    <          7.8E-11 Ry

     The total energy is the sum of the following terms:

     one-electron contribution =   -4822.16651269 Ry
     hartree contribution      =    2642.43663929 Ry
     xc contribution           =    -965.67693790 Ry
     ewald contribution        =   -3115.68809911 Ry
     smearing contrib. (-TS)   =      -0.00000000 Ry

     convergence has been achieved in  16 iterations

     Forces acting on atoms (cartesian axes, Ry/au):

     atom    1 type  1   force =    -0.00820033    0.01819007    0.00442577
     atom    2 type  1   force =     0.00551269   -0.01827439   -0.00775355
     atom    3 type  1   force =     0.00820033   -0.01819007    0.00442577
     atom    4 type  1   force =    -0.00551269    0.01827439   -0.00775355
     atom    5 type  1   force =     0.00820033    0.01819007   -0.00442577
     atom    6 type  1   force =    -0.00551269   -0.01827439    0.00775355
     atom    7 type  1   force =    -0.00820033   -0.01819007   -0.00442577
     atom    8 type  1   force =     0.00551269    0.01827439    0.00775355
     atom    9 type  2   force =     0.00004218   -0.00975499   -0.00060857
     atom   10 type  2   force =     0.00009098    0.00973882    0.00060344
     atom   11 type  2   force =    -0.00004218    0.00975499   -0.00060857
     atom   12 type  2   force =    -0.00009098   -0.00973882    0.00060344
     atom   13 type  2   force =    -0.00004218   -0.00975499    0.00060857
     atom   14 type  2   force =    -0.00009098    0.00973882   -0.00060344
     atom   15 type  2   force =     0.00004218    0.00975499    0.00060857
     atom   16 type  2   force =     0.00009098   -0.00973882   -0.00060344
     atom   17 type  2   force =    -0.00502131   -0.00032127   -0.00089807
     atom   18 type  2   force =     0.00272005    0.00114622    0.00114555
     atom   19 type  2   force =     0.00502131    0.00032127   -0.00089807
     atom   20 type  2   force =    -0.00272005   -0.00114622    0.00114555
     atom   21 type  2   force =     0.00502131   -0.00032127    0.00089807
     atom   22 type  2   force =    -0.00272005    0.00114622   -0.00114555
     atom   23 type  2   force =    -0.00502131    0.00032127    0.00089807
     atom   24 type  2   force =     0.00272005   -0.00114622   -0.00114555
     atom   25 type  2   force =    -0.00180244    0.00174325    0.00409643
     atom   26 type  2   force =     0.00148961   -0.00128735   -0.00584125
     atom   27 type  2   force =     0.00180244   -0.00174325    0.00409643
     atom   28 type  2   force =    -0.00148961    0.00128735   -0.00584125
     atom   29 type  2   force =     0.00180244    0.00174325   -0.00409643
     atom   30 type  2   force =    -0.00148961   -0.00128735    0.00584125
     atom   31 type  2   force =    -0.00180244   -0.00174325   -0.00409643
     atom   32 type  2   force =     0.00148961    0.00128735    0.00584125

     Total force =     0.000000     Total SCF correction =     0.000000


     Computing stress (Cartesian axis) and pressure

          total   stress  (Ry/bohr**3)                   (kbar)     P=    1.33
   0.00001281   0.00000000   0.00000000          1.88      0.00      0.00
   0.00000000   0.00000109   0.00000000          0.00      0.16      0.00
   0.00000000   0.00000000   0.00001316          0.00      0.00      1.94


     Writing output data file Landau_14.save
 
     init_run     :     99.88s CPU    103.18s WALL (       2 calls)
     electrons    :  14829.95s CPU  15164.70s WALL (       7 calls)
     update_pot   :    115.99s CPU    116.45s WALL (       5 calls)
     forces       :    256.43s CPU    260.54s WALL (       7 calls)
     stress       :   1427.21s CPU   1449.80s WALL (       7 calls)

     Called by init_run:
     wfcinit      :     79.60s CPU     82.59s WALL (       2 calls)
     potinit      :      8.83s CPU      8.89s WALL (       2 calls)

     Called by electrons:
     c_bands      :  13410.31s CPU  13726.91s WALL (     104 calls)
     sum_band     :   1347.68s CPU   1358.82s WALL (     104 calls)
     v_of_rho     :     10.93s CPU     11.17s WALL (     109 calls)
     mix_rho      :     17.98s CPU     23.12s WALL (     104 calls)

     Called by c_bands:
     init_us_2    :     69.62s CPU     75.11s WALL (     448 calls)
     cegterg      :  11497.86s CPU  11795.55s WALL (     208 calls)

     Called by sum_band:

     Called by *egterg:
     h_psi        :   8178.93s CPU   8240.60s WALL (     862 calls)
     g_psi        :     13.13s CPU     13.30s WALL (     650 calls)
     cdiaghg      :    143.93s CPU    144.54s WALL (     844 calls)

     Called by h_psi:
     h_psi:pot    :   8144.01s CPU   8203.52s WALL (     862 calls)
     h_psi:calbec :   1320.84s CPU   1351.96s WALL (     862 calls)
     vloc_psi     :   5464.21s CPU   5482.62s WALL (     862 calls)
     add_vuspsi   :   1358.94s CPU   1368.94s WALL (     862 calls)

     General routines
     calbec       :   1499.92s CPU   1531.91s WALL (     932 calls)
     fft          :     10.53s CPU     10.59s WALL (     494 calls)
     fftw         :   5838.12s CPU   5854.42s WALL (  268060 calls)
 
     Parallel routines
 
     PWSCF        :     4h39m CPU        4h45m WALL

 
   This run was terminated on:   4: 3:53  24Mar2020            

=------------------------------------------------------------------------------=
   JOB DONE.
=------------------------------------------------------------------------------=
