
     Program PWSCF v.6.2 (svn rev. 14038) starts on 25Mar2020 at 19:14:32 

     This program is part of the open-source Quantum ESPRESSO suite
     for quantum simulation of materials; please cite
         "P. Giannozzi et al., J. Phys.:Condens. Matter 21 395502 (2009);
         "P. Giannozzi et al., J. Phys.:Condens. Matter 29 465901 (2017);
          URL http://www.quantum-espresso.org", 
     in publications or presentations arising from this work. More details at
     http://www.quantum-espresso.org/quote

     Parallel version (MPI), running on    40 processors

     MPI processes distributed on     5 nodes
     K-points division:     npool     =      40
     Reading input from scf.in

     Current dimensions of program PWSCF are:
     Max number of different atomic species (ntypx) = 10
     Max number of k-points (npk) =  40000
     Max angular momentum in pseudopotentials (lmaxx) =  3

     Subspace diagonalization in iterative solution of the eigenvalue problem:
     a serial algorithm will be used

 
     G-vector sticks info
     --------------------
     sticks:   dense  smooth     PW     G-vecs:    dense   smooth      PW
     Sum        7741    7741   2079               498897   498897   69141
 


     bravais-lattice index     =            0
     lattice parameter (alat)  =      13.8663  a.u.
     unit-cell volume          =    2809.0989 (a.u.)^3
     number of atoms/cell      =           32
     number of atomic types    =            2
     number of electrons       =       368.60
     number of Kohn-Sham states=          221
     kinetic-energy cutoff     =     120.0000  Ry
     charge density cutoff     =     480.0000  Ry
     convergence threshold     =      1.0E-08
     mixing beta               =       0.7000
     number of iterations used =            8  plain     mixing
     Exchange-correlation      = SLA PW NOGX NOGC ( 1  4  0  0 0 0)

     celldm(1)=  13.866316  celldm(2)=   0.000000  celldm(3)=   0.000000
     celldm(4)=   0.000000  celldm(5)=   0.000000  celldm(6)=   0.000000

     crystal axes: (cart. coord. in units of alat)
               a(1) = (   1.000000   0.000000   0.000000 )  
               a(2) = (   0.000000   1.053475   0.000000 )  
               a(3) = (   0.000000   0.000000   1.000138 )  

     reciprocal axes: (cart. coord. in units 2 pi/alat)
               b(1) = (  1.000000  0.000000  0.000000 )  
               b(2) = (  0.000000  0.949240  0.000000 )  
               b(3) = (  0.000000  0.000000  0.999862 )  


     PseudoPot. # 1 for W  read from file:
     /cluster/scratch/mnoe/QE/pps/W_ONCV_LDA-4.0.upf
     MD5 check sum: ba0307d5d4cd419d6f1d13dc49d7c13a
     Pseudo is Norm-conserving + core correction, Zval = 28.0
     Generated using ONCVPSP code by D. R. Hamann
     Using radial grid of 1380 points,  8 beta functions with: 
                l(1) =   0
                l(2) =   0
                l(3) =   1
                l(4) =   1
                l(5) =   2
                l(6) =   2
                l(7) =   3
                l(8) =   3

     PseudoPot. # 2 for O  read from file:
     /cluster/scratch/mnoe/QE/pps/O_ONCV_LDA-3.0.upf
     MD5 check sum: a1bd6164e7280c17a38c229939bfbd54
     Pseudo is Norm-conserving + core correction, Zval =  6.0
     Generated using ONCVPSP code by D. R. Hamann
     Using radial grid of  926 points,  5 beta functions with: 
                l(1) =   0
                l(2) =   0
                l(3) =   1
                l(4) =   1
                l(5) =   2

     atomic species   valence    mass     pseudopotential
        W             28.00   183.84000     W ( 1.00)
        O              6.00    15.99940     O ( 1.00)

      4 Sym. Ops. (no inversion) found ( 3 have fractional translation)



   Cartesian axes

     site n.     atom                  positions (alat units)
         1           W   tau(   1) = (   0.2436825   0.2960981   0.0007222  )
         2           W   tau(   2) = (   0.7510825   0.7573765  -0.0062667  )
         3           W   tau(   3) = (   0.2563175   0.2306392   0.5007910  )
         4           W   tau(   4) = (   0.7489175   0.8228353   0.4938020  )
         5           W   tau(   5) = (   0.7563175   0.2960981   0.4993465  )
         6           W   tau(   6) = (   0.2489175   0.7573765   0.5063355  )
         7           W   tau(   7) = (   0.7436825   0.2306392  -0.0007222  )
         8           W   tau(   8) = (   0.2510825   0.8228353   0.0062667  )
         9           O   tau(   9) = (   0.2423604   0.0085376  -0.0040283  )
        10           O   tau(  10) = (   0.7560124  -0.0085376  -0.0062006  )
        11           O   tau(  11) = (   0.2576396   0.5181996   0.4960405  )
        12           O   tau(  12) = (   0.7439876   0.5352749   0.4938682  )
        13           O   tau(  13) = (   0.7576396   0.0085376   0.5040970  )
        14           O   tau(  14) = (   0.2439876  -0.0085376   0.5062693  )
        15           O   tau(  15) = (   0.7423604   0.5181996   0.0040283  )
        16           O   tau(  16) = (   0.2560124   0.5352749   0.0062006  )
        17           O   tau(  17) = (   0.5021612   0.2547863   0.4515385  )
        18           O   tau(  18) = (   0.5001372   0.7962764   0.5485990  )
        19           O   tau(  19) = (  -0.0021612   0.2719510   0.9516073  )
        20           O   tau(  20) = (  -0.0001372   0.7839354   0.0485302  )
        21           O   tau(  21) = (   0.4978388   0.2547863   0.0485302  )
        22           O   tau(  22) = (   0.4998628   0.7962764   0.9516073  )
        23           O   tau(  23) = (   0.0021612   0.2719510   0.5485990  )
        24           O   tau(  24) = (   0.0001372   0.7839354   0.4515385  )
        25           O   tau(  25) = (   0.7014765   0.2672850   0.7493272  )
        26           O   tau(  26) = (   0.2985236   0.7972417   0.2523268  )
        27           O   tau(  27) = (   0.7985235   0.2594523   0.2492584  )
        28           O   tau(  28) = (   0.2014765   0.7829701   0.7523956  )
        29           O   tau(  29) = (   0.2985236   0.2672850   0.7508791  )
        30           O   tau(  30) = (   0.7014765   0.7972417   0.2477419  )
        31           O   tau(  31) = (   0.2014765   0.2594523   0.2508103  )
        32           O   tau(  32) = (   0.7985235   0.7829701   0.7478107  )

     number of k points=    64  gaussian smearing, width (Ry)=  0.0007
                       cart. coord. in units 2pi/alat
        k(    1) = (   0.0000000   0.0000000   0.0000000), wk =   0.0092593
        k(    2) = (   0.0000000   0.0000000   0.1666437), wk =   0.0185185
        k(    3) = (   0.0000000   0.0000000   0.3332875), wk =   0.0185185
        k(    4) = (   0.0000000   0.0000000  -0.4999312), wk =   0.0092593
        k(    5) = (   0.0000000   0.1582066   0.0000000), wk =   0.0185185
        k(    6) = (   0.0000000   0.1582066   0.1666437), wk =   0.0370370
        k(    7) = (   0.0000000   0.1582066   0.3332875), wk =   0.0370370
        k(    8) = (   0.0000000   0.1582066  -0.4999312), wk =   0.0185185
        k(    9) = (   0.0000000   0.3164133   0.0000000), wk =   0.0185185
        k(   10) = (   0.0000000   0.3164133   0.1666437), wk =   0.0370370
        k(   11) = (   0.0000000   0.3164133   0.3332875), wk =   0.0370370
        k(   12) = (   0.0000000   0.3164133  -0.4999312), wk =   0.0185185
        k(   13) = (   0.0000000  -0.4746199   0.0000000), wk =   0.0092593
        k(   14) = (   0.0000000  -0.4746199   0.1666437), wk =   0.0185185
        k(   15) = (   0.0000000  -0.4746199   0.3332875), wk =   0.0185185
        k(   16) = (   0.0000000  -0.4746199  -0.4999312), wk =   0.0092593
        k(   17) = (   0.1666667   0.0000000   0.0000000), wk =   0.0185185
        k(   18) = (   0.1666667   0.0000000   0.1666437), wk =   0.0370370
        k(   19) = (   0.1666667   0.0000000   0.3332875), wk =   0.0370370
        k(   20) = (   0.1666667   0.0000000  -0.4999312), wk =   0.0185185
        k(   21) = (   0.1666667   0.1582066   0.0000000), wk =   0.0370370
        k(   22) = (   0.1666667   0.1582066   0.1666437), wk =   0.0740741
        k(   23) = (   0.1666667   0.1582066   0.3332875), wk =   0.0740741
        k(   24) = (   0.1666667   0.1582066  -0.4999312), wk =   0.0370370
        k(   25) = (   0.1666667   0.3164133   0.0000000), wk =   0.0370370
        k(   26) = (   0.1666667   0.3164133   0.1666437), wk =   0.0740741
        k(   27) = (   0.1666667   0.3164133   0.3332875), wk =   0.0740741
        k(   28) = (   0.1666667   0.3164133  -0.4999312), wk =   0.0370370
        k(   29) = (   0.1666667  -0.4746199   0.0000000), wk =   0.0185185
        k(   30) = (   0.1666667  -0.4746199   0.1666437), wk =   0.0370370
        k(   31) = (   0.1666667  -0.4746199   0.3332875), wk =   0.0370370
        k(   32) = (   0.1666667  -0.4746199  -0.4999312), wk =   0.0185185
        k(   33) = (   0.3333333   0.0000000   0.0000000), wk =   0.0185185
        k(   34) = (   0.3333333   0.0000000   0.1666437), wk =   0.0370370
        k(   35) = (   0.3333333   0.0000000   0.3332875), wk =   0.0370370
        k(   36) = (   0.3333333   0.0000000  -0.4999312), wk =   0.0185185
        k(   37) = (   0.3333333   0.1582066   0.0000000), wk =   0.0370370
        k(   38) = (   0.3333333   0.1582066   0.1666437), wk =   0.0740741
        k(   39) = (   0.3333333   0.1582066   0.3332875), wk =   0.0740741
        k(   40) = (   0.3333333   0.1582066  -0.4999312), wk =   0.0370370
        k(   41) = (   0.3333333   0.3164133   0.0000000), wk =   0.0370370
        k(   42) = (   0.3333333   0.3164133   0.1666437), wk =   0.0740741
        k(   43) = (   0.3333333   0.3164133   0.3332875), wk =   0.0740741
        k(   44) = (   0.3333333   0.3164133  -0.4999312), wk =   0.0370370
        k(   45) = (   0.3333333  -0.4746199   0.0000000), wk =   0.0185185
        k(   46) = (   0.3333333  -0.4746199   0.1666437), wk =   0.0370370
        k(   47) = (   0.3333333  -0.4746199   0.3332875), wk =   0.0370370
        k(   48) = (   0.3333333  -0.4746199  -0.4999312), wk =   0.0185185
        k(   49) = (  -0.5000000   0.0000000   0.0000000), wk =   0.0092593
        k(   50) = (  -0.5000000   0.0000000   0.1666437), wk =   0.0185185
        k(   51) = (  -0.5000000   0.0000000   0.3332875), wk =   0.0185185
        k(   52) = (  -0.5000000   0.0000000  -0.4999312), wk =   0.0092593
        k(   53) = (  -0.5000000   0.1582066   0.0000000), wk =   0.0185185
        k(   54) = (  -0.5000000   0.1582066   0.1666437), wk =   0.0370370
        k(   55) = (  -0.5000000   0.1582066   0.3332875), wk =   0.0370370
        k(   56) = (  -0.5000000   0.1582066  -0.4999312), wk =   0.0185185
        k(   57) = (  -0.5000000   0.3164133   0.0000000), wk =   0.0185185
        k(   58) = (  -0.5000000   0.3164133   0.1666437), wk =   0.0370370
        k(   59) = (  -0.5000000   0.3164133   0.3332875), wk =   0.0370370
        k(   60) = (  -0.5000000   0.3164133  -0.4999312), wk =   0.0185185
        k(   61) = (  -0.5000000  -0.4746199   0.0000000), wk =   0.0092593
        k(   62) = (  -0.5000000  -0.4746199   0.1666437), wk =   0.0185185
        k(   63) = (  -0.5000000  -0.4746199   0.3332875), wk =   0.0185185
        k(   64) = (  -0.5000000  -0.4746199  -0.4999312), wk =   0.0092593

     Dense  grid:   498897 G-vectors     FFT dimensions: ( 100, 108, 100)

     Estimated max dynamical RAM per process >       3.13 GB

     Estimated total dynamical RAM >     125.26 GB

     Initial potential from superposition of free atoms

     starting charge  367.99656, renormalised to  368.60000
     Starting wfc are  232 randomized atomic wfcs

     total cpu time spent up to now is       50.1 secs

     Self-consistent Calculation

     iteration #  1     ecut=   120.00 Ry     beta= 0.70
     Davidson diagonalization with overlap
     ethr =  1.00E-02,  avg # of iterations =  5.2

     total cpu time spent up to now is      223.0 secs

     total energy              =   -6253.44341266 Ry
     Harris-Foulkes estimate   =   -6264.26986683 Ry
     estimated scf accuracy    <      13.63846523 Ry

     iteration #  2     ecut=   120.00 Ry     beta= 0.70
     Davidson diagonalization with overlap
     ethr =  3.70E-03,  avg # of iterations =  3.6

     total cpu time spent up to now is      393.3 secs

     total energy              =   -6250.40661361 Ry
     Harris-Foulkes estimate   =   -6270.29295117 Ry
     estimated scf accuracy    <      52.90215123 Ry

     iteration #  3     ecut=   120.00 Ry     beta= 0.70
     Davidson diagonalization with overlap
     ethr =  3.70E-03,  avg # of iterations =  3.3

     total cpu time spent up to now is      549.3 secs

     total energy              =   -6260.67559979 Ry
     Harris-Foulkes estimate   =   -6260.94526285 Ry
     estimated scf accuracy    <       0.90381131 Ry

     iteration #  4     ecut=   120.00 Ry     beta= 0.70
     Davidson diagonalization with overlap
     ethr =  2.45E-04,  avg # of iterations =  3.2

     total cpu time spent up to now is      675.0 secs

     total energy              =   -6260.66745173 Ry
     Harris-Foulkes estimate   =   -6260.74112100 Ry
     estimated scf accuracy    <       0.22612093 Ry

     iteration #  5     ecut=   120.00 Ry     beta= 0.70
     Davidson diagonalization with overlap
     ethr =  6.13E-05,  avg # of iterations =  4.9

     total cpu time spent up to now is      813.0 secs

     total energy              =   -6260.67197830 Ry
     Harris-Foulkes estimate   =   -6260.70129803 Ry
     estimated scf accuracy    <       0.06569363 Ry

     iteration #  6     ecut=   120.00 Ry     beta= 0.70
     Davidson diagonalization with overlap
     ethr =  1.78E-05,  avg # of iterations =  5.5

     total cpu time spent up to now is      958.5 secs

     total energy              =   -6260.68600565 Ry
     Harris-Foulkes estimate   =   -6260.68874503 Ry
     estimated scf accuracy    <       0.00707477 Ry

     iteration #  7     ecut=   120.00 Ry     beta= 0.70
     Davidson diagonalization with overlap
     ethr =  1.92E-06,  avg # of iterations =  6.7

     total cpu time spent up to now is     1102.1 secs

     total energy              =   -6260.68696396 Ry
     Harris-Foulkes estimate   =   -6260.68706353 Ry
     estimated scf accuracy    <       0.00019618 Ry

     iteration #  8     ecut=   120.00 Ry     beta= 0.70
     Davidson diagonalization with overlap
     ethr =  5.32E-08,  avg # of iterations =  3.0

     total cpu time spent up to now is     1257.9 secs

     total energy              =   -6260.68701987 Ry
     Harris-Foulkes estimate   =   -6260.68707382 Ry
     estimated scf accuracy    <       0.00021753 Ry

     iteration #  9     ecut=   120.00 Ry     beta= 0.70
     Davidson diagonalization with overlap
     ethr =  5.32E-08,  avg # of iterations =  2.0

     total cpu time spent up to now is     1378.8 secs

     total energy              =   -6260.68704251 Ry
     Harris-Foulkes estimate   =   -6260.68705139 Ry
     estimated scf accuracy    <       0.00004003 Ry

     iteration # 10     ecut=   120.00 Ry     beta= 0.70
     Davidson diagonalization with overlap
     ethr =  1.09E-08,  avg # of iterations =  1.1

     total cpu time spent up to now is     1495.9 secs

     total energy              =   -6260.68703871 Ry
     Harris-Foulkes estimate   =   -6260.68704455 Ry
     estimated scf accuracy    <       0.00001351 Ry

     iteration # 11     ecut=   120.00 Ry     beta= 0.70
     Davidson diagonalization with overlap
     ethr =  3.67E-09,  avg # of iterations =  2.7

     total cpu time spent up to now is     1625.5 secs

     total energy              =   -6260.68704152 Ry
     Harris-Foulkes estimate   =   -6260.68704164 Ry
     estimated scf accuracy    <       0.00000033 Ry

     iteration # 12     ecut=   120.00 Ry     beta= 0.70
     Davidson diagonalization with overlap
     ethr =  9.08E-11,  avg # of iterations =  2.3

     total cpu time spent up to now is     1777.0 secs

     total energy              =   -6260.68704158 Ry
     Harris-Foulkes estimate   =   -6260.68704162 Ry
     estimated scf accuracy    <       0.00000011 Ry

     iteration # 13     ecut=   120.00 Ry     beta= 0.70
     Davidson diagonalization with overlap
     ethr =  2.90E-11,  avg # of iterations =  1.2

     total cpu time spent up to now is     1895.2 secs

     total energy              =   -6260.68704157 Ry
     Harris-Foulkes estimate   =   -6260.68704159 Ry
     estimated scf accuracy    <       0.00000003 Ry

     iteration # 14     ecut=   120.00 Ry     beta= 0.70
     Davidson diagonalization with overlap
     ethr =  8.17E-12,  avg # of iterations =  3.0

     total cpu time spent up to now is     2059.2 secs

     End of self-consistent calculation

          k = 0.0000 0.0000 0.0000 ( 62311 PWs)   bands (ev):

   -66.0609 -66.0604 -66.0599 -66.0599 -66.0594 -66.0594 -66.0589 -66.0585
   -30.5020 -30.4982 -30.4982 -30.4945 -30.4429 -30.4386 -30.4384 -30.4344
   -30.4046 -30.4009 -30.3978 -30.3976 -30.3956 -30.3942 -30.3901 -30.3895
   -30.3042 -30.3039 -30.3008 -30.2993 -30.2958 -30.2953 -30.2917 -30.2904
   -20.2124 -20.2121 -20.2120 -20.2118 -20.2098 -20.2096 -20.2096 -20.2096
   -20.2095 -20.2095 -20.2095 -20.2093 -20.2069 -20.2065 -20.2065 -20.2062
   -20.2007 -20.2005 -20.2004 -20.2003 -20.1994 -20.1993 -20.1993 -20.1991
   -20.1978 -20.1976 -20.1976 -20.1976 -20.1965 -20.1965 -20.1963 -20.1962
   -20.1862 -20.1861 -20.1858 -20.1857 -20.1856 -20.1855 -20.1852 -20.1851
   -20.1587 -20.1587 -20.1583 -20.1582 -20.1572 -20.1571 -20.1570 -20.1567
   -20.1527 -20.1526 -20.1524 -20.1521 -20.1513 -20.1513 -20.1509 -20.1507
    -9.9365  -9.6415  -9.5076  -9.5075  -9.2160  -9.2149  -9.1033  -9.0175
    -9.0044  -8.8897  -8.8565  -8.8562  -7.8703  -7.8077  -7.8069  -7.7541
    -7.7533  -7.7498  -7.7246  -7.7171  -7.6082  -7.6077  -7.5798  -7.5793
     1.2382   1.2392   1.3073   1.3085   1.3357   1.3380   1.3705   1.6070
     1.6159   1.6176   1.6645   1.8654   2.4296   2.5086   2.5660   2.5758
     2.7184   2.7201   4.1631   4.1659   4.3851   4.3901   4.7962   4.8233
     4.8558   4.8582   4.8855   4.8859   5.0204   5.0205   5.0863   5.4344
     5.4379   5.5035   5.5106   5.5461   5.5461   5.5884   5.5944   5.8259
     5.8298   5.8701   5.8720   5.9122   5.9581   6.0639   6.0683   6.1414
     6.1419   6.2695   6.2725   6.5514   6.5522   6.8078   6.8121   6.8466
     6.8496   6.8654   7.0158   7.0216   7.0827   7.0849   7.3834   7.3865
     7.4318   7.4349   7.8370   7.8518   8.0682   8.0728   8.1294   8.1450
     9.3411   9.3413   9.9923   9.9967  10.0216  10.0235  12.3050  12.3103
    12.3393  12.3480  12.4055  12.4094  12.5365  12.5552  12.9139  12.9689
    13.2341  13.2891  13.4025  13.4064  13.8104  14.1264  14.1496  14.1788
    14.2328  14.4393  14.4601  14.8430  15.4572  15.4694  15.5202  16.0935
    16.0964  16.8530  17.0759  17.0797  17.4322

          k = 0.0000 0.0000 0.1666 ( 62355 PWs)   bands (ev):

   -66.0608 -66.0604 -66.0599 -66.0598 -66.0595 -66.0594 -66.0589 -66.0585
   -30.5018 -30.4985 -30.4980 -30.4948 -30.4426 -30.4389 -30.4383 -30.4347
   -30.4029 -30.3979 -30.3958 -30.3945 -30.3912 -30.3899 -30.3885 -30.3834
   -30.3109 -30.3068 -30.3036 -30.3029 -30.3005 -30.2972 -30.2950 -30.2912
   -20.2124 -20.2121 -20.2121 -20.2118 -20.2098 -20.2096 -20.2096 -20.2096
   -20.2095 -20.2095 -20.2095 -20.2094 -20.2069 -20.2066 -20.2065 -20.2062
   -20.2006 -20.2004 -20.2003 -20.2001 -20.1993 -20.1992 -20.1992 -20.1989
   -20.1979 -20.1978 -20.1977 -20.1975 -20.1967 -20.1965 -20.1964 -20.1963
   -20.1862 -20.1860 -20.1858 -20.1856 -20.1856 -20.1855 -20.1852 -20.1851
   -20.1585 -20.1583 -20.1580 -20.1580 -20.1572 -20.1569 -20.1568 -20.1566
   -20.1531 -20.1528 -20.1525 -20.1520 -20.1517 -20.1515 -20.1512 -20.1508
    -9.8906  -9.5879  -9.5239  -9.4493  -9.2290  -9.1266  -9.1117  -8.9798
    -8.9630  -8.8760  -8.8607  -8.8230  -7.8872  -7.8585  -7.8517  -7.8115
    -7.8000  -7.7575  -7.7426  -7.7350  -7.7140  -7.7088  -7.6169  -7.5884
     1.3072   1.3103   1.3293   1.3438   1.4386   1.4735   1.5922   1.5998
     1.6120   1.7106   1.8374   1.9916   2.5159   2.5794   2.5995   2.6599
     2.7097   2.8089   4.0971   4.1648   4.3782   4.3866   4.4069   4.4977
     4.6469   4.7767   4.8004   4.9213   4.9300   5.0124   5.0686   5.3121
     5.3497   5.4221   5.4956   5.5397   5.5605   5.6047   5.6196   5.6359
     5.7531   5.7612   5.8164   5.9181   5.9741   6.0979   6.1299   6.1394
     6.2907   6.4253   6.5047   6.5401   6.6721   6.7033   6.7790   6.8203
     6.8411   6.8571   6.9699   6.9983   7.0291   7.0918   7.1685   7.1821
     7.2095   7.2744   7.8489   7.8531   8.0317   8.0851   8.0952   8.1375
     9.6785   9.7052   9.9975  10.0194  10.2571  10.3058  12.2393  12.2843
    12.3266  12.3722  12.3901  12.4417  12.5491  12.6413  12.9344  12.9666
    13.0843  13.2598  13.3158  13.4033  13.9057  14.0413  14.0664  14.1247
    14.2299  14.4546  14.5431  14.9536  15.4859  15.4918  15.5214  16.0684
    16.4057  16.7953  17.0234  17.2640  17.4833

          k = 0.0000 0.0000 0.3333 ( 62364 PWs)   bands (ev):

   -66.0606 -66.0602 -66.0601 -66.0597 -66.0596 -66.0592 -66.0591 -66.0587
   -30.5013 -30.4993 -30.4975 -30.4956 -30.4419 -30.4397 -30.4376 -30.4356
   -30.4016 -30.3989 -30.3935 -30.3908 -30.3782 -30.3735 -30.3704 -30.3653
   -30.3290 -30.3247 -30.3209 -30.3163 -30.3028 -30.3004 -30.2942 -30.2920
   -20.2123 -20.2122 -20.2120 -20.2119 -20.2097 -20.2097 -20.2096 -20.2096
   -20.2095 -20.2095 -20.2094 -20.2094 -20.2068 -20.2067 -20.2065 -20.2063
   -20.2006 -20.2005 -20.1999 -20.1996 -20.1994 -20.1991 -20.1988 -20.1985
   -20.1983 -20.1982 -20.1979 -20.1974 -20.1971 -20.1968 -20.1965 -20.1964
   -20.1861 -20.1859 -20.1859 -20.1856 -20.1855 -20.1854 -20.1853 -20.1852
   -20.1583 -20.1578 -20.1575 -20.1573 -20.1571 -20.1570 -20.1558 -20.1555
   -20.1543 -20.1540 -20.1529 -20.1525 -20.1523 -20.1518 -20.1515 -20.1510
    -9.7797  -9.5743  -9.4642  -9.3162  -9.2717  -9.1403  -8.9166  -8.8728
    -8.8718  -8.8169  -8.7738  -8.6950  -8.1808  -8.1617  -8.0785  -8.0540
    -7.8452  -7.8215  -7.7907  -7.7667  -7.7135  -7.6843  -7.6423  -7.6136
     1.3148   1.3230   1.3591   1.3822   1.5508   1.5585   1.5842   1.6016
     2.2834   2.3200   2.4800   2.5583   2.6047   2.6996   2.7657   2.8648
     2.9016   3.0477   3.7774   3.8412   3.8783   3.9858   4.1598   4.2963
     4.3354   4.5230   4.5653   4.7669   4.7897   4.8291   4.9649   5.0113
     5.1636   5.1910   5.2251   5.3460   5.4548   5.4948   5.6282   5.6626
     5.7117   5.7455   5.7895   5.9781   5.9993   6.1811   6.2605   6.2828
     6.3335   6.3837   6.5072   6.5328   6.5694   6.5784   6.6527   6.7595
     6.8333   6.8596   6.8606   7.0016   7.0425   7.0528   7.0885   7.1409
     7.3148   7.3487   7.7781   7.7989   7.9067   7.9585   8.1197   8.1381
     9.9918  10.0126  10.3911  10.4651  10.8730  10.9787  11.8647  11.9165
    12.1093  12.5013  12.5156  12.5375  12.5749  12.6308  12.7333  12.9008
    12.9566  13.1410  13.1923  13.4133  13.7014  13.7265  14.0886  14.1202
    14.3075  14.4365  14.8518  15.2464  15.3756  15.6419  15.9059  15.9825
    16.2411  17.2513  17.3849  17.5638  17.8331

          k = 0.0000 0.0000-0.4999 ( 62380 PWs)   bands (ev):

   -66.0604 -66.0604 -66.0599 -66.0599 -66.0594 -66.0594 -66.0590 -66.0590
   -30.5004 -30.5004 -30.4966 -30.4966 -30.4408 -30.4408 -30.4366 -30.4366
   -30.4002 -30.4002 -30.3921 -30.3921 -30.3537 -30.3537 -30.3491 -30.3491
   -30.3456 -30.3456 -30.3408 -30.3408 -30.3016 -30.3016 -30.2932 -30.2932
   -20.2123 -20.2122 -20.2120 -20.2120 -20.2097 -20.2097 -20.2096 -20.2096
   -20.2095 -20.2095 -20.2094 -20.2094 -20.2068 -20.2068 -20.2064 -20.2064
   -20.2005 -20.2005 -20.1995 -20.1995 -20.1989 -20.1989 -20.1987 -20.1987
   -20.1983 -20.1983 -20.1978 -20.1978 -20.1972 -20.1972 -20.1964 -20.1964
   -20.1860 -20.1860 -20.1858 -20.1858 -20.1854 -20.1854 -20.1853 -20.1853
   -20.1579 -20.1579 -20.1574 -20.1574 -20.1558 -20.1558 -20.1555 -20.1555
   -20.1544 -20.1544 -20.1541 -20.1541 -20.1519 -20.1519 -20.1514 -20.1514
    -9.6616  -9.6616  -9.3480  -9.3480  -9.2019  -9.2019  -8.8903  -8.8903
    -8.5380  -8.5379  -8.5115  -8.5115  -8.4938  -8.4938  -8.4233  -8.4233
    -7.8348  -7.8348  -7.7790  -7.7790  -7.6776  -7.6776  -7.6486  -7.6486
     1.3202   1.3202   1.3771   1.3771   1.5684   1.5684   1.5904   1.5904
     2.6374   2.6374   3.0007   3.0007   3.1449   3.1449   3.1548   3.1548
     3.2978   3.2978   3.3626   3.3626   3.4928   3.4928   3.7879   3.7879
     3.8812   3.8812   4.4580   4.4580   4.7206   4.7206   4.9202   4.9202
     5.2370   5.2370   5.3427   5.3427   5.3523   5.3523   5.6724   5.6724
     5.7434   5.7434   5.9312   5.9312   6.1658   6.1658   6.2511   6.2511
     6.3335   6.3335   6.4406   6.4406   6.4756   6.4756   6.5501   6.5501
     6.7956   6.7956   6.8362   6.8362   7.0682   7.0682   7.5023   7.5023
     7.5666   7.5666   7.6833   7.6833   7.7079   7.7079   8.1354   8.1354
    10.0027  10.0027  11.1836  11.1836  11.2577  11.2577  11.5728  11.5728
    11.7754  11.7754  12.5893  12.5893  12.7378  12.7378  12.8421  12.8421
    12.9491  12.9491  13.2908  13.2908  13.4742  13.4742  14.1131  14.1131
    14.3969  14.3969  15.1674  15.1674  15.6853  15.6853  15.8382  15.8382
    16.6594  16.6594  17.7995  17.7995  18.0532

          k = 0.0000 0.1582 0.0000 ( 62307 PWs)   bands (ev):

   -66.0608 -66.0605 -66.0598 -66.0598 -66.0595 -66.0595 -66.0589 -66.0585
   -30.4980 -30.4942 -30.4942 -30.4905 -30.4467 -30.4425 -30.4424 -30.4385
   -30.4044 -30.4012 -30.3978 -30.3976 -30.3957 -30.3944 -30.3902 -30.3896
   -30.3042 -30.3038 -30.3007 -30.2993 -30.2959 -30.2954 -30.2916 -30.2905
   -20.2120 -20.2117 -20.2117 -20.2114 -20.2098 -20.2096 -20.2096 -20.2096
   -20.2095 -20.2095 -20.2095 -20.2093 -20.2072 -20.2069 -20.2069 -20.2065
   -20.2006 -20.2004 -20.2003 -20.2002 -20.1994 -20.1994 -20.1993 -20.1992
   -20.1977 -20.1975 -20.1975 -20.1975 -20.1966 -20.1966 -20.1964 -20.1963
   -20.1862 -20.1861 -20.1858 -20.1857 -20.1856 -20.1855 -20.1852 -20.1851
   -20.1587 -20.1587 -20.1584 -20.1582 -20.1572 -20.1571 -20.1570 -20.1567
   -20.1527 -20.1526 -20.1524 -20.1521 -20.1513 -20.1513 -20.1509 -20.1507
    -9.9061  -9.6532  -9.4689  -9.4688  -9.2236  -9.2225  -9.0288  -9.0166
    -9.0052  -8.8441  -8.8194  -8.8193  -7.9647  -7.9084  -7.9077  -7.8623
    -7.7538  -7.7486  -7.7260  -7.7189  -7.6074  -7.6070  -7.5810  -7.5805
     1.2382   1.2390   1.3191   1.3208   1.3371   1.3394   1.5079   1.6637
     1.7915   1.8455   1.8469   2.0273   2.4348   2.5031   2.6382   2.6488
     2.7872   2.7891   4.0273   4.0306   4.1110   4.1151   4.7626   4.8547
     4.8587   4.8769   4.8792   4.8849   4.9424   4.9686   4.9687   5.2804
     5.2828   5.4616   5.4625   5.5956   5.6387   5.6402   5.6419   5.6624
     5.8006   5.8024   5.8923   5.8944   5.9522   6.0662   6.0702   6.1442
     6.1474   6.2637   6.2676   6.5742   6.5761   6.8212   6.8371   6.8402
     6.8775   6.8844   6.8895   7.0026   7.0034   7.0091   7.3898   7.3927
     7.4329   7.4358   7.8412   7.8509   8.0280   8.0318   8.0529   8.0639
     9.3414   9.3424  10.1955  10.1962  10.1966  10.1968  12.1979  12.2035
    12.3432  12.3459  12.3792  12.3954  12.4010  12.4042  12.9215  12.9688
    13.2694  13.3178  13.4074  13.4107  14.0031  14.0667  14.0776  14.0802
    14.2628  14.6939  14.7023  15.0156  15.4573  15.4674  15.9228  16.0602
    16.0627  16.5313  17.2107  17.2146  17.4918

          k = 0.0000 0.1582 0.1666 ( 62328 PWs)   bands (ev):

   -66.0608 -66.0604 -66.0599 -66.0598 -66.0595 -66.0594 -66.0589 -66.0586
   -30.4978 -30.4945 -30.4940 -30.4908 -30.4464 -30.4428 -30.4422 -30.4388
   -30.4028 -30.3979 -30.3959 -30.3945 -30.3912 -30.3900 -30.3886 -30.3835
   -30.3108 -30.3067 -30.3035 -30.3029 -30.3005 -30.2972 -30.2951 -30.2912
   -20.2120 -20.2117 -20.2117 -20.2114 -20.2098 -20.2096 -20.2096 -20.2096
   -20.2095 -20.2095 -20.2095 -20.2094 -20.2072 -20.2069 -20.2069 -20.2066
   -20.2006 -20.2003 -20.2002 -20.2000 -20.1993 -20.1993 -20.1992 -20.1990
   -20.1978 -20.1977 -20.1976 -20.1975 -20.1967 -20.1966 -20.1965 -20.1964
   -20.1862 -20.1860 -20.1858 -20.1856 -20.1856 -20.1855 -20.1852 -20.1851
   -20.1585 -20.1583 -20.1580 -20.1580 -20.1572 -20.1569 -20.1568 -20.1566
   -20.1531 -20.1528 -20.1525 -20.1520 -20.1517 -20.1515 -20.1512 -20.1508
    -9.8590  -9.5996  -9.4853  -9.4059  -9.2368  -9.1343  -9.0372  -8.9778
    -8.9638  -8.8328  -8.8236  -8.7907  -7.9653  -7.9203  -7.9068  -7.8707
    -7.8692  -7.8402  -7.7425  -7.7352  -7.7140  -7.7086  -7.6162  -7.5897
     1.3193   1.3250   1.3312   1.3452   1.5467   1.5923   1.6028   1.8000
     1.8349   1.8440   1.8728   2.0954   2.5222   2.5935   2.6516   2.7344
     2.7791   2.8776   3.9963   4.0433   4.1062   4.1483   4.4198   4.4950
     4.6776   4.7053   4.7839   4.9065   4.9114   4.9337   4.9808   5.2382
     5.2499   5.3121   5.3317   5.4819   5.5784   5.5881   5.6365   5.6958
     5.7411   5.7589   5.8296   5.8633   5.8727   6.1208   6.1306   6.1515
     6.2327   6.4116   6.4809   6.5644   6.7081   6.7716   6.7953   6.8166
     6.8427   6.8869   6.9535   6.9707   7.0071   7.0228   7.1691   7.1823
     7.2224   7.2755   7.8509   7.8528   7.9928   8.0218   8.0311   8.0592
     9.6844   9.7067  10.1955  10.1988  10.4248  10.4483  12.1792  12.2607
    12.2748  12.3067  12.3746  12.3931  12.4085  12.5235  12.9497  12.9685
    13.1125  13.2819  13.3233  13.4060  13.9233  13.9544  14.0494  14.0650
    14.3523  14.6966  14.8355  15.1115  15.4911  15.5211  15.8883  16.0357
    16.3702  16.6854  16.9210  17.3778  17.5598

          k = 0.0000 0.1582 0.3333 ( 62381 PWs)   bands (ev):

   -66.0606 -66.0602 -66.0601 -66.0597 -66.0596 -66.0592 -66.0591 -66.0587
   -30.4973 -30.4953 -30.4935 -30.4916 -30.4457 -30.4436 -30.4416 -30.4396
   -30.4016 -30.3989 -30.3936 -30.3910 -30.3782 -30.3735 -30.3704 -30.3654
   -30.3290 -30.3246 -30.3209 -30.3164 -30.3027 -30.3004 -30.2943 -30.2921
   -20.2120 -20.2118 -20.2117 -20.2115 -20.2097 -20.2096 -20.2096 -20.2096
   -20.2095 -20.2095 -20.2094 -20.2094 -20.2072 -20.2070 -20.2068 -20.2067
   -20.2005 -20.2004 -20.1998 -20.1995 -20.1994 -20.1991 -20.1988 -20.1985
   -20.1982 -20.1981 -20.1979 -20.1974 -20.1972 -20.1968 -20.1965 -20.1964
   -20.1861 -20.1859 -20.1859 -20.1856 -20.1855 -20.1854 -20.1853 -20.1852
   -20.1583 -20.1578 -20.1575 -20.1573 -20.1571 -20.1570 -20.1558 -20.1555
   -20.1543 -20.1540 -20.1529 -20.1525 -20.1523 -20.1518 -20.1515 -20.1510
    -9.7453  -9.5362  -9.4754  -9.2802  -9.2589  -9.0662  -8.8939  -8.8794
    -8.8357  -8.8182  -8.7548  -8.6767  -8.1840  -8.1638  -8.0948  -8.0544
    -7.9353  -7.9163  -7.8903  -7.8630  -7.7131  -7.6856  -7.6417  -7.6149
     1.3368   1.3570   1.3606   1.3840   1.7346   1.7562   1.8324   1.8408
     2.2822   2.3303   2.4827   2.5750   2.6764   2.7613   2.7760   2.8623
     2.9777   3.1096   3.7773   3.8420   3.8722   3.9322   4.1241   4.1553
     4.2188   4.3514   4.5825   4.7140   4.7626   4.8151   4.8319   4.8755
     5.0178   5.1483   5.1648   5.1947   5.3677   5.4174   5.5094   5.6142
     5.6888   5.7394   5.7885   5.8410   5.9639   6.1448   6.2146   6.2721
     6.3407   6.5227   6.5620   6.5687   6.6370   6.6643   6.7125   6.8065
     6.8193   6.8364   6.9273   6.9625   7.0032   7.0350   7.0862   7.1307
     7.3093   7.3437   7.7818   7.7965   7.8733   7.9021   8.0499   8.0611
    10.1873  10.1966  10.4010  10.4679  10.9883  11.0701  11.8660  11.9146
    12.0769  12.4016  12.4876  12.5172  12.5470  12.5751  12.6775  12.7927
    12.9513  13.1422  13.2078  13.4068  13.6023  13.6381  14.0555  14.0615
    14.5502  14.6796  15.1955  15.3789  15.6323  15.7776  15.9237  15.9535
    16.3676  17.1396  17.2085  17.4391  17.7870

          k = 0.0000 0.1582-0.4999 ( 62340 PWs)   bands (ev):

   -66.0603 -66.0603 -66.0600 -66.0600 -66.0593 -66.0593 -66.0590 -66.0590
   -30.4963 -30.4963 -30.4926 -30.4926 -30.4447 -30.4447 -30.4407 -30.4407
   -30.4002 -30.4002 -30.3923 -30.3923 -30.3537 -30.3537 -30.3491 -30.3491
   -30.3457 -30.3457 -30.3408 -30.3408 -30.3016 -30.3016 -30.2932 -30.2932
   -20.2119 -20.2119 -20.2116 -20.2116 -20.2097 -20.2097 -20.2096 -20.2096
   -20.2095 -20.2095 -20.2094 -20.2094 -20.2071 -20.2071 -20.2068 -20.2068
   -20.2004 -20.2004 -20.1995 -20.1995 -20.1989 -20.1989 -20.1987 -20.1987
   -20.1983 -20.1983 -20.1979 -20.1979 -20.1972 -20.1972 -20.1965 -20.1965
   -20.1860 -20.1860 -20.1858 -20.1858 -20.1854 -20.1854 -20.1853 -20.1853
   -20.1579 -20.1579 -20.1574 -20.1574 -20.1558 -20.1558 -20.1555 -20.1555
   -20.1544 -20.1544 -20.1541 -20.1541 -20.1519 -20.1519 -20.1514 -20.1514
    -9.6247  -9.6247  -9.3578  -9.3578  -9.1317  -9.1317  -8.8548  -8.8548
    -8.5409  -8.5409  -8.5090  -8.5090  -8.5019  -8.5019  -8.4178  -8.4178
    -7.9295  -7.9295  -7.8793  -7.8793  -7.6770  -7.6770  -7.6499  -7.6499
     1.3509   1.3509   1.3786   1.3786   1.7571   1.7571   1.8427   1.8427
     2.7064   2.7064   3.0178   3.0178   3.1399   3.1399   3.1976   3.1976
     3.3050   3.3050   3.3603   3.3603   3.4823   3.4823   3.7906   3.7906
     3.9296   3.9296   4.2536   4.2536   4.6362   4.6363   4.7485   4.7485
     5.0627   5.0627   5.3114   5.3114   5.3254   5.3254   5.4912   5.4912
     5.6974   5.6974   5.8166   5.8166   6.1687   6.1687   6.3201   6.3201
     6.3549   6.3549   6.4641   6.4641   6.5366   6.5366   6.6609   6.6609
     6.8544   6.8544   6.8574   6.8574   6.9852   6.9852   7.5120   7.5121
     7.5603   7.5604   7.6587   7.6587   7.6804   7.6804   8.0602   8.0602
    10.1955  10.1955  11.1896  11.1896  11.2556  11.2556  11.6387  11.6387
    11.8362  11.8362  12.4546  12.4546  12.7137  12.7137  12.8493  12.8493
    12.8922  12.8922  13.1912  13.1912  13.4387  13.4387  14.0576  14.0576
    14.6436  14.6436  15.5354  15.5354  15.8059  15.8059  15.8392  15.8393
    16.7008  16.7008  17.6021  17.6021  18.0687

          k = 0.0000 0.3164 0.0000 ( 62307 PWs)   bands (ev):

   -66.0608 -66.0605 -66.0598 -66.0598 -66.0595 -66.0595 -66.0588 -66.0586
   -30.4870 -30.4833 -30.4832 -30.4796 -30.4573 -30.4533 -30.4532 -30.4495
   -30.4038 -30.4020 -30.3978 -30.3976 -30.3956 -30.3948 -30.3904 -30.3899
   -30.3041 -30.3037 -30.3003 -30.2995 -30.2960 -30.2955 -30.2915 -30.2908
   -20.2111 -20.2108 -20.2107 -20.2104 -20.2098 -20.2097 -20.2096 -20.2096
   -20.2095 -20.2095 -20.2094 -20.2093 -20.2082 -20.2079 -20.2079 -20.2076
   -20.2004 -20.2002 -20.2002 -20.2001 -20.1995 -20.1995 -20.1994 -20.1994
   -20.1975 -20.1974 -20.1974 -20.1974 -20.1968 -20.1968 -20.1966 -20.1965
   -20.1862 -20.1861 -20.1858 -20.1857 -20.1856 -20.1855 -20.1852 -20.1851
   -20.1587 -20.1587 -20.1583 -20.1582 -20.1572 -20.1571 -20.1570 -20.1567
   -20.1527 -20.1526 -20.1524 -20.1521 -20.1513 -20.1513 -20.1509 -20.1507
    -9.8322  -9.6894  -9.3813  -9.3809  -9.2485  -9.2475  -9.0142  -9.0076
    -8.8180  -8.7013  -8.6925  -8.6923  -8.2084  -8.1621  -8.1615  -8.1369
    -7.7509  -7.7460  -7.7286  -7.7233  -7.6050  -7.6046  -7.5838  -7.5833
     1.2383   1.2388   1.3254   1.3274   1.3394   1.3417   1.6253   1.6609
     2.3578   2.4489   2.4883   2.5027   2.5047   2.6684   2.8503   2.8668
     2.9889   2.9926   3.6342   3.6403   3.6804   3.6846   4.1400   4.4605
     4.4637   4.7327   4.8596   4.8647   4.8864   4.8913   5.0320   5.0344
     5.0550   5.0606   5.3685   5.3704   5.5803   5.5827   5.6944   5.6964
     5.8668   5.8677   5.9091   5.9119   6.0582   6.0615   6.0664   6.1595
     6.1671   6.2363   6.2424   6.5218   6.6364   6.6383   6.8592   6.8607
     6.9109   6.9848   7.0867   7.0884   7.1017   7.1027   7.3978   7.4003
     7.4363   7.4390   7.8124   7.8198   7.8542   7.8553   7.8557   7.8572
     9.3422   9.3433  10.6593  10.6619  10.7032  10.7095  11.8215  11.8274
    11.9470  11.9600  12.3612  12.3647  12.4006  12.4038  12.9391  12.9658
    13.3820  13.4148  13.4687  13.4718  13.8343  13.8461  13.8598  13.8645
    14.7980  15.2555  15.2573  15.4578  15.4632  15.6394  15.9469  15.9486
    15.9602  16.9217  17.2397  17.6738  17.6772

          k = 0.0000 0.3164 0.1666 ( 62357 PWs)   bands (ev):

   -66.0607 -66.0605 -66.0598 -66.0597 -66.0596 -66.0595 -66.0588 -66.0586
   -30.4868 -30.4836 -30.4830 -30.4799 -30.4571 -30.4536 -30.4531 -30.4498
   -30.4026 -30.3979 -30.3963 -30.3946 -30.3913 -30.3903 -30.3887 -30.3837
   -30.3107 -30.3066 -30.3034 -30.3030 -30.3006 -30.2972 -30.2952 -30.2914
   -20.2110 -20.2108 -20.2107 -20.2105 -20.2098 -20.2096 -20.2096 -20.2096
   -20.2095 -20.2095 -20.2094 -20.2093 -20.2082 -20.2080 -20.2079 -20.2076
   -20.2004 -20.2002 -20.2001 -20.1999 -20.1995 -20.1995 -20.1994 -20.1992
   -20.1976 -20.1976 -20.1975 -20.1974 -20.1969 -20.1967 -20.1967 -20.1966
   -20.1862 -20.1861 -20.1858 -20.1856 -20.1856 -20.1855 -20.1852 -20.1851
   -20.1585 -20.1583 -20.1580 -20.1580 -20.1572 -20.1569 -20.1568 -20.1566
   -20.1531 -20.1528 -20.1525 -20.1520 -20.1517 -20.1515 -20.1512 -20.1508
    -9.7824  -9.6360  -9.3975  -9.3065  -9.2624  -9.1601  -8.9741  -8.9662
    -8.8262  -8.6969  -8.6944  -8.6754  -8.2085  -8.1695  -8.1582  -8.1428
    -7.8698  -7.8475  -7.7401  -7.7340  -7.7165  -7.7113  -7.6139  -7.5925
     1.3221   1.3316   1.3336   1.3477   1.5786   1.5949   1.7853   1.8336
     2.3604   2.4821   2.5045   2.5378   2.5782   2.6599   2.8648   2.9605
     2.9830   3.0873   3.6405   3.6711   3.6827   3.7256   4.1312   4.4193
     4.4494   4.4765   4.5258   4.7357   4.7553   4.8615   4.9119   4.9342
     5.0325   5.0703   5.1660   5.3045   5.4050   5.4626   5.5877   5.6346
     5.6838   5.7882   5.7986   5.8474   6.0513   6.1094   6.1437   6.1593
     6.2487   6.4170   6.4551   6.5824   6.6273   6.8431   6.8687   6.9258
     6.9631   6.9804   7.0681   7.0738   7.0926   7.1024   7.1750   7.1859
     7.2526   7.2860   7.7951   7.8171   7.8240   7.8404   7.8610   7.8643
     9.6937   9.7061  10.6665  10.7059  10.8426  10.8744  11.8254  11.9156
    11.9566  12.0306  12.2677  12.3018  12.4171  12.4590  12.9712  12.9838
    13.2157  13.3471  13.3975  13.4645  13.6898  13.7376  13.8407  13.8565
    14.9333  15.2484  15.4525  15.4987  15.5247  15.7063  15.9228  16.1217
    16.2484  16.8849  17.2991  17.3329  17.6831

          k = 0.0000 0.3164 0.3333 ( 62353 PWs)   bands (ev):

   -66.0605 -66.0603 -66.0600 -66.0598 -66.0595 -66.0593 -66.0590 -66.0588
   -30.4863 -30.4843 -30.4826 -30.4807 -30.4565 -30.4544 -30.4526 -30.4506
   -30.4015 -30.3989 -30.3939 -30.3912 -30.3782 -30.3734 -30.3706 -30.3656
   -30.3289 -30.3245 -30.3211 -30.3165 -30.3026 -30.3003 -30.2944 -30.2922
   -20.2110 -20.2108 -20.2107 -20.2106 -20.2097 -20.2096 -20.2096 -20.2096
   -20.2095 -20.2095 -20.2094 -20.2094 -20.2082 -20.2080 -20.2078 -20.2077
   -20.2003 -20.2002 -20.1997 -20.1995 -20.1994 -20.1992 -20.1989 -20.1987
   -20.1981 -20.1980 -20.1978 -20.1974 -20.1973 -20.1970 -20.1967 -20.1966
   -20.1861 -20.1859 -20.1859 -20.1857 -20.1855 -20.1855 -20.1853 -20.1852
   -20.1583 -20.1578 -20.1575 -20.1573 -20.1571 -20.1570 -20.1558 -20.1555
   -20.1543 -20.1540 -20.1529 -20.1525 -20.1523 -20.1518 -20.1515 -20.1510
    -9.6624  -9.5109  -9.4483  -9.3080  -9.1174  -8.9098  -8.8593  -8.8506
    -8.8228  -8.7109  -8.6597  -8.6033  -8.2489  -8.2390  -8.1674  -8.1579
    -8.1494  -8.0973  -8.0500  -8.0050  -7.7106  -7.6888  -7.6393  -7.6178
     1.3472   1.3633   1.3700   1.3870   2.1928   2.2761   2.2943   2.3823
     2.4757   2.5078   2.5158   2.7433   2.8051   2.8353   2.8880   2.9696
     3.2071   3.3010   3.6250   3.6440   3.7373   3.7770   3.8616   3.8718
     4.1088   4.2824   4.3885   4.4021   4.4828   4.5686   4.6323   4.7881
     4.8121   4.8267   4.9834   5.0518   5.1814   5.2001   5.2112   5.3587
     5.3790   5.5934   5.6385   5.8035   6.1443   6.2040   6.2201   6.2834
     6.4209   6.5826   6.6233   6.6648   6.7037   6.8051   6.8174   6.8464
     6.9160   6.9696   7.0291   7.0512   7.0708   7.1400   7.1613   7.1931
     7.2864   7.3323   7.7194   7.7352   7.7808   7.7910   7.8319   7.8530
    10.4191  10.4400  10.6817  10.7089  11.3025  11.3474  11.8019  11.8822
    11.9108  11.9866  12.2082  12.2567  12.5817  12.6406  12.6608  12.7023
    12.9117  13.1413  13.1967  13.3858  13.4595  13.5008  13.8393  13.8517
    15.1024  15.2215  15.5806  15.8450  15.9026  15.9905  16.0264  16.6275
    16.7573  16.7774  17.0572  17.5393  17.6342

          k = 0.0000 0.3164-0.4999 ( 62392 PWs)   bands (ev):

   -66.0603 -66.0603 -66.0600 -66.0600 -66.0593 -66.0593 -66.0591 -66.0591
   -30.4854 -30.4854 -30.4817 -30.4817 -30.4555 -30.4555 -30.4517 -30.4517
   -30.4002 -30.4002 -30.3925 -30.3925 -30.3536 -30.3536 -30.3490 -30.3490
   -30.3458 -30.3458 -30.3410 -30.3410 -30.3015 -30.3015 -30.2933 -30.2933
   -20.2109 -20.2109 -20.2107 -20.2107 -20.2097 -20.2097 -20.2096 -20.2096
   -20.2096 -20.2095 -20.2094 -20.2094 -20.2081 -20.2081 -20.2078 -20.2078
   -20.2003 -20.2003 -20.1996 -20.1996 -20.1987 -20.1987 -20.1986 -20.1986
   -20.1983 -20.1983 -20.1980 -20.1980 -20.1972 -20.1972 -20.1967 -20.1967
   -20.1860 -20.1860 -20.1858 -20.1858 -20.1854 -20.1854 -20.1853 -20.1853
   -20.1579 -20.1579 -20.1574 -20.1574 -20.1558 -20.1558 -20.1555 -20.1555
   -20.1544 -20.1544 -20.1541 -20.1541 -20.1519 -20.1519 -20.1514 -20.1514
    -9.5377  -9.5377  -9.3894  -9.3894  -8.9389  -8.9389  -8.7439  -8.7439
    -8.5561  -8.5561  -8.5448  -8.5448  -8.4878  -8.4877  -8.3960  -8.3959
    -8.1609  -8.1609  -8.1197  -8.1197  -7.6746  -7.6746  -7.6529  -7.6529
     1.3643   1.3643   1.3816   1.3816   2.3611   2.3611   2.4964   2.4964
     2.9057   2.9057   3.0659   3.0659   3.1158   3.1158   3.2814   3.2814
     3.3373   3.3373   3.3630   3.3630   3.4427   3.4427   3.6504   3.6504
     4.0579   4.0579   4.0867   4.0867   4.1365   4.1365   4.3561   4.3561
     4.8077   4.8077   4.9103   4.9103   5.1122   5.1122   5.2837   5.2837
     5.4363   5.4363   5.7206   5.7206   6.2905   6.2905   6.3506   6.3506
     6.4732   6.4732   6.5259   6.5259   6.5495   6.5495   6.7624   6.7624
     7.0386   7.0386   7.0537   7.0537   7.0935   7.0935   7.5137   7.5137
     7.5379   7.5379   7.5685   7.5685   7.6042   7.6042   7.8404   7.8404
    10.6856  10.6856  11.2036  11.2036  11.2507  11.2507  11.7235  11.7235
    12.0230  12.0230  12.1661  12.1661  12.5878  12.5878  12.6657  12.6657
    12.8693  12.8693  12.9992  12.9992  13.4561  13.4561  13.8445  13.8445
    15.1746  15.1746  15.7227  15.7227  16.2700  16.2700  16.4830  16.4830
    16.8716  16.8716  17.2237  17.2237  17.9534

          k = 0.0000-0.4746 0.0000 ( 62330 PWs)   bands (ev):

   -66.0607 -66.0606 -66.0597 -66.0597 -66.0596 -66.0596 -66.0587 -66.0586
   -30.4721 -30.4720 -30.4689 -30.4687 -30.4677 -30.4677 -30.4646 -30.4646
   -30.4029 -30.4029 -30.3979 -30.3975 -30.3954 -30.3952 -30.3905 -30.3900
   -30.3040 -30.3037 -30.3000 -30.2999 -30.2961 -30.2956 -30.2914 -30.2911
   -20.2100 -20.2099 -20.2098 -20.2097 -20.2096 -20.2096 -20.2096 -20.2095
   -20.2095 -20.2094 -20.2093 -20.2092 -20.2091 -20.2090 -20.2090 -20.2088
   -20.2003 -20.2001 -20.2000 -20.1999 -20.1996 -20.1996 -20.1996 -20.1995
   -20.1974 -20.1974 -20.1973 -20.1972 -20.1969 -20.1969 -20.1967 -20.1966
   -20.1862 -20.1861 -20.1858 -20.1857 -20.1856 -20.1856 -20.1852 -20.1851
   -20.1587 -20.1587 -20.1584 -20.1582 -20.1572 -20.1571 -20.1570 -20.1567
   -20.1527 -20.1526 -20.1524 -20.1521 -20.1513 -20.1513 -20.1509 -20.1507
    -9.7513  -9.7513  -9.3094  -9.3087  -9.2894  -9.2886  -9.0109  -9.0108
    -8.5163  -8.5162  -8.4593  -8.4588  -8.4575  -8.4571  -8.4566  -8.4565
    -7.7469  -7.7463  -7.7284  -7.7275  -7.6034  -7.6031  -7.5855  -7.5850
     1.2385   1.2385   1.3265   1.3286   1.3402   1.3425   1.6525   1.6528
     2.4684   2.4684   3.1345   3.1356   3.2021   3.2043   3.2456   3.2481
     3.2771   3.2780   3.3049   3.3098   3.4477   3.4537   3.5004   3.5043
     3.6619   3.6620   4.8691   4.8719   4.8742   4.8764   5.1963   5.2023
     5.2058   5.2115   5.3051   5.3058   5.3085   5.3092   5.7588   5.7608
     5.7638   5.7658   6.0052   6.0064   6.0398   6.0405   6.1752   6.1791
     6.1954   6.2009   6.2751   6.2761   6.7191   6.7208   6.7492   6.7509
     6.9491   6.9491   7.3843   7.3860   7.4059   7.4072   7.4558   7.4562
     7.4719   7.4723   7.5379   7.5387   7.5412   7.5415   7.8490   7.8491
     9.3429   9.3431  11.2484  11.2533  11.2692  11.2739  11.3328  11.3368
    11.3571  11.3610  12.3677  12.3711  12.4011  12.4047  12.9558  12.9560
    13.5733  13.5764  13.5998  13.6029  13.6274  13.6300  13.6308  13.6334
    15.3656  15.3668  15.4608  15.4622  15.6913  15.6924  15.7176  15.7185
    16.5378  16.5379  17.9080  17.9081  18.1323

          k = 0.0000-0.4746 0.1666 ( 62354 PWs)   bands (ev):

   -66.0606 -66.0605 -66.0598 -66.0597 -66.0596 -66.0596 -66.0588 -66.0587
   -30.4720 -30.4718 -30.4691 -30.4685 -30.4680 -30.4676 -30.4649 -30.4649
   -30.4025 -30.3979 -30.3966 -30.3946 -30.3913 -30.3904 -30.3888 -30.3838
   -30.3107 -30.3065 -30.3034 -30.3031 -30.3006 -30.2971 -30.2953 -30.2915
   -20.2100 -20.2098 -20.2098 -20.2098 -20.2097 -20.2096 -20.2096 -20.2096
   -20.2095 -20.2094 -20.2093 -20.2092 -20.2091 -20.2090 -20.2090 -20.2088
   -20.2003 -20.2001 -20.1999 -20.1997 -20.1996 -20.1996 -20.1995 -20.1993
   -20.1975 -20.1975 -20.1974 -20.1973 -20.1970 -20.1969 -20.1968 -20.1967
   -20.1862 -20.1861 -20.1858 -20.1856 -20.1856 -20.1856 -20.1852 -20.1851
   -20.1585 -20.1583 -20.1580 -20.1580 -20.1572 -20.1569 -20.1568 -20.1566
   -20.1531 -20.1528 -20.1525 -20.1520 -20.1517 -20.1515 -20.1512 -20.1508
    -9.7002  -9.6978  -9.3244  -9.3046  -9.2245  -9.2050  -8.9709  -8.9691
    -8.5221  -8.5219  -8.4653  -8.4634  -8.4554  -8.4552  -8.4515  -8.4499
    -7.8682  -7.8498  -7.7383  -7.7332  -7.7176  -7.7133  -7.6123  -7.5942
     1.3225   1.3322   1.3345   1.3485   1.5823   1.5961   1.8187   1.8275
     2.5578   2.5580   3.1377   3.1484   3.2089   3.2156   3.2399   3.2664
     3.2735   3.3021   3.3066   3.3497   3.4490   3.5004   3.5081   3.5472
     3.6909   3.6924   4.4732   4.4752   4.8841   4.9127   4.9627   4.9955
     5.1154   5.1167   5.1852   5.1902   5.3177   5.3223   5.4914   5.5023
     5.7337   5.7368   5.7925   5.7975   6.1101   6.1420   6.1437   6.1543
     6.3849   6.3935   6.4165   6.4597   6.7080   6.7383   6.8947   6.9229
     7.0067   7.0120   7.1618   7.1783   7.2032   7.2329   7.4432   7.4569
     7.4675   7.4787   7.4992   7.5116   7.5197   7.5286   7.8552   7.8558
     9.6983   9.7044  11.2579  11.2779  11.3304  11.3460  11.3853  11.3971
    11.4554  11.4784  12.2710  12.3009  12.4231  12.4549  12.9877  12.9881
    13.3997  13.4080  13.4878  13.5026  13.5971  13.6134  13.6237  13.6289
    15.4015  15.4264  15.5974  15.6191  15.6736  15.7014  15.9673  15.9895
    16.6010  16.6022  17.8406  17.8494  17.9516

          k = 0.0000-0.4746 0.3333 ( 62338 PWs)   bands (ev):

   -66.0604 -66.0604 -66.0599 -66.0599 -66.0594 -66.0594 -66.0590 -66.0589
   -30.4716 -30.4711 -30.4699 -30.4688 -30.4679 -30.4673 -30.4657 -30.4656
   -30.4015 -30.3989 -30.3940 -30.3914 -30.3782 -30.3734 -30.3707 -30.3656
   -30.3289 -30.3245 -30.3211 -30.3166 -30.3026 -30.3002 -30.2945 -30.2923
   -20.2099 -20.2098 -20.2098 -20.2098 -20.2097 -20.2097 -20.2096 -20.2096
   -20.2095 -20.2094 -20.2092 -20.2092 -20.2092 -20.2091 -20.2089 -20.2089
   -20.2002 -20.2001 -20.1997 -20.1996 -20.1993 -20.1992 -20.1990 -20.1988
   -20.1980 -20.1978 -20.1978 -20.1975 -20.1973 -20.1970 -20.1968 -20.1967
   -20.1861 -20.1859 -20.1859 -20.1857 -20.1855 -20.1855 -20.1853 -20.1852
   -20.1583 -20.1578 -20.1575 -20.1573 -20.1571 -20.1570 -20.1558 -20.1555
   -20.1543 -20.1540 -20.1529 -20.1525 -20.1523 -20.1518 -20.1515 -20.1510
    -9.5790  -9.5703  -9.3724  -9.3538  -8.9902  -8.9726  -8.8360  -8.8294
    -8.5550  -8.5536  -8.4881  -8.4865  -8.4460  -8.4455  -8.4248  -8.4215
    -8.1598  -8.1426  -8.0465  -8.0296  -7.7089  -7.6908  -7.6377  -7.6196
     1.3488   1.3642   1.3717   1.3880   2.2608   2.2732   2.4534   2.4654
     2.8168   2.8172   3.1396   3.1710   3.2173   3.2259   3.2340   3.2707
     3.2739   3.2839   3.3844   3.4226   3.4404   3.4892   3.6786   3.6903
     3.7605   3.7647   3.8548   3.8615   4.4692   4.4697   4.6334   4.6393
     4.7776   4.7948   4.8590   4.8754   5.2106   5.2243   5.2375   5.2392
     5.3669   5.3778   5.6589   5.6612   6.2014   6.2045   6.2476   6.2964
     6.5210   6.5341   6.6377   6.6943   6.7010   6.7223   6.8426   6.8758
     7.0146   7.0333   7.1699   7.1823   7.1913   7.1951   7.4206   7.4404
     7.4585   7.4729   7.4864   7.4977   7.5011   7.5076   7.7980   7.7981
    10.4296  10.4421  11.2716  11.2901  11.3145  11.3335  11.7564  11.7697
    11.8016  11.8213  11.8893  11.9120  12.5931  12.6193  12.7809  12.7845
    12.9313  12.9401  13.2248  13.2408  13.6006  13.6015  13.6176  13.6251
    15.4311  15.4584  15.6146  15.6413  16.1951  16.2153  16.6903  16.7050
    16.8250  16.8307  17.3350  17.3359  17.9313

          k = 0.0000-0.4746-0.4999 ( 62364 PWs)   bands (ev):

   -66.0602 -66.0602 -66.0601 -66.0601 -66.0592 -66.0592 -66.0591 -66.0591
   -30.4708 -30.4708 -30.4700 -30.4700 -30.4668 -30.4668 -30.4665 -30.4665
   -30.4002 -30.4002 -30.3927 -30.3927 -30.3536 -30.3536 -30.3490 -30.3490
   -30.3459 -30.3459 -30.3411 -30.3411 -30.3014 -30.3014 -30.2934 -30.2934
   -20.2098 -20.2098 -20.2098 -20.2098 -20.2097 -20.2097 -20.2097 -20.2097
   -20.2095 -20.2095 -20.2092 -20.2092 -20.2091 -20.2091 -20.2089 -20.2089
   -20.2002 -20.2002 -20.1996 -20.1996 -20.1986 -20.1986 -20.1985 -20.1985
   -20.1984 -20.1984 -20.1981 -20.1981 -20.1972 -20.1972 -20.1968 -20.1968
   -20.1860 -20.1860 -20.1858 -20.1858 -20.1854 -20.1854 -20.1853 -20.1853
   -20.1579 -20.1579 -20.1574 -20.1574 -20.1558 -20.1558 -20.1555 -20.1555
   -20.1544 -20.1544 -20.1541 -20.1541 -20.1519 -20.1519 -20.1514 -20.1514
    -9.4571  -9.4571  -9.4418  -9.4418  -8.7008  -8.7008  -8.6887  -8.6887
    -8.6080  -8.6080  -8.5998  -8.5998  -8.4025  -8.4025  -8.3893  -8.3893
    -8.3318  -8.3318  -8.3174  -8.3174  -7.6730  -7.6729  -7.6548  -7.6548
     1.3662   1.3662   1.3827   1.3827   3.0029   3.0029   3.0439   3.0439
     3.1520   3.1520   3.1636   3.1636   3.2141   3.2141   3.2212   3.2212
     3.3082   3.3082   3.3220   3.3220   3.4492   3.4492   3.4859   3.4859
     3.5733   3.5734   3.6695   3.6695   4.2889   4.2889   4.3100   4.3100
     4.3908   4.3908   4.4252   4.4252   5.2088   5.2088   5.2211   5.2211
     5.5055   5.5055   5.5231   5.5231   6.3391   6.3391   6.3446   6.3446
     6.5187   6.5187   6.5405   6.5405   6.6292   6.6292   6.6561   6.6561
     7.2798   7.2798   7.2971   7.2971   7.3351   7.3351   7.4013   7.4013
     7.4477   7.4477   7.4822   7.4822   7.5965   7.5965   7.6047   7.6047
    11.1873  11.1873  11.2034  11.2034  11.3286  11.3286  11.3401  11.3401
    12.2795  12.2795  12.3045  12.3045  12.3277  12.3277  12.3500  12.3500
    12.8932  12.8932  12.9127  12.9127  13.6046  13.6046  13.6137  13.6137
    15.5220  15.5220  15.5499  15.5499  16.8116  16.8116  16.8377  16.8378
    17.3609  17.3609  17.3847  17.3847  17.5003

          k = 0.1667 0.0000 0.0000 ( 62351 PWs)   bands (ev):

   -66.0608 -66.0604 -66.0599 -66.0598 -66.0595 -66.0594 -66.0589 -66.0585
   -30.5018 -30.4985 -30.4981 -30.4948 -30.4426 -30.4387 -30.4384 -30.4347
   -30.4030 -30.3981 -30.3965 -30.3941 -30.3911 -30.3905 -30.3879 -30.3828
   -30.3105 -30.3066 -30.3039 -30.3024 -30.3001 -30.2974 -30.2955 -30.2916
   -20.2124 -20.2121 -20.2120 -20.2118 -20.2098 -20.2097 -20.2096 -20.2096
   -20.2095 -20.2095 -20.2095 -20.2094 -20.2069 -20.2065 -20.2065 -20.2062
   -20.2005 -20.2004 -20.2003 -20.2002 -20.1994 -20.1992 -20.1991 -20.1990
   -20.1979 -20.1978 -20.1976 -20.1975 -20.1967 -20.1965 -20.1965 -20.1962
   -20.1862 -20.1860 -20.1858 -20.1857 -20.1856 -20.1855 -20.1852 -20.1851
   -20.1586 -20.1584 -20.1581 -20.1578 -20.1573 -20.1571 -20.1568 -20.1563
   -20.1531 -20.1526 -20.1526 -20.1523 -20.1517 -20.1514 -20.1511 -20.1510
    -9.8907  -9.5880  -9.5240  -9.4494  -9.2301  -9.1255  -9.1118  -8.9799
    -8.9629  -8.8758  -8.8610  -8.8227  -7.8889  -7.8543  -7.8523  -7.8106
    -7.8013  -7.7575  -7.7438  -7.7337  -7.7146  -7.7084  -7.6175  -7.5889
     1.3065   1.3091   1.3279   1.3415   1.4384   1.4736   1.5942   1.5998
     1.6103   1.7128   1.8389   1.9925   2.5156   2.5805   2.5994   2.6590
     2.7114   2.8075   4.0955   4.1669   4.3741   4.3854   4.4112   4.4981
     4.6447   4.7740   4.8080   4.9180   4.9296   5.0090   5.0660   5.3166
     5.3565   5.4204   5.4964   5.5371   5.5627   5.5996   5.6231   5.6353
     5.7526   5.7652   5.8139   5.9174   5.9771   6.1005   6.1256   6.1385
     6.2959   6.4238   6.5007   6.5385   6.6763   6.7049   6.7755   6.8165
     6.8384   6.8632   6.9691   6.9989   7.0282   7.0888   7.1710   7.1851
     7.2084   7.2721   7.8490   7.8531   8.0276   8.0897   8.0913   8.1417
     9.6783   9.7074   9.9970  10.0213  10.2556  10.3049  12.2467  12.2769
    12.3253  12.3646  12.3990  12.4407  12.5464  12.6435  12.9237  12.9668
    13.1070  13.2453  13.3173  13.4070  13.8966  14.0290  14.0916  14.1480
    14.2139  14.4336  14.5522  14.9539  15.4857  15.4919  15.5199  16.0655
    16.4084  16.7925  17.0229  17.2680  17.4826

          k = 0.1667 0.0000 0.1666 ( 62348 PWs)   bands (ev):

   -66.0607 -66.0603 -66.0599 -66.0599 -66.0594 -66.0594 -66.0590 -66.0586
   -30.5017 -30.4984 -30.4983 -30.4951 -30.4423 -30.4387 -30.4386 -30.4350
   -30.3976 -30.3945 -30.3917 -30.3913 -30.3885 -30.3872 -30.3837 -30.3831
   -30.3106 -30.3103 -30.3078 -30.3064 -30.3020 -30.3016 -30.2986 -30.2973
   -20.2123 -20.2121 -20.2121 -20.2118 -20.2098 -20.2097 -20.2096 -20.2096
   -20.2095 -20.2095 -20.2095 -20.2094 -20.2069 -20.2066 -20.2065 -20.2062
   -20.2005 -20.2003 -20.2002 -20.2001 -20.1993 -20.1991 -20.1991 -20.1989
   -20.1980 -20.1978 -20.1977 -20.1977 -20.1967 -20.1966 -20.1965 -20.1964
   -20.1861 -20.1860 -20.1858 -20.1857 -20.1855 -20.1855 -20.1853 -20.1851
   -20.1582 -20.1582 -20.1579 -20.1577 -20.1570 -20.1569 -20.1567 -20.1564
   -20.1530 -20.1530 -20.1527 -20.1525 -20.1518 -20.1518 -20.1514 -20.1512
    -9.8428  -9.5293  -9.4657  -9.4654  -9.1409  -9.1397  -9.1206  -8.9398
    -8.9266  -8.8665  -8.8279  -8.8275  -7.8919  -7.8620  -7.8490  -7.8468
    -7.8390  -7.8046  -7.8017  -7.7624  -7.7610  -7.7476  -7.7186  -7.6988
     1.4257   1.4668   1.4680   1.4991   1.4994   1.5923   1.5985   1.6006
     1.7127   1.7148   1.9242   2.0721   2.6033   2.6628   2.6727   2.6946
     2.7846   2.8186   4.0987   4.1002   4.3429   4.3448   4.4870   4.4882
     4.5572   4.5631   4.6628   4.6819   4.7402   4.8067   5.0493   5.2618
     5.2817   5.3346   5.3635   5.4872   5.4945   5.6213   5.6244   5.6885
     5.6898   5.7425   5.7629   5.7708   5.7982   5.9889   6.3118   6.4288
     6.4738   6.4952   6.5537   6.6467   6.6848   6.6873   6.6923   6.7210
     6.7496   6.8481   6.8517   6.8818   6.8973   6.9873   6.9934   7.1034
     7.3053   7.3614   7.8483   7.8486   8.0301   8.0747   8.0883   8.1034
     9.9017   9.9678  10.2512  10.2549  10.2737  10.3626  12.2939  12.2998
    12.3198  12.3290  12.3678  12.4007  12.6240  12.6422  12.9384  12.9752
    13.0450  13.1592  13.2065  13.3768  13.9403  13.9931  14.0326  14.0692
    14.1850  14.5351  14.5442  15.0729  15.4526  15.5769  15.5907  16.3709
    16.3756  16.9566  16.9615  17.1644  17.5307

          k = 0.1667 0.0000 0.3333 ( 62368 PWs)   bands (ev):

   -66.0605 -66.0601 -66.0601 -66.0597 -66.0596 -66.0593 -66.0592 -66.0588
   -30.5011 -30.4992 -30.4978 -30.4959 -30.4416 -30.4395 -30.4379 -30.4359
   -30.3951 -30.3924 -30.3868 -30.3844 -30.3776 -30.3738 -30.3700 -30.3656
   -30.3287 -30.3250 -30.3206 -30.3167 -30.3094 -30.3069 -30.3009 -30.2987
   -20.2123 -20.2122 -20.2121 -20.2119 -20.2097 -20.2096 -20.2096 -20.2096
   -20.2095 -20.2095 -20.2094 -20.2094 -20.2068 -20.2067 -20.2065 -20.2063
   -20.2004 -20.2003 -20.1998 -20.1996 -20.1992 -20.1989 -20.1988 -20.1984
   -20.1983 -20.1982 -20.1980 -20.1975 -20.1971 -20.1968 -20.1966 -20.1965
   -20.1860 -20.1859 -20.1858 -20.1856 -20.1856 -20.1854 -20.1853 -20.1852
   -20.1579 -20.1575 -20.1572 -20.1571 -20.1569 -20.1567 -20.1559 -20.1556
   -20.1542 -20.1539 -20.1530 -20.1527 -20.1526 -20.1522 -20.1519 -20.1515
    -9.7270  -9.5158  -9.3919  -9.3312  -9.1836  -9.1502  -8.8879  -8.8780
    -8.8402  -8.7944  -8.7669  -8.7021  -8.1709  -8.1515  -8.0937  -8.0670
    -7.8541  -7.8332  -7.8242  -7.8000  -7.7940  -7.7708  -7.7615  -7.7384
     1.4365   1.4559   1.5415   1.5761   1.6165   1.6337   1.6949   1.7219
     2.2900   2.3270   2.4652   2.5477   2.6906   2.7770   2.8698   2.9084
     2.9773   3.0561   3.8163   3.8603   3.9473   3.9582   4.1510   4.3117
     4.3257   4.5047   4.5181   4.5586   4.6113   4.7548   4.7739   4.9240
     5.0026   5.0539   5.1015   5.2209   5.2819   5.3795   5.5494   5.6613
     5.6903   5.7509   5.7765   5.8080   5.8287   5.9986   6.1528   6.2087
     6.4154   6.4504   6.4899   6.5624   6.5859   6.6633   6.6671   6.6881
     6.7870   6.8708   6.8824   6.8987   7.1307   7.1537   7.1751   7.2417
     7.3269   7.3730   7.7864   7.8013   7.9237   7.9609   8.0862   8.0967
    10.2500  10.2573  10.5396  10.6054  10.8812  10.9996  11.9209  11.9679
    12.1555  12.4480  12.4752  12.5124  12.5729  12.6342  12.7854  12.8813
    12.9213  13.0503  13.1102  13.3004  13.6819  13.6994  13.9996  14.0268
    14.3368  14.5177  14.8381  15.3461  15.3855  15.8379  16.0010  16.2771
    16.3821  17.2212  17.4013  17.4999  17.6043

          k = 0.1667 0.0000-0.4999 ( 62394 PWs)   bands (ev):

   -66.0603 -66.0603 -66.0599 -66.0599 -66.0594 -66.0594 -66.0590 -66.0590
   -30.5002 -30.5002 -30.4969 -30.4969 -30.4406 -30.4406 -30.4369 -30.4369
   -30.3937 -30.3937 -30.3855 -30.3855 -30.3534 -30.3534 -30.3495 -30.3495
   -30.3453 -30.3453 -30.3411 -30.3411 -30.3083 -30.3083 -30.2998 -30.2998
   -20.2122 -20.2122 -20.2120 -20.2120 -20.2097 -20.2097 -20.2096 -20.2096
   -20.2095 -20.2095 -20.2094 -20.2094 -20.2068 -20.2068 -20.2064 -20.2064
   -20.2003 -20.2003 -20.1994 -20.1994 -20.1989 -20.1989 -20.1986 -20.1986
   -20.1984 -20.1984 -20.1978 -20.1978 -20.1973 -20.1973 -20.1966 -20.1966
   -20.1859 -20.1859 -20.1857 -20.1857 -20.1854 -20.1854 -20.1853 -20.1853
   -20.1575 -20.1575 -20.1571 -20.1571 -20.1557 -20.1557 -20.1554 -20.1554
   -20.1545 -20.1545 -20.1542 -20.1542 -20.1523 -20.1523 -20.1518 -20.1518
    -9.6046  -9.6046  -9.2640  -9.2640  -9.2140  -9.2140  -8.8577  -8.8577
    -8.5399  -8.5399  -8.5237  -8.5237  -8.4800  -8.4800  -8.4256  -8.4256
    -7.8400  -7.8400  -7.7971  -7.7971  -7.7820  -7.7820  -7.7709  -7.7709
     1.4444   1.4444   1.5596   1.5596   1.6353   1.6353   1.7273   1.7273
     2.7180   2.7180   3.0138   3.0138   3.0981   3.0981   3.2160   3.2160
     3.3193   3.3193   3.4332   3.4332   3.5455   3.5455   3.8068   3.8068
     3.8744   3.8744   4.4211   4.4211   4.5303   4.5303   4.8922   4.8922
     5.0385   5.0385   5.0588   5.0588   5.2506   5.2506   5.6238   5.6238
     5.7881   5.7881   5.7906   5.7906   5.9046   5.9046   5.9695   5.9695
     6.3461   6.3461   6.4353   6.4353   6.6628   6.6628   6.7130   6.7130
     6.8234   6.8234   6.9719   6.9719   7.0308   7.0308   7.5442   7.5442
     7.5900   7.5900   7.6956   7.6956   7.7144   7.7144   8.0959   8.0959
    10.2638  10.2638  11.2601  11.2601  11.3352  11.3352  11.5938  11.5938
    11.7886  11.7886  12.6525  12.6525  12.6816  12.6816  12.7383  12.7384
    12.9342  12.9342  13.2688  13.2688  13.3713  13.3713  14.0108  14.0109
    14.4603  14.4603  15.1451  15.1451  15.8299  15.8300  16.1054  16.1054
    16.7641  16.7641  17.8083  17.8097  17.8523

          k = 0.1667 0.1582 0.0000 ( 62332 PWs)   bands (ev):

   -66.0608 -66.0604 -66.0599 -66.0598 -66.0595 -66.0594 -66.0589 -66.0586
   -30.4978 -30.4945 -30.4941 -30.4908 -30.4464 -30.4427 -30.4423 -30.4388
   -30.4029 -30.3982 -30.3967 -30.3941 -30.3911 -30.3906 -30.3881 -30.3829
   -30.3105 -30.3065 -30.3039 -30.3025 -30.3001 -30.2974 -30.2956 -30.2916
   -20.2120 -20.2118 -20.2117 -20.2114 -20.2098 -20.2097 -20.2096 -20.2096
   -20.2095 -20.2095 -20.2095 -20.2094 -20.2072 -20.2069 -20.2069 -20.2066
   -20.2004 -20.2004 -20.2002 -20.2001 -20.1994 -20.1993 -20.1992 -20.1990
   -20.1979 -20.1977 -20.1976 -20.1975 -20.1968 -20.1966 -20.1966 -20.1963
   -20.1862 -20.1860 -20.1858 -20.1857 -20.1856 -20.1855 -20.1852 -20.1851
   -20.1586 -20.1584 -20.1581 -20.1578 -20.1573 -20.1571 -20.1568 -20.1563
   -20.1531 -20.1526 -20.1526 -20.1523 -20.1517 -20.1514 -20.1511 -20.1510
    -9.8591  -9.5997  -9.4855  -9.4059  -9.2378  -9.1333  -9.0372  -8.9778
    -8.9637  -8.8326  -8.8238  -8.7904  -7.9656  -7.9200  -7.9072  -7.8694
    -7.8692  -7.8396  -7.7437  -7.7343  -7.7150  -7.7079  -7.6166  -7.5902
     1.3182   1.3234   1.3299   1.3430   1.5476   1.5936   1.6037   1.8002
     1.8344   1.8446   1.8744   2.0959   2.5220   2.5934   2.6528   2.7334
     2.7810   2.8760   3.9936   4.0453   4.1040   4.1517   4.4190   4.4955
     4.6711   4.7022   4.8075   4.8970   4.9054   4.9317   4.9779   5.2388
     5.2590   5.3060   5.3355   5.4827   5.5795   5.5864   5.6349   5.6923
     5.7451   5.7609   5.8288   5.8654   5.8730   6.1252   6.1268   6.1475
     6.2360   6.4137   6.4760   6.5632   6.7085   6.7694   6.7958   6.8154
     6.8424   6.8884   6.9526   6.9719   7.0049   7.0251   7.1716   7.1851
     7.2207   7.2732   7.8510   7.8528   7.9895   8.0192   8.0348   8.0621
     9.6844   9.7079  10.1954  10.1984  10.4247  10.4482  12.1753  12.2608
    12.2804  12.3086  12.3728  12.3910  12.4068  12.5237  12.9428  12.9664
    13.1322  13.2683  13.3263  13.4092  13.9163  13.9471  14.0624  14.0757
    14.3468  14.6889  14.8385  15.1118  15.4915  15.5195  15.8876  16.0337
    16.3725  16.6848  16.9189  17.3808  17.5600

          k = 0.1667 0.1582 0.1666 ( 62362 PWs)   bands (ev):

   -66.0607 -66.0603 -66.0598 -66.0598 -66.0595 -66.0595 -66.0590 -66.0586
   -30.4976 -30.4944 -30.4943 -30.4911 -30.4462 -30.4426 -30.4425 -30.4391
   -30.3974 -30.3948 -30.3917 -30.3913 -30.3886 -30.3874 -30.3838 -30.3832
   -30.3105 -30.3102 -30.3077 -30.3064 -30.3021 -30.3016 -30.2986 -30.2974
   -20.2120 -20.2117 -20.2117 -20.2115 -20.2098 -20.2097 -20.2096 -20.2096
   -20.2095 -20.2095 -20.2095 -20.2094 -20.2072 -20.2069 -20.2069 -20.2066
   -20.2004 -20.2002 -20.2001 -20.2000 -20.1993 -20.1992 -20.1991 -20.1990
   -20.1979 -20.1978 -20.1977 -20.1976 -20.1968 -20.1967 -20.1966 -20.1964
   -20.1861 -20.1860 -20.1858 -20.1857 -20.1856 -20.1855 -20.1853 -20.1851
   -20.1582 -20.1582 -20.1579 -20.1577 -20.1570 -20.1569 -20.1567 -20.1564
   -20.1530 -20.1530 -20.1527 -20.1525 -20.1518 -20.1518 -20.1514 -20.1512
    -9.8097  -9.5411  -9.4225  -9.4222  -9.1488  -9.1477  -9.0461  -8.9388
    -8.9272  -8.8238  -8.7953  -8.7950  -7.9672  -7.9183  -7.9177  -7.8772
    -7.8612  -7.8599  -7.8336  -7.8283  -7.7640  -7.7447  -7.7175  -7.7004
     1.4972   1.4986   1.5496   1.5506   1.5985   1.6001   1.6206   1.7997
     1.8701   1.8719   1.9237   2.1512   2.6117   2.6885   2.7365   2.7474
     2.8574   2.8830   4.0004   4.0204   4.1310   4.1361   4.4725   4.4748
     4.5596   4.5648   4.6648   4.6763   4.7170   4.7553   4.8446   5.1924
     5.2203   5.2539   5.2660   5.3617   5.3785   5.5720   5.5752   5.6236
     5.7515   5.7592   5.7750   5.7932   5.7956   5.8594   6.3311   6.3632
     6.4003   6.4861   6.5456   6.6514   6.6846   6.7216   6.7720   6.7818
     6.7959   6.8284   6.8751   6.8836   6.9554   6.9682   6.9844   7.1099
     7.3091   7.3598   7.8486   7.8488   7.9781   8.0175   8.0221   8.0282
     9.9203   9.9674  10.4041  10.4223  10.4357  10.4980  12.2337  12.2685
    12.3041  12.3051  12.3321  12.3413  12.4856  12.5001  12.9626  12.9739
    13.0740  13.1706  13.2081  13.3804  13.9020  13.9095  13.9331  13.9895
    14.4460  14.8286  14.8326  15.2154  15.5779  15.5892  15.8562  16.3380
    16.3412  16.8087  17.0633  17.0655  17.5852

          k = 0.1667 0.1582 0.3333 ( 62373 PWs)   bands (ev):

   -66.0605 -66.0601 -66.0600 -66.0597 -66.0597 -66.0593 -66.0592 -66.0588
   -30.4971 -30.4952 -30.4938 -30.4919 -30.4455 -30.4434 -30.4419 -30.4399
   -30.3951 -30.3924 -30.3870 -30.3845 -30.3776 -30.3738 -30.3701 -30.3657
   -30.3287 -30.3250 -30.3207 -30.3168 -30.3094 -30.3068 -30.3009 -30.2987
   -20.2120 -20.2118 -20.2117 -20.2116 -20.2097 -20.2096 -20.2096 -20.2096
   -20.2095 -20.2095 -20.2094 -20.2094 -20.2072 -20.2070 -20.2069 -20.2067
   -20.2003 -20.2002 -20.1998 -20.1995 -20.1992 -20.1990 -20.1988 -20.1985
   -20.1982 -20.1981 -20.1980 -20.1975 -20.1972 -20.1969 -20.1967 -20.1966
   -20.1860 -20.1859 -20.1858 -20.1856 -20.1855 -20.1855 -20.1853 -20.1852
   -20.1579 -20.1575 -20.1572 -20.1571 -20.1569 -20.1567 -20.1559 -20.1556
   -20.1542 -20.1539 -20.1530 -20.1527 -20.1526 -20.1522 -20.1519 -20.1515
    -9.6901  -9.4735  -9.4035  -9.2743  -9.1922  -9.0763  -8.8958  -8.8559
    -8.8074  -8.7952  -8.7499  -8.6832  -8.1741  -8.1538  -8.1110  -8.0667
    -7.9338  -7.9179  -7.8960  -7.8681  -7.8334  -7.8059  -7.7639  -7.7383
     1.5569   1.5724   1.6169   1.6344   1.7532   1.7585   1.8366   1.8709
     2.2890   2.3371   2.4669   2.5622   2.7637   2.8400   2.8892   2.9724
     2.9852   3.1126   3.8158   3.8624   3.9135   3.9394   4.1252   4.1785
     4.2384   4.3637   4.5293   4.5810   4.6374   4.6964   4.7455   4.7782
     4.8921   4.9300   4.9709   5.1416   5.2100   5.2516   5.3165   5.5991
     5.6246   5.6486   5.7478   5.7974   5.8192   5.8334   6.1555   6.2072
     6.3731   6.5086   6.5400   6.6254   6.6843   6.6977   6.7206   6.7742
     6.8409   6.8756   6.9078   6.9435   7.1251   7.1482   7.1713   7.2460
     7.3197   7.3684   7.7875   7.7980   7.8792   7.9046   8.0211   8.0255
    10.3858  10.4209  10.5639  10.6160  10.9958  11.0877  11.9217  11.9651
    12.1329  12.4294  12.4675  12.4808  12.5055  12.5628  12.7131  12.7622
    12.9305  13.0619  13.0930  13.2992  13.5759  13.6024  13.9186  13.9445
    14.6511  14.8107  15.1855  15.4962  15.7537  15.8336  16.0109  16.2479
    16.4882  17.1816  17.2000  17.4597  17.5435

          k = 0.1667 0.1582-0.4999 ( 62378 PWs)   bands (ev):

   -66.0603 -66.0603 -66.0599 -66.0599 -66.0594 -66.0594 -66.0590 -66.0590
   -30.4962 -30.4962 -30.4929 -30.4929 -30.4445 -30.4445 -30.4410 -30.4410
   -30.3937 -30.3937 -30.3857 -30.3857 -30.3533 -30.3533 -30.3494 -30.3494
   -30.3454 -30.3454 -30.3412 -30.3412 -30.3082 -30.3082 -30.2998 -30.2998
   -20.2119 -20.2119 -20.2116 -20.2116 -20.2097 -20.2097 -20.2096 -20.2096
   -20.2095 -20.2095 -20.2094 -20.2094 -20.2071 -20.2071 -20.2068 -20.2068
   -20.2003 -20.2003 -20.1994 -20.1994 -20.1989 -20.1989 -20.1986 -20.1986
   -20.1983 -20.1983 -20.1978 -20.1978 -20.1973 -20.1973 -20.1967 -20.1967
   -20.1859 -20.1859 -20.1857 -20.1857 -20.1854 -20.1854 -20.1853 -20.1853
   -20.1575 -20.1575 -20.1571 -20.1571 -20.1557 -20.1557 -20.1554 -20.1554
   -20.1545 -20.1545 -20.1542 -20.1542 -20.1523 -20.1523 -20.1518 -20.1518
    -9.5642  -9.5642  -9.2741  -9.2741  -9.1442  -9.1442  -8.8255  -8.8255
    -8.5430  -8.5430  -8.5273  -8.5273  -8.4813  -8.4813  -8.4205  -8.4205
    -7.9286  -7.9286  -7.8856  -7.8856  -7.7988  -7.7988  -7.7721  -7.7721
     1.5663   1.5663   1.6358   1.6358   1.7659   1.7659   1.8694   1.8694
     2.7869   2.7869   3.0325   3.0325   3.1154   3.1154   3.2325   3.2325
     3.3223   3.3223   3.4384   3.4384   3.5368   3.5368   3.8114   3.8114
     3.9227   3.9227   4.2616   4.2616   4.5366   4.5366   4.6737   4.6737
     4.9283   4.9283   5.0289   5.0289   5.1051   5.1051   5.4332   5.4332
     5.6823   5.6823   5.7477   5.7477   5.8610   5.8610   5.9054   5.9054
     6.4717   6.4717   6.6041   6.6041   6.6447   6.6447   6.7647   6.7647
     6.8987   6.8987   6.9367   6.9367   7.0546   7.0546   7.5434   7.5434
     7.5839   7.5839   7.6678   7.6678   7.6864   7.6864   8.0261   8.0261
    10.4245  10.4245  11.2671  11.2671  11.3343  11.3343  11.6612  11.6612
    11.8487  11.8487  12.5183  12.5183  12.6667  12.6667  12.7260  12.7260
    12.9171  12.9171  13.1629  13.1629  13.3085  13.3085  13.9269  13.9269
    14.7631  14.7631  15.5206  15.5206  15.9491  15.9491  16.0855  16.0855
    16.7956  16.7956  17.6194  17.6194  17.8749

          k = 0.1667 0.3164 0.0000 ( 62353 PWs)   bands (ev):

   -66.0607 -66.0605 -66.0598 -66.0597 -66.0596 -66.0595 -66.0589 -66.0586
   -30.4868 -30.4835 -30.4831 -30.4799 -30.4571 -30.4535 -30.4532 -30.4498
   -30.4027 -30.3982 -30.3972 -30.3940 -30.3910 -30.3908 -30.3884 -30.3832
   -30.3104 -30.3064 -30.3038 -30.3026 -30.3002 -30.2974 -30.2957 -30.2917
   -20.2110 -20.2108 -20.2107 -20.2105 -20.2098 -20.2097 -20.2096 -20.2096
   -20.2095 -20.2095 -20.2095 -20.2094 -20.2082 -20.2079 -20.2079 -20.2076
   -20.2003 -20.2002 -20.2001 -20.2000 -20.1995 -20.1994 -20.1993 -20.1992
   -20.1977 -20.1976 -20.1974 -20.1974 -20.1969 -20.1967 -20.1967 -20.1965
   -20.1862 -20.1861 -20.1858 -20.1857 -20.1856 -20.1855 -20.1852 -20.1851
   -20.1586 -20.1584 -20.1581 -20.1578 -20.1573 -20.1571 -20.1568 -20.1563
   -20.1531 -20.1526 -20.1526 -20.1523 -20.1517 -20.1514 -20.1511 -20.1510
    -9.7825  -9.6361  -9.3979  -9.3062  -9.2634  -9.1592  -8.9741  -8.9661
    -8.8262  -8.6969  -8.6943  -8.6754  -8.2085  -8.1690  -8.1587  -8.1429
    -7.8691  -7.8466  -7.7410  -7.7334  -7.7173  -7.7105  -7.6142  -7.5930
     1.3209   1.3300   1.3320   1.3454   1.5801   1.5967   1.7864   1.8350
     2.3604   2.4819   2.5046   2.5375   2.5782   2.6593   2.8676   2.9579
     2.9870   3.0842   3.6358   3.6676   3.6873   3.7295   4.1314   4.4162
     4.4509   4.4781   4.5287   4.7347   4.7559   4.8632   4.9046   4.9318
     5.0344   5.0674   5.1694   5.3069   5.4051   5.4642   5.5877   5.6340
     5.6844   5.7887   5.7985   5.8469   6.0538   6.1082   6.1445   6.1584
     6.2483   6.4138   6.4536   6.5823   6.6285   6.8446   6.8675   6.9246
     6.9635   6.9799   7.0692   7.0728   7.0945   7.1022   7.1779   7.1880
     7.2514   7.2839   7.7932   7.8168   7.8252   7.8427   7.8610   7.8636
     9.6940   9.7068  10.6639  10.7036  10.8463  10.8744  11.8196  11.9200
    11.9559  12.0324  12.2701  12.3043  12.4138  12.4564  12.9711  12.9793
    13.2262  13.3391  13.4012  13.4675  13.6896  13.7324  13.8413  13.8611
    14.9342  15.2471  15.4463  15.5054  15.5222  15.7062  15.9211  16.1207
    16.2498  16.8849  17.2942  17.3366  17.6835

          k = 0.1667 0.3164 0.1666 ( 62318 PWs)   bands (ev):

   -66.0606 -66.0604 -66.0598 -66.0598 -66.0595 -66.0595 -66.0589 -66.0587
   -30.4867 -30.4834 -30.4833 -30.4802 -30.4569 -30.4535 -30.4534 -30.4501
   -30.3969 -30.3953 -30.3917 -30.3914 -30.3885 -30.3878 -30.3840 -30.3835
   -30.3104 -30.3101 -30.3074 -30.3067 -30.3022 -30.3017 -30.2984 -30.2977
   -20.2110 -20.2108 -20.2107 -20.2105 -20.2097 -20.2097 -20.2096 -20.2096
   -20.2095 -20.2095 -20.2095 -20.2094 -20.2082 -20.2079 -20.2079 -20.2076
   -20.2002 -20.2001 -20.2000 -20.1999 -20.1994 -20.1993 -20.1993 -20.1991
   -20.1978 -20.1976 -20.1976 -20.1975 -20.1969 -20.1969 -20.1968 -20.1966
   -20.1861 -20.1860 -20.1858 -20.1856 -20.1856 -20.1855 -20.1852 -20.1851
   -20.1582 -20.1582 -20.1579 -20.1577 -20.1570 -20.1569 -20.1567 -20.1564
   -20.1530 -20.1530 -20.1527 -20.1525 -20.1518 -20.1518 -20.1514 -20.1512
    -9.7294  -9.5781  -9.3233  -9.3228  -9.1753  -9.1743  -8.9364  -8.9298
    -8.8347  -8.6880  -8.6800  -8.6797  -8.2102  -8.1660  -8.1655  -8.1483
    -7.8618  -7.8580  -7.8396  -7.8349  -7.7607  -7.7495  -7.7144  -7.7044
     1.4976   1.4982   1.5843   1.5859   1.6014   1.6032   1.8581   1.9195
     2.3624   2.4829   2.4849   2.6294   2.6304   2.6914   2.9595   2.9747
     3.0764   3.0825   3.6754   3.6794   3.6962   3.7461   4.1236   4.4397
     4.4422   4.4987   4.5035   4.5857   4.5901   4.7274   4.7333   4.8212
     4.8714   4.8790   5.1136   5.1426   5.3735   5.4012   5.4030   5.4219
     5.6343   5.6532   5.7686   5.7707   5.8243   5.8276   6.3851   6.4025
     6.4243   6.4871   6.5287   6.6327   6.7570   6.7594   6.8541   6.8598
     6.9242   6.9276   6.9891   7.0127   7.0873   7.0925   7.1051   7.1470
     7.3291   7.3614   7.7926   7.7952   7.8073   7.8306   7.8528   7.8669
     9.9443   9.9642  10.8163  10.8591  10.8745  10.8992  11.8942  11.9391
    12.0235  12.0365  12.3190  12.3218  12.3630  12.3650  12.9795  13.0037
    13.1943  13.2344  13.2670  13.4226  13.6691  13.6779  13.6967  13.7811
    15.0874  15.4506  15.4582  15.5852  15.5864  15.7708  16.2189  16.2213
    16.2457  16.8501  17.3549  17.4074  17.4210

          k = 0.1667 0.3164 0.3333 ( 62353 PWs)   bands (ev):

   -66.0604 -66.0602 -66.0600 -66.0597 -66.0596 -66.0594 -66.0591 -66.0589
   -30.4861 -30.4842 -30.4828 -30.4810 -30.4563 -30.4543 -30.4529 -30.4509
   -30.3950 -30.3923 -30.3872 -30.3848 -30.3776 -30.3738 -30.3703 -30.3659
   -30.3286 -30.3249 -30.3208 -30.3169 -30.3093 -30.3067 -30.3011 -30.2989
   -20.2110 -20.2108 -20.2108 -20.2106 -20.2097 -20.2096 -20.2096 -20.2096
   -20.2095 -20.2095 -20.2094 -20.2094 -20.2082 -20.2080 -20.2079 -20.2077
   -20.2002 -20.2000 -20.1996 -20.1994 -20.1993 -20.1991 -20.1989 -20.1987
   -20.1981 -20.1980 -20.1979 -20.1975 -20.1974 -20.1970 -20.1969 -20.1968
   -20.1860 -20.1859 -20.1858 -20.1856 -20.1855 -20.1855 -20.1853 -20.1852
   -20.1579 -20.1575 -20.1572 -20.1571 -20.1569 -20.1567 -20.1559 -20.1556
   -20.1542 -20.1539 -20.1530 -20.1527 -20.1526 -20.1522 -20.1519 -20.1515
    -9.6012  -9.4404  -9.3749  -9.2212  -9.1342  -8.9260  -8.8682  -8.8216
    -8.7980  -8.6931  -8.6554  -8.6086  -8.2586  -8.2332  -8.1654  -8.1575
    -8.1482  -8.0919  -8.0610  -8.0122  -7.8323  -7.8106  -7.7622  -7.7412
     1.6008   1.6187   1.6204   1.6376   2.1977   2.2806   2.2877   2.3782
     2.4610   2.4908   2.5168   2.7140   2.9018   2.9638   2.9862   3.0665
     3.2108   3.2985   3.6585   3.6724   3.7323   3.7803   3.9090   3.9809
     4.1037   4.2883   4.3827   4.4067   4.4707   4.5524   4.6017   4.6555
     4.7284   4.7736   4.8245   4.8574   4.9257   4.9938   5.1379   5.1558
     5.3220   5.3393   5.4394   5.6054   5.7968   5.8361   6.1899   6.2083
     6.5434   6.6170   6.6357   6.7366   6.8114   6.8330   6.9238   6.9612
     7.0018   7.0249   7.0455   7.0708   7.1499   7.1746   7.1969   7.2712
     7.3027   7.3573   7.7215   7.7245   7.7765   7.7960   7.8104   7.8453
    10.5418  10.5785  10.8646  10.8799  11.3131  11.3613  11.8842  11.9293
    11.9512  12.0935  12.2104  12.2481  12.4848  12.5726  12.6699  12.7099
    12.9065  13.0739  13.1309  13.3360  13.3483  13.3917  13.6854  13.7273
    15.3010  15.4332  15.7943  15.9739  15.9883  16.0658  16.1479  16.6860
    16.7287  16.8306  17.0566  17.5680  17.6376

          k = 0.1667 0.3164-0.4999 ( 62354 PWs)   bands (ev):

   -66.0602 -66.0602 -66.0600 -66.0600 -66.0593 -66.0593 -66.0591 -66.0591
   -30.4852 -30.4852 -30.4820 -30.4820 -30.4553 -30.4553 -30.4520 -30.4520
   -30.3937 -30.3937 -30.3859 -30.3859 -30.3533 -30.3533 -30.3494 -30.3494
   -30.3455 -30.3455 -30.3413 -30.3413 -30.3081 -30.3081 -30.3000 -30.3000
   -20.2109 -20.2109 -20.2107 -20.2107 -20.2097 -20.2097 -20.2096 -20.2096
   -20.2095 -20.2095 -20.2094 -20.2094 -20.2081 -20.2081 -20.2078 -20.2078
   -20.2001 -20.2001 -20.1994 -20.1994 -20.1987 -20.1987 -20.1986 -20.1986
   -20.1983 -20.1983 -20.1980 -20.1980 -20.1973 -20.1973 -20.1968 -20.1968
   -20.1859 -20.1859 -20.1857 -20.1857 -20.1854 -20.1854 -20.1853 -20.1853
   -20.1575 -20.1575 -20.1571 -20.1571 -20.1557 -20.1557 -20.1554 -20.1554
   -20.1545 -20.1545 -20.1542 -20.1542 -20.1523 -20.1523 -20.1518 -20.1518
    -9.4682  -9.4682  -9.3072  -9.3072  -8.9529  -8.9529  -8.7228  -8.7228
    -8.5711  -8.5711  -8.5416  -8.5416  -8.4743  -8.4742  -8.3999  -8.3999
    -8.1579  -8.1579  -8.1246  -8.1246  -7.7972  -7.7972  -7.7757  -7.7757
     1.6188   1.6188   1.6384   1.6384   2.3636   2.3636   2.4789   2.4789
     2.9802   2.9802   3.0892   3.0892   3.1209   3.1209   3.2893   3.2893
     3.3303   3.3303   3.4589   3.4589   3.5018   3.5018   3.6978   3.6978
     4.0582   4.0582   4.0871   4.0871   4.1323   4.1323   4.3645   4.3646
     4.7294   4.7294   4.8032   4.8032   4.9813   4.9813   5.0333   5.0333
     5.1437   5.1437   5.5117   5.5117   5.9024   5.9024   5.9144   5.9144
     6.6685   6.6685   6.7782   6.7782   6.8374   6.8374   6.8697   6.8697
     7.0173   7.0173   7.0648   7.0648   7.1726   7.1726   7.5191   7.5191
     7.5520   7.5520   7.5845   7.5846   7.6194   7.6194   7.8213   7.8213
    10.8485  10.8485  11.2821  11.2821  11.3337  11.3337  11.7829  11.7829
    12.0342  12.0342  12.2032  12.2032  12.5726  12.5726  12.6332  12.6332
    12.8239  12.8239  12.9504  12.9504  13.2944  13.2944  13.6998  13.6998
    15.3871  15.3871  15.9952  15.9952  16.3384  16.3384  16.4723  16.4723
    16.9303  16.9303  17.2633  17.2633  17.8461

          k = 0.1667-0.4746 0.0000 ( 62358 PWs)   bands (ev):

   -66.0606 -66.0605 -66.0598 -66.0597 -66.0596 -66.0595 -66.0588 -66.0587
   -30.4719 -30.4718 -30.4690 -30.4686 -30.4680 -30.4676 -30.4650 -30.4648
   -30.4026 -30.3982 -30.3974 -30.3940 -30.3910 -30.3909 -30.3885 -30.3833
   -30.3103 -30.3063 -30.3037 -30.3027 -30.3002 -30.2974 -30.2958 -30.2918
   -20.2100 -20.2099 -20.2098 -20.2098 -20.2096 -20.2096 -20.2096 -20.2095
   -20.2095 -20.2094 -20.2093 -20.2092 -20.2091 -20.2090 -20.2090 -20.2088
   -20.2001 -20.2001 -20.1999 -20.1999 -20.1996 -20.1995 -20.1995 -20.1993
   -20.1976 -20.1975 -20.1973 -20.1973 -20.1970 -20.1969 -20.1968 -20.1967
   -20.1862 -20.1861 -20.1858 -20.1857 -20.1856 -20.1855 -20.1852 -20.1851
   -20.1586 -20.1584 -20.1581 -20.1578 -20.1573 -20.1571 -20.1568 -20.1563
   -20.1531 -20.1526 -20.1526 -20.1523 -20.1517 -20.1514 -20.1511 -20.1510
    -9.7003  -9.6980  -9.3251  -9.3054  -9.2239  -9.2042  -8.9709  -8.9688
    -8.5221  -8.5220  -8.4653  -8.4634  -8.4552  -8.4551  -8.4516  -8.4500
    -7.8675  -7.8489  -7.7389  -7.7331  -7.7181  -7.7126  -7.6126  -7.5948
     1.3212   1.3307   1.3327   1.3463   1.5840   1.5979   1.8198   1.8289
     2.5576   2.5580   3.1355   3.1470   3.2068   3.2170   3.2411   3.2704
     3.2744   3.3009   3.3051   3.3532   3.4452   3.4988   3.5103   3.5490
     3.6905   3.6920   4.4747   4.4770   4.8755   4.8961   4.9768   5.0015
     5.1162   5.1174   5.1849   5.1900   5.3171   5.3217   5.4933   5.5042
     5.7328   5.7358   5.7927   5.7977   6.1100   6.1424   6.1435   6.1547
     6.3856   6.3951   6.4120   6.4574   6.7093   6.7395   6.8943   6.9225
     7.0069   7.0123   7.1641   7.1808   7.2016   7.2313   7.4431   7.4566
     7.4679   7.4786   7.4987   7.5111   7.5207   7.5298   7.8554   7.8557
     9.6987   9.7050  11.2533  11.2735  11.3252  11.3415  11.3900  11.4022
    11.4590  11.4819  12.2736  12.3036  12.4202  12.4518  12.9865  12.9866
    13.4020  13.4099  13.4910  13.5099  13.5876  13.6087  13.6270  13.6312
    15.4050  15.4299  15.5932  15.6148  15.6723  15.7003  15.9677  15.9896
    16.6010  16.6022  17.8402  17.8489  17.9515

          k = 0.1667-0.4746 0.1666 ( 62322 PWs)   bands (ev):

   -66.0606 -66.0605 -66.0597 -66.0597 -66.0596 -66.0596 -66.0588 -66.0588
   -30.4717 -30.4717 -30.4689 -30.4688 -30.4679 -30.4679 -30.4652 -30.4651
   -30.3961 -30.3961 -30.3917 -30.3914 -30.3883 -30.3881 -30.3841 -30.3836
   -30.3104 -30.3100 -30.3070 -30.3070 -30.3023 -30.3018 -30.2983 -30.2980
   -20.2100 -20.2099 -20.2098 -20.2098 -20.2097 -20.2096 -20.2096 -20.2096
   -20.2095 -20.2094 -20.2093 -20.2092 -20.2091 -20.2091 -20.2090 -20.2089
   -20.2001 -20.1999 -20.1999 -20.1997 -20.1995 -20.1994 -20.1993 -20.1993
   -20.1977 -20.1975 -20.1975 -20.1974 -20.1970 -20.1970 -20.1969 -20.1968
   -20.1861 -20.1860 -20.1858 -20.1856 -20.1856 -20.1855 -20.1852 -20.1851
   -20.1582 -20.1582 -20.1579 -20.1577 -20.1570 -20.1569 -20.1567 -20.1564
   -20.1530 -20.1530 -20.1527 -20.1525 -20.1518 -20.1518 -20.1514 -20.1512
    -9.6428  -9.6428  -9.2405  -9.2398  -9.2213  -9.2205  -8.9331  -8.9329
    -8.5292  -8.5291  -8.4592  -8.4588  -8.4562  -8.4558  -8.4516  -8.4514
    -7.8587  -7.8580  -7.8400  -7.8390  -7.7553  -7.7552  -7.7097  -7.7094
     1.4978   1.4979   1.5883   1.5899   1.6027   1.6045   1.9071   1.9073
[...]
    11.6193  11.6193  11.6398  11.6398  11.6924  11.6924  11.7097  11.7097
    12.0251  12.0251  12.0306  12.0306  12.2220  12.2220  12.2248  12.2248
    13.0130  13.0130  13.0228  13.0228  13.1899  13.1899  13.1986  13.1986
    15.3124  15.3124  15.3134  15.3135  16.7461  16.7461  16.7591  16.7592
    17.6856  17.6856  17.6952  17.6952  17.9340

          k =-0.5000 0.3164 0.0000 ( 62384 PWs)   bands (ev):

   -66.0603 -66.0603 -66.0600 -66.0600 -66.0593 -66.0593 -66.0591 -66.0591
   -30.4853 -30.4853 -30.4817 -30.4817 -30.4554 -30.4554 -30.4517 -30.4517
   -30.4005 -30.4005 -30.3931 -30.3931 -30.3532 -30.3532 -30.3488 -30.3488
   -30.3454 -30.3454 -30.3405 -30.3405 -30.3019 -30.3019 -30.2938 -30.2938
   -20.2110 -20.2110 -20.2106 -20.2106 -20.2097 -20.2097 -20.2096 -20.2096
   -20.2095 -20.2095 -20.2094 -20.2094 -20.2081 -20.2081 -20.2078 -20.2078
   -20.2002 -20.2002 -20.1997 -20.1997 -20.1988 -20.1988 -20.1987 -20.1987
   -20.1982 -20.1982 -20.1980 -20.1980 -20.1972 -20.1972 -20.1966 -20.1966
   -20.1859 -20.1859 -20.1858 -20.1858 -20.1855 -20.1855 -20.1853 -20.1853
   -20.1580 -20.1580 -20.1577 -20.1577 -20.1557 -20.1557 -20.1553 -20.1553
   -20.1543 -20.1543 -20.1538 -20.1538 -20.1520 -20.1520 -20.1517 -20.1517
    -9.5381  -9.5381  -9.3902  -9.3902  -8.9391  -8.9391  -8.7442  -8.7442
    -8.5548  -8.5548  -8.5449  -8.5449  -8.4867  -8.4867  -8.3954  -8.3954
    -8.1604  -8.1604  -8.1197  -8.1197  -7.6751  -7.6751  -7.6536  -7.6536
     1.3623   1.3623   1.3794   1.3794   2.3606   2.3606   2.4960   2.4960
     2.9091   2.9091   3.0632   3.0632   3.1144   3.1144   3.2834   3.2834
     3.3287   3.3287   3.3725   3.3725   3.4442   3.4442   3.6499   3.6499
     4.0551   4.0551   4.0817   4.0817   4.1459   4.1459   4.3593   4.3593
     4.8071   4.8071   4.9058   4.9058   5.1121   5.1121   5.2845   5.2845
     5.4365   5.4365   5.7206   5.7206   6.2901   6.2901   6.3492   6.3492
     6.4744   6.4744   6.5305   6.5305   6.5465   6.5465   6.7631   6.7631
     7.0368   7.0368   7.0553   7.0553   7.0918   7.0918   7.5124   7.5124
     7.5345   7.5345   7.5733   7.5733   7.6061   7.6061   7.8414   7.8414
    10.6844  10.6844  11.2050  11.2050  11.2509  11.2509  11.7153  11.7153
    12.0239  12.0239  12.1672  12.1673  12.5875  12.5875  12.6708  12.6708
    12.8685  12.8685  13.0022  13.0022  13.4560  13.4560  13.8478  13.8478
    15.1736  15.1736  15.7203  15.7203  16.2698  16.2698  16.4824  16.4825
    16.8660  16.8660  17.2239  17.2239  17.9518

          k =-0.5000 0.3164 0.1666 ( 62346 PWs)   bands (ev):

   -66.0602 -66.0602 -66.0600 -66.0600 -66.0593 -66.0593 -66.0591 -66.0591
   -30.4852 -30.4852 -30.4820 -30.4820 -30.4553 -30.4553 -30.4520 -30.4520
   -30.3939 -30.3939 -30.3865 -30.3865 -30.3529 -30.3529 -30.3491 -30.3491
   -30.3451 -30.3451 -30.3408 -30.3408 -30.3085 -30.3085 -30.3004 -30.3004
   -20.2110 -20.2109 -20.2107 -20.2107 -20.2097 -20.2097 -20.2096 -20.2096
   -20.2095 -20.2095 -20.2094 -20.2094 -20.2081 -20.2081 -20.2078 -20.2078
   -20.2000 -20.2000 -20.1995 -20.1995 -20.1988 -20.1988 -20.1986 -20.1986
   -20.1982 -20.1982 -20.1980 -20.1980 -20.1974 -20.1974 -20.1968 -20.1968
   -20.1858 -20.1858 -20.1858 -20.1858 -20.1855 -20.1855 -20.1853 -20.1853
   -20.1576 -20.1576 -20.1574 -20.1574 -20.1556 -20.1556 -20.1552 -20.1552
   -20.1544 -20.1544 -20.1539 -20.1539 -20.1524 -20.1524 -20.1521 -20.1521
    -9.4686  -9.4686  -9.3080  -9.3080  -8.9531  -8.9531  -8.7232  -8.7231
    -8.5703  -8.5703  -8.5411  -8.5411  -8.4734  -8.4734  -8.3994  -8.3994
    -8.1574  -8.1574  -8.1246  -8.1246  -7.7977  -7.7977  -7.7764  -7.7764
     1.6171   1.6171   1.6364   1.6364   2.3632   2.3632   2.4786   2.4786
     2.9832   2.9832   3.0874   3.0874   3.1188   3.1188   3.2902   3.2902
     3.3301   3.3301   3.4617   3.4617   3.5025   3.5025   3.6974   3.6974
     4.0540   4.0540   4.0835   4.0835   4.1420   4.1420   4.3670   4.3670
     4.7280   4.7280   4.8007   4.8007   4.9812   4.9812   5.0336   5.0337
     5.1445   5.1445   5.5115   5.5115   5.9015   5.9015   5.9139   5.9139
     6.6686   6.6686   6.7800   6.7800   6.8383   6.8383   6.8700   6.8700
     7.0154   7.0154   7.0657   7.0657   7.1713   7.1713   7.5178   7.5178
     7.5491   7.5491   7.5882   7.5882   7.6209   7.6209   7.8219   7.8219
    10.8481  10.8481  11.2830  11.2830  11.3333  11.3333  11.7752  11.7752
    12.0351  12.0351  12.2044  12.2044  12.5723  12.5723  12.6383  12.6383
    12.8243  12.8243  12.9531  12.9531  13.2934  13.2934  13.7016  13.7016
    15.3873  15.3873  15.9931  15.9931  16.3382  16.3382  16.4724  16.4724
    16.9255  16.9255  17.2636  17.2636  17.8442

          k =-0.5000 0.3164 0.3333 ( 62358 PWs)   bands (ev):

   -66.0600 -66.0600 -66.0598 -66.0598 -66.0595 -66.0595 -66.0593 -66.0593
   -30.4847 -30.4847 -30.4828 -30.4828 -30.4547 -30.4547 -30.4528 -30.4528
   -30.3761 -30.3760 -30.3686 -30.3685 -30.3518 -30.3518 -30.3501 -30.3501
   -30.3443 -30.3443 -30.3416 -30.3416 -30.3264 -30.3264 -30.3185 -30.3185
   -20.2109 -20.2109 -20.2107 -20.2107 -20.2097 -20.2097 -20.2096 -20.2096
   -20.2095 -20.2095 -20.2095 -20.2094 -20.2081 -20.2081 -20.2079 -20.2079
   -20.1995 -20.1995 -20.1992 -20.1992 -20.1989 -20.1989 -20.1985 -20.1984
   -20.1983 -20.1983 -20.1980 -20.1980 -20.1977 -20.1977 -20.1973 -20.1972
   -20.1857 -20.1857 -20.1857 -20.1857 -20.1855 -20.1855 -20.1854 -20.1854
   -20.1566 -20.1566 -20.1564 -20.1564 -20.1553 -20.1553 -20.1550 -20.1550
   -20.1547 -20.1547 -20.1542 -20.1541 -20.1535 -20.1535 -20.1532 -20.1532
    -9.2925  -9.2925  -9.0830  -9.0830  -9.0014  -9.0014  -8.6567  -8.6567
    -8.6218  -8.6218  -8.5088  -8.5088  -8.4479  -8.4479  -8.4077  -8.4077
    -8.1662  -8.1662  -8.1434  -8.1434  -8.0890  -8.0890  -8.0503  -8.0503
     2.2301   2.2301   2.3166   2.3166   2.3749   2.3749   2.5087   2.5087
     3.0676   3.0676   3.1211   3.1211   3.2018   3.2018   3.2899   3.2899
     3.3706   3.3706   3.6242   3.6242   3.7285   3.7285   3.8225   3.8225
     4.0335   4.0335   4.0939   4.0939   4.1402   4.1402   4.2457   4.2457
     4.3351   4.3351   4.4743   4.4743   4.6171   4.6171   4.8401   4.8401
     4.9594   4.9594   5.0177   5.0177   5.0846   5.0846   5.2966   5.2966
     6.8460   6.8460   6.9032   6.9032   6.9667   6.9667   7.0287   7.0287
     7.1701   7.1701   7.2922   7.2922   7.4020   7.4020   7.5057   7.5057
     7.5526   7.5526   7.6206   7.6207   7.6449   7.6449   7.7696   7.7696
    11.2716  11.2716  11.5260  11.5260  11.6096  11.6096  11.8730  11.8730
    12.0804  12.0804  12.3386  12.3386  12.3856  12.3856  12.4274  12.4274
    12.7302  12.7302  12.8250  12.8250  12.9030  12.9030  13.3168  13.3168
    15.9037  15.9037  16.3925  16.3925  16.5781  16.5781  16.7465  16.7465
    17.1529  17.1529  17.3321  17.3321  17.6062

          k =-0.5000 0.3164-0.4999 ( 62340 PWs)   bands (ev):

   -66.0598 -66.0598 -66.0598 -66.0598 -66.0595 -66.0595 -66.0595 -66.0595
   -30.4838 -30.4838 -30.4838 -30.4838 -30.4538 -30.4538 -30.4538 -30.4538
   -30.3525 -30.3525 -30.3525 -30.3525 -30.3515 -30.3515 -30.3512 -30.3512
   -30.3429 -30.3429 -30.3427 -30.3427 -30.3421 -30.3421 -30.3420 -30.3420
   -20.2109 -20.2108 -20.2108 -20.2108 -20.2096 -20.2096 -20.2096 -20.2096
   -20.2095 -20.2095 -20.2095 -20.2095 -20.2080 -20.2080 -20.2080 -20.2080
   -20.1991 -20.1991 -20.1990 -20.1990 -20.1989 -20.1989 -20.1987 -20.1987
   -20.1981 -20.1981 -20.1979 -20.1979 -20.1978 -20.1978 -20.1977 -20.1977
   -20.1856 -20.1856 -20.1856 -20.1856 -20.1855 -20.1855 -20.1855 -20.1855
   -20.1553 -20.1553 -20.1552 -20.1552 -20.1552 -20.1552 -20.1552 -20.1552
   -20.1546 -20.1546 -20.1545 -20.1545 -20.1544 -20.1544 -20.1544 -20.1544
    -9.1103  -9.1103  -9.1085  -9.1085  -8.8074  -8.8074  -8.8022  -8.8022
    -8.5046  -8.5046  -8.4949  -8.4949  -8.3793  -8.3793  -8.3741  -8.3740
    -8.3630  -8.3630  -8.3521  -8.3521  -8.1289  -8.1289  -8.1281  -8.1281
     2.3741   2.3741   2.3747   2.3747   3.0220   3.0220   3.0298   3.0298
     3.1233   3.1233   3.1244   3.1244   3.2546   3.2546   3.2709   3.2709
     3.3272   3.3272   3.3330   3.3330   3.9459   3.9459   3.9782   3.9782
     3.9894   3.9894   4.0091   4.0091   4.0738   4.0738   4.0915   4.0915
     4.3263   4.3263   4.3435   4.3435   4.3658   4.3658   4.3686   4.3686
     4.7158   4.7158   4.7159   4.7159   5.0268   5.0268   5.0285   5.0285
     6.9019   6.9019   6.9119   6.9119   7.0014   7.0014   7.0100   7.0100
     7.3964   7.3964   7.3996   7.3996   7.4804   7.4804   7.4919   7.4919
     7.5977   7.5977   7.5980   7.5980   7.6937   7.6937   7.6995   7.6995
    11.7634  11.7634  11.7721  11.7721  11.8381  11.8381  11.8459  11.8459
    12.0656  12.0656  12.0692  12.0692  12.3086  12.3086  12.3108  12.3108
    12.6939  12.6939  12.7019  12.7019  12.8902  12.8902  12.8960  12.8960
    16.2585  16.2585  16.2592  16.2592  16.9308  16.9308  16.9402  16.9402
    17.4490  17.4490  17.4666  17.4666  17.9277

          k =-0.5000-0.4746 0.0000 ( 62368 PWs)   bands (ev):

   -66.0602 -66.0602 -66.0601 -66.0601 -66.0592 -66.0592 -66.0591 -66.0591
   -30.4707 -30.4707 -30.4700 -30.4700 -30.4670 -30.4670 -30.4665 -30.4665
   -30.4005 -30.4005 -30.3932 -30.3932 -30.3532 -30.3532 -30.3487 -30.3487
   -30.3455 -30.3455 -30.3406 -30.3405 -30.3018 -30.3018 -30.2939 -30.2939
   -20.2099 -20.2099 -20.2098 -20.2098 -20.2096 -20.2096 -20.2096 -20.2096
   -20.2094 -20.2094 -20.2093 -20.2093 -20.2091 -20.2091 -20.2090 -20.2090
   -20.2000 -20.2000 -20.1998 -20.1997 -20.1987 -20.1987 -20.1986 -20.1986
   -20.1983 -20.1983 -20.1981 -20.1981 -20.1971 -20.1971 -20.1968 -20.1968
   -20.1859 -20.1859 -20.1858 -20.1858 -20.1855 -20.1855 -20.1853 -20.1853
   -20.1580 -20.1580 -20.1577 -20.1577 -20.1557 -20.1557 -20.1553 -20.1553
   -20.1543 -20.1543 -20.1538 -20.1538 -20.1520 -20.1520 -20.1517 -20.1517
    -9.4577  -9.4577  -9.4425  -9.4425  -8.7014  -8.7013  -8.6880  -8.6880
    -8.6083  -8.6083  -8.5989  -8.5989  -8.4037  -8.4037  -8.3869  -8.3868
    -8.3329  -8.3329  -8.3156  -8.3156  -7.6734  -7.6734  -7.6554  -7.6554
     1.3642   1.3642   1.3805   1.3805   2.9968   2.9968   3.0478   3.0478
     3.1551   3.1551   3.1683   3.1683   3.2063   3.2063   3.2104   3.2104
     3.3192   3.3192   3.3341   3.3341   3.4413   3.4413   3.4894   3.4894
     3.5573   3.5573   3.6872   3.6872   4.2851   4.2851   4.3128   4.3128
     4.3838   4.3838   4.4293   4.4293   5.2066   5.2066   5.2228   5.2228
     5.5035   5.5035   5.5250   5.5250   6.3368   6.3368   6.3440   6.3440
     6.5218   6.5218   6.5431   6.5431   6.6267   6.6268   6.6577   6.6577
     7.2770   7.2770   7.2984   7.2984   7.3249   7.3249   7.4119   7.4119
     7.4436   7.4436   7.4896   7.4896   7.5957   7.5957   7.6049   7.6049
    11.1916  11.1916  11.2078  11.2078  11.3208  11.3208  11.3316  11.3316
    12.2736  12.2736  12.3026  12.3026  12.3327  12.3327  12.3585  12.3585
    12.8943  12.8943  12.9138  12.9138  13.6044  13.6044  13.6169  13.6169
    15.5213  15.5213  15.5494  15.5494  16.8061  16.8061  16.8398  16.8399
    17.3552  17.3552  17.3863  17.3864  17.4962

          k =-0.5000-0.4746 0.1666 ( 62320 PWs)   bands (ev):

   -66.0601 -66.0601 -66.0600 -66.0600 -66.0593 -66.0593 -66.0592 -66.0592
   -30.4705 -30.4705 -30.4699 -30.4699 -30.4672 -30.4672 -30.4668 -30.4668
   -30.3939 -30.3939 -30.3866 -30.3866 -30.3528 -30.3528 -30.3491 -30.3491
   -30.3452 -30.3452 -30.3409 -30.3409 -30.3084 -30.3084 -30.3005 -30.3005
   -20.2099 -20.2099 -20.2098 -20.2098 -20.2096 -20.2096 -20.2096 -20.2096
   -20.2094 -20.2094 -20.2093 -20.2093 -20.2091 -20.2091 -20.2090 -20.2090
   -20.1998 -20.1998 -20.1996 -20.1996 -20.1987 -20.1987 -20.1986 -20.1986
   -20.1983 -20.1983 -20.1981 -20.1981 -20.1973 -20.1973 -20.1970 -20.1970
   -20.1858 -20.1858 -20.1858 -20.1858 -20.1855 -20.1855 -20.1853 -20.1853
   -20.1576 -20.1576 -20.1574 -20.1574 -20.1556 -20.1556 -20.1552 -20.1552
   -20.1544 -20.1544 -20.1539 -20.1539 -20.1524 -20.1524 -20.1521 -20.1521
    -9.3793  -9.3793  -9.3651  -9.3651  -8.7202  -8.7202  -8.7069  -8.7069
    -8.5908  -8.5908  -8.5805  -8.5805  -8.4011  -8.4011  -8.3843  -8.3843
    -8.3350  -8.3350  -8.3181  -8.3181  -7.7961  -7.7961  -7.7783  -7.7783
     1.6221   1.6221   1.6379   1.6379   3.0015   3.0015   3.0504   3.0504
     3.1412   3.1413   3.1604   3.1604   3.2139   3.2139   3.2738   3.2738
     3.3126   3.3126   3.4206   3.4206   3.4924   3.4924   3.5421   3.5421
     3.5944   3.5944   3.7166   3.7166   4.2882   4.2882   4.3127   4.3127
     4.3769   4.3769   4.4220   4.4220   4.8783   4.8783   5.0442   5.0442
     5.1489   5.1489   5.2983   5.2983   5.9030   5.9030   5.9156   5.9156
     6.7447   6.7447   6.7897   6.7897   6.8736   6.8736   6.9111   6.9111
     7.2691   7.2691   7.2970   7.2970   7.3496   7.3496   7.4052   7.4052
     7.4429   7.4429   7.4975   7.4975   7.6040   7.6040   7.6303   7.6303
    11.2508  11.2508  11.2899  11.2899  11.4215  11.4215  11.4882  11.4882
    12.2721  12.2721  12.3070  12.3070  12.3341  12.3341  12.3668  12.3668
    12.7986  12.7986  12.8707  12.8707  13.4285  13.4286  13.4774  13.4774
    15.7856  15.7856  15.8184  15.8184  16.8638  16.8638  16.8967  16.8967
    17.3606  17.3606  17.3983  17.3983  17.4851

          k =-0.5000-0.4746 0.3333 ( 62308 PWs)   bands (ev):

   -66.0599 -66.0599 -66.0599 -66.0599 -66.0595 -66.0595 -66.0594 -66.0594
   -30.4698 -30.4698 -30.4695 -30.4695 -30.4680 -30.4680 -30.4676 -30.4676
   -30.3760 -30.3760 -30.3686 -30.3686 -30.3517 -30.3517 -30.3500 -30.3500
   -30.3444 -30.3444 -30.3417 -30.3417 -30.3264 -30.3264 -30.3185 -30.3185
   -20.2099 -20.2099 -20.2098 -20.2098 -20.2097 -20.2097 -20.2096 -20.2096
   -20.2094 -20.2094 -20.2093 -20.2093 -20.2091 -20.2091 -20.2090 -20.2090
   -20.1993 -20.1993 -20.1992 -20.1992 -20.1988 -20.1988 -20.1984 -20.1984
   -20.1984 -20.1984 -20.1981 -20.1981 -20.1977 -20.1977 -20.1974 -20.1974
   -20.1857 -20.1857 -20.1857 -20.1857 -20.1855 -20.1855 -20.1854 -20.1854
   -20.1566 -20.1566 -20.1564 -20.1564 -20.1553 -20.1553 -20.1550 -20.1550
   -20.1547 -20.1547 -20.1542 -20.1541 -20.1535 -20.1535 -20.1532 -20.1532
    -9.1691  -9.1691  -9.1588  -9.1588  -8.7814  -8.7814  -8.7697  -8.7697
    -8.5310  -8.5310  -8.5220  -8.5220  -8.3942  -8.3942  -8.3803  -8.3803
    -8.3389  -8.3388  -8.3242  -8.3242  -8.0889  -8.0889  -8.0726  -8.0726
     2.3023   2.3023   2.3170   2.3170   3.0121   3.0121   3.0431   3.0431
     3.1330   3.1330   3.1497   3.1497   3.2675   3.2675   3.2921   3.2921
     3.3958   3.3958   3.4320   3.4320   3.6444   3.6444   3.6743   3.6743
     3.7978   3.7978   3.8598   3.8598   4.2555   4.2555   4.2805   4.2805
     4.3315   4.3315   4.3887   4.3887   4.4618   4.4618   4.5744   4.5744
     4.6577   4.6577   4.8097   4.8097   5.0926   5.0926   5.1095   5.1095
     7.0104   7.0104   7.0635   7.0635   7.1840   7.1840   7.1986   7.1986
     7.2730   7.2731   7.3117   7.3117   7.3449   7.3449   7.4025   7.4025
     7.4851   7.4851   7.5500   7.5500   7.6264   7.6264   7.6505   7.6506
    11.4845  11.4845  11.5235  11.5235  11.7700  11.7701  11.8511  11.8511
    12.2237  12.2237  12.2753  12.2753  12.3398  12.3398  12.3715  12.3715
    12.5341  12.5341  12.6457  12.6457  12.9943  12.9943  13.0752  13.0752
    16.5071  16.5071  16.5631  16.5631  17.0363  17.0364  17.0537  17.0537
    17.3394  17.3394  17.4146  17.4147  17.4587

          k =-0.5000-0.4746-0.4999 ( 62360 PWs)   bands (ev):

   -66.0597 -66.0597 -66.0597 -66.0597 -66.0596 -66.0596 -66.0596 -66.0596
   -30.4690 -30.4690 -30.4688 -30.4688 -30.4687 -30.4687 -30.4686 -30.4686
   -30.3521 -30.3521 -30.3521 -30.3521 -30.3518 -30.3518 -30.3517 -30.3517
   -30.3427 -30.3427 -30.3425 -30.3425 -30.3424 -30.3424 -30.3422 -30.3422
   -20.2098 -20.2098 -20.2098 -20.2098 -20.2097 -20.2097 -20.2097 -20.2097
   -20.2094 -20.2094 -20.2093 -20.2093 -20.2091 -20.2091 -20.2091 -20.2091
   -20.1990 -20.1990 -20.1989 -20.1989 -20.1988 -20.1988 -20.1987 -20.1987
   -20.1980 -20.1980 -20.1980 -20.1980 -20.1979 -20.1979 -20.1979 -20.1979
   -20.1856 -20.1856 -20.1856 -20.1856 -20.1855 -20.1855 -20.1855 -20.1855
   -20.1553 -20.1553 -20.1552 -20.1552 -20.1552 -20.1552 -20.1552 -20.1552
   -20.1546 -20.1546 -20.1545 -20.1545 -20.1544 -20.1544 -20.1544 -20.1544
    -8.9295  -8.9295  -8.9213  -8.9213  -8.9198  -8.9197  -8.9182  -8.9182
    -8.4120  -8.4120  -8.3948  -8.3948  -8.3921  -8.3921  -8.3914  -8.3914
    -8.3409  -8.3409  -8.3392  -8.3391  -8.3323  -8.3323  -8.3242  -8.3242
     3.0090   3.0090   3.0121   3.0121   3.0200   3.0200   3.0278   3.0278
     3.1706   3.1706   3.1748   3.1748   3.1851   3.1851   3.1962   3.1962
     3.4039   3.4039   3.4562   3.4562   3.4708   3.4708   3.5035   3.5035
     4.1593   4.1593   4.1705   4.1705   4.1720   4.1720   4.1728   4.1728
     4.3644   4.3644   4.3682   4.3682   4.3779   4.3780   4.3827   4.3827
     4.4561   4.4561   4.4749   4.4749   4.4789   4.4789   4.4799   4.4800
     7.1379   7.1379   7.1861   7.1861   7.2029   7.2030   7.2637   7.2637
     7.3320   7.3321   7.3396   7.3396   7.3429   7.3429   7.3446   7.3446
     7.6017   7.6017   7.6116   7.6116   7.6164   7.6164   7.6323   7.6323
    11.8718  11.8718  11.8736  11.8736  11.8754  11.8754  11.8807  11.8807
    12.2475  12.2475  12.2887  12.2887  12.3047  12.3047  12.3607  12.3607
    12.5321  12.5321  12.5583  12.5583  12.5657  12.5657  12.5810  12.5810
    17.1244  17.1244  17.1486  17.1486  17.1579  17.1579  17.1825  17.1826
    17.3977  17.3978  17.4023  17.4023  17.4096

     the Fermi energy is     9.9124 ev

!    total energy              =   -6260.68704158 Ry
     Harris-Foulkes estimate   =   -6260.68704158 Ry
     estimated scf accuracy    <          4.4E-09 Ry

     The total energy is the sum of the following terms:

     one-electron contribution =   -4728.52596054 Ry
     hartree contribution      =    2602.44515882 Ry
     xc contribution           =    -966.33253874 Ry
     ewald contribution        =   -3168.27369046 Ry
     smearing contrib. (-TS)   =      -0.00001065 Ry

     convergence has been achieved in  14 iterations

     Writing output data file Landau_4.save
 
     init_run     :     46.58s CPU     48.74s WALL (       1 calls)
     electrons    :   1964.33s CPU   2009.52s WALL (       1 calls)

     Called by init_run:
     wfcinit      :     43.71s CPU     45.70s WALL (       1 calls)
     potinit      :      1.10s CPU      1.13s WALL (       1 calls)

     Called by electrons:
     c_bands      :   1764.42s CPU   1806.70s WALL (      14 calls)
     sum_band     :    190.90s CPU    192.55s WALL (      14 calls)
     v_of_rho     :      1.59s CPU      1.62s WALL (      15 calls)
     mix_rho      :      2.94s CPU      3.71s WALL (      14 calls)

     Called by c_bands:
     init_us_2    :      8.84s CPU      9.54s WALL (      58 calls)
     cegterg      :   1522.39s CPU   1562.35s WALL (      28 calls)

     Called by sum_band:

     Called by *egterg:
     h_psi        :   1126.10s CPU   1135.43s WALL (     116 calls)
     g_psi        :      1.67s CPU      1.68s WALL (      86 calls)
     cdiaghg      :     18.91s CPU     19.00s WALL (     114 calls)

     Called by h_psi:
     h_psi:pot    :   1121.47s CPU   1130.44s WALL (     116 calls)
     h_psi:calbec :    180.01s CPU    184.75s WALL (     116 calls)
     vloc_psi     :    758.37s CPU    761.10s WALL (     116 calls)
     add_vuspsi   :    183.08s CPU    184.59s WALL (     116 calls)

     General routines
     calbec       :    180.01s CPU    184.75s WALL (     116 calls)
     fft          :      1.37s CPU      1.39s WALL (      60 calls)
     fftw         :    815.88s CPU    818.20s WALL (   35988 calls)
 
     Parallel routines
 
     PWSCF        : 33m32.51s CPU    34m25.89s WALL

 
   This run was terminated on:  19:48:58  25Mar2020            

=------------------------------------------------------------------------------=
   JOB DONE.
=------------------------------------------------------------------------------=
