
     Program PWSCF v.6.4.1 starts on 22Nov2019 at  1:36: 4 

     This program is part of the open-source Quantum ESPRESSO suite
     for quantum simulation of materials; please cite
         "P. Giannozzi et al., J. Phys.:Condens. Matter 21 395502 (2009);
         "P. Giannozzi et al., J. Phys.:Condens. Matter 29 465901 (2017);
          URL http://www.quantum-espresso.org", 
     in publications or presentations arising from this work. More details at
     http://www.quantum-espresso.org/quote

     Parallel version (MPI), running on    40 processors

     MPI processes distributed on    10 nodes
     K-points division:     npool     =      40
     Reading input from scf.in

     Current dimensions of program PWSCF are:
     Max number of different atomic species (ntypx) = 10
     Max number of k-points (npk) =  40000
     Max angular momentum in pseudopotentials (lmaxx) =  3

     Subspace diagonalization in iterative solution of the eigenvalue problem:
     a serial algorithm will be used

     Message from routine setup:
     using ibrav=0 with symmetry is DISCOURAGED, use correct ibrav instead
 
     G-vector sticks info
     --------------------
     sticks:   dense  smooth     PW     G-vecs:    dense   smooth      PW
     Sum        7707    7707   2061               503737   503737   69867
 


     bravais-lattice index     =            0
     lattice parameter (alat)  =      14.0732  a.u.
     unit-cell volume          =    2837.1936 (a.u.)^3
     number of atoms/cell      =           32
     number of atomic types    =            2
     number of electrons       =       368.52
     number of Kohn-Sham states=          221
     kinetic-energy cutoff     =     120.0000  Ry
     charge density cutoff     =     480.0000  Ry
     convergence threshold     =      1.0E-08
     mixing beta               =       0.7000
     number of iterations used =            8  plain     mixing
     Exchange-correlation      = SLA PW NOGX NOGC ( 1  4  0  0 0 0)

     celldm(1)=  14.073194  celldm(2)=   0.000000  celldm(3)=   0.000000
     celldm(4)=   0.000000  celldm(5)=   0.000000  celldm(6)=   0.000000

     crystal axes: (cart. coord. in units of alat)
               a(1) = (   1.000000   0.000000   0.000000 )  
               a(2) = (   0.000000   1.019270   0.000000 )  
               a(3) = (   0.000000   0.000000   0.998669 )  

     reciprocal axes: (cart. coord. in units 2 pi/alat)
               b(1) = (  1.000000  0.000000  0.000000 )  
               b(2) = (  0.000000  0.981094  0.000000 )  
               b(3) = (  0.000000  0.000000  1.001332 )  


     PseudoPot. # 1 for W  read from file:
     /cluster/scratch/mnoe/QE/pps/W_ONCV_LDA-4.0.upf
     MD5 check sum: ba0307d5d4cd419d6f1d13dc49d7c13a
     Pseudo is Norm-conserving + core correction, Zval = 28.0
     Generated using ONCVPSP code by D. R. Hamann
     Using radial grid of 1380 points,  8 beta functions with: 
                l(1) =   0
                l(2) =   0
                l(3) =   1
                l(4) =   1
                l(5) =   2
                l(6) =   2
                l(7) =   3
                l(8) =   3

     PseudoPot. # 2 for O  read from file:
     /cluster/scratch/mnoe/QE/pps/O_ONCV_LDA-3.0.upf
     MD5 check sum: b55cdb4f45ae2203d24ad12cf8d61a31
     Pseudo is Norm-conserving + core correction, Zval =  6.0
     Generated using ONCVPSP code by D. R. Hamann
     Using radial grid of  926 points,  5 beta functions with: 
                l(1) =   0
                l(2) =   0
                l(3) =   1
                l(4) =   1
                l(5) =   2

     atomic species   valence    mass     pseudopotential
        W             28.00   183.84000     W ( 1.00)
        O              6.00    15.99940     O ( 1.00)

      8 Sym. Ops., with inversion, found ( 6 have fractional translation)



   Cartesian axes

     site n.     atom                  positions (alat units)
         1           W   tau(   1) = (   0.2379800   0.2962912   0.0113449  )
         2           W   tau(   2) = (   0.7620200   0.7229788   0.9873245  )
         3           W   tau(   3) = (   0.2620200   0.2133438   0.5106795  )
         4           W   tau(   4) = (   0.7379800   0.8059261   0.4879898  )
         5           W   tau(   5) = (   0.7620200   0.2962912   0.4879898  )
         6           W   tau(   6) = (   0.2379800   0.7229788   0.5106795  )
         7           W   tau(   7) = (   0.7379800   0.2133438   0.9873245  )
         8           W   tau(   8) = (   0.2620200   0.8059261   0.0113449  )
         9           O   tau(   9) = (   0.2278200   0.0255099   0.0035253  )
        10           O   tau(  10) = (   0.7721800   0.9937601   0.9951440  )
        11           O   tau(  11) = (   0.2721800   0.4841251   0.5028600  )
        12           O   tau(  12) = (   0.7278200   0.5351449   0.4958094  )
        13           O   tau(  13) = (   0.7721800   0.0255099   0.4958094  )
        14           O   tau(  14) = (   0.2278200   0.9937601   0.5028600  )
        15           O   tau(  15) = (   0.7278200   0.4841251   0.9951440  )
        16           O   tau(  16) = (   0.2721800   0.5351449   0.0035253  )
        17           O   tau(  17) = (   0.5032900   0.2316189   0.4945189  )
        18           O   tau(  18) = (   0.4967100   0.7876511   0.5041505  )
        19           O   tau(  19) = (   0.9967100   0.2780161   0.9938536  )
        20           O   tau(  20) = (   0.0032899   0.7412538   0.0048158  )
        21           O   tau(  21) = (   0.4967100   0.2316189   0.0048158  )
        22           O   tau(  22) = (   0.5032900   0.7876511   0.9938536  )
        23           O   tau(  23) = (   0.0032899   0.2780161   0.5041505  )
        24           O   tau(  24) = (   0.9967100   0.7412538   0.4945189  )
        25           O   tau(  25) = (   0.7451779   0.2497517   0.7440187  )
        26           O   tau(  26) = (   0.2548222   0.7695183   0.2546507  )
        27           O   tau(  27) = (   0.7548222   0.2598833   0.2446840  )
        28           O   tau(  28) = (   0.2451779   0.7593867   0.7539854  )
        29           O   tau(  29) = (   0.2548222   0.2497517   0.7539854  )
        30           O   tau(  30) = (   0.7451779   0.7695183   0.2446840  )
        31           O   tau(  31) = (   0.2451779   0.2598833   0.2546507  )
        32           O   tau(  32) = (   0.7548222   0.7593867   0.7440187  )

     number of k points=    64  gaussian smearing, width (Ry)=  0.0007
                       cart. coord. in units 2pi/alat
        k(    1) = (   0.0000000   0.0000000   0.0000000), wk =   0.0092593
        k(    2) = (   0.0000000   0.0000000   0.1668887), wk =   0.0185185
        k(    3) = (   0.0000000   0.0000000   0.3337775), wk =   0.0185185
        k(    4) = (   0.0000000   0.0000000  -0.5006662), wk =   0.0092593
        k(    5) = (   0.0000000   0.1635157   0.0000000), wk =   0.0185185
        k(    6) = (   0.0000000   0.1635157   0.1668887), wk =   0.0370370
        k(    7) = (   0.0000000   0.1635157   0.3337775), wk =   0.0370370
        k(    8) = (   0.0000000   0.1635157  -0.5006662), wk =   0.0185185
        k(    9) = (   0.0000000   0.3270314   0.0000000), wk =   0.0185185
        k(   10) = (   0.0000000   0.3270314   0.1668887), wk =   0.0370370
        k(   11) = (   0.0000000   0.3270314   0.3337775), wk =   0.0370370
        k(   12) = (   0.0000000   0.3270314  -0.5006662), wk =   0.0185185
        k(   13) = (   0.0000000  -0.4905472   0.0000000), wk =   0.0092593
        k(   14) = (   0.0000000  -0.4905472   0.1668887), wk =   0.0185185
        k(   15) = (   0.0000000  -0.4905472   0.3337775), wk =   0.0185185
        k(   16) = (   0.0000000  -0.4905472  -0.5006662), wk =   0.0092593
        k(   17) = (   0.1666667   0.0000000   0.0000000), wk =   0.0185185
        k(   18) = (   0.1666667   0.0000000   0.1668887), wk =   0.0370370
        k(   19) = (   0.1666667   0.0000000   0.3337775), wk =   0.0370370
        k(   20) = (   0.1666667   0.0000000  -0.5006662), wk =   0.0185185
        k(   21) = (   0.1666667   0.1635157   0.0000000), wk =   0.0370370
        k(   22) = (   0.1666667   0.1635157   0.1668887), wk =   0.0740741
        k(   23) = (   0.1666667   0.1635157   0.3337775), wk =   0.0740741
        k(   24) = (   0.1666667   0.1635157  -0.5006662), wk =   0.0370370
        k(   25) = (   0.1666667   0.3270314   0.0000000), wk =   0.0370370
        k(   26) = (   0.1666667   0.3270314   0.1668887), wk =   0.0740741
        k(   27) = (   0.1666667   0.3270314   0.3337775), wk =   0.0740741
        k(   28) = (   0.1666667   0.3270314  -0.5006662), wk =   0.0370370
        k(   29) = (   0.1666667  -0.4905472   0.0000000), wk =   0.0185185
        k(   30) = (   0.1666667  -0.4905472   0.1668887), wk =   0.0370370
        k(   31) = (   0.1666667  -0.4905472   0.3337775), wk =   0.0370370
        k(   32) = (   0.1666667  -0.4905472  -0.5006662), wk =   0.0185185
        k(   33) = (   0.3333333   0.0000000   0.0000000), wk =   0.0185185
        k(   34) = (   0.3333333   0.0000000   0.1668887), wk =   0.0370370
        k(   35) = (   0.3333333   0.0000000   0.3337775), wk =   0.0370370
        k(   36) = (   0.3333333   0.0000000  -0.5006662), wk =   0.0185185
        k(   37) = (   0.3333333   0.1635157   0.0000000), wk =   0.0370370
        k(   38) = (   0.3333333   0.1635157   0.1668887), wk =   0.0740741
        k(   39) = (   0.3333333   0.1635157   0.3337775), wk =   0.0740741
        k(   40) = (   0.3333333   0.1635157  -0.5006662), wk =   0.0370370
        k(   41) = (   0.3333333   0.3270314   0.0000000), wk =   0.0370370
        k(   42) = (   0.3333333   0.3270314   0.1668887), wk =   0.0740741
        k(   43) = (   0.3333333   0.3270314   0.3337775), wk =   0.0740741
        k(   44) = (   0.3333333   0.3270314  -0.5006662), wk =   0.0370370
        k(   45) = (   0.3333333  -0.4905472   0.0000000), wk =   0.0185185
        k(   46) = (   0.3333333  -0.4905472   0.1668887), wk =   0.0370370
        k(   47) = (   0.3333333  -0.4905472   0.3337775), wk =   0.0370370
        k(   48) = (   0.3333333  -0.4905472  -0.5006662), wk =   0.0185185
        k(   49) = (  -0.5000000   0.0000000   0.0000000), wk =   0.0092593
        k(   50) = (  -0.5000000   0.0000000   0.1668887), wk =   0.0185185
        k(   51) = (  -0.5000000   0.0000000   0.3337775), wk =   0.0185185
        k(   52) = (  -0.5000000   0.0000000  -0.5006662), wk =   0.0092593
        k(   53) = (  -0.5000000   0.1635157   0.0000000), wk =   0.0185185
        k(   54) = (  -0.5000000   0.1635157   0.1668887), wk =   0.0370370
        k(   55) = (  -0.5000000   0.1635157   0.3337775), wk =   0.0370370
        k(   56) = (  -0.5000000   0.1635157  -0.5006662), wk =   0.0185185
        k(   57) = (  -0.5000000   0.3270314   0.0000000), wk =   0.0185185
        k(   58) = (  -0.5000000   0.3270314   0.1668887), wk =   0.0370370
        k(   59) = (  -0.5000000   0.3270314   0.3337775), wk =   0.0370370
        k(   60) = (  -0.5000000   0.3270314  -0.5006662), wk =   0.0185185
        k(   61) = (  -0.5000000  -0.4905472   0.0000000), wk =   0.0092593
        k(   62) = (  -0.5000000  -0.4905472   0.1668887), wk =   0.0185185
        k(   63) = (  -0.5000000  -0.4905472   0.3337775), wk =   0.0185185
        k(   64) = (  -0.5000000  -0.4905472  -0.5006662), wk =   0.0092593

     Dense  grid:   503737 G-vectors     FFT dimensions: ( 100, 108, 100)

     Estimated max dynamical RAM per process >       3.16 GB

     Estimated total dynamical RAM >     126.47 GB

     Initial potential from superposition of free atoms

     starting charge  367.99656, renormalised to  368.52000
     Starting wfcs are  232 randomized atomic wfcs

     total cpu time spent up to now is       46.2 secs

     Self-consistent Calculation

     iteration #  1     ecut=   120.00 Ry     beta= 0.70
     Davidson diagonalization with overlap
     ethr =  1.00E-02,  avg # of iterations =  5.1

     total cpu time spent up to now is      199.8 secs

     total energy              =   -6253.31226354 Ry
     Harris-Foulkes estimate   =   -6264.29850756 Ry
     estimated scf accuracy    <      13.84159465 Ry

     iteration #  2     ecut=   120.00 Ry     beta= 0.70
     Davidson diagonalization with overlap
     ethr =  3.76E-03,  avg # of iterations =  3.7

     total cpu time spent up to now is      355.5 secs

     total energy              =   -6250.18315350 Ry
     Harris-Foulkes estimate   =   -6270.59421252 Ry
     estimated scf accuracy    <      54.56882159 Ry

     iteration #  3     ecut=   120.00 Ry     beta= 0.70
     Davidson diagonalization with overlap
     ethr =  3.76E-03,  avg # of iterations =  3.4

     total cpu time spent up to now is      496.9 secs

     total energy              =   -6260.66600866 Ry
     Harris-Foulkes estimate   =   -6260.93346240 Ry
     estimated scf accuracy    <       0.90460743 Ry

     iteration #  4     ecut=   120.00 Ry     beta= 0.70
     Davidson diagonalization with overlap
     ethr =  2.45E-04,  avg # of iterations =  3.4

     total cpu time spent up to now is      609.6 secs

     total energy              =   -6260.63996927 Ry
     Harris-Foulkes estimate   =   -6260.72513376 Ry
     estimated scf accuracy    <       0.22522210 Ry

     iteration #  5     ecut=   120.00 Ry     beta= 0.70
     Davidson diagonalization with overlap
     ethr =  6.11E-05,  avg # of iterations =  5.0

     total cpu time spent up to now is      739.5 secs

     total energy              =   -6260.66233044 Ry
     Harris-Foulkes estimate   =   -6260.68337684 Ry
     estimated scf accuracy    <       0.05066837 Ry

     iteration #  6     ecut=   120.00 Ry     beta= 0.70
     Davidson diagonalization with overlap
     ethr =  1.37E-05,  avg # of iterations =  6.0

     total cpu time spent up to now is      869.3 secs

     total energy              =   -6260.67170521 Ry
     Harris-Foulkes estimate   =   -6260.67496498 Ry
     estimated scf accuracy    <       0.00867786 Ry

     iteration #  7     ecut=   120.00 Ry     beta= 0.70
     Davidson diagonalization with overlap
     ethr =  2.35E-06,  avg # of iterations =  4.9

     total cpu time spent up to now is      991.0 secs

     total energy              =   -6260.67279690 Ry
     Harris-Foulkes estimate   =   -6260.67291096 Ry
     estimated scf accuracy    <       0.00019600 Ry

     iteration #  8     ecut=   120.00 Ry     beta= 0.70
     Davidson diagonalization with overlap
     ethr =  5.32E-08,  avg # of iterations =  3.4

     total cpu time spent up to now is     1140.3 secs

     total energy              =   -6260.67288421 Ry
     Harris-Foulkes estimate   =   -6260.67290362 Ry
     estimated scf accuracy    <       0.00008335 Ry

     iteration #  9     ecut=   120.00 Ry     beta= 0.70
     Davidson diagonalization with overlap
     ethr =  2.26E-08,  avg # of iterations =  2.0

     total cpu time spent up to now is     1250.8 secs

     total energy              =   -6260.67288385 Ry
     Harris-Foulkes estimate   =   -6260.67289272 Ry
     estimated scf accuracy    <       0.00004015 Ry

     iteration # 10     ecut=   120.00 Ry     beta= 0.70
     Davidson diagonalization with overlap
     ethr =  1.09E-08,  avg # of iterations =  1.7

     total cpu time spent up to now is     1357.3 secs

     total energy              =   -6260.67288090 Ry
     Harris-Foulkes estimate   =   -6260.67288633 Ry
     estimated scf accuracy    <       0.00001294 Ry

     iteration # 11     ecut=   120.00 Ry     beta= 0.70
     Davidson diagonalization with overlap
     ethr =  3.51E-09,  avg # of iterations =  3.0

     total cpu time spent up to now is     1471.4 secs

     total energy              =   -6260.67288355 Ry
     Harris-Foulkes estimate   =   -6260.67288361 Ry
     estimated scf accuracy    <       0.00000013 Ry

     iteration # 12     ecut=   120.00 Ry     beta= 0.70
     Davidson diagonalization with overlap
     ethr =  3.43E-11,  avg # of iterations =  3.0

     total cpu time spent up to now is     1620.5 secs

     total energy              =   -6260.67288359 Ry
     Harris-Foulkes estimate   =   -6260.67288361 Ry
     estimated scf accuracy    <       0.00000003 Ry

     iteration # 13     ecut=   120.00 Ry     beta= 0.70
     Davidson diagonalization with overlap
     ethr =  7.95E-12,  avg # of iterations =  2.6

     total cpu time spent up to now is     1749.0 secs

     End of self-consistent calculation

          k = 0.0000 0.0000 0.0000 ( 62907 PWs)   bands (ev):

   -66.2301 -66.2295 -66.2295 -66.2295 -66.2289 -66.2289 -66.2288 -66.2283
   -30.6205 -30.6165 -30.6082 -30.6045 -30.5971 -30.5921 -30.5871 -30.5780
   -30.5767 -30.5739 -30.5666 -30.5613 -30.5402 -30.5386 -30.5251 -30.5178
   -30.5095 -30.5078 -30.5037 -30.4942 -30.4880 -30.4878 -30.4821 -30.4792
   -20.3851 -20.3850 -20.3848 -20.3847 -20.3846 -20.3845 -20.3843 -20.3842
   -20.3746 -20.3746 -20.3745 -20.3745 -20.3739 -20.3739 -20.3739 -20.3738
   -20.3659 -20.3659 -20.3655 -20.3655 -20.3650 -20.3648 -20.3647 -20.3647
   -20.3615 -20.3614 -20.3611 -20.3610 -20.3604 -20.3598 -20.3590 -20.3589
   -20.3588 -20.3584 -20.3581 -20.3580 -20.3576 -20.3574 -20.3567 -20.3562
   -20.3549 -20.3546 -20.3538 -20.3537 -20.3496 -20.3494 -20.3487 -20.3485
   -20.3444 -20.3443 -20.3436 -20.3436 -20.3434 -20.3433 -20.3426 -20.3425
   -10.1080  -9.7305  -9.7273  -9.7000  -9.3461  -9.3245  -9.3104  -9.0491
    -9.0180  -8.9560  -8.9534  -8.9499  -8.0071  -7.9243  -7.9195  -7.8861
    -7.8853  -7.8689  -7.8536  -7.8491  -7.8155  -7.7896  -7.7670  -7.7569
     1.1108   1.1124   1.1310   1.1638   1.1839   1.2083   1.2824   1.3028
     1.3222   1.3769   1.4161   1.5241   2.3301   2.3526   2.3913   2.4260
     2.4289   2.5517   3.9748   4.0481   4.1481   4.2515   4.5115   4.5391
     4.5649   4.6008   4.6041   4.7012   4.7293   4.7445   5.0653   5.4248
     5.4305   5.4538   5.4609   5.5484   5.5575   5.6322   5.7110   5.7270
     5.7888   5.7940   5.8478   5.8495   5.8754   5.8940   6.0568   6.0637
     6.0798   6.2943   6.3204   6.3447   6.3459   6.5735   6.5970   6.6424
     6.6469   6.6637   6.9876   6.9886   6.9922   7.0090   7.0172   7.0325
     7.0451   7.0478   8.0603   8.0976   8.2326   8.2397   8.2544   8.2610
     9.2191   9.2355   9.6016   9.6608   9.7373   9.8140  12.3923  12.4669
    12.4933  12.5407  12.5549  12.5835  12.6325  12.6465  12.7060  12.8890
    13.1060  13.1471  13.2510  13.4080  13.7149  13.8708  13.9548  14.0360
    14.0368  14.0718  14.3605  14.5679  14.5999  14.6197  15.2996  15.4198
    15.6320  16.3200  16.8133  16.8923  16.9259

          k = 0.0000 0.0000 0.1669 ( 62927 PWs)   bands (ev):

   -66.2301 -66.2295 -66.2295 -66.2294 -66.2289 -66.2289 -66.2288 -66.2283
   -30.6203 -30.6168 -30.6081 -30.6048 -30.5966 -30.5924 -30.5855 -30.5771
   -30.5732 -30.5690 -30.5618 -30.5569 -30.5398 -30.5390 -30.5264 -30.5172
   -30.5107 -30.5073 -30.5067 -30.4938 -30.4931 -30.4919 -30.4865 -30.4819
   -20.3850 -20.3849 -20.3848 -20.3847 -20.3846 -20.3845 -20.3843 -20.3843
   -20.3746 -20.3746 -20.3745 -20.3745 -20.3739 -20.3739 -20.3739 -20.3739
   -20.3659 -20.3659 -20.3656 -20.3656 -20.3650 -20.3648 -20.3648 -20.3647
   -20.3615 -20.3614 -20.3611 -20.3610 -20.3604 -20.3598 -20.3589 -20.3588
   -20.3587 -20.3584 -20.3581 -20.3580 -20.3575 -20.3572 -20.3567 -20.3562
   -20.3545 -20.3543 -20.3535 -20.3534 -20.3499 -20.3497 -20.3491 -20.3489
   -20.3443 -20.3442 -20.3436 -20.3435 -20.3435 -20.3434 -20.3426 -20.3426
   -10.0681  -9.7444  -9.6750  -9.6500  -9.3336  -9.3207  -9.2631  -9.0172
    -8.9835  -8.9518  -8.9420  -8.9212  -8.0465  -8.0142  -7.9795  -7.9669
    -7.9318  -7.9278  -7.8953  -7.8569  -7.8282  -7.7931  -7.7897  -7.7602
     1.1293   1.1774   1.2090   1.2209   1.2391   1.2809   1.2956   1.3724
     1.4546   1.5073   1.5778   1.6620   2.3332   2.3882   2.4377   2.5040
     2.5153   2.6326   3.9502   4.0100   4.1393   4.2046   4.2710   4.3057
     4.4215   4.4649   4.6122   4.6169   4.6187   4.7232   5.0727   5.2907
     5.3901   5.3950   5.4764   5.5097   5.5238   5.5365   5.6070   5.6144
     5.7032   5.7220   5.8075   5.8694   5.8803   5.9581   6.0611   6.0946
     6.1354   6.3136   6.4286   6.4849   6.4988   6.5398   6.5974   6.6448
     6.6900   6.7709   6.8106   6.8268   6.8530   6.8826   6.8950   6.9283
     7.0074   7.0139   8.0637   8.0931   8.1652   8.1765   8.1873   8.2026
     9.5504   9.5670   9.6746   9.8115   9.9285  10.0300  12.4096  12.4302
    12.4630  12.5359  12.5467  12.5843  12.5851  12.5885  12.7447  12.8876
    12.8921  12.9275  13.3101  13.4054  13.6793  13.7473  13.8444  13.9231
    14.2392  14.2910  14.5372  14.5980  14.6366  14.7203  15.4012  15.5989
    15.7170  16.5053  16.6151  16.9667  17.0154

          k = 0.0000 0.0000 0.3338 ( 62943 PWs)   bands (ev):

   -66.2299 -66.2296 -66.2294 -66.2293 -66.2290 -66.2290 -66.2287 -66.2284
   -30.6196 -30.6176 -30.6076 -30.6056 -30.5956 -30.5932 -30.5826 -30.5783
   -30.5604 -30.5562 -30.5485 -30.5439 -30.5404 -30.5380 -30.5315 -30.5169
   -30.5163 -30.5150 -30.5069 -30.5060 -30.5015 -30.4964 -30.4925 -30.4869
   -20.3849 -20.3849 -20.3847 -20.3847 -20.3846 -20.3846 -20.3844 -20.3844
   -20.3746 -20.3746 -20.3745 -20.3745 -20.3739 -20.3739 -20.3739 -20.3739
   -20.3660 -20.3660 -20.3657 -20.3656 -20.3649 -20.3648 -20.3648 -20.3648
   -20.3616 -20.3615 -20.3610 -20.3610 -20.3603 -20.3600 -20.3588 -20.3585
   -20.3585 -20.3585 -20.3582 -20.3581 -20.3573 -20.3569 -20.3568 -20.3564
   -20.3535 -20.3534 -20.3526 -20.3525 -20.3508 -20.3507 -20.3500 -20.3499
   -20.3442 -20.3441 -20.3437 -20.3436 -20.3434 -20.3433 -20.3428 -20.3428
    -9.9710  -9.7881  -9.5504  -9.5341  -9.3643  -9.3559  -9.0270  -8.9782
    -8.9571  -8.8591  -8.8344  -8.8054  -8.3056  -8.2849  -8.2747  -8.2510
    -7.9580  -7.9374  -7.8892  -7.8657  -7.8259  -7.8024  -7.7904  -7.7689
     1.1361   1.1626   1.2487   1.2612   1.2775   1.2796   1.3251   1.3624
     2.1089   2.1336   2.2121   2.2412   2.3404   2.3952   2.6632   2.7050
     2.7641   2.8665   3.6418   3.7136   3.7932   3.9080   3.9423   3.9670
     4.1425   4.1434   4.4848   4.6043   4.6416   4.6559   4.8523   4.9627
     5.0502   5.0950   5.2340   5.2892   5.3584   5.4857   5.6197   5.6280
     5.7015   5.7063   5.8599   5.9089   5.9206   6.0582   6.0670   6.1409
     6.1441   6.1782   6.2898   6.3344   6.3425   6.4309   6.4631   6.6132
     6.6355   6.6582   6.7545   6.7802   7.0071   7.0141   7.0999   7.1125
     7.1874   7.2233   7.9474   7.9753   7.9895   8.0156   8.0715   8.0855
     9.7082   9.7783  10.2903  10.2975  10.6691  10.7223  11.8658  11.8873
    12.3091  12.3513  12.5836  12.5850  12.6794  12.7175  12.7183  12.7520
    12.7913  12.9218  13.3545  13.3770  13.3970  13.4183  13.4996  13.5542
    14.5308  14.5914  14.8224  14.9272  14.9941  15.2403  15.3376  15.4867
    16.0596  16.7415  16.9292  17.1199  17.2796

          k = 0.0000 0.0000-0.5007 ( 62938 PWs)   bands (ev):

   -66.2298 -66.2298 -66.2292 -66.2292 -66.2291 -66.2291 -66.2286 -66.2286
   -30.6186 -30.6186 -30.6067 -30.6067 -30.5944 -30.5944 -30.5802 -30.5802
   -30.5456 -30.5456 -30.5421 -30.5421 -30.5314 -30.5314 -30.5307 -30.5307
   -30.5255 -30.5255 -30.5103 -30.5103 -30.5032 -30.5031 -30.4904 -30.4904
   -20.3848 -20.3848 -20.3847 -20.3847 -20.3846 -20.3846 -20.3845 -20.3845
   -20.3746 -20.3746 -20.3746 -20.3745 -20.3739 -20.3739 -20.3739 -20.3739
   -20.3660 -20.3660 -20.3657 -20.3657 -20.3649 -20.3649 -20.3648 -20.3648
   -20.3616 -20.3616 -20.3610 -20.3610 -20.3602 -20.3602 -20.3586 -20.3586
   -20.3583 -20.3583 -20.3583 -20.3583 -20.3570 -20.3570 -20.3566 -20.3566
   -20.3521 -20.3521 -20.3521 -20.3521 -20.3513 -20.3513 -20.3512 -20.3512
   -20.3439 -20.3439 -20.3438 -20.3438 -20.3431 -20.3431 -20.3431 -20.3431
    -9.8659  -9.8659  -9.4295  -9.4295  -9.4274  -9.4274  -8.9653  -8.9653
    -8.6798  -8.6797  -8.6109  -8.6108  -8.5948  -8.5948  -8.5707  -8.5707
    -7.9495  -7.9495  -7.8777  -7.8777  -7.8147  -7.8147  -7.7804  -7.7804
     1.1474   1.1474   1.2633   1.2633   1.2726   1.2726   1.3497   1.3497
     2.3479   2.3479   2.7602   2.7602   2.8192   2.8193   2.9970   2.9971
     3.0531   3.0531   3.1541   3.1541   3.3973   3.3973   3.7976   3.7977
     3.8160   3.8160   4.1368   4.1368   4.6081   4.6081   5.0075   5.0076
     5.0829   5.0830   5.2060   5.2060   5.2409   5.2409   5.6709   5.6709
     5.7673   5.7673   5.9019   5.9019   5.9799   5.9799   6.0235   6.0235
     6.1303   6.1303   6.2458   6.2458   6.2618   6.2618   6.4657   6.4657
     6.6418   6.6418   6.7159   6.7159   7.0114   7.0114   7.5796   7.5796
     7.6080   7.6080   7.6575   7.6575   7.6803   7.6803   8.0781   8.0781
     9.7473   9.7473  11.1109  11.1109  11.1278  11.1278  11.5238  11.5238
    11.5570  11.5570  12.5838  12.5838  12.8027  12.8027  13.0088  13.0088
    13.0267  13.0267  13.0907  13.0907  13.1392  13.1392  13.3812  13.3812
    14.5756  14.5756  15.1999  15.1999  15.2499  15.2499  15.4845  15.4845
    16.1579  16.1579  17.4229  17.4229  17.6290

          k = 0.0000 0.1635 0.0000 ( 63006 PWs)   bands (ev):

   -66.2301 -66.2295 -66.2294 -66.2294 -66.2289 -66.2289 -66.2288 -66.2283
   -30.6173 -30.6133 -30.6036 -30.5998 -30.5977 -30.5928 -30.5861 -30.5781
   -30.5747 -30.5738 -30.5667 -30.5604 -30.5436 -30.5424 -30.5291 -30.5223
   -30.5092 -30.5073 -30.5043 -30.4959 -30.4882 -30.4882 -30.4821 -30.4799
   -20.3850 -20.3849 -20.3848 -20.3847 -20.3845 -20.3845 -20.3843 -20.3842
   -20.3745 -20.3745 -20.3745 -20.3745 -20.3739 -20.3739 -20.3739 -20.3739
   -20.3657 -20.3657 -20.3652 -20.3652 -20.3649 -20.3648 -20.3648 -20.3645
   -20.3616 -20.3615 -20.3610 -20.3609 -20.3604 -20.3600 -20.3593 -20.3592
   -20.3589 -20.3588 -20.3583 -20.3580 -20.3577 -20.3574 -20.3567 -20.3562
   -20.3549 -20.3546 -20.3538 -20.3537 -20.3496 -20.3494 -20.3487 -20.3485
   -20.3444 -20.3443 -20.3436 -20.3436 -20.3434 -20.3433 -20.3426 -20.3425
   -10.0673  -9.7162  -9.6825  -9.6788  -9.3567  -9.3360  -9.2277  -9.0469
    -9.0201  -8.9164  -8.9135  -8.9115  -8.0587  -7.9726  -7.9476  -7.9200
    -7.9091  -7.8853  -7.8783  -7.8561  -7.8543  -7.8532  -7.8472  -7.8051
     1.1104   1.1119   1.1988   1.2087   1.2493   1.2817   1.2916   1.4150
     1.4998   1.5403   1.5739   1.6815   2.4026   2.4123   2.4584   2.4642
     2.5042   2.5474   3.7946   3.8723   3.8944   3.9864   4.5114   4.5338
     4.5446   4.5556   4.5913   4.7370   4.7960   4.8028   4.9504   5.1487
     5.2190   5.4741   5.5124   5.5211   5.5486   5.5574   5.5583   5.5735
     5.7618   5.8675   5.8755   5.9000   5.9365   5.9376   6.0561   6.0745
     6.0907   6.2535   6.2821   6.3695   6.4412   6.5640   6.6039   6.6292
     6.6874   6.7140   6.8543   6.8867   6.9685   6.9879   6.9915   7.0123
     7.0199   7.0247   8.0086   8.0417   8.1461   8.1741   8.2375   8.2532
     9.2247   9.2435   9.8192   9.9126   9.9359  10.0419  12.2378  12.2918
    12.4028  12.4078  12.4953  12.5227  12.6314  12.6341  12.7432  12.9199
    13.1286  13.1765  13.3329  13.4765  13.7619  13.8599  13.8901  13.9730
    14.1067  14.2549  14.3385  14.5564  14.6560  14.8093  15.2753  15.3895
    16.0410  16.0493  17.0127  17.0989  17.1647

          k = 0.0000 0.1635 0.1669 ( 62995 PWs)   bands (ev):

   -66.2300 -66.2295 -66.2295 -66.2294 -66.2290 -66.2289 -66.2288 -66.2283
   -30.6171 -30.6136 -30.6035 -30.6001 -30.5973 -30.5931 -30.5843 -30.5751
   -30.5734 -30.5691 -30.5619 -30.5562 -30.5430 -30.5428 -30.5303 -30.5215
   -30.5105 -30.5071 -30.5069 -30.4955 -30.4933 -30.4925 -30.4865 -30.4828
   -20.3850 -20.3849 -20.3848 -20.3847 -20.3846 -20.3845 -20.3844 -20.3843
   -20.3745 -20.3745 -20.3745 -20.3745 -20.3739 -20.3739 -20.3739 -20.3739
   -20.3658 -20.3657 -20.3652 -20.3652 -20.3649 -20.3648 -20.3647 -20.3645
   -20.3616 -20.3615 -20.3610 -20.3609 -20.3605 -20.3600 -20.3592 -20.3590
   -20.3588 -20.3588 -20.3583 -20.3581 -20.3576 -20.3573 -20.3567 -20.3562
   -20.3545 -20.3543 -20.3535 -20.3534 -20.3499 -20.3497 -20.3491 -20.3489
   -20.3443 -20.3443 -20.3436 -20.3435 -20.3435 -20.3434 -20.3426 -20.3426
   -10.0261  -9.6953  -9.6663  -9.6235  -9.3456  -9.2737  -9.2381  -9.0139
    -8.9856  -8.9158  -8.9000  -8.8880  -8.0883  -8.0121  -8.0107  -7.9721
    -7.9650  -7.9386  -7.8997  -7.8977  -7.8894  -7.8661  -7.8593  -7.8548
     1.1923   1.2081   1.2460   1.2801   1.3738   1.3879   1.4548   1.5152
     1.5671   1.5769   1.5982   1.7499   2.4074   2.4608   2.4953   2.5462
     2.5832   2.6268   3.7934   3.8593   3.9130   3.9633   4.2507   4.3011
     4.4736   4.5295   4.5356   4.6067   4.6165   4.7453   4.9651   5.1121
     5.1906   5.2981   5.3849   5.4315   5.4446   5.5072   5.5141   5.5502
     5.6608   5.8287   5.8382   5.8971   5.9080   5.9937   6.0245   6.0526
     6.1551   6.4159   6.4200   6.4338   6.4603   6.5650   6.5990   6.6894
     6.7042   6.7758   6.8102   6.8418   6.8584   6.8850   6.8950   6.8988
     6.9264   6.9732   8.0124   8.0361   8.0965   8.1222   8.1682   8.1873
     9.5544   9.5707   9.9255  10.0371  10.0979  10.1916  12.3092  12.3652
    12.3796  12.4090  12.4338  12.4492  12.5494  12.5733  12.7829  12.9204
    12.9218  12.9586  13.3780  13.4768  13.6913  13.7409  13.7534  13.8184
    14.3430  14.5083  14.5286  14.6298  14.6788  14.9095  15.3694  15.6926
    16.0074  16.2146  16.7847  17.0792  17.1482

          k = 0.0000 0.1635 0.3338 ( 62982 PWs)   bands (ev):

   -66.2299 -66.2296 -66.2294 -66.2293 -66.2291 -66.2290 -66.2288 -66.2285
   -30.6165 -30.6144 -30.6030 -30.6010 -30.5963 -30.5939 -30.5810 -30.5763
   -30.5609 -30.5568 -30.5486 -30.5441 -30.5437 -30.5407 -30.5345 -30.5191
   -30.5168 -30.5163 -30.5070 -30.5055 -30.5030 -30.4962 -30.4942 -30.4883
   -20.3849 -20.3848 -20.3847 -20.3847 -20.3846 -20.3846 -20.3845 -20.3844
   -20.3746 -20.3745 -20.3745 -20.3745 -20.3740 -20.3739 -20.3739 -20.3739
   -20.3658 -20.3658 -20.3653 -20.3653 -20.3649 -20.3648 -20.3647 -20.3646
   -20.3617 -20.3616 -20.3610 -20.3609 -20.3605 -20.3602 -20.3591 -20.3589
   -20.3587 -20.3585 -20.3584 -20.3582 -20.3573 -20.3570 -20.3568 -20.3564
   -20.3535 -20.3534 -20.3526 -20.3525 -20.3508 -20.3507 -20.3500 -20.3499
   -20.3442 -20.3441 -20.3437 -20.3436 -20.3434 -20.3433 -20.3428 -20.3428
    -9.9258  -9.7391  -9.5500  -9.4870  -9.3771  -9.2745  -9.0381  -8.9544
    -8.9218  -8.8617  -8.8160  -8.7843  -8.3208  -8.2851  -8.2818  -8.2478
    -7.9952  -7.9797  -7.9056  -7.8929  -7.8918  -7.8806  -7.8683  -7.8642
     1.2238   1.2398   1.2601   1.2766   1.4602   1.4795   1.5492   1.5629
     2.1103   2.1422   2.2113   2.2547   2.4147   2.4636   2.7201   2.7755
     2.7957   2.8599   3.6382   3.6411   3.7856   3.8312   3.8990   3.9539
     3.9875   4.0721   4.4845   4.5144   4.6486   4.6521   4.7999   4.9074
     4.9238   4.9417   5.0025   5.0437   5.3435   5.3518   5.3714   5.5921
     5.7216   5.7483   5.8607   5.8683   5.8839   5.9165   5.9492   6.0445
     6.2825   6.3095   6.3499   6.4137   6.4433   6.5380   6.5549   6.5942
     6.6277   6.6324   6.8147   6.8612   6.8934   6.9030   7.1062   7.1380
     7.1880   7.2297   7.9339   7.9523   7.9578   7.9613   8.0202   8.0430
     9.9446  10.0075  10.2912  10.3052  10.7699  10.8256  11.8686  11.8863
    12.3333  12.3788  12.4234  12.4375  12.5433  12.5888  12.7184  12.7223
    12.8321  12.9305  13.3728  13.3769  13.4226  13.4288  13.4337  13.4721
    14.5717  14.6259  14.9148  15.1275  15.1601  15.3075  15.3487  15.8905
    16.2113  16.7082  16.7155  17.0290  17.3338

          k = 0.0000 0.1635-0.5007 ( 62950 PWs)   bands (ev):

   -66.2297 -66.2297 -66.2292 -66.2292 -66.2291 -66.2291 -66.2286 -66.2286
   -30.6155 -30.6155 -30.6021 -30.6020 -30.5951 -30.5951 -30.5783 -30.5783
   -30.5481 -30.5481 -30.5441 -30.5441 -30.5318 -30.5318 -30.5309 -30.5308
   -30.5254 -30.5254 -30.5133 -30.5133 -30.5027 -30.5027 -30.4920 -30.4920
   -20.3848 -20.3848 -20.3847 -20.3847 -20.3846 -20.3846 -20.3845 -20.3845
   -20.3746 -20.3746 -20.3745 -20.3745 -20.3740 -20.3739 -20.3739 -20.3739
   -20.3658 -20.3658 -20.3653 -20.3653 -20.3648 -20.3648 -20.3646 -20.3646
   -20.3617 -20.3617 -20.3609 -20.3609 -20.3604 -20.3604 -20.3590 -20.3590
   -20.3585 -20.3585 -20.3583 -20.3583 -20.3570 -20.3570 -20.3566 -20.3566
   -20.3521 -20.3521 -20.3521 -20.3521 -20.3513 -20.3513 -20.3513 -20.3513
   -20.3439 -20.3439 -20.3438 -20.3438 -20.3431 -20.3431 -20.3431 -20.3431
    -9.8180  -9.8180  -9.4419  -9.4419  -9.3535  -9.3535  -8.9321  -8.9321
    -8.6920  -8.6920  -8.6157  -8.6157  -8.5883  -8.5883  -8.5623  -8.5623
    -7.9914  -7.9914  -7.8978  -7.8978  -7.8803  -7.8802  -7.8756  -7.8756
     1.2327   1.2327   1.2716   1.2716   1.4758   1.4758   1.5576   1.5576
     2.4201   2.4201   2.7900   2.7900   2.8544   2.8544   2.9860   2.9860
     3.0447   3.0447   3.1709   3.1709   3.3829   3.3829   3.8278   3.8278
     3.8660   3.8660   3.9469   3.9469   4.5083   4.5083   4.8402   4.8402
     4.8881   4.8881   5.1521   5.1521   5.1592   5.1592   5.4701   5.4701
     5.6906   5.6906   5.8431   5.8431   5.9160   5.9160   5.9966   5.9966
     6.1913   6.1913   6.3748   6.3748   6.4596   6.4596   6.5544   6.5544
     6.5857   6.5857   6.7991   6.7992   6.8926   6.8926   7.5936   7.5936
     7.6015   7.6015   7.6335   7.6335   7.6505   7.6505   8.0278   8.0278
     9.9814   9.9814  11.1114  11.1114  11.1286  11.1286  11.5850  11.5850
    11.6191  11.6191  12.4164  12.4164  12.8233  12.8233  12.9243  12.9243
    12.9886  12.9886  13.0094  13.0094  13.0784  13.0784  13.4538  13.4538
    14.6122  14.6122  15.1753  15.1753  15.6121  15.6121  15.6573  15.6573
    16.2618  16.2618  17.2045  17.2045  17.6498

          k = 0.0000 0.3270 0.0000 ( 63016 PWs)   bands (ev):

   -66.2300 -66.2297 -66.2293 -66.2293 -66.2290 -66.2290 -66.2287 -66.2284
   -30.6102 -30.6060 -30.5997 -30.5950 -30.5917 -30.5872 -30.5832 -30.5786
   -30.5742 -30.5678 -30.5665 -30.5565 -30.5535 -30.5531 -30.5404 -30.5337
   -30.5084 -30.5058 -30.5057 -30.4997 -30.4888 -30.4885 -30.4822 -30.4812
   -20.3850 -20.3849 -20.3849 -20.3848 -20.3845 -20.3844 -20.3844 -20.3843
   -20.3744 -20.3744 -20.3743 -20.3743 -20.3741 -20.3740 -20.3740 -20.3740
   -20.3655 -20.3654 -20.3650 -20.3649 -20.3642 -20.3642 -20.3638 -20.3636
   -20.3619 -20.3619 -20.3611 -20.3609 -20.3608 -20.3607 -20.3600 -20.3596
   -20.3595 -20.3591 -20.3585 -20.3582 -20.3577 -20.3575 -20.3566 -20.3563
   -20.3548 -20.3547 -20.3538 -20.3537 -20.3495 -20.3494 -20.3487 -20.3486
   -20.3444 -20.3443 -20.3436 -20.3436 -20.3434 -20.3433 -20.3426 -20.3425
    -9.9664  -9.7666  -9.5701  -9.5629  -9.3917  -9.3739  -9.0416  -9.0259
    -8.9928  -8.7888  -8.7862  -8.7693  -8.3003  -8.2283  -8.2188  -8.1845
    -7.9291  -7.9228  -7.8838  -7.8766  -7.8709  -7.8627  -7.8420  -7.8245
     1.1101   1.1110   1.2092   1.2095   1.2719   1.2800   1.3887   1.4120
     2.1010   2.2074   2.2542   2.3505   2.4565   2.5013   2.6475   2.6741
     2.7021   2.7509   3.3903   3.4124   3.4839   3.5084   3.9917   4.3032
     4.3490   4.5176   4.5435   4.5610   4.5900   4.6220   4.9708   4.9843
     4.9866   5.0093   5.3532   5.3754   5.5236   5.5238   5.5697   5.5917
     5.8155   5.8287   5.8678   5.8809   5.9122   5.9373   5.9802   6.0001
     6.1193   6.1863   6.2168   6.4241   6.4954   6.5208   6.6842   6.7679
     6.7681   6.8608   6.9634   6.9662   6.9899   7.0086   7.0185   7.0190
     7.0258   7.0542   7.8133   7.8368   7.8820   7.9134   8.2405   8.2495
     9.2356   9.2488  10.3849  10.4693  10.5200  10.6044  11.7673  11.8180
    11.9294  11.9450  12.4997  12.5121  12.6304  12.6340  12.8571  13.0327
    13.1765  13.2828  13.3200  13.4324  13.6728  13.7360  13.8362  13.8694
    14.3159  14.3178  14.5437  14.6789  14.8763  15.1895  15.2954  15.4948
    15.5137  16.9213  17.0448  17.2308  17.6318

          k = 0.0000 0.3270 0.1669 ( 63022 PWs)   bands (ev):

   -66.2299 -66.2296 -66.2294 -66.2293 -66.2291 -66.2290 -66.2287 -66.2285
   -30.6100 -30.6063 -30.5993 -30.5953 -30.5915 -30.5875 -30.5805 -30.5742
   -30.5700 -30.5682 -30.5619 -30.5539 -30.5532 -30.5520 -30.5412 -30.5327
   -30.5098 -30.5079 -30.5054 -30.4993 -30.4936 -30.4934 -30.4864 -30.4846
   -20.3850 -20.3848 -20.3848 -20.3847 -20.3845 -20.3844 -20.3844 -20.3843
   -20.3744 -20.3744 -20.3744 -20.3743 -20.3741 -20.3740 -20.3740 -20.3740
   -20.3655 -20.3654 -20.3650 -20.3649 -20.3642 -20.3642 -20.3638 -20.3636
   -20.3620 -20.3619 -20.3611 -20.3609 -20.3608 -20.3607 -20.3600 -20.3596
   -20.3593 -20.3590 -20.3585 -20.3582 -20.3576 -20.3574 -20.3566 -20.3564
   -20.3545 -20.3544 -20.3535 -20.3534 -20.3499 -20.3498 -20.3490 -20.3489
   -20.3443 -20.3443 -20.3436 -20.3436 -20.3435 -20.3434 -20.3426 -20.3426
    -9.9219  -9.7172  -9.5779  -9.5011  -9.3847  -9.3094  -9.0086  -9.0025
    -8.9913  -8.7912  -8.7699  -8.7622  -8.3123  -8.2392  -8.2181  -8.1886
    -8.0060  -7.9792  -7.9596  -7.9371  -7.9172  -7.9042  -7.8794  -7.8660
     1.2012   1.2060   1.2699   1.2782   1.4476   1.4550   1.5440   1.5741
     2.1069   2.2017   2.2510   2.3473   2.5357   2.5682   2.6555   2.6785
     2.7889   2.8310   3.4143   3.4594   3.4792   3.5045   3.9806   4.2525
     4.2668   4.3236   4.3541   4.5540   4.5941   4.6489   4.7076   4.7274
     4.9785   5.0343   5.2000   5.3085   5.3193   5.3378   5.5312   5.5328
     5.5765   5.6800   5.7446   5.8172   5.8603   5.8856   5.9621   6.0353
     6.2525   6.3731   6.4442   6.4525   6.5646   6.6881   6.7277   6.7673
     6.8015   6.8163   6.8341   6.8743   6.9026   6.9212   6.9731   7.0130
     7.0633   7.0822   7.8180   7.8300   7.8549   7.8800   8.1735   8.1843
     9.5628   9.5732  10.5281  10.5734  10.5997  10.6498  11.8552  11.9061
    11.9304  11.9457  12.4280  12.4322  12.5537  12.5645  12.8992  13.0247
    13.0310  13.0698  13.3264  13.4311  13.5117  13.5636  13.7203  13.7435
    14.5179  14.5560  14.6564  14.8313  15.0623  15.2699  15.5886  15.6061
    15.6739  17.0052  17.0149  17.2002  17.2914

          k = 0.0000 0.3270 0.3338 ( 63004 PWs)   bands (ev):

   -66.2298 -66.2295 -66.2295 -66.2292 -66.2292 -66.2289 -66.2289 -66.2286
   -30.6093 -30.6071 -30.5985 -30.5961 -30.5907 -30.5883 -30.5757 -30.5696
   -30.5638 -30.5606 -30.5550 -30.5489 -30.5465 -30.5438 -30.5424 -30.5288
   -30.5166 -30.5163 -30.5071 -30.5055 -30.5041 -30.4980 -30.4954 -30.4912
   -20.3849 -20.3848 -20.3848 -20.3846 -20.3846 -20.3845 -20.3845 -20.3844
   -20.3744 -20.3744 -20.3744 -20.3744 -20.3741 -20.3741 -20.3740 -20.3740
   -20.3655 -20.3655 -20.3650 -20.3650 -20.3643 -20.3643 -20.3638 -20.3637
   -20.3621 -20.3620 -20.3612 -20.3610 -20.3608 -20.3607 -20.3598 -20.3597
   -20.3590 -20.3587 -20.3586 -20.3583 -20.3573 -20.3571 -20.3568 -20.3565
   -20.3535 -20.3534 -20.3526 -20.3525 -20.3508 -20.3508 -20.3500 -20.3499
   -20.3441 -20.3441 -20.3436 -20.3436 -20.3434 -20.3434 -20.3428 -20.3428
    -9.8141  -9.6208  -9.6007  -9.4191  -9.3285  -9.0777  -9.0450  -8.9094
    -8.8695  -8.8013  -8.7242  -8.7024  -8.4228  -8.3471  -8.2723  -8.2373
    -8.2194  -8.1991  -8.1539  -8.1215  -7.9134  -7.8989  -7.8888  -7.8750
     1.2483   1.2574   1.2653   1.2744   1.9921   2.0568   2.1087   2.1274
     2.2052   2.2453   2.2871   2.4247   2.6236   2.6660   2.7691   2.8480
     2.9953   3.0124   3.4117   3.4538   3.5025   3.5120   3.7487   3.7616
     3.9675   4.1702   4.2298   4.2592   4.3068   4.4740   4.5364   4.6893
     4.7715   4.7985   4.9087   4.9252   5.0030   5.0670   5.2126   5.2542
     5.2636   5.4263   5.6259   5.7778   5.9022   5.9237   6.0218   6.0612
     6.3699   6.3911   6.4065   6.4814   6.5031   6.6039   6.6552   6.6851
     6.7835   6.9355   6.9471   6.9965   7.0159   7.0789   7.1064   7.1768
     7.2253   7.2355   7.7541   7.7670   7.8043   7.8282   7.9662   7.9906
    10.2727  10.2916  10.5552  10.5909  11.0844  11.1433  11.8498  11.8799
    11.9377  11.9746  12.1378  12.1746  12.5044  12.5331  12.7208  12.7224
    12.9422  13.0252  13.0880  13.1489  13.3319  13.4059  13.4207  13.4577
    14.6841  14.8193  14.8761  15.2135  15.3686  15.8289  15.9352  16.1845
    16.5933  16.5979  16.8744  17.3324  17.3796

          k = 0.0000 0.3270-0.5007 ( 62992 PWs)   bands (ev):

   -66.2296 -66.2296 -66.2293 -66.2293 -66.2290 -66.2290 -66.2287 -66.2287
   -30.6082 -30.6082 -30.5973 -30.5973 -30.5895 -30.5895 -30.5720 -30.5720
   -30.5574 -30.5574 -30.5503 -30.5503 -30.5321 -30.5321 -30.5313 -30.5313
   -30.5251 -30.5251 -30.5195 -30.5195 -30.5014 -30.5014 -30.4956 -30.4956
   -20.3848 -20.3848 -20.3847 -20.3847 -20.3846 -20.3846 -20.3845 -20.3845
   -20.3744 -20.3744 -20.3744 -20.3744 -20.3741 -20.3741 -20.3741 -20.3740
   -20.3655 -20.3655 -20.3650 -20.3650 -20.3643 -20.3643 -20.3638 -20.3638
   -20.3621 -20.3621 -20.3611 -20.3611 -20.3607 -20.3607 -20.3597 -20.3597
   -20.3587 -20.3587 -20.3585 -20.3585 -20.3570 -20.3570 -20.3568 -20.3568
   -20.3521 -20.3521 -20.3521 -20.3521 -20.3513 -20.3513 -20.3513 -20.3513
   -20.3439 -20.3439 -20.3438 -20.3438 -20.3431 -20.3431 -20.3431 -20.3431
    -9.7006  -9.7006  -9.4887  -9.4887  -9.1469  -9.1469  -8.8274  -8.8274
    -8.7431  -8.7431  -8.6338  -8.6338  -8.5617  -8.5617  -8.5291  -8.5291
    -8.2163  -8.2163  -8.1719  -8.1719  -7.9013  -7.9013  -7.8872  -7.8872
     1.2595   1.2595   1.2691   1.2691   2.1089   2.1089   2.2355   2.2355
     2.6201   2.6201   2.8758   2.8758   2.9450   2.9450   2.9501   2.9501
     3.0208   3.0208   3.2175   3.2175   3.3350   3.3350   3.5198   3.5198
     3.9797   3.9797   3.9911   3.9911   4.0326   4.0326   4.2395   4.2395
     4.8168   4.8168   4.9322   4.9322   4.9933   4.9933   5.0892   5.0892
     5.2173   5.2173   5.6999   5.6999   5.9685   5.9685   5.9994   5.9994
     6.3379   6.3379   6.4062   6.4062   6.4534   6.4534   6.6710   6.6710
     6.9089   6.9089   6.9918   6.9918   7.0702   7.0702   7.5388   7.5388
     7.5487   7.5487   7.5689   7.5689   7.6200   7.6200   7.8488   7.8488
    10.5536  10.5536  11.1100  11.1100  11.1339  11.1339  11.7745  11.7745
    11.8132  11.8132  11.9819  11.9819  12.5641  12.5641  12.6129  12.6129
    12.9414  12.9414  13.0083  13.0083  13.0989  13.0989  13.4173  13.4173
    14.7695  14.7695  15.0972  15.0972  16.0153  16.0153  16.5200  16.5200
    16.6769  16.6769  16.7944  16.7945  17.7077

          k = 0.0000-0.4905 0.0000 ( 63074 PWs)   bands (ev):

   -66.2298 -66.2298 -66.2292 -66.2292 -66.2292 -66.2292 -66.2286 -66.2285
   -30.6037 -30.6037 -30.5993 -30.5993 -30.5802 -30.5802 -30.5787 -30.5787
   -30.5699 -30.5699 -30.5637 -30.5637 -30.5551 -30.5551 -30.5472 -30.5472
   -30.5072 -30.5071 -30.5033 -30.5033 -30.4888 -30.4888 -30.4820 -30.4820
   -20.3849 -20.3849 -20.3848 -20.3848 -20.3844 -20.3844 -20.3843 -20.3843
   -20.3742 -20.3742 -20.3742 -20.3742 -20.3742 -20.3742 -20.3742 -20.3742
   -20.3652 -20.3652 -20.3651 -20.3651 -20.3629 -20.3629 -20.3629 -20.3629
   -20.3624 -20.3624 -20.3622 -20.3622 -20.3606 -20.3606 -20.3603 -20.3603
   -20.3593 -20.3593 -20.3584 -20.3584 -20.3576 -20.3576 -20.3565 -20.3565
   -20.3548 -20.3548 -20.3538 -20.3538 -20.3495 -20.3495 -20.3486 -20.3486
   -20.3444 -20.3444 -20.3436 -20.3436 -20.3434 -20.3434 -20.3425 -20.3425
    -9.8535  -9.8535  -9.4611  -9.4611  -9.4481  -9.4481  -9.0336  -9.0336
    -8.6534  -8.6534  -8.5465  -8.5465  -8.5408  -8.5408  -8.5184  -8.5184
    -7.9278  -7.9278  -7.8789  -7.8789  -7.8712  -7.8712  -7.8343  -7.8343
     1.1103   1.1103   1.2102   1.2102   1.2773   1.2773   1.4058   1.4058
     2.4773   2.4773   2.8428   2.8428   2.9166   2.9166   2.9400   2.9401
     2.9994   2.9994   3.1503   3.1503   3.3609   3.3609   3.3695   3.3695
     3.5262   3.5262   4.5340   4.5340   4.5619   4.5619   5.1633   5.1633
     5.2211   5.2211   5.2516   5.2516   5.2747   5.2747   5.6468   5.6468
     5.6984   5.6984   5.8626   5.8626   5.9100   5.9100   5.9801   5.9801
     6.2003   6.2003   6.2397   6.2397   6.5264   6.5264   6.6148   6.6148
     6.8428   6.8428   6.9815   6.9815   7.0149   7.0149   7.4550   7.4550
     7.4572   7.4572   7.4756   7.4756   7.5026   7.5026   8.2449   8.2449
     9.2450   9.2450  11.0944  11.0944  11.1351  11.1351  11.2539  11.2539
    11.3210  11.3210  12.5056  12.5056  12.6324  12.6324  13.0385  13.0385
    13.2265  13.2265  13.4407  13.4407  13.4790  13.4791  13.8603  13.8603
    14.3242  14.3243  14.9574  14.9574  15.0058  15.0058  15.1263  15.1263
    16.3155  16.3155  17.5657  17.5658  17.8232

          k = 0.0000-0.4905 0.1669 ( 62990 PWs)   bands (ev):

   -66.2298 -66.2298 -66.2292 -66.2292 -66.2291 -66.2291 -66.2286 -66.2286
   -30.6034 -30.6034 -30.5996 -30.5996 -30.5779 -30.5779 -30.5757 -30.5757
   -30.5702 -30.5702 -30.5602 -30.5602 -30.5557 -30.5557 -30.5452 -30.5452
   -30.5089 -30.5089 -30.5029 -30.5029 -30.4938 -30.4937 -30.4859 -30.4859
   -20.3849 -20.3849 -20.3848 -20.3848 -20.3845 -20.3844 -20.3844 -20.3844
   -20.3742 -20.3742 -20.3742 -20.3742 -20.3742 -20.3742 -20.3742 -20.3742
   -20.3652 -20.3652 -20.3651 -20.3651 -20.3630 -20.3630 -20.3629 -20.3629
   -20.3624 -20.3624 -20.3623 -20.3622 -20.3606 -20.3606 -20.3603 -20.3603
   -20.3592 -20.3592 -20.3584 -20.3584 -20.3575 -20.3575 -20.3565 -20.3565
   -20.3545 -20.3544 -20.3535 -20.3534 -20.3498 -20.3498 -20.3490 -20.3490
   -20.3443 -20.3443 -20.3436 -20.3436 -20.3434 -20.3434 -20.3426 -20.3426
    -9.8058  -9.8058  -9.4609  -9.4609  -9.3825  -9.3825  -8.9991  -8.9991
    -8.6647  -8.6647  -8.5522  -8.5522  -8.5342  -8.5342  -8.5161  -8.5161
    -7.9963  -7.9963  -7.9512  -7.9512  -7.9121  -7.9121  -7.8744  -7.8744
     1.2038   1.2038   1.2754   1.2754   1.4539   1.4539   1.5673   1.5673
     2.5582   2.5582   2.8523   2.8523   2.9087   2.9087   2.9508   2.9508
     3.0570   3.0570   3.1380   3.1380   3.3598   3.3598   3.4077   3.4077
     3.5477   3.5477   4.2721   4.2721   4.5834   4.5834   4.9624   4.9625
     5.0243   5.0243   5.1786   5.1786   5.2902   5.2902   5.4226   5.4226
     5.5813   5.5813   5.6272   5.6272   5.8849   5.8849   6.0131   6.0131
     6.3510   6.3510   6.4352   6.4352   6.5338   6.5338   6.7886   6.7886
     6.8216   6.8216   6.8442   6.8442   6.9550   6.9550   7.4428   7.4429
     7.4686   7.4686   7.4721   7.4721   7.4946   7.4946   8.1792   8.1792
     9.5700   9.5700  11.1953  11.1953  11.2321  11.2321  11.2702  11.2702
    11.3529  11.3530  12.4302  12.4302  12.5591  12.5591  13.0728  13.0728
    13.2222  13.2222  13.2572  13.2572  13.2988  13.2988  13.7357  13.7357
    14.5225  14.5225  15.0914  15.0914  15.1227  15.1228  15.4162  15.4162
    16.4128  16.4128  17.5201  17.5202  17.6030

          k = 0.0000-0.4905 0.3338 ( 62998 PWs)   bands (ev):

   -66.2297 -66.2296 -66.2293 -66.2293 -66.2290 -66.2290 -66.2287 -66.2287
   -30.6026 -30.6026 -30.6004 -30.6004 -30.5749 -30.5749 -30.5715 -30.5715
   -30.5675 -30.5675 -30.5576 -30.5576 -30.5487 -30.5487 -30.5380 -30.5380
   -30.5164 -30.5164 -30.5068 -30.5068 -30.5015 -30.5015 -30.4938 -30.4938
   -20.3848 -20.3848 -20.3847 -20.3847 -20.3846 -20.3845 -20.3845 -20.3845
   -20.3742 -20.3742 -20.3742 -20.3742 -20.3742 -20.3742 -20.3742 -20.3742
   -20.3652 -20.3652 -20.3652 -20.3652 -20.3631 -20.3631 -20.3630 -20.3630
   -20.3625 -20.3625 -20.3623 -20.3623 -20.3605 -20.3604 -20.3604 -20.3603
   -20.3589 -20.3589 -20.3585 -20.3585 -20.3572 -20.3572 -20.3567 -20.3567
   -20.3535 -20.3535 -20.3526 -20.3526 -20.3508 -20.3508 -20.3500 -20.3500
   -20.3441 -20.3441 -20.3436 -20.3436 -20.3434 -20.3434 -20.3428 -20.3428
    -9.6914  -9.6914  -9.4999  -9.4999  -9.1686  -9.1686  -8.8834  -8.8834
    -8.7187  -8.7187  -8.5780  -8.5780  -8.5094  -8.5094  -8.5042  -8.5042
    -8.2503  -8.2503  -8.2129  -8.2129  -7.9078  -7.9078  -7.8836  -7.8836
     1.2540   1.2540   1.2713   1.2713   2.0966   2.0966   2.1859   2.1859
     2.7737   2.7737   2.8597   2.8597   2.9281   2.9281   2.9774   2.9774
     3.1177   3.1178   3.1620   3.1620   3.3344   3.3344   3.4943   3.4944
     3.5895   3.5895   3.7559   3.7559   4.4357   4.4357   4.5424   4.5424
     4.7188   4.7188   4.8297   4.8297   4.9354   4.9355   5.1492   5.1492
     5.3269   5.3269   5.5345   5.5345   5.9222   5.9222   6.0592   6.0592
     6.4133   6.4133   6.4568   6.4568   6.5348   6.5348   6.5882   6.5882
     7.0181   7.0181   7.1192   7.1192   7.1717   7.1717   7.4166   7.4167
     7.4369   7.4369   7.4647   7.4647   7.5026   7.5026   7.9771   7.9771
    10.2885  10.2885  11.2566  11.2566  11.2718  11.2718  11.5919  11.5919
    11.6483  11.6483  11.8951  11.8951  12.7223  12.7223  12.7568  12.7568
    12.7870  12.7870  13.1599  13.1599  13.2167  13.2168  13.4244  13.4244
    14.8017  14.8017  15.0485  15.0485  15.7097  15.7097  16.3467  16.3467
    16.7470  16.7470  17.0037  17.0037  17.6716

          k = 0.0000-0.4905-0.5007 ( 62968 PWs)   bands (ev):

   -66.2295 -66.2295 -66.2295 -66.2295 -66.2289 -66.2289 -66.2289 -66.2289
   -30.6015 -30.6015 -30.6015 -30.6015 -30.5728 -30.5728 -30.5728 -30.5728
   -30.5611 -30.5611 -30.5611 -30.5611 -30.5318 -30.5318 -30.5318 -30.5318
   -30.5237 -30.5237 -30.5237 -30.5237 -30.4990 -30.4990 -30.4990 -30.4990
   -20.3847 -20.3847 -20.3847 -20.3847 -20.3846 -20.3846 -20.3846 -20.3846
   -20.3742 -20.3742 -20.3742 -20.3742 -20.3742 -20.3742 -20.3742 -20.3742
   -20.3652 -20.3652 -20.3652 -20.3652 -20.3631 -20.3631 -20.3631 -20.3631
   -20.3624 -20.3624 -20.3624 -20.3624 -20.3604 -20.3604 -20.3604 -20.3604
   -20.3587 -20.3587 -20.3587 -20.3587 -20.3569 -20.3569 -20.3569 -20.3569
   -20.3521 -20.3521 -20.3521 -20.3521 -20.3513 -20.3513 -20.3513 -20.3513
   -20.3439 -20.3439 -20.3439 -20.3439 -20.3431 -20.3431 -20.3431 -20.3431
    -9.5761  -9.5761  -9.5761  -9.5761  -8.8944  -8.8944  -8.8944  -8.8944
    -8.6916  -8.6916  -8.6916  -8.6916  -8.4579  -8.4578  -8.4578  -8.4578
    -8.4267  -8.4267  -8.4267  -8.4267  -7.8959  -7.8959  -7.8959  -7.8959
     1.2657   1.2657   1.2657   1.2657   2.7446   2.7446   2.7446   2.7446
     2.8529   2.8529   2.8529   2.8529   3.0572   3.0572   3.0572   3.0572
     3.1345   3.1345   3.1345   3.1345   3.3196   3.3196   3.3196   3.3196
     3.4501   3.4501   3.4501   3.4501   4.2983   4.2983   4.2983   4.2983
     4.3599   4.3599   4.3599   4.3599   5.0525   5.0525   5.0525   5.0525
     5.4008   5.4008   5.4008   5.4008   5.9983   5.9983   5.9983   5.9984
     6.3947   6.3947   6.3947   6.3947   6.5149   6.5149   6.5149   6.5149
     7.3217   7.3217   7.3217   7.3217   7.3456   7.3456   7.3456   7.3456
     7.3818   7.3818   7.3818   7.3818   7.6670   7.6670   7.6670   7.6670
    11.0828  11.0828  11.0828  11.0828  11.3072  11.3072  11.3072  11.3072
    12.1395  12.1395  12.1395  12.1395  12.1962  12.1962  12.1962  12.1962
    12.9959  12.9959  12.9959  12.9959  13.2313  13.2313  13.2313  13.2313
    14.9582  14.9582  14.9582  14.9582  16.3928  16.3928  16.3928  16.3928
    17.3628  17.3629  17.3629  17.3630  17.4370

          k = 0.1667 0.0000 0.0000 ( 62929 PWs)   bands (ev):

   -66.2301 -66.2295 -66.2295 -66.2294 -66.2289 -66.2289 -66.2288 -66.2283
   -30.6188 -30.6150 -30.6087 -30.6050 -30.5925 -30.5880 -30.5841 -30.5776
   -30.5742 -30.5728 -30.5672 -30.5597 -30.5426 -30.5406 -30.5245 -30.5171
   -30.5141 -30.5125 -30.5063 -30.4972 -30.4877 -30.4875 -30.4827 -30.4804
   -20.3851 -20.3850 -20.3848 -20.3847 -20.3846 -20.3845 -20.3843 -20.3842
   -20.3746 -20.3746 -20.3746 -20.3745 -20.3739 -20.3739 -20.3739 -20.3739
   -20.3658 -20.3658 -20.3656 -20.3655 -20.3648 -20.3647 -20.3643 -20.3643
   -20.3616 -20.3615 -20.3612 -20.3612 -20.3603 -20.3597 -20.3590 -20.3589
   -20.3588 -20.3585 -20.3581 -20.3579 -20.3579 -20.3574 -20.3569 -20.3563
   -20.3548 -20.3545 -20.3538 -20.3537 -20.3495 -20.3493 -20.3488 -20.3486
   -20.3444 -20.3443 -20.3437 -20.3437 -20.3434 -20.3433 -20.3426 -20.3426
   -10.0688  -9.7418  -9.6805  -9.6527  -9.3554  -9.3215  -9.2439  -9.0214
    -8.9829  -8.9557  -8.9387  -8.9177  -8.0821  -8.0207  -8.0175  -7.9848
    -7.8981  -7.8948  -7.8726  -7.8526  -7.8144  -7.7993  -7.7707  -7.7608
     1.1272   1.1593   1.1679   1.2070   1.2080   1.2345   1.2964   1.3180
     1.5195   1.5585   1.6193   1.6863   2.3575   2.4161   2.4210   2.4678
     2.5128   2.6332   3.9625   3.9892   4.1535   4.1906   4.2366   4.2781
     4.3749   4.3894   4.6156   4.6536   4.7547   4.7633   5.0172   5.2594
     5.3952   5.4201   5.4543   5.5096   5.5119   5.5803   5.6017   5.6663
     5.6827   5.7996   5.8383   5.8761   5.8859   5.9632   6.0369   6.1336
     6.1974   6.3256   6.3789   6.4004   6.4810   6.5020   6.5288   6.5738
     6.5954   6.7181   6.8626   6.8761   6.8859   6.8908   6.9387   6.9687
     7.0447   7.0632   8.0183   8.0495   8.1634   8.1853   8.2373   8.2577
     9.5059   9.5372   9.6112   9.7534   9.9790  10.0869  12.2832  12.2953
    12.4418  12.4655  12.6172  12.6197  12.6378  12.6875  12.6963  12.7437
    13.1204  13.1458  13.4068  13.5023  13.6629  13.7632  13.9865  14.0061
    14.0329  14.0703  14.4381  14.6523  14.6620  14.7090  15.2790  15.5988
    15.7730  16.4926  16.5433  17.0145  17.0428

          k = 0.1667 0.0000 0.1669 ( 62969 PWs)   bands (ev):

   -66.2300 -66.2295 -66.2295 -66.2294 -66.2289 -66.2289 -66.2289 -66.2284
   -30.6187 -30.6153 -30.6086 -30.6053 -30.5921 -30.5882 -30.5823 -30.5732
   -30.5729 -30.5693 -30.5623 -30.5557 -30.5422 -30.5409 -30.5259 -30.5165
   -30.5151 -30.5120 -30.5090 -30.4967 -30.4928 -30.4915 -30.4874 -30.4834
   -20.3850 -20.3849 -20.3848 -20.3847 -20.3846 -20.3845 -20.3843 -20.3843
   -20.3746 -20.3746 -20.3746 -20.3746 -20.3739 -20.3739 -20.3739 -20.3739
   -20.3659 -20.3658 -20.3656 -20.3656 -20.3648 -20.3647 -20.3643 -20.3643
   -20.3616 -20.3616 -20.3612 -20.3612 -20.3603 -20.3598 -20.3589 -20.3588
   -20.3587 -20.3585 -20.3581 -20.3579 -20.3578 -20.3573 -20.3570 -20.3564
   -20.3544 -20.3542 -20.3535 -20.3534 -20.3499 -20.3497 -20.3491 -20.3489
   -20.3443 -20.3442 -20.3436 -20.3436 -20.3434 -20.3433 -20.3427 -20.3426
   -10.0275  -9.6940  -9.6897  -9.5987  -9.3324  -9.2722  -9.2531  -8.9835
    -8.9533  -8.9323  -8.9231  -8.9191  -8.0964  -8.0356  -8.0217  -8.0061
    -7.9956  -7.9883  -7.9584  -7.9403  -7.8325  -7.8026  -7.7934  -7.7640
     1.1623   1.2176   1.2254   1.2888   1.3543   1.3564   1.4545   1.5031
     1.5237   1.5596   1.6840   1.7592   2.4187   2.4380   2.4725   2.5008
     2.5959   2.7151   3.9376   3.9530   4.1208   4.1364   4.3134   4.3161
     4.3604   4.3706   4.3799   4.4313   4.4646   4.5310   5.0169   5.2255
     5.2563   5.3374   5.3965   5.4086   5.5190   5.5593   5.6064   5.6223
     5.6237   5.6842   5.7019   5.7935   5.8611   6.0312   6.0840   6.1292
     6.2174   6.4366   6.4580   6.4759   6.4820   6.5230   6.5535   6.5646
     6.6347   6.6416   6.6915   6.8034   6.8311   6.9174   6.9351   6.9621
     6.9991   7.0020   8.0215   8.0443   8.1058   8.1253   8.1791   8.2012
     9.7829   9.7949   9.9148   9.9699  10.0714  10.0832  12.3444  12.3489
    12.4634  12.4765  12.4961  12.5346  12.6442  12.6489  12.6521  12.7556
    12.9094  12.9312  13.4447  13.4925  13.5688  13.6380  13.8637  13.9215
    14.2215  14.2862  14.5708  14.7402  14.7647  14.8342  15.5627  15.7005
    15.7554  16.6364  16.6674  16.7436  17.0999

          k = 0.1667 0.0000 0.3338 ( 62991 PWs)   bands (ev):

   -66.2299 -66.2296 -66.2293 -66.2293 -66.2290 -66.2290 -66.2288 -66.2285
   -30.6181 -30.6161 -30.6081 -30.6061 -30.5911 -30.5889 -30.5790 -30.5744
   -30.5602 -30.5564 -30.5490 -30.5434 -30.5421 -30.5406 -30.5311 -30.5194
   -30.5186 -30.5143 -30.5105 -30.5067 -30.5011 -30.4984 -30.4954 -30.4891
   -20.3849 -20.3849 -20.3847 -20.3847 -20.3846 -20.3846 -20.3844 -20.3844
   -20.3746 -20.3746 -20.3746 -20.3746 -20.3740 -20.3739 -20.3739 -20.3739
   -20.3659 -20.3659 -20.3657 -20.3656 -20.3648 -20.3647 -20.3643 -20.3643
   -20.3617 -20.3616 -20.3612 -20.3612 -20.3603 -20.3599 -20.3588 -20.3586
   -20.3585 -20.3584 -20.3581 -20.3580 -20.3576 -20.3571 -20.3570 -20.3565
   -20.3534 -20.3533 -20.3526 -20.3525 -20.3508 -20.3507 -20.3500 -20.3500
   -20.3441 -20.3440 -20.3436 -20.3435 -20.3434 -20.3434 -20.3429 -20.3429
    -9.9266  -9.7382  -9.5651  -9.4704  -9.3684  -9.2846  -9.0367  -8.9419
    -8.9255  -8.8399  -8.8310  -8.8076  -8.3165  -8.2829  -8.2757  -8.2573
    -8.0453  -8.0266  -8.0012  -7.9784  -7.8332  -7.8116  -7.7943  -7.7728
     1.1750   1.2073   1.2411   1.2725   1.5005   1.5117   1.5262   1.5550
     2.1141   2.1346   2.2150   2.2462   2.4241   2.4702   2.6686   2.7024
     2.8482   2.9521   3.6567   3.7088   3.8622   3.9007   3.9604   4.0066
     4.0751   4.1131   4.3678   4.3846   4.4606   4.5997   4.6461   4.7261
     4.9915   5.0664   5.1199   5.1925   5.2827   5.3264   5.5544   5.6345
     5.6652   5.7192   5.7676   5.7785   5.8329   5.8755   5.9165   6.0418
     6.2287   6.3244   6.3349   6.3767   6.3822   6.4996   6.5181   6.5269
     6.6353   6.8112   6.8405   6.8523   6.9019   6.9295   7.1218   7.1584
     7.1860   7.2549   7.9150   7.9326   7.9905   8.0018   8.0299   8.0574
     9.9943  10.0578  10.4312  10.4373  10.6748  10.7277  11.9296  11.9440
    12.3221  12.3480  12.5230  12.5429  12.6198  12.6476  12.6558  12.6821
    12.7487  12.8276  13.2404  13.2615  13.4845  13.4997  13.5303  13.5538
    14.5064  14.6002  14.8141  15.0996  15.2105  15.3690  15.4582  15.7003
    16.1653  16.7211  17.0215  17.0426  17.1517

          k = 0.1667 0.0000-0.5007 ( 62920 PWs)   bands (ev):

   -66.2297 -66.2297 -66.2292 -66.2292 -66.2292 -66.2292 -66.2286 -66.2286
   -30.6171 -30.6171 -30.6072 -30.6072 -30.5900 -30.5900 -30.5763 -30.5763
   -30.5462 -30.5462 -30.5423 -30.5423 -30.5334 -30.5334 -30.5318 -30.5318
   -30.5253 -30.5252 -30.5098 -30.5097 -30.5070 -30.5070 -30.4931 -30.4931
   -20.3848 -20.3848 -20.3848 -20.3848 -20.3846 -20.3846 -20.3845 -20.3845
   -20.3746 -20.3746 -20.3746 -20.3746 -20.3740 -20.3739 -20.3739 -20.3739
   -20.3659 -20.3659 -20.3657 -20.3657 -20.3647 -20.3647 -20.3643 -20.3643
   -20.3617 -20.3617 -20.3612 -20.3612 -20.3601 -20.3601 -20.3587 -20.3587
   -20.3584 -20.3583 -20.3581 -20.3581 -20.3573 -20.3573 -20.3567 -20.3567
   -20.3521 -20.3521 -20.3520 -20.3520 -20.3513 -20.3513 -20.3513 -20.3513
   -20.3439 -20.3439 -20.3438 -20.3438 -20.3432 -20.3432 -20.3431 -20.3431
    -9.8178  -9.8178  -9.4433  -9.4433  -9.3521  -9.3521  -8.9325  -8.9325
    -8.6904  -8.6904  -8.6040  -8.6040  -8.5914  -8.5914  -8.5740  -8.5739
    -8.0381  -8.0381  -7.9916  -7.9916  -7.8233  -7.8233  -7.7843  -7.7843
     1.1890   1.1890   1.2558   1.2558   1.5161   1.5161   1.5482   1.5482
     2.4281   2.4281   2.7598   2.7598   2.8093   2.8093   2.9979   2.9979
     3.0377   3.0377   3.2599   3.2599   3.4721   3.4722   3.8062   3.8062
     3.8097   3.8097   4.0924   4.0924   4.3691   4.3691   4.8592   4.8592
     4.9494   4.9494   5.0051   5.0051   5.1696   5.1696   5.5981   5.5981
     5.7099   5.7099   5.7377   5.7377   5.8394   5.8394   5.9656   5.9656
     6.1713   6.1713   6.2626   6.2626   6.4488   6.4488   6.5129   6.5129
     6.7231   6.7231   6.8518   6.8518   6.8935   6.8935   7.5845   7.5845
     7.5918   7.5918   7.6628   7.6628   7.6808   7.6808   8.0375   8.0375
    10.0301  10.0301  11.1957  11.1957  11.2149  11.2149  11.5301  11.5301
    11.5602  11.5602  12.6376  12.6376  12.6693  12.6693  12.8378  12.8378
    12.8941  12.8941  13.0873  13.0874  13.1254  13.1254  13.5072  13.5072
    14.5786  14.5786  15.2309  15.2309  15.5262  15.5262  15.5913  15.5913
    16.2907  16.2907  17.3600  17.3601  17.5895

          k = 0.1667 0.1635 0.0000 ( 62998 PWs)   bands (ev):

   -66.2300 -66.2295 -66.2295 -66.2294 -66.2290 -66.2289 -66.2288 -66.2283
   -30.6155 -30.6116 -30.6041 -30.6004 -30.5932 -30.5886 -30.5835 -30.5777
   -30.5741 -30.5711 -30.5673 -30.5587 -30.5457 -30.5441 -30.5284 -30.5215
   -30.5137 -30.5120 -30.5072 -30.4991 -30.4879 -30.4879 -30.4828 -30.4811
   -20.3850 -20.3849 -20.3848 -20.3847 -20.3845 -20.3845 -20.3843 -20.3842
   -20.3746 -20.3746 -20.3745 -20.3745 -20.3740 -20.3740 -20.3739 -20.3739
   -20.3656 -20.3656 -20.3652 -20.3652 -20.3647 -20.3646 -20.3643 -20.3642
   -20.3617 -20.3616 -20.3612 -20.3611 -20.3604 -20.3599 -20.3593 -20.3592
   -20.3589 -20.3588 -20.3583 -20.3579 -20.3579 -20.3575 -20.3569 -20.3564
   -20.3548 -20.3546 -20.3538 -20.3537 -20.3495 -20.3493 -20.3488 -20.3486
   -20.3444 -20.3443 -20.3437 -20.3437 -20.3434 -20.3433 -20.3426 -20.3426
   -10.0270  -9.6945  -9.6698  -9.6264  -9.3661  -9.2562  -9.2384  -9.0167
    -8.9850  -8.9186  -8.8980  -8.8856  -8.1050  -8.0359  -8.0234  -8.0042
    -7.9464  -7.9405  -7.8988  -7.8925  -7.8762  -7.8507  -7.8501  -7.8082
     1.1643   1.1677   1.1982   1.2085   1.3782   1.4136   1.5000   1.5326
     1.5438   1.6165   1.6401   1.7611   2.4354   2.4859   2.5021   2.5120
     2.5528   2.6302   3.7904   3.8215   3.9238   4.0018   4.2063   4.2702
     4.3920   4.4281   4.6052   4.6526   4.8063   4.8215   4.8266   5.1387
     5.1699   5.2890   5.2937   5.4293   5.4667   5.4926   5.5240   5.6313
     5.6841   5.8267   5.8885   5.9085   5.9525   5.9824   6.0551   6.1227
     6.1621   6.3094   6.3179   6.3520   6.4764   6.5587   6.6009   6.6273
     6.6350   6.7722   6.8175   6.8611   6.8795   6.8803   6.9393   6.9529
     6.9837   7.0273   7.9726   8.0005   8.1487   8.1616   8.1648   8.1925
     9.5350   9.5379   9.8290   9.9341  10.1767  10.2750  12.2081  12.2770
    12.3106  12.3530  12.4688  12.4690  12.6627  12.6793  12.6821  12.7745
    13.1488  13.1767  13.4490  13.5051  13.6831  13.7617  13.9033  13.9721
    14.1053  14.2584  14.4469  14.6670  14.7701  14.8971  15.2568  15.7401
    16.0049  16.2042  16.7260  17.2075  17.2467

          k = 0.1667 0.1635 0.1669 ( 62974 PWs)   bands (ev):

   -66.2300 -66.2295 -66.2294 -66.2294 -66.2289 -66.2289 -66.2289 -66.2284
   -30.6153 -30.6119 -30.6040 -30.6007 -30.5927 -30.5889 -30.5814 -30.5731
   -30.5715 -30.5693 -30.5624 -30.5550 -30.5452 -30.5445 -30.5296 -30.5208
   -30.5148 -30.5116 -30.5096 -30.4987 -30.4930 -30.4922 -30.4874 -30.4843
   -20.3850 -20.3849 -20.3848 -20.3847 -20.3846 -20.3845 -20.3844 -20.3843
   -20.3746 -20.3746 -20.3745 -20.3745 -20.3740 -20.3740 -20.3739 -20.3739
   -20.3656 -20.3656 -20.3652 -20.3652 -20.3647 -20.3646 -20.3643 -20.3642
   -20.3617 -20.3617 -20.3612 -20.3611 -20.3604 -20.3600 -20.3592 -20.3590
   -20.3589 -20.3587 -20.3583 -20.3580 -20.3578 -20.3574 -20.3569 -20.3564
   -20.3544 -20.3542 -20.3535 -20.3534 -20.3499 -20.3497 -20.3491 -20.3490
   -20.3443 -20.3442 -20.3436 -20.3436 -20.3434 -20.3433 -20.3427 -20.3427
    -9.9840  -9.6423  -9.6374  -9.6145  -9.2836  -9.2657  -9.2490  -8.9813
    -8.9549  -8.8916  -8.8898  -8.8868  -8.1248  -8.0404  -8.0370  -8.0184
    -8.0087  -7.9937  -7.9575  -7.9504  -7.9156  -7.8956  -7.8885  -7.8671
     1.3477   1.3511   1.3738   1.3946   1.4139   1.4560   1.5010   1.5403
     1.5916   1.6339   1.6849   1.8183   2.4932   2.5173   2.5417   2.5783
     2.6103   2.7101   3.7877   3.8119   3.9324   3.9632   4.2906   4.3112
     4.3407   4.3495   4.4102   4.4356   4.5151   4.5807   4.8296   5.1051
     5.1413   5.2459   5.2559   5.2691   5.3718   5.4653   5.4730   5.4905
     5.5326   5.6433   5.8689   5.8979   5.9559   5.9988   6.0603   6.0753
     6.2668   6.3456   6.3531   6.4340   6.4753   6.5729   6.6133   6.6304
     6.6854   6.7096   6.7412   6.8245   6.8658   6.8794   6.9312   6.9470
     6.9917   7.0320   7.9760   7.9945   8.0990   8.1064   8.1085   8.1375
     9.7928   9.7974  10.0938  10.1489  10.2358  10.2709  12.2796  12.3379
    12.3740  12.4003  12.4440  12.4633  12.4925  12.5083  12.6921  12.7792
    12.9408  12.9622  13.4735  13.5003  13.5752  13.6367  13.7651  13.8178
    14.3563  14.5293  14.6592  14.7718  14.8099  14.9936  15.6697  15.7243
    15.9738  16.3369  16.8261  16.8802  17.2986

          k = 0.1667 0.1635 0.3338 ( 62997 PWs)   bands (ev):

   -66.2299 -66.2295 -66.2294 -66.2293 -66.2290 -66.2290 -66.2288 -66.2285
   -30.6147 -30.6127 -30.6035 -30.6015 -30.5918 -30.5896 -30.5777 -30.5727
   -30.5607 -30.5570 -30.5492 -30.5456 -30.5431 -30.5430 -30.5340 -30.5193
   -30.5188 -30.5181 -30.5100 -30.5068 -30.5026 -30.4983 -30.4974 -30.4905
   -20.3849 -20.3848 -20.3847 -20.3847 -20.3846 -20.3846 -20.3845 -20.3844
   -20.3746 -20.3746 -20.3745 -20.3745 -20.3740 -20.3740 -20.3740 -20.3740
   -20.3657 -20.3657 -20.3653 -20.3653 -20.3646 -20.3646 -20.3643 -20.3642
   -20.3618 -20.3617 -20.3611 -20.3611 -20.3604 -20.3601 -20.3591 -20.3589
   -20.3587 -20.3585 -20.3583 -20.3581 -20.3576 -20.3571 -20.3570 -20.3565
   -20.3534 -20.3533 -20.3526 -20.3526 -20.3508 -20.3507 -20.3500 -20.3500
   -20.3441 -20.3440 -20.3436 -20.3435 -20.3434 -20.3434 -20.3429 -20.3429
    -9.8792  -9.6857  -9.5023  -9.4864  -9.2986  -9.2863  -9.0482  -8.9191
    -8.8940  -8.8421  -8.8136  -8.7864  -8.3341  -8.2850  -8.2798  -8.2539
    -8.0518  -8.0390  -8.0078  -7.9885  -7.9238  -7.9061  -7.9017  -7.8829
     1.3823   1.3994   1.4671   1.4844   1.5116   1.5307   1.5822   1.6255
     2.1144   2.1431   2.2136   2.2588   2.4990   2.5420   2.7402   2.7745
     2.8621   2.9459   3.6318   3.6401   3.8535   3.8633   3.9115   3.9687
     3.9981   4.0595   4.3642   4.4236   4.4392   4.5824   4.6420   4.7009
     4.7982   4.8650   4.9834   5.0037   5.1216   5.1807   5.3270   5.4969
     5.5143   5.6684   5.7019   5.8014   5.8288   5.8645   5.9034   5.9260
     6.2012   6.3810   6.4096   6.4516   6.5051   6.5837   6.5885   6.6285
     6.6732   6.8218   6.8624   6.8667   6.8795   6.9749   7.1164   7.1673
     7.1863   7.2543   7.9172   7.9206   7.9350   7.9439   7.9850   8.0151
    10.1804  10.2441  10.4323  10.4479  10.7769  10.8295  11.9313  11.9429
    12.3518  12.3826  12.4684  12.4821  12.5180  12.5279  12.5750  12.5994
    12.7267  12.7978  13.2384  13.2638  13.3904  13.4319  13.5046  13.5371
    14.6350  14.7183  15.1417  15.2030  15.2449  15.4278  15.6729  15.8616
    16.2984  16.6897  16.7655  17.1073  17.1625

          k = 0.1667 0.1635-0.5007 ( 62938 PWs)   bands (ev):

   -66.2297 -66.2297 -66.2292 -66.2292 -66.2292 -66.2292 -66.2287 -66.2287
   -30.6137 -30.6137 -30.6026 -30.6026 -30.5907 -30.5907 -30.5747 -30.5747
   -30.5489 -30.5489 -30.5440 -30.5440 -30.5335 -30.5335 -30.5319 -30.5319
   -30.5252 -30.5252 -30.5128 -30.5127 -30.5066 -30.5066 -30.4949 -30.4949
   -20.3848 -20.3848 -20.3847 -20.3847 -20.3846 -20.3846 -20.3845 -20.3845
   -20.3746 -20.3746 -20.3745 -20.3745 -20.3740 -20.3740 -20.3740 -20.3740
   -20.3657 -20.3657 -20.3653 -20.3653 -20.3646 -20.3646 -20.3643 -20.3643
   -20.3618 -20.3618 -20.3611 -20.3611 -20.3603 -20.3603 -20.3590 -20.3590
   -20.3585 -20.3585 -20.3582 -20.3582 -20.3573 -20.3573 -20.3568 -20.3568
   -20.3521 -20.3521 -20.3520 -20.3520 -20.3513 -20.3513 -20.3513 -20.3513
   -20.3439 -20.3439 -20.3438 -20.3438 -20.3432 -20.3432 -20.3431 -20.3431
    -9.7669  -9.7669  -9.3703  -9.3703  -9.3644  -9.3643  -8.9022  -8.9021
    -8.7032  -8.7032  -8.6084  -8.6084  -8.5851  -8.5851  -8.5655  -8.5655
    -8.0484  -8.0484  -8.0009  -8.0009  -7.9159  -7.9159  -7.8940  -7.8940
     1.3904   1.3904   1.4789   1.4789   1.5260   1.5260   1.6161   1.6161
     2.5002   2.5002   2.7899   2.7899   2.8442   2.8442   2.9873   2.9874
     3.0315   3.0315   3.2736   3.2736   3.4595   3.4595   3.8385   3.8385
     3.8565   3.8565   3.9389   3.9389   4.3760   4.3760   4.7230   4.7230
     4.8012   4.8012   4.9095   4.9095   4.9654   4.9654   5.4500   5.4500
     5.5715   5.5715   5.6193   5.6193   5.7330   5.7330   5.9121   5.9121
     6.3374   6.3374   6.4307   6.4307   6.5483   6.5483   6.5715   6.5715
     6.7144   6.7144   6.8631   6.8631   6.9153   6.9153   7.5835   7.5835
     7.5910   7.5910   7.6349   7.6349   7.6531   7.6531   7.9926   7.9926
    10.2195  10.2195  11.1968  11.1968  11.2140  11.2140  11.5907  11.5907
    11.6230  11.6230  12.4760  12.4760  12.6948  12.6948  12.8301  12.8301
    12.8926  12.8926  12.9581  12.9581  12.9965  12.9965  13.5229  13.5229
    14.7001  14.7001  15.5038  15.5038  15.6096  15.6096  15.7338  15.7338
    16.3713  16.3713  17.2167  17.2167  17.5388

          k = 0.1667 0.3270 0.0000 ( 63015 PWs)   bands (ev):

   -66.2299 -66.2296 -66.2294 -66.2293 -66.2291 -66.2290 -66.2287 -66.2285
   -30.6075 -30.6036 -30.5954 -30.5922 -30.5910 -30.5877 -30.5818 -30.5783
   -30.5745 -30.5673 -30.5649 -30.5548 -30.5547 -30.5547 -30.5394 -30.5327
   -30.5128 -30.5106 -30.5090 -30.5035 -30.4885 -30.4882 -30.4829 -30.4822
   -20.3850 -20.3849 -20.3849 -20.3848 -20.3845 -20.3844 -20.3843 -20.3843
   -20.3744 -20.3744 -20.3744 -20.3744 -20.3741 -20.3741 -20.3741 -20.3740
   -20.3652 -20.3652 -20.3647 -20.3646 -20.3642 -20.3642 -20.3637 -20.3635
   -20.3620 -20.3620 -20.3611 -20.3609 -20.3609 -20.3607 -20.3601 -20.3597
   -20.3594 -20.3590 -20.3584 -20.3581 -20.3579 -20.3577 -20.3568 -20.3565
   -20.3548 -20.3547 -20.3538 -20.3538 -20.3495 -20.3494 -20.3487 -20.3486
   -20.3444 -20.3443 -20.3437 -20.3437 -20.3433 -20.3433 -20.3426 -20.3426
    -9.9232  -9.7201  -9.5822  -9.4992  -9.4018  -9.2947  -9.0122  -9.0009
    -8.9909  -8.7908  -8.7706  -8.7619  -8.3116  -8.2315  -8.2273  -8.1925
    -8.0284  -8.0164  -7.9823  -7.9658  -7.8871  -7.8689  -7.8454  -7.8278
     1.1673   1.1676   1.2089   1.2094   1.4996   1.5127   1.5765   1.6100
     2.1080   2.2009   2.2441   2.3381   2.5312   2.5801   2.7048   2.7358
     2.7562   2.7624   3.3884   3.3934   3.5301   3.5501   3.9794   4.2222
     4.2231   4.3124   4.3632   4.5689   4.6299   4.6519   4.7243   4.7511
     4.9659   5.0123   5.1679   5.2941   5.3007   5.3587   5.5149   5.5518
     5.5925   5.6338   5.6756   5.8944   5.9073   5.9881   6.0408   6.0889
     6.1875   6.3042   6.3190   6.4496   6.5945   6.6425   6.7352   6.7812
     6.8128   6.8434   6.8639   6.8727   6.8819   6.9209   6.9845   7.0278
     7.0662   7.1127   7.7927   7.8129   7.8879   7.9066   8.1698   8.1821
     9.5450   9.5514  10.3911  10.4618  10.6938  10.7640  11.7655  11.8143
    12.0070  12.0198  12.3062  12.3212  12.6777  12.6810  12.7922  12.8926
    13.2254  13.2817  13.3167  13.3666  13.6857  13.7001  13.7539  13.7603
    14.3611  14.4469  14.6844  14.7275  15.1070  15.1759  15.5749  15.6355
    15.6682  17.0003  17.0051  17.1814  17.2931

          k = 0.1667 0.3270 0.1669 ( 62996 PWs)   bands (ev):

   -66.2299 -66.2296 -66.2293 -66.2293 -66.2290 -66.2290 -66.2288 -66.2285
   -30.6073 -30.6038 -30.5951 -30.5920 -30.5913 -30.5880 -30.5788 -30.5739
   -30.5703 -30.5655 -30.5625 -30.5551 -30.5536 -30.5518 -30.5402 -30.5317
   -30.5139 -30.5113 -30.5097 -30.5030 -30.4933 -30.4931 -30.4874 -30.4859
   -20.3849 -20.3849 -20.3848 -20.3847 -20.3845 -20.3845 -20.3844 -20.3843
   -20.3744 -20.3744 -20.3744 -20.3744 -20.3741 -20.3741 -20.3741 -20.3740
   -20.3652 -20.3652 -20.3647 -20.3647 -20.3642 -20.3642 -20.3637 -20.3635
   -20.3621 -20.3620 -20.3611 -20.3610 -20.3609 -20.3607 -20.3600 -20.3597
   -20.3593 -20.3589 -20.3584 -20.3581 -20.3578 -20.3575 -20.3569 -20.3565
   -20.3544 -20.3543 -20.3535 -20.3535 -20.3498 -20.3497 -20.3491 -20.3490
   -20.3443 -20.3442 -20.3436 -20.3436 -20.3434 -20.3434 -20.3427 -20.3427
    -9.8763  -9.6666  -9.5172  -9.5110  -9.3204  -9.3049  -9.0164  -8.9753
    -8.9603  -8.7750  -8.7718  -8.7556  -8.3259  -8.2384  -8.2297  -8.1956
    -8.0283  -8.0263  -7.9916  -7.9894  -7.9754  -7.9657  -7.9494  -7.9307
     1.3511   1.3530   1.4463   1.4531   1.5020   1.5155   1.6333   1.6766
     2.1133   2.1993   2.2368   2.3320   2.6132   2.6514   2.7493   2.7650
     2.7918   2.8298   3.4103   3.4287   3.5361   3.5441   3.9693   4.2488
     4.2891   4.3100   4.3288   4.3521   4.3890   4.6252   4.6558   4.7291
     4.7649   4.7770   5.1293   5.1749   5.2647   5.2980   5.3287   5.3499
     5.5246   5.5411   5.6143   5.6588   5.7058   5.7487   6.0800   6.0970
     6.3667   6.4284   6.4787   6.5832   6.6004   6.6304   6.6785   6.7421
     6.7951   6.8189   6.9045   6.9169   6.9239   6.9792   6.9948   7.0253
     7.0912   7.1267   7.7957   7.8059   7.8585   7.8759   8.1111   8.1243
     9.7986   9.8059  10.5737  10.6301  10.7184  10.7600  11.8521  11.8995
    12.0121  12.0203  12.3584  12.3737  12.4811  12.4839  12.8208  12.8953
    13.0463  13.0724  13.3227  13.3672  13.5179  13.5471  13.6159  13.6245
    14.6854  14.7032  14.7882  15.0131  15.1213  15.5754  15.6229  15.6606
    15.7974  16.9659  17.0862  17.2236  17.2502

          k = 0.1667 0.3270 0.3338 ( 62973 PWs)   bands (ev):

   -66.2298 -66.2295 -66.2294 -66.2292 -66.2292 -66.2289 -66.2289 -66.2286
   -30.6066 -30.6046 -30.5942 -30.5921 -30.5911 -30.5888 -30.5734 -30.5669
   -30.5638 -30.5607 -30.5561 -30.5495 -30.5478 -30.5430 -30.5416 -30.5279
   -30.5191 -30.5187 -30.5084 -30.5069 -30.5051 -30.5016 -30.4976 -30.4936
   -20.3849 -20.3848 -20.3847 -20.3847 -20.3846 -20.3845 -20.3845 -20.3844
   -20.3744 -20.3744 -20.3744 -20.3744 -20.3741 -20.3741 -20.3741 -20.3741
   -20.3653 -20.3652 -20.3648 -20.3647 -20.3643 -20.3643 -20.3637 -20.3636
   -20.3622 -20.3621 -20.3612 -20.3610 -20.3609 -20.3608 -20.3599 -20.3598
   -20.3589 -20.3587 -20.3585 -20.3582 -20.3575 -20.3572 -20.3570 -20.3567
   -20.3534 -20.3534 -20.3526 -20.3526 -20.3508 -20.3507 -20.3500 -20.3500
   -20.3441 -20.3440 -20.3436 -20.3435 -20.3434 -20.3434 -20.3429 -20.3429
    -9.7619  -9.5580  -9.5385  -9.3439  -9.3407  -9.0892  -9.0583  -8.8808
    -8.8498  -8.7825  -8.7211  -8.7049  -8.4404  -8.3441  -8.2701  -8.2431
    -8.2256  -8.2030  -8.1548  -8.1263  -8.0153  -7.9984  -7.9892  -7.9750
     1.4809   1.4905   1.5008   1.5128   1.9958   2.0505   2.1107   2.1309
     2.2060   2.2291   2.2850   2.4106   2.7127   2.7548   2.8500   2.9348
     2.9956   3.0136   3.4090   3.4357   3.5257   3.5579   3.8282   3.8413
     3.9616   4.1686   4.2193   4.2393   4.2989   4.4332   4.4480   4.6162
     4.6631   4.7006   4.7372   4.7861   4.8444   4.8904   5.0579   5.1397
     5.2060   5.2889   5.3694   5.5540   5.5750   5.6895   5.8293   5.8369
     6.4524   6.5333   6.5777   6.6205   6.7055   6.7349   6.7562   6.8154
     6.8428   6.9451   6.9655   7.0160   7.0332   7.0965   7.1407   7.1763
     7.2370   7.2509   7.7520   7.7577   7.7872   7.8092   7.9266   7.9526
    10.4112  10.4314  10.7167  10.7481  11.0930  11.1449  11.9095  11.9348
    12.0060  12.0491  12.1422  12.1767  12.5007  12.5201  12.5389  12.5735
    12.8533  12.8931  13.0902  13.1320  13.2372  13.2658  13.3683  13.4094
    14.9109  15.0500  15.1778  15.4389  15.5798  15.8221  15.9673  16.2517
    16.5755  16.6618  16.8450  17.3393  17.3854

          k = 0.1667 0.3270-0.5007 ( 62976 PWs)   bands (ev):

   -66.2296 -66.2296 -66.2293 -66.2293 -66.2290 -66.2290 -66.2288 -66.2288
   -30.6056 -30.6056 -30.5931 -30.5931 -30.5900 -30.5900 -30.5694 -30.5694
   -30.5583 -30.5583 -30.5498 -30.5497 -30.5334 -30.5334 -30.5324 -30.5324
   -30.5248 -30.5248 -30.5190 -30.5190 -30.5052 -30.5052 -30.4989 -30.4989
   -20.3848 -20.3848 -20.3847 -20.3847 -20.3846 -20.3846 -20.3845 -20.3845
   -20.3745 -20.3745 -20.3744 -20.3744 -20.3741 -20.3741 -20.3741 -20.3741
   -20.3653 -20.3653 -20.3647 -20.3647 -20.3643 -20.3643 -20.3636 -20.3636
   -20.3622 -20.3622 -20.3611 -20.3611 -20.3609 -20.3608 -20.3598 -20.3598
   -20.3587 -20.3587 -20.3584 -20.3584 -20.3572 -20.3572 -20.3569 -20.3569
   -20.3521 -20.3521 -20.3521 -20.3521 -20.3513 -20.3513 -20.3513 -20.3513
   -20.3438 -20.3438 -20.3438 -20.3438 -20.3432 -20.3432 -20.3431 -20.3431
    -9.6414  -9.6414  -9.4155  -9.4155  -9.1621  -9.1621  -8.8052  -8.8052
    -8.7564  -8.7564  -8.6250  -8.6250  -8.5590  -8.5589  -8.5319  -8.5319
    -8.2177  -8.2177  -8.1798  -8.1798  -8.0040  -8.0040  -7.9863  -7.9863
     1.4949   1.4949   1.5095   1.5096   2.1139   2.1139   2.2162   2.2162
     2.6969   2.6969   2.8765   2.8765   2.9342   2.9342   2.9549   2.9549
     3.0179   3.0179   3.3046   3.3047   3.4156   3.4156   3.5585   3.5585
     3.9691   3.9691   3.9994   3.9994   4.0243   4.0243   4.2456   4.2456
     4.6741   4.6741   4.8216   4.8216   4.8565   4.8565   4.9160   4.9160
     5.0055   5.0055   5.4439   5.4439   5.6309   5.6309   5.7091   5.7091
     6.5600   6.5600   6.6024   6.6024   6.6892   6.6892   6.7652   6.7652
     6.9291   6.9291   6.9977   6.9977   7.1094   7.1094   7.5311   7.5311
     7.5403   7.5403   7.5701   7.5701   7.6094   7.6094   7.8285   7.8285
    10.7111  10.7111  11.1961  11.1961  11.2191  11.2191  11.7856  11.7856
    11.8198  11.8198  12.0453  12.0453  12.5582  12.5582  12.6119  12.6119
    12.7960  12.7960  12.8591  12.8591  12.9631  12.9631  13.3833  13.3833
    15.0074  15.0074  15.4246  15.4246  16.1070  16.1070  16.5054  16.5054
    16.7172  16.7172  16.8492  16.8492  17.5774

          k = 0.1667-0.4905 0.0000 ( 63022 PWs)   bands (ev):

   -66.2298 -66.2298 -66.2292 -66.2292 -66.2291 -66.2291 -66.2286 -66.2286
   -30.6000 -30.6000 -30.5957 -30.5957 -30.5797 -30.5797 -30.5791 -30.5791
   -30.5707 -30.5707 -30.5647 -30.5647 -30.5535 -30.5535 -30.5457 -30.5457
   -30.5113 -30.5113 -30.5075 -30.5075 -30.4885 -30.4885 -30.4829 -30.4829
   -20.3849 -20.3849 -20.3848 -20.3848 -20.3844 -20.3844 -20.3843 -20.3843
   -20.3743 -20.3743 -20.3742 -20.3742 -20.3742 -20.3742 -20.3742 -20.3742
   -20.3649 -20.3649 -20.3648 -20.3648 -20.3630 -20.3630 -20.3629 -20.3629
   -20.3624 -20.3624 -20.3622 -20.3621 -20.3607 -20.3607 -20.3605 -20.3605
   -20.3593 -20.3593 -20.3583 -20.3583 -20.3578 -20.3578 -20.3567 -20.3567
   -20.3547 -20.3547 -20.3538 -20.3538 -20.3494 -20.3494 -20.3487 -20.3487
   -20.3443 -20.3443 -20.3437 -20.3437 -20.3433 -20.3433 -20.3426 -20.3426
    -9.8079  -9.8079  -9.4723  -9.4723  -9.3734  -9.3734  -8.9994  -8.9994
    -8.6652  -8.6652  -8.5491  -8.5491  -8.5389  -8.5389  -8.5151  -8.5151
    -8.0267  -8.0267  -7.9793  -7.9793  -7.8789  -7.8789  -7.8376  -7.8376
     1.1675   1.1675   1.2100   1.2100   1.5094   1.5094   1.6022   1.6022
     2.5564   2.5564   2.8433   2.8433   2.9210   2.9210   2.9342   2.9342
     3.0594   3.0594   3.1542   3.1542   3.3584   3.3584   3.4100   3.4100
     3.5439   3.5439   4.2404   4.2404   4.6123   4.6123   4.9397   4.9397
     5.0156   5.0156   5.1919   5.1919   5.3012   5.3012   5.3817   5.3817
     5.5471   5.5471   5.6710   5.6710   5.9259   5.9259   6.0855   6.0855
     6.3231   6.3231   6.3583   6.3583   6.5882   6.5882   6.7419   6.7419
     6.8425   6.8425   6.8732   6.8732   6.9403   6.9403   7.4465   7.4465
     7.4608   7.4608   7.4876   7.4876   7.5032   7.5032   8.1760   8.1760
     9.5513   9.5513  11.0984  11.0984  11.1372  11.1372  11.3574  11.3574
    11.4241  11.4241  12.3128  12.3128  12.6793  12.6793  13.0025  13.0025
    13.1256  13.1256  13.4413  13.4413  13.4749  13.4749  13.7456  13.7456
    14.4387  14.4387  15.0020  15.0020  15.1174  15.1174  15.4360  15.4360
    16.4006  16.4006  17.5065  17.5066  17.6326

          k = 0.1667-0.4905 0.1669 ( 63072 PWs)   bands (ev):

   -66.2297 -66.2297 -66.2292 -66.2292 -66.2292 -66.2292 -66.2286 -66.2286
   -30.5997 -30.5997 -30.5960 -30.5960 -30.5781 -30.5781 -30.5754 -30.5752
   -30.5710 -30.5709 -30.5611 -30.5611 -30.5541 -30.5541 -30.5439 -30.5439
   -30.5127 -30.5127 -30.5071 -30.5071 -30.4935 -30.4934 -30.4871 -30.4870
   -20.3849 -20.3849 -20.3848 -20.3848 -20.3845 -20.3844 -20.3844 -20.3844
   -20.3743 -20.3743 -20.3742 -20.3742 -20.3742 -20.3742 -20.3742 -20.3742
   -20.3649 -20.3649 -20.3649 -20.3649 -20.3630 -20.3630 -20.3630 -20.3630
   -20.3624 -20.3624 -20.3622 -20.3622 -20.3607 -20.3607 -20.3605 -20.3605
   -20.3591 -20.3591 -20.3583 -20.3583 -20.3577 -20.3577 -20.3567 -20.3567
   -20.3544 -20.3544 -20.3535 -20.3535 -20.3498 -20.3498 -20.3490 -20.3490
   -20.3443 -20.3443 -20.3436 -20.3436 -20.3434 -20.3434 -20.3427 -20.3427
    -9.7568  -9.7568  -9.3963  -9.3955  -9.3852  -9.3845  -8.9680  -8.9680
    -8.6775  -8.6773  -8.5456  -8.5452  -8.5414  -8.5410  -8.5126  -8.5123
    -8.0301  -8.0297  -7.9946  -7.9885  -7.9841  -7.9759  -7.9436  -7.9410
     1.3515   1.3523   1.4518   1.4531   1.5118   1.5119   1.6673   1.6676
     2.6345   2.6395   2.8494   2.8611   2.9177   2.9216   2.9485   2.9491
     3.0973   3.1062   3.1430   3.1523   3.3873   3.4004   3.4060   3.4172
     3.5605   3.5613   4.2997   4.3002   4.3372   4.3448   4.8809   4.9357
     4.9463   4.9791   5.0166   5.0451   5.0657   5.0680   5.3454   5.3579
[...]
    11.9031  11.9031  11.9031  11.9031  11.9862  11.9862  11.9862  11.9862
    12.9284  12.9284  12.9284  12.9284  13.0595  13.0595  13.0595  13.0595
    15.3919  15.3919  15.3919  15.3919  16.4386  16.4386  16.4386  16.4386
    17.3495  17.3496  17.3497  17.3498  17.4267

          k =-0.5000 0.3270 0.0000 ( 62996 PWs)   bands (ev):

   -66.2296 -66.2296 -66.2293 -66.2293 -66.2290 -66.2290 -66.2287 -66.2287
   -30.5969 -30.5969 -30.5930 -30.5930 -30.5764 -30.5764 -30.5729 -30.5729
   -30.5704 -30.5704 -30.5677 -30.5677 -30.5414 -30.5414 -30.5371 -30.5371
   -30.5291 -30.5291 -30.5226 -30.5226 -30.4861 -30.4861 -30.4860 -30.4860
   -20.3849 -20.3849 -20.3848 -20.3848 -20.3845 -20.3845 -20.3843 -20.3843
   -20.3745 -20.3745 -20.3745 -20.3745 -20.3742 -20.3742 -20.3741 -20.3741
   -20.3645 -20.3645 -20.3644 -20.3644 -20.3630 -20.3630 -20.3630 -20.3630
   -20.3623 -20.3623 -20.3622 -20.3622 -20.3605 -20.3605 -20.3603 -20.3603
   -20.3590 -20.3590 -20.3585 -20.3585 -20.3579 -20.3579 -20.3575 -20.3575
   -20.3543 -20.3543 -20.3542 -20.3542 -20.3491 -20.3491 -20.3490 -20.3490
   -20.3440 -20.3440 -20.3440 -20.3440 -20.3430 -20.3430 -20.3430 -20.3430
    -9.7061  -9.7061  -9.5036  -9.5036  -9.1536  -9.1536  -8.8353  -8.8353
    -8.7391  -8.7391  -8.6387  -8.6387  -8.5691  -8.5691  -8.5378  -8.5378
    -8.2138  -8.2138  -8.1733  -8.1733  -7.8673  -7.8672  -7.8488  -7.8488
     1.2038   1.2038   1.2088   1.2088   2.1094   2.1094   2.2281   2.2281
     2.7055   2.7055   2.8332   2.8332   2.9282   2.9282   2.9889   2.9889
     3.0412   3.0412   3.2576   3.2576   3.2866   3.2866   3.4470   3.4470
     3.9329   3.9329   3.9531   3.9531   4.1058   4.1058   4.3012   4.3012
     4.7911   4.7911   4.8918   4.8918   4.9620   4.9620   5.1170   5.1170
     5.2352   5.2352   5.7394   5.7394   6.0195   6.0195   6.0514   6.0514
     6.3483   6.3483   6.4100   6.4100   6.4772   6.4772   6.7166   6.7166
     6.8860   6.8860   6.9616   6.9616   7.0473   7.0473   7.5189   7.5189
     7.5362   7.5363   7.5778   7.5778   7.6050   7.6050   7.9150   7.9150
    10.4052  10.4052  11.0377  11.0377  11.0590  11.0590  11.7124  11.7124
    11.7968  11.7968  11.9098  11.9098  12.6260  12.6260  12.6794  12.6794
    13.0745  13.0745  13.1058  13.1058  13.2899  13.2899  13.7276  13.7276
    14.5816  14.5816  14.9886  14.9886  16.0231  16.0231  16.4397  16.4397
    16.5605  16.5605  16.8132  16.8132  17.6493

          k =-0.5000 0.3270 0.1669 ( 62986 PWs)   bands (ev):

   -66.2296 -66.2296 -66.2293 -66.2293 -66.2291 -66.2291 -66.2288 -66.2288
   -30.5967 -30.5967 -30.5933 -30.5932 -30.5732 -30.5732 -30.5691 -30.5691
   -30.5686 -30.5686 -30.5673 -30.5673 -30.5420 -30.5420 -30.5360 -30.5360
   -30.5301 -30.5301 -30.5218 -30.5218 -30.4911 -30.4911 -30.4906 -30.4906
   -20.3849 -20.3849 -20.3848 -20.3848 -20.3845 -20.3845 -20.3844 -20.3844
   -20.3745 -20.3745 -20.3745 -20.3745 -20.3742 -20.3742 -20.3742 -20.3742
   -20.3645 -20.3645 -20.3645 -20.3645 -20.3631 -20.3631 -20.3630 -20.3630
   -20.3623 -20.3623 -20.3622 -20.3622 -20.3605 -20.3605 -20.3603 -20.3603
   -20.3588 -20.3588 -20.3583 -20.3583 -20.3579 -20.3579 -20.3575 -20.3575
   -20.3540 -20.3540 -20.3539 -20.3539 -20.3495 -20.3494 -20.3494 -20.3494
   -20.3440 -20.3440 -20.3439 -20.3439 -20.3431 -20.3431 -20.3430 -20.3430
    -9.6453  -9.6453  -9.4282  -9.4282  -9.1679  -9.1679  -8.8137  -8.8137
    -8.7510  -8.7510  -8.6298  -8.6298  -8.5666  -8.5666  -8.5402  -8.5402
    -8.2173  -8.2173  -8.1771  -8.1771  -7.9775  -7.9775  -7.9538  -7.9538
     1.4459   1.4459   1.4562   1.4562   2.1149   2.1150   2.2155   2.2155
     2.7751   2.7752   2.8426   2.8426   2.9123   2.9124   2.9914   2.9914
     3.0399   3.0399   3.3341   3.3341   3.3713   3.3713   3.4905   3.4905
     3.9268   3.9269   3.9599   3.9599   4.0979   4.0979   4.3050   4.3050
     4.6792   4.6792   4.7658   4.7658   4.8750   4.8750   4.9241   4.9241
     4.9867   4.9867   5.4667   5.4667   5.6437   5.6437   5.7614   5.7614
     6.5779   6.5779   6.6608   6.6608   6.7229   6.7229   6.7813   6.7813
     6.8898   6.8898   6.9640   6.9640   7.0886   7.0886   7.5117   7.5118
     7.5333   7.5333   7.5739   7.5739   7.5947   7.5947   7.8850   7.8850
    10.5874  10.5874  11.1302  11.1302  11.1534  11.1534  11.7424  11.7424
    11.8135  11.8135  11.9580  11.9580  12.6237  12.6238  12.6779  12.6779
    12.9068  12.9068  12.9401  12.9401  13.0922  13.0922  13.5587  13.5588
    14.9315  14.9315  15.3836  15.3836  16.1183  16.1183  16.4420  16.4420
    16.5977  16.5977  16.8655  16.8655  17.5204

          k =-0.5000 0.3270 0.3338 ( 62964 PWs)   bands (ev):

   -66.2295 -66.2295 -66.2292 -66.2292 -66.2292 -66.2292 -66.2289 -66.2289
   -30.5961 -30.5961 -30.5940 -30.5940 -30.5709 -30.5709 -30.5689 -30.5689
   -30.5580 -30.5580 -30.5574 -30.5574 -30.5439 -30.5439 -30.5341 -30.5341
   -30.5316 -30.5316 -30.5192 -30.5192 -30.5043 -30.5043 -30.5019 -30.5019
   -20.3848 -20.3848 -20.3847 -20.3847 -20.3846 -20.3846 -20.3845 -20.3845
   -20.3745 -20.3745 -20.3745 -20.3745 -20.3742 -20.3742 -20.3742 -20.3742
   -20.3646 -20.3646 -20.3646 -20.3646 -20.3631 -20.3631 -20.3631 -20.3631
   -20.3623 -20.3623 -20.3622 -20.3622 -20.3605 -20.3605 -20.3604 -20.3604
   -20.3585 -20.3585 -20.3581 -20.3581 -20.3580 -20.3580 -20.3576 -20.3576
   -20.3530 -20.3530 -20.3530 -20.3530 -20.3504 -20.3504 -20.3503 -20.3503
   -20.3438 -20.3438 -20.3437 -20.3437 -20.3433 -20.3433 -20.3432 -20.3432
    -9.4913  -9.4913  -9.2279  -9.2279  -9.2129  -9.2129  -8.8133  -8.8133
    -8.7233  -8.7233  -8.5971  -8.5971  -8.5588  -8.5588  -8.5463  -8.5463
    -8.2946  -8.2945  -8.2441  -8.2441  -8.1824  -8.1823  -8.1350  -8.1350
     2.0017   2.0017   2.1068   2.1068   2.1369   2.1369   2.2672   2.2672
     2.8269   2.8269   2.8712   2.8712   2.9806   2.9806   2.9940   2.9940
     3.0502   3.0502   3.4289   3.4289   3.5965   3.5965   3.6453   3.6453
     3.9001   3.9001   3.9853   3.9853   4.0680   4.0680   4.2117   4.2117
     4.2504   4.2504   4.4434   4.4434   4.5411   4.5411   4.7717   4.7717
     4.8132   4.8132   4.8612   4.8612   4.9842   4.9842   5.2747   5.2747
     6.7961   6.7961   6.8563   6.8563   6.8828   6.8829   6.9605   6.9605
     7.0791   7.0791   7.1230   7.1230   7.2398   7.2398   7.4722   7.4722
     7.5135   7.5135   7.5574   7.5574   7.5851   7.5851   7.7897   7.7897
    11.0809  11.0809  11.4107  11.4107  11.4450  11.4450  11.7702  11.7702
    11.8456  11.8456  12.1735  12.1735  12.4417  12.4417  12.4534  12.4534
    12.5667  12.5668  12.6901  12.6901  12.7007  12.7007  13.1357  13.1357
    15.7059  15.7059  16.2851  16.2851  16.3616  16.3616  16.4742  16.4742
    16.7858  16.7858  16.9986  16.9986  17.1319

          k =-0.5000 0.3270-0.5007 ( 62944 PWs)   bands (ev):

   -66.2293 -66.2293 -66.2293 -66.2293 -66.2290 -66.2290 -66.2290 -66.2290
   -30.5951 -30.5951 -30.5951 -30.5951 -30.5698 -30.5698 -30.5698 -30.5698
   -30.5484 -30.5483 -30.5483 -30.5483 -30.5435 -30.5435 -30.5434 -30.5434
   -30.5205 -30.5205 -30.5205 -30.5205 -30.5131 -30.5131 -30.5131 -30.5131
   -20.3847 -20.3847 -20.3847 -20.3847 -20.3846 -20.3846 -20.3846 -20.3846
   -20.3745 -20.3745 -20.3745 -20.3745 -20.3742 -20.3742 -20.3742 -20.3742
   -20.3646 -20.3646 -20.3646 -20.3646 -20.3631 -20.3631 -20.3631 -20.3631
   -20.3622 -20.3622 -20.3622 -20.3622 -20.3605 -20.3605 -20.3605 -20.3605
   -20.3582 -20.3582 -20.3582 -20.3582 -20.3578 -20.3578 -20.3578 -20.3578
   -20.3517 -20.3517 -20.3517 -20.3517 -20.3517 -20.3517 -20.3516 -20.3516
   -20.3435 -20.3435 -20.3435 -20.3435 -20.3435 -20.3435 -20.3435 -20.3435
    -9.3255  -9.3255  -9.3255  -9.3255  -8.9690  -8.9689  -8.9689  -8.9689
    -8.5792  -8.5791  -8.5791  -8.5791  -8.5127  -8.5127  -8.5127  -8.5127
    -8.4918  -8.4918  -8.4918  -8.4918  -8.1737  -8.1737  -8.1737  -8.1737
     2.1231   2.1231   2.1231   2.1231   2.7477   2.7477   2.7477   2.7477
     2.8767   2.8767   2.8767   2.8767   2.9487   2.9487   2.9487   2.9487
     3.1274   3.1274   3.1274   3.1274   3.8292   3.8292   3.8292   3.8292
     3.9130   3.9130   3.9130   3.9130   4.0450   4.0450   4.0450   4.0451
     4.1346   4.1346   4.1346   4.1347   4.3014   4.3014   4.3014   4.3015
     4.6592   4.6592   4.6592   4.6592   5.0177   5.0177   5.0177   5.0177
     6.8659   6.8659   6.8659   6.8659   6.9300   6.9300   6.9300   6.9300
     7.3082   7.3082   7.3082   7.3082   7.4148   7.4148   7.4148   7.4148
     7.4763   7.4763   7.4763   7.4763   7.6483   7.6483   7.6483   7.6483
    11.6407  11.6407  11.6407  11.6407  11.8368  11.8368  11.8368  11.8368
    11.9328  11.9328  11.9328  11.9328  12.0283  12.0283  12.0283  12.0283
    12.5831  12.5831  12.5831  12.5831  12.7211  12.7211  12.7211  12.7211
    16.2459  16.2459  16.2459  16.2459  16.6769  16.6769  16.6769  16.6769
    17.1431  17.1431  17.1431  17.1431  17.4319

          k =-0.5000-0.4905 0.0000 ( 62976 PWs)   bands (ev):

   -66.2295 -66.2295 -66.2295 -66.2295 -66.2289 -66.2289 -66.2289 -66.2289
   -30.5843 -30.5843 -30.5830 -30.5830 -30.5798 -30.5798 -30.5779 -30.5779
   -30.5733 -30.5733 -30.5731 -30.5731 -30.5377 -30.5377 -30.5358 -30.5358
   -30.5323 -30.5322 -30.5303 -30.5303 -30.4863 -30.4863 -30.4862 -30.4862
   -20.3849 -20.3849 -20.3849 -20.3849 -20.3844 -20.3844 -20.3844 -20.3844
   -20.3744 -20.3744 -20.3743 -20.3743 -20.3743 -20.3743 -20.3743 -20.3743
   -20.3637 -20.3637 -20.3637 -20.3637 -20.3633 -20.3633 -20.3633 -20.3633
   -20.3619 -20.3619 -20.3617 -20.3617 -20.3615 -20.3614 -20.3612 -20.3612
   -20.3588 -20.3588 -20.3588 -20.3588 -20.3577 -20.3577 -20.3577 -20.3577
   -20.3543 -20.3543 -20.3542 -20.3542 -20.3491 -20.3490 -20.3490 -20.3490
   -20.3440 -20.3440 -20.3440 -20.3440 -20.3430 -20.3430 -20.3430 -20.3430
    -9.5916  -9.5916  -9.5813  -9.5813  -8.9211  -8.9211  -8.8751  -8.8751
    -8.7138  -8.7137  -8.6778  -8.6778  -8.4898  -8.4898  -8.4600  -8.4600
    -8.4302  -8.4302  -8.4047  -8.4047  -7.8594  -7.8594  -7.8588  -7.8588
     1.2048   1.2048   1.2095   1.2095   2.7631   2.7631   2.8181   2.8182
     2.8323   2.8323   2.8565   2.8565   3.0114   3.0114   3.0846   3.0846
     3.0985   3.0985   3.2356   3.2356   3.2654   3.2654   3.3065   3.3065
     3.3335   3.3335   3.5899   3.5899   4.2157   4.2157   4.2890   4.2890
     4.3127   4.3127   4.3752   4.3752   5.0433   5.0433   5.0953   5.0953
     5.3546   5.3546   5.4927   5.4927   6.0262   6.0262   6.0358   6.0358
     6.4216   6.4216   6.4450   6.4450   6.5283   6.5283   6.5698   6.5698
     7.1419   7.1419   7.1927   7.1927   7.3699   7.3699   7.3844   7.3844
     7.4549   7.4549   7.4991   7.4991   7.6423   7.6423   7.6711   7.6712
    10.9298  10.9298  11.0335  11.0335  11.1259  11.1259  11.2471  11.2471
    12.0260  12.0260  12.1591  12.1592  12.2852  12.2852  12.3331  12.3331
    13.0713  13.0713  13.1076  13.1076  13.4763  13.4763  13.4778  13.4778
    14.8349  14.8349  14.8603  14.8603  16.3039  16.3039  16.4672  16.4672
    17.2176  17.2176  17.2730  17.2730  17.3471

          k =-0.5000-0.4905 0.1669 ( 62980 PWs)   bands (ev):

   -66.2295 -66.2294 -66.2294 -66.2294 -66.2289 -66.2289 -66.2289 -66.2289
   -30.5839 -30.5839 -30.5824 -30.5824 -30.5801 -30.5801 -30.5781 -30.5781
   -30.5689 -30.5689 -30.5689 -30.5689 -30.5383 -30.5383 -30.5365 -30.5365
   -30.5313 -30.5313 -30.5294 -30.5294 -30.4912 -30.4912 -30.4910 -30.4910
   -20.3849 -20.3848 -20.3848 -20.3848 -20.3844 -20.3844 -20.3844 -20.3844
   -20.3744 -20.3744 -20.3744 -20.3743 -20.3743 -20.3743 -20.3743 -20.3743
   -20.3638 -20.3638 -20.3637 -20.3637 -20.3634 -20.3634 -20.3633 -20.3633
   -20.3619 -20.3619 -20.3617 -20.3617 -20.3614 -20.3614 -20.3612 -20.3612
   -20.3586 -20.3586 -20.3586 -20.3586 -20.3577 -20.3577 -20.3577 -20.3577
   -20.3539 -20.3539 -20.3539 -20.3539 -20.3494 -20.3494 -20.3494 -20.3494
   -20.3440 -20.3440 -20.3439 -20.3439 -20.3431 -20.3431 -20.3431 -20.3430
    -9.5221  -9.5221  -9.5104  -9.5104  -8.9361  -8.9361  -8.8911  -8.8911
    -8.6992  -8.6992  -8.6642  -8.6641  -8.4879  -8.4879  -8.4622  -8.4622
    -8.4279  -8.4279  -8.4075  -8.4075  -7.9688  -7.9688  -7.9680  -7.9680
     1.4507   1.4507   1.4564   1.4564   2.7724   2.7724   2.8203   2.8203
     2.8345   2.8345   2.8478   2.8478   3.0122   3.0122   3.0671   3.0671
     3.1662   3.1662   3.2583   3.2583   3.3091   3.3091   3.3523   3.3523
     3.4038   3.4038   3.6254   3.6254   4.2192   4.2192   4.2817   4.2817
     4.3159   4.3159   4.3649   4.3649   4.8115   4.8115   4.8556   4.8556
     5.0877   5.0877   5.2048   5.2048   5.6634   5.6634   5.6665   5.6665
     6.6642   6.6642   6.6894   6.6894   6.7288   6.7288   6.7740   6.7740
     7.1391   7.1391   7.2025   7.2025   7.3651   7.3651   7.3843   7.3843
     7.4479   7.4479   7.5018   7.5018   7.6225   7.6225   7.6622   7.6622
    11.0360  11.0360  11.1305  11.1305  11.2396  11.2396  11.3546  11.3546
    12.0368  12.0368  12.1592  12.1592  12.2905  12.2905  12.3281  12.3281
    12.9045  12.9045  12.9386  12.9386  13.2862  13.2862  13.2947  13.2947
    15.2261  15.2261  15.2389  15.2389  16.3915  16.3915  16.5462  16.5462
    17.2020  17.2020  17.2598  17.2598  17.3385

          k =-0.5000-0.4905 0.3338 ( 62956 PWs)   bands (ev):

   -66.2293 -66.2293 -66.2293 -66.2293 -66.2290 -66.2290 -66.2290 -66.2290
   -30.5829 -30.5829 -30.5813 -30.5813 -30.5808 -30.5808 -30.5789 -30.5789
   -30.5580 -30.5580 -30.5575 -30.5575 -30.5408 -30.5407 -30.5391 -30.5391
   -30.5277 -30.5277 -30.5261 -30.5261 -30.5039 -30.5039 -30.5035 -30.5035
   -20.3848 -20.3848 -20.3848 -20.3848 -20.3845 -20.3845 -20.3845 -20.3845
   -20.3744 -20.3744 -20.3744 -20.3744 -20.3743 -20.3743 -20.3743 -20.3743
   -20.3638 -20.3638 -20.3638 -20.3638 -20.3634 -20.3634 -20.3634 -20.3634
   -20.3618 -20.3618 -20.3617 -20.3617 -20.3614 -20.3614 -20.3613 -20.3613
   -20.3583 -20.3583 -20.3583 -20.3583 -20.3578 -20.3578 -20.3578 -20.3578
   -20.3530 -20.3530 -20.3530 -20.3530 -20.3504 -20.3504 -20.3504 -20.3504
   -20.3438 -20.3438 -20.3438 -20.3438 -20.3433 -20.3433 -20.3432 -20.3432
    -9.3385  -9.3385  -9.3215  -9.3215  -8.9925  -8.9925  -8.9521  -8.9521
    -8.6443  -8.6442  -8.6137  -8.6137  -8.4832  -8.4832  -8.4680  -8.4680
    -8.4220  -8.4220  -8.4167  -8.4166  -8.2269  -8.2269  -8.2244  -8.2244
     2.0903   2.0903   2.1030   2.1030   2.7877   2.7877   2.8133   2.8133
     2.8362   2.8362   2.8454   2.8454   3.0380   3.0380   3.0670   3.0670
     3.2059   3.2059   3.2900   3.2901   3.4083   3.4083   3.4260   3.4260
     3.6541   3.6541   3.7727   3.7728   4.2168   4.2168   4.2539   4.2539
     4.2888   4.2888   4.3169   4.3169   4.4142   4.4142   4.4520   4.4520
     4.6085   4.6085   4.7322   4.7322   4.9041   4.9041   4.9140   4.9140
     6.9487   6.9487   7.0147   7.0147   7.0344   7.0345   7.0741   7.0741
     7.1519   7.1519   7.2401   7.2401   7.3308   7.3308   7.4180   7.4180
     7.4215   7.4215   7.5090   7.5091   7.5788   7.5788   7.6256   7.6256
    11.3546  11.3546  11.4140  11.4140  11.5839  11.5839  11.6767  11.6767
    12.0404  12.0404  12.1637  12.1637  12.2740  12.2740  12.3143  12.3143
    12.4766  12.4766  12.5427  12.5427  12.8079  12.8079  12.8212  12.8212
    16.1064  16.1064  16.1676  16.1676  16.6624  16.6625  16.7804  16.7804
    17.1111  17.1111  17.1202  17.1202  17.3675

          k =-0.5000-0.4905-0.5007 ( 62904 PWs)   bands (ev):

   -66.2292 -66.2292 -66.2292 -66.2292 -66.2292 -66.2292 -66.2292 -66.2292
   -30.5819 -30.5819 -30.5819 -30.5819 -30.5801 -30.5801 -30.5801 -30.5801
   -30.5470 -30.5470 -30.5470 -30.5470 -30.5453 -30.5453 -30.5453 -30.5453
   -30.5187 -30.5187 -30.5187 -30.5187 -30.5174 -30.5174 -30.5174 -30.5174
   -20.3847 -20.3847 -20.3847 -20.3846 -20.3846 -20.3846 -20.3846 -20.3846
   -20.3744 -20.3744 -20.3744 -20.3744 -20.3743 -20.3743 -20.3743 -20.3743
   -20.3639 -20.3639 -20.3639 -20.3639 -20.3635 -20.3635 -20.3635 -20.3634
   -20.3618 -20.3618 -20.3618 -20.3618 -20.3613 -20.3613 -20.3613 -20.3613
   -20.3581 -20.3581 -20.3580 -20.3580 -20.3580 -20.3580 -20.3580 -20.3580
   -20.3518 -20.3518 -20.3517 -20.3517 -20.3517 -20.3517 -20.3517 -20.3516
   -20.3435 -20.3435 -20.3435 -20.3435 -20.3435 -20.3435 -20.3435 -20.3435
    -9.1274  -9.1273  -9.1273  -9.1273  -9.0976  -9.0976  -9.0976  -9.0976
    -8.5184  -8.5184  -8.5184  -8.5184  -8.4986  -8.4986  -8.4986  -8.4986
    -8.4462  -8.4461  -8.4461  -8.4461  -8.4022  -8.4022  -8.4022  -8.4022
     2.6651   2.6651   2.6651   2.6651   2.7855   2.7855   2.7855   2.7855
     2.8880   2.8880   2.8880   2.8880   3.0629   3.0629   3.0629   3.0629
     3.1837   3.1837   3.1837   3.1837   3.3314   3.3314   3.3314   3.3314
     4.0472   4.0472   4.0472   4.0472   4.1113   4.1113   4.1113   4.1113
     4.2162   4.2162   4.2162   4.2162   4.2728   4.2728   4.2728   4.2728
     4.3926   4.3926   4.3926   4.3926   4.4768   4.4768   4.4768   4.4768
     7.0627   7.0627   7.0627   7.0627   7.1992   7.1992   7.1992   7.1992
     7.2545   7.2546   7.2546   7.2546   7.3361   7.3361   7.3361   7.3361
     7.4894   7.4894   7.4894   7.4895   7.5651   7.5651   7.5651   7.5651
    11.7712  11.7712  11.7712  11.7712  11.8826  11.8826  11.8826  11.8827
    12.0858  12.0858  12.0858  12.0858  12.2023  12.2023  12.2023  12.2023
    12.2784  12.2784  12.2784  12.2784  12.3873  12.3873  12.3873  12.3873
    16.7231  16.7231  16.7231  16.7231  16.8756  16.8756  16.8756  16.8757
    17.3609  17.3609  17.3609  17.3610  17.4451

     the Fermi energy is     9.5753 ev

!    total energy              =   -6260.67288360 Ry
     Harris-Foulkes estimate   =   -6260.67288360 Ry
     estimated scf accuracy    <          1.2E-09 Ry

     The total energy is the sum of the following terms:

     one-electron contribution =   -4769.28926993 Ry
     hartree contribution      =    2620.74992179 Ry
     xc contribution           =    -966.28084208 Ry
     ewald contribution        =   -3145.85267044 Ry
     smearing contrib. (-TS)   =      -0.00002295 Ry

     convergence has been achieved in  13 iterations

     Writing output data file Landau_26.save/
 
     init_run     :     43.86s CPU     45.61s WALL (       1 calls)
     electrons    :   1678.66s CPU   1702.91s WALL (       1 calls)

     Called by init_run:
     wfcinit      :     40.28s CPU     41.88s WALL (       1 calls)
     potinit      :      1.39s CPU      1.44s WALL (       1 calls)
     hinit0       :      1.87s CPU      1.92s WALL (       1 calls)

     Called by electrons:
     c_bands      :   1471.65s CPU   1494.25s WALL (      13 calls)
     sum_band     :    197.39s CPU    198.25s WALL (      13 calls)
     v_of_rho     :      1.98s CPU      2.06s WALL (      14 calls)
     mix_rho      :      3.17s CPU      3.73s WALL (      13 calls)

     Called by c_bands:
     init_us_2    :     12.17s CPU     12.73s WALL (      54 calls)
     cegterg      :   1292.46s CPU   1313.79s WALL (      26 calls)

     Called by sum_band:

     Called by *egterg:
     h_psi        :   1001.00s CPU   1011.45s WALL (     122 calls)
     g_psi        :      4.17s CPU      4.17s WALL (      94 calls)
     cdiaghg      :     16.70s CPU     16.78s WALL (     120 calls)

     Called by h_psi:
     h_psi:pot    :    998.04s CPU   1002.25s WALL (     122 calls)
     h_psi:calbec :    124.74s CPU    127.29s WALL (     122 calls)
     vloc_psi     :    741.16s CPU    742.14s WALL (     122 calls)
     add_vuspsi   :    132.14s CPU    132.81s WALL (     122 calls)

     General routines
     calbec       :    124.74s CPU    127.29s WALL (     122 calls)
     fft          :      0.90s CPU      0.90s WALL (      42 calls)
     ffts         :      0.28s CPU      0.28s WALL (      13 calls)
     fftw         :    747.29s CPU    747.74s WALL (   34162 calls)
 
     Parallel routines
 
     PWSCF        :  28m44.16s CPU  29m13.02s WALL

 
   This run was terminated on:   2: 5:17  22Nov2019            

=------------------------------------------------------------------------------=
   JOB DONE.
=------------------------------------------------------------------------------=
