
     Program PWSCF v.6.2 (svn rev. 14038) starts on 25Mar2020 at 20:23:35 

     This program is part of the open-source Quantum ESPRESSO suite
     for quantum simulation of materials; please cite
         "P. Giannozzi et al., J. Phys.:Condens. Matter 21 395502 (2009);
         "P. Giannozzi et al., J. Phys.:Condens. Matter 29 465901 (2017);
          URL http://www.quantum-espresso.org", 
     in publications or presentations arising from this work. More details at
     http://www.quantum-espresso.org/quote

     Parallel version (MPI), running on    40 processors

     MPI processes distributed on     9 nodes
     K-points division:     npool     =      40
     Reading input from scf.in

     Current dimensions of program PWSCF are:
     Max number of different atomic species (ntypx) = 10
     Max number of k-points (npk) =  40000
     Max angular momentum in pseudopotentials (lmaxx) =  3

     Subspace diagonalization in iterative solution of the eigenvalue problem:
     a serial algorithm will be used

 
     G-vector sticks info
     --------------------
     sticks:   dense  smooth     PW     G-vecs:    dense   smooth      PW
     Sum        7531    7531   2017               488427   488427   67803
 


     bravais-lattice index     =            0
     lattice parameter (alat)  =      13.9599  a.u.
     unit-cell volume          =    2749.9554 (a.u.)^3
     number of atoms/cell      =           32
     number of atomic types    =            2
     number of electrons       =       368.60
     number of Kohn-Sham states=          221
     kinetic-energy cutoff     =     120.0000  Ry
     charge density cutoff     =     480.0000  Ry
     convergence threshold     =      1.0E-08
     mixing beta               =       0.7000
     number of iterations used =            8  plain     mixing
     Exchange-correlation      = SLA PW NOGX NOGC ( 1  4  0  0 0 0)

     celldm(1)=  13.959936  celldm(2)=   0.000000  celldm(3)=   0.000000
     celldm(4)=   0.000000  celldm(5)=   0.000000  celldm(6)=   0.000000

     crystal axes: (cart. coord. in units of alat)
               a(1) = (   1.000000   0.000000   0.000000 )  
               a(2) = (   0.000000   1.010824   0.000000 )  
               a(3) = (   0.000000   0.000000   1.000000 )  

     reciprocal axes: (cart. coord. in units 2 pi/alat)
               b(1) = (  1.000000  0.000000  0.000000 )  
               b(2) = (  0.000000  0.989292  0.000000 )  
               b(3) = (  0.000000  0.000000  1.000000 )  


     PseudoPot. # 1 for W  read from file:
     /cluster/scratch/mnoe/QE/pps/W_ONCV_LDA-4.0.upf
     MD5 check sum: ba0307d5d4cd419d6f1d13dc49d7c13a
     Pseudo is Norm-conserving + core correction, Zval = 28.0
     Generated using ONCVPSP code by D. R. Hamann
     Using radial grid of 1380 points,  8 beta functions with: 
                l(1) =   0
                l(2) =   0
                l(3) =   1
                l(4) =   1
                l(5) =   2
                l(6) =   2
                l(7) =   3
                l(8) =   3

     PseudoPot. # 2 for O  read from file:
     /cluster/scratch/mnoe/QE/pps/O_ONCV_LDA-3.0.upf
     MD5 check sum: a1bd6164e7280c17a38c229939bfbd54
     Pseudo is Norm-conserving + core correction, Zval =  6.0
     Generated using ONCVPSP code by D. R. Hamann
     Using radial grid of  926 points,  5 beta functions with: 
                l(1) =   0
                l(2) =   0
                l(3) =   1
                l(4) =   1
                l(5) =   2

     atomic species   valence    mass     pseudopotential
        W             28.00   183.84000     W ( 1.00)
        O              6.00    15.99940     O ( 1.00)

      8 Sym. Ops. (no inversion) found ( 7 have fractional translation)



   Cartesian axes

     site n.     atom                  positions (alat units)
         1           W   tau(   1) = (   0.2158285   0.2829935  -0.0009785  )
         2           W   tau(   2) = (   0.7509785   0.7278301  -0.0341715  )
         3           W   tau(   3) = (   0.2841715   0.2224183   0.4990215  )
         4           W   tau(   4) = (   0.7490215   0.7884053   0.4658285  )
         5           W   tau(   5) = (   0.7841715   0.2829935   0.5009785  )
         6           W   tau(   6) = (   0.2490215   0.7278301   0.5341715  )
         7           W   tau(   7) = (   0.7158285   0.2224183   0.0009785  )
         8           W   tau(   8) = (   0.2509785   0.7884053   0.0341715  )
         9           O   tau(   9) = (   0.2124180   0.0078877  -0.0272650  )
        10           O   tau(  10) = (   0.7772649  -0.0078877  -0.0375820  )
        11           O   tau(  11) = (   0.2875820   0.4975241   0.4727350  )
        12           O   tau(  12) = (   0.7227350   0.5132995   0.4624180  )
        13           O   tau(  13) = (   0.7875820   0.0078877   0.5272650  )
        14           O   tau(  14) = (   0.2227350  -0.0078877   0.5375820  )
        15           O   tau(  15) = (   0.7124180   0.4975241   0.0272650  )
        16           O   tau(  16) = (   0.2772650   0.5132995   0.0375820  )
        17           O   tau(  17) = (   0.5120935   0.2117499   0.4541778  )
        18           O   tau(  18) = (   0.5024795   0.7844007   0.5458222  )
        19           O   tau(  19) = (  -0.0120935   0.2936619   0.9541778  )
        20           O   tau(  20) = (  -0.0024795   0.7318349   0.0458222  )
        21           O   tau(  21) = (   0.4879065   0.2117499   0.0458222  )
        22           O   tau(  22) = (   0.4975205   0.7844007   0.9541778  )
        23           O   tau(  23) = (   0.0120934   0.2936619   0.5458222  )
        24           O   tau(  24) = (   0.0024794   0.7318349   0.4541778  )
        25           O   tau(  25) = (   0.7041778   0.2789888   0.7475205  )
        26           O   tau(  26) = (   0.2958222   0.7990738   0.2620935  )
        27           O   tau(  27) = (   0.7958222   0.2264230   0.2475206  )
        28           O   tau(  28) = (   0.2041778   0.7171617   0.7620935  )
        29           O   tau(  29) = (   0.2958222   0.2789888   0.7524795  )
        30           O   tau(  30) = (   0.7041778   0.7990738   0.2379066  )
        31           O   tau(  31) = (   0.2041778   0.2264230   0.2524795  )
        32           O   tau(  32) = (   0.7958222   0.7171617   0.7379065  )

     number of k points=    40  gaussian smearing, width (Ry)=  0.0007
                       cart. coord. in units 2pi/alat
        k(    1) = (   0.0000000   0.0000000   0.0000000), wk =   0.0092593
        k(    2) = (   0.0000000   0.0000000   0.1666667), wk =   0.0370370
        k(    3) = (   0.0000000   0.0000000   0.3333333), wk =   0.0370370
        k(    4) = (   0.0000000   0.0000000  -0.5000000), wk =   0.0185185
        k(    5) = (   0.0000000   0.1648820   0.0000000), wk =   0.0185185
        k(    6) = (   0.0000000   0.1648820   0.1666667), wk =   0.0740741
        k(    7) = (   0.0000000   0.1648820   0.3333333), wk =   0.0740741
        k(    8) = (   0.0000000   0.1648820  -0.5000000), wk =   0.0370370
        k(    9) = (   0.0000000   0.3297641   0.0000000), wk =   0.0185185
        k(   10) = (   0.0000000   0.3297641   0.1666667), wk =   0.0740741
        k(   11) = (   0.0000000   0.3297641   0.3333333), wk =   0.0740741
        k(   12) = (   0.0000000   0.3297641  -0.5000000), wk =   0.0370370
        k(   13) = (   0.0000000  -0.4946461   0.0000000), wk =   0.0092593
        k(   14) = (   0.0000000  -0.4946461   0.1666667), wk =   0.0370370
        k(   15) = (   0.0000000  -0.4946461   0.3333333), wk =   0.0370370
        k(   16) = (   0.0000000  -0.4946461  -0.5000000), wk =   0.0185185
        k(   17) = (   0.1666667   0.0000000   0.1666667), wk =   0.0370370
        k(   18) = (   0.1666667   0.0000000   0.3333333), wk =   0.0740741
        k(   19) = (   0.1666667   0.0000000  -0.5000000), wk =   0.0370370
        k(   20) = (   0.1666667   0.1648820   0.1666667), wk =   0.0740741
        k(   21) = (   0.1666667   0.1648820   0.3333333), wk =   0.1481481
        k(   22) = (   0.1666667   0.1648820  -0.5000000), wk =   0.0740741
        k(   23) = (   0.1666667   0.3297641   0.1666667), wk =   0.0740741
        k(   24) = (   0.1666667   0.3297641   0.3333333), wk =   0.1481481
        k(   25) = (   0.1666667   0.3297641  -0.5000000), wk =   0.0740741
        k(   26) = (   0.1666667  -0.4946461   0.1666667), wk =   0.0370370
        k(   27) = (   0.1666667  -0.4946461   0.3333333), wk =   0.0740741
        k(   28) = (   0.1666667  -0.4946461  -0.5000000), wk =   0.0370370
        k(   29) = (   0.3333333   0.0000000   0.3333333), wk =   0.0370370
        k(   30) = (   0.3333333   0.0000000  -0.5000000), wk =   0.0370370
        k(   31) = (   0.3333333   0.1648820   0.3333333), wk =   0.0740741
        k(   32) = (   0.3333333   0.1648820  -0.5000000), wk =   0.0740741
        k(   33) = (   0.3333333   0.3297641   0.3333333), wk =   0.0740741
        k(   34) = (   0.3333333   0.3297641  -0.5000000), wk =   0.0740741
        k(   35) = (   0.3333333  -0.4946461   0.3333333), wk =   0.0370370
        k(   36) = (   0.3333333  -0.4946461  -0.5000000), wk =   0.0370370
        k(   37) = (  -0.5000000   0.0000000  -0.5000000), wk =   0.0092593
        k(   38) = (  -0.5000000   0.1648820  -0.5000000), wk =   0.0185185
        k(   39) = (  -0.5000000   0.3297641  -0.5000000), wk =   0.0185185
        k(   40) = (  -0.5000000  -0.4946461  -0.5000000), wk =   0.0092593

     Dense  grid:   488427 G-vectors     FFT dimensions: ( 100, 100, 100)

     Estimated max dynamical RAM per process >       2.66 GB

     Estimated total dynamical RAM >     106.44 GB

     Initial potential from superposition of free atoms

     starting charge  367.99656, renormalised to  368.60000
     Starting wfc are  232 randomized atomic wfcs

     total cpu time spent up to now is       24.8 secs

     Self-consistent Calculation

     iteration #  1     ecut=   120.00 Ry     beta= 0.70
     Davidson diagonalization with overlap
     ethr =  1.00E-02,  avg # of iterations =  4.7

     total cpu time spent up to now is      106.8 secs

     total energy              =   -6253.39142078 Ry
     Harris-Foulkes estimate   =   -6264.12277661 Ry
     estimated scf accuracy    <      13.52389426 Ry

     iteration #  2     ecut=   120.00 Ry     beta= 0.70
     Davidson diagonalization with overlap
     ethr =  3.67E-03,  avg # of iterations =  3.5

     total cpu time spent up to now is      186.5 secs

     total energy              =   -6250.19506365 Ry
     Harris-Foulkes estimate   =   -6270.14393326 Ry
     estimated scf accuracy    <      53.29348025 Ry

     iteration #  3     ecut=   120.00 Ry     beta= 0.70
     Davidson diagonalization with overlap
     ethr =  3.67E-03,  avg # of iterations =  3.3

     total cpu time spent up to now is      262.7 secs

     total energy              =   -6260.57106985 Ry
     Harris-Foulkes estimate   =   -6260.84041734 Ry
     estimated scf accuracy    <       0.89114843 Ry

     iteration #  4     ecut=   120.00 Ry     beta= 0.70
     Davidson diagonalization with overlap
     ethr =  2.42E-04,  avg # of iterations =  2.5

     total cpu time spent up to now is      322.2 secs

     total energy              =   -6260.56267092 Ry
     Harris-Foulkes estimate   =   -6260.63609973 Ry
     estimated scf accuracy    <       0.22382958 Ry

     iteration #  5     ecut=   120.00 Ry     beta= 0.70
     Davidson diagonalization with overlap
     ethr =  6.07E-05,  avg # of iterations =  5.4

     total cpu time spent up to now is      389.3 secs

     total energy              =   -6260.56707049 Ry
     Harris-Foulkes estimate   =   -6260.59715768 Ry
     estimated scf accuracy    <       0.06591151 Ry

     iteration #  6     ecut=   120.00 Ry     beta= 0.70
     Davidson diagonalization with overlap
     ethr =  1.79E-05,  avg # of iterations =  4.4

     total cpu time spent up to now is      460.9 secs

     total energy              =   -6260.58172934 Ry
     Harris-Foulkes estimate   =   -6260.58440783 Ry
     estimated scf accuracy    <       0.00719473 Ry

     iteration #  7     ecut=   120.00 Ry     beta= 0.70
     Davidson diagonalization with overlap
     ethr =  1.95E-06,  avg # of iterations =  4.0

     total cpu time spent up to now is      522.8 secs

     total energy              =   -6260.58260503 Ry
     Harris-Foulkes estimate   =   -6260.58272446 Ry
     estimated scf accuracy    <       0.00021657 Ry

     iteration #  8     ecut=   120.00 Ry     beta= 0.70
     Davidson diagonalization with overlap
     ethr =  5.88E-08,  avg # of iterations =  3.0

     total cpu time spent up to now is      602.9 secs

     total energy              =   -6260.58268651 Ry
     Harris-Foulkes estimate   =   -6260.58270232 Ry
     estimated scf accuracy    <       0.00005326 Ry

     iteration #  9     ecut=   120.00 Ry     beta= 0.70
     Davidson diagonalization with overlap
     ethr =  1.45E-08,  avg # of iterations =  2.0

     total cpu time spent up to now is      663.0 secs

     total energy              =   -6260.58268888 Ry
     Harris-Foulkes estimate   =   -6260.58269360 Ry
     estimated scf accuracy    <       0.00001864 Ry

     iteration # 10     ecut=   120.00 Ry     beta= 0.70
     Davidson diagonalization with overlap
     ethr =  5.06E-09,  avg # of iterations =  2.0

     total cpu time spent up to now is      720.3 secs

     total energy              =   -6260.58268841 Ry
     Harris-Foulkes estimate   =   -6260.58269059 Ry
     estimated scf accuracy    <       0.00000529 Ry

     iteration # 11     ecut=   120.00 Ry     beta= 0.70
     Davidson diagonalization with overlap
     ethr =  1.44E-09,  avg # of iterations =  2.9

     total cpu time spent up to now is      781.4 secs

     total energy              =   -6260.58268944 Ry
     Harris-Foulkes estimate   =   -6260.58268947 Ry
     estimated scf accuracy    <       0.00000005 Ry

     iteration # 12     ecut=   120.00 Ry     beta= 0.70
     Davidson diagonalization with overlap
     ethr =  1.31E-11,  avg # of iterations =  3.0

     total cpu time spent up to now is      869.4 secs

     total energy              =   -6260.58268947 Ry
     Harris-Foulkes estimate   =   -6260.58268948 Ry
     estimated scf accuracy    <       0.00000001 Ry

     iteration # 13     ecut=   120.00 Ry     beta= 0.70
     Davidson diagonalization with overlap
     ethr =  2.87E-12,  avg # of iterations =  2.0

     total cpu time spent up to now is      939.3 secs

     End of self-consistent calculation

          k = 0.0000 0.0000 0.0000 ( 61125 PWs)   bands (ev):

   -65.6798 -65.6790 -65.6790 -65.6789 -65.6782 -65.6781 -65.6781 -65.6773
   -30.2286 -30.2258 -30.2232 -30.2231 -30.1441 -30.1441 -30.1430 -30.1369
   -30.0418 -30.0354 -30.0354 -30.0291 -29.9602 -29.9566 -29.9566 -29.9520
   -29.9518 -29.9506 -29.9428 -29.9428 -29.8719 -29.8719 -29.8675 -29.8657
   -19.8233 -19.8231 -19.8231 -19.8231 -19.8210 -19.8210 -19.8210 -19.8208
   -19.8123 -19.8123 -19.8121 -19.8121 -19.8103 -19.8103 -19.8103 -19.8103
   -19.8067 -19.8065 -19.8065 -19.8065 -19.8041 -19.8041 -19.8039 -19.8037
   -19.7906 -19.7900 -19.7900 -19.7894 -19.7892 -19.7886 -19.7883 -19.7883
   -19.7867 -19.7867 -19.7864 -19.7860 -19.7845 -19.7837 -19.7837 -19.7826
   -19.7818 -19.7816 -19.7815 -19.7815 -19.7792 -19.7789 -19.7789 -19.7784
   -19.7762 -19.7758 -19.7753 -19.7753 -19.7734 -19.7734 -19.7730 -19.7726
    -9.6280  -9.2783  -9.2256  -9.2256  -8.7543  -8.7543  -8.7344  -8.6067
    -8.4375  -8.3619  -8.3618  -8.3444  -7.7702  -7.7040  -7.6079  -7.6079
    -7.4250  -7.3557  -7.3556  -7.2993  -7.2866  -7.2692  -7.1649  -7.1649
     1.6790   1.7329   1.7557   1.7557   1.9310   1.9481   1.9704   1.9704
     2.1605   2.1605   2.2468   2.4186   2.6978   2.7699   2.8795   2.9950
     3.0123   3.0123   4.5560   4.5560   4.7534   4.9156   4.9156   4.9346
     4.9509   5.0758   5.0758   5.0923   5.4621   5.4622   5.5080   5.6676
     5.6782   5.7548   5.7552   5.7552   6.0167   6.0167   6.0343   6.0852
     6.0852   6.0978   6.1145   6.2327   6.2327   6.2488   6.3802   6.4066
     6.5632   6.6501   6.7166   6.7166   6.9252   6.9914   7.1352   7.1352
     7.1949   7.3325   7.3340   7.3340   7.3657   7.4687   7.4687   7.5390
     7.7907   7.7907   8.0509   8.1143   8.1868   8.2967   8.2967   8.4712
    10.3260  10.4870  10.5799  10.5799  10.6337  10.7009  12.4863  12.5303
    12.5303  12.7216  12.7216  12.8324  13.0354  13.2904  13.2904  13.4031
    13.4253  13.5617  13.5617  13.6197  14.0204  14.0204  14.0579  14.3553
    15.0957  15.2224  15.2637  15.2637  15.5626  15.9705  16.2305  16.2305
    16.2487  17.0129  17.2454  17.2454  17.9323

          k = 0.0000 0.0000 0.1667 ( 61109 PWs)   bands (ev):

   -65.6798 -65.6790 -65.6790 -65.6789 -65.6782 -65.6781 -65.6781 -65.6774
   -30.2273 -30.2234 -30.2212 -30.2175 -30.1496 -30.1468 -30.1438 -30.1389
   -30.0415 -30.0360 -30.0351 -30.0297 -29.9599 -29.9569 -29.9565 -29.9523
   -29.9508 -29.9456 -29.9435 -29.9379 -29.8772 -29.8719 -29.8716 -29.8668
   -19.8232 -19.8231 -19.8230 -19.8229 -19.8211 -19.8210 -19.8210 -19.8208
   -19.8123 -19.8122 -19.8122 -19.8120 -19.8104 -19.8104 -19.8103 -19.8103
   -19.8066 -19.8065 -19.8064 -19.8063 -19.8043 -19.8041 -19.8040 -19.8037
   -19.7905 -19.7900 -19.7900 -19.7895 -19.7891 -19.7885 -19.7884 -19.7882
   -19.7869 -19.7867 -19.7865 -19.7861 -19.7845 -19.7837 -19.7836 -19.7826
   -19.7817 -19.7815 -19.7814 -19.7813 -19.7793 -19.7791 -19.7789 -19.7784
   -19.7761 -19.7757 -19.7754 -19.7752 -19.7736 -19.7734 -19.7732 -19.7727
    -9.5858  -9.2422  -9.2290  -9.1647  -8.7708  -8.7465  -8.7046  -8.5909
    -8.4078  -8.3717  -8.3161  -8.3088  -7.8382  -7.7232  -7.7095  -7.6147
    -7.4245  -7.3847  -7.3609  -7.3501  -7.3039  -7.2698  -7.2671  -7.1721
     1.7071   1.7479   1.8782   1.9143   1.9468   1.9678   1.9723   2.0636
     2.1636   2.3438   2.3738   2.5540   2.7551   2.8347   2.9645   3.0027
     3.0464   3.1027   4.4136   4.5471   4.5650   4.6590   4.7050   4.8956
     4.9605   5.0052   5.0428   5.0852   5.2209   5.4351   5.5392   5.5966
     5.6520   5.7396   5.7653   5.8301   5.9179   5.9453   5.9840   5.9971
     6.0795   6.1026   6.1204   6.1604   6.2217   6.2237   6.3336   6.4635
     6.5588   6.6865   6.6935   6.8175   6.9808   7.0091   7.0873   7.1631
     7.1832   7.2399   7.2557   7.3485   7.3590   7.4581   7.4688   7.5477
     7.6546   7.7091   8.0588   8.1104   8.1798   8.2719   8.3136   8.4636
    10.4386  10.5765  10.6337  10.7154  10.8544  10.9519  12.4950  12.5054
    12.5599  12.6563  12.7763  12.8555  13.0632  13.1950  13.3103  13.4040
    13.4555  13.5252  13.5810  13.6496  13.9414  14.0256  14.1174  14.2870
    15.1020  15.2534  15.2735  15.3501  15.5898  16.0280  16.1511  16.2465
    16.4247  17.0582  17.1586  17.3967  18.0015

          k = 0.0000 0.0000 0.3333 ( 61013 PWs)   bands (ev):

   -65.6796 -65.6792 -65.6788 -65.6787 -65.6784 -65.6783 -65.6779 -65.6775
   -30.2263 -30.2242 -30.2061 -30.2023 -30.1646 -30.1609 -30.1430 -30.1406
   -30.0405 -30.0373 -30.0342 -30.0310 -29.9593 -29.9575 -29.9556 -29.9532
   -29.9493 -29.9451 -29.9311 -29.9241 -29.8917 -29.8859 -29.8706 -29.8680
   -19.8232 -19.8232 -19.8226 -19.8225 -19.8215 -19.8214 -19.8210 -19.8209
   -19.8123 -19.8122 -19.8118 -19.8117 -19.8108 -19.8107 -19.8103 -19.8103
   -19.8066 -19.8065 -19.8060 -19.8059 -19.8048 -19.8046 -19.8040 -19.8038
   -19.7904 -19.7901 -19.7899 -19.7896 -19.7889 -19.7885 -19.7882 -19.7879
   -19.7873 -19.7869 -19.7866 -19.7863 -19.7843 -19.7839 -19.7833 -19.7828
   -19.7817 -19.7815 -19.7809 -19.7808 -19.7796 -19.7795 -19.7788 -19.7786
   -19.7759 -19.7755 -19.7754 -19.7749 -19.7742 -19.7737 -19.7732 -19.7729
    -9.4845  -9.2923  -9.0962  -9.0156  -8.8260  -8.7868  -8.5645  -8.5402
    -8.4025  -8.3475  -8.1748  -8.1541  -8.0629  -7.9701  -7.7253  -7.6325
    -7.6284  -7.5227  -7.4112  -7.3752  -7.3481  -7.3164  -7.2481  -7.1919
     1.7159   1.7330   1.9459   1.9462   1.9622   1.9645   2.1512   2.1722
     2.6200   2.8165   2.8413   2.9207   2.9936   3.0488   3.0994   3.2027
     3.2426   3.3438   3.9939   4.0966   4.2494   4.2746   4.3253   4.6654
     4.7859   4.8186   4.9682   4.9851   5.0628   5.0948   5.3004   5.3723
     5.5872   5.6024   5.6083   5.7505   5.7904   5.8083   5.9287   6.0400
     6.0407   6.1246   6.1844   6.2180   6.2200   6.3048   6.3383   6.5394
     6.5481   6.5926   6.7071   6.7997   6.8769   6.9497   7.0656   7.0839
     7.1308   7.2991   7.3379   7.3769   7.4356   7.4960   7.5114   7.5557
     7.6614   7.7397   8.0078   8.0492   8.1249   8.1794   8.3494   8.4295
    10.5070  10.5630  11.0796  11.2319  11.3186  11.5758  12.2206  12.2855
    12.4787  12.6353  12.7300  12.8996  12.9488  13.1404  13.2999  13.3677
    13.4919  13.5585  13.5646  13.6567  13.8869  14.0347  14.0456  14.1776
    15.1388  15.2239  15.4242  15.6059  15.9250  15.9706  16.1525  16.2540
    16.6811  17.0460  17.5834  17.6248  17.8711

          k = 0.0000 0.0000-0.5000 ( 61072 PWs)   bands (ev):

   -65.6794 -65.6794 -65.6786 -65.6786 -65.6785 -65.6785 -65.6777 -65.6777
   -30.2253 -30.2253 -30.1853 -30.1853 -30.1815 -30.1815 -30.1418 -30.1418
   -30.0390 -30.0390 -30.0327 -30.0327 -29.9584 -29.9584 -29.9544 -29.9544
   -29.9473 -29.9473 -29.9114 -29.9114 -29.9051 -29.9051 -29.8694 -29.8693
   -19.8232 -19.8232 -19.8220 -19.8220 -19.8219 -19.8219 -19.8209 -19.8209
   -19.8123 -19.8122 -19.8113 -19.8113 -19.8112 -19.8112 -19.8103 -19.8103
   -19.8065 -19.8065 -19.8055 -19.8055 -19.8053 -19.8053 -19.8039 -19.8039
   -19.7903 -19.7903 -19.7897 -19.7897 -19.7886 -19.7886 -19.7878 -19.7878
   -19.7874 -19.7874 -19.7864 -19.7864 -19.7840 -19.7840 -19.7830 -19.7830
   -19.7816 -19.7816 -19.7802 -19.7802 -19.7801 -19.7801 -19.7787 -19.7787
   -19.7757 -19.7757 -19.7749 -19.7749 -19.7743 -19.7743 -19.7731 -19.7731
    -9.3757  -9.3757  -8.9375  -8.9375  -8.8711  -8.8711  -8.4619  -8.4618
    -8.3333  -8.3333  -8.2277  -8.2277  -7.9275  -7.9274  -7.8921  -7.8921
    -7.6486  -7.6486  -7.3944  -7.3944  -7.3331  -7.3331  -7.2196  -7.2196
     1.7220   1.7220   1.9478   1.9478   1.9645   1.9645   2.1786   2.1786
     2.9006   2.9006   3.3060   3.3060   3.4265   3.4265   3.5172   3.5172
     3.5854   3.5854   3.6860   3.6860   3.8896   3.8897   4.0330   4.0330
     4.2775   4.2775   4.9023   4.9023   5.0030   5.0030   5.4499   5.4500
     5.4821   5.4821   5.6258   5.6258   5.7630   5.7630   6.0055   6.0055
     6.0771   6.0772   6.2203   6.2203   6.2586   6.2586   6.4539   6.4539
     6.6126   6.6126   6.6935   6.6935   6.8749   6.8749   6.9768   6.9768
     7.2604   7.2604   7.3389   7.3389   7.3962   7.3962   7.8141   7.8141
     7.8506   7.8506   7.9444   7.9444   8.0013   8.0013   8.3852   8.3852
    10.5388  10.5388  11.6752  11.6752  11.8332  11.8332  11.9210  11.9210
    12.2720  12.2720  12.7218  12.7219  13.1743  13.1743  13.2857  13.2857
    13.4585  13.4585  13.7218  13.7218  13.8315  13.8315  14.0926  14.0926
    15.1806  15.1806  15.6914  15.6914  15.9247  15.9247  16.3469  16.3469
    16.8443  16.8443  17.9152  17.9152  18.3401

          k = 0.0000 0.1649 0.0000 ( 61085 PWs)   bands (ev):

   -65.6798 -65.6791 -65.6789 -65.6789 -65.6782 -65.6782 -65.6780 -65.6774
   -30.2284 -30.2260 -30.2231 -30.2231 -30.1439 -30.1439 -30.1424 -30.1372
   -30.0363 -30.0303 -30.0303 -30.0242 -29.9654 -29.9618 -29.9618 -29.9575
   -29.9519 -29.9507 -29.9431 -29.9431 -29.8719 -29.8719 -29.8674 -29.8659
   -19.8233 -19.8231 -19.8231 -19.8231 -19.8210 -19.8210 -19.8210 -19.8208
   -19.8123 -19.8123 -19.8121 -19.8121 -19.8103 -19.8103 -19.8103 -19.8103
   -19.8067 -19.8065 -19.8065 -19.8065 -19.8041 -19.8041 -19.8039 -19.8037
   -19.7903 -19.7897 -19.7897 -19.7892 -19.7891 -19.7885 -19.7883 -19.7883
   -19.7867 -19.7867 -19.7864 -19.7860 -19.7848 -19.7840 -19.7840 -19.7830
   -19.7818 -19.7817 -19.7816 -19.7816 -19.7792 -19.7789 -19.7789 -19.7784
   -19.7762 -19.7758 -19.7753 -19.7753 -19.7734 -19.7734 -19.7730 -19.7726
    -9.5930  -9.2928  -9.1944  -9.1944  -8.7338  -8.7338  -8.6552  -8.5718
    -8.4375  -8.3424  -8.3424  -8.3335  -7.7771  -7.7049  -7.6165  -7.6165
    -7.5163  -7.4525  -7.4525  -7.4140  -7.2860  -7.2709  -7.1654  -7.1654
     1.6928   1.7281   1.7641   1.7641   2.0586   2.0644   2.0644   2.1555
     2.2473   2.2767   2.2767   2.5073   2.7297   2.8258   2.8690   3.0994
     3.0994   3.0994   4.4355   4.4355   4.5520   4.6216   4.7786   4.8938
     4.8938   5.0812   5.0812   5.1850   5.3482   5.3482   5.4874   5.6831
     5.6956   5.7011   5.7011   5.7804   5.8922   5.8922   5.9562   6.0085
     6.0761   6.0761   6.1169   6.2010   6.2010   6.2680   6.4062   6.4327
     6.5460   6.6534   6.8478   6.8478   6.9131   6.9427   7.1231   7.1231
     7.2064   7.3034   7.3034   7.3394   7.3843   7.4485   7.4586   7.4586
     7.7848   7.7848   8.0463   8.1086   8.1949   8.2933   8.2933   8.4120
    10.3973  10.5061  10.7412  10.7412  10.7834  10.8339  12.4962  12.5313
    12.5313  12.7151  12.7151  12.8210  12.9186  13.2544  13.2544  13.2929
    13.3879  13.5147  13.5147  13.6523  14.0015  14.0015  14.1043  14.2869
    15.1151  15.3294  15.3294  15.4353  15.5427  15.9330  16.2419  16.2419
    16.6011  16.8344  17.3899  17.3899  17.9471

          k = 0.0000 0.1649 0.1667 ( 61103 PWs)   bands (ev):

   -65.6797 -65.6790 -65.6790 -65.6788 -65.6783 -65.6781 -65.6781 -65.6774
   -30.2272 -30.2234 -30.2213 -30.2175 -30.1494 -30.1463 -30.1436 -30.1391
   -30.0360 -30.0308 -30.0300 -30.0247 -29.9652 -29.9620 -29.9616 -29.9578
   -29.9509 -29.9457 -29.9438 -29.9381 -29.8772 -29.8719 -29.8716 -29.8669
   -19.8232 -19.8231 -19.8230 -19.8230 -19.8211 -19.8210 -19.8210 -19.8209
   -19.8123 -19.8122 -19.8121 -19.8120 -19.8104 -19.8104 -19.8103 -19.8103
   -19.8066 -19.8065 -19.8064 -19.8063 -19.8043 -19.8041 -19.8040 -19.8038
   -19.7902 -19.7897 -19.7896 -19.7891 -19.7891 -19.7884 -19.7883 -19.7882
   -19.7868 -19.7866 -19.7866 -19.7861 -19.7847 -19.7840 -19.7839 -19.7831
   -19.7818 -19.7816 -19.7815 -19.7814 -19.7792 -19.7791 -19.7789 -19.7785
   -19.7761 -19.7757 -19.7754 -19.7752 -19.7736 -19.7734 -19.7732 -19.7727
    -9.5499  -9.2433  -9.2104  -9.1291  -8.7521  -8.6843  -8.6669  -8.5552
    -8.4075  -8.3511  -8.3047  -8.2974  -7.8411  -7.7267  -7.7130  -7.6230
    -7.5175  -7.4643  -7.4586  -7.4192  -7.3728  -7.2702  -7.2657  -7.1726
     1.7176   1.7566   1.9160   1.9605   2.0678   2.0868   2.1644   2.1816
     2.2802   2.3676   2.3990   2.5999   2.8057   2.8762   2.9536   3.0884
     3.1514   3.1871   4.3540   4.4347   4.5275   4.5447   4.6733   4.7137
     4.7696   4.9293   5.0318   5.0663   5.1619   5.3511   5.4968   5.5185
     5.6014   5.6886   5.7424   5.8377   5.8455   5.8864   5.9382   5.9627
     5.9805   6.0242   6.0912   6.1015   6.2031   6.2200   6.3483   6.4287
     6.6121   6.6919   6.8276   6.8899   6.9737   7.0080   7.0676   7.1630
     7.1763   7.2402   7.2918   7.3274   7.3823   7.4360   7.4694   7.5220
     7.6384   7.7151   8.0529   8.1060   8.1916   8.2682   8.3011   8.4079
    10.5517  10.6765  10.7428  10.8644  10.9318  11.0528  12.5012  12.5083
    12.5705  12.6669  12.7673  12.8601  12.9409  13.1841  13.2596  13.3125
    13.3539  13.4864  13.5302  13.6609  13.9257  14.0059  14.1243  14.2338
    15.1417  15.3185  15.4249  15.4953  15.5792  16.0012  16.1993  16.4325
    16.5761  16.9759  17.1942  17.5104  18.0088

          k = 0.0000 0.1649 0.3333 ( 61039 PWs)   bands (ev):

   -65.6795 -65.6791 -65.6789 -65.6787 -65.6784 -65.6782 -65.6780 -65.6776
   -30.2263 -30.2242 -30.2061 -30.2022 -30.1645 -30.1607 -30.1428 -30.1405
   -30.0351 -30.0321 -30.0291 -30.0261 -29.9646 -29.9628 -29.9609 -29.9586
   -29.9495 -29.9454 -29.9312 -29.9242 -29.8917 -29.8859 -29.8706 -29.8680
   -19.8232 -19.8232 -19.8226 -19.8225 -19.8215 -19.8214 -19.8210 -19.8209
   -19.8123 -19.8122 -19.8118 -19.8117 -19.8108 -19.8107 -19.8103 -19.8103
   -19.8066 -19.8065 -19.8060 -19.8059 -19.8048 -19.8046 -19.8040 -19.8038
   -19.7901 -19.7898 -19.7895 -19.7892 -19.7889 -19.7884 -19.7881 -19.7879
   -19.7873 -19.7869 -19.7865 -19.7862 -19.7846 -19.7842 -19.7837 -19.7832
   -19.7817 -19.7816 -19.7809 -19.7808 -19.7796 -19.7795 -19.7789 -19.7786
   -19.7759 -19.7755 -19.7754 -19.7749 -19.7742 -19.7737 -19.7732 -19.7729
    -9.4479  -9.2595  -9.1066  -8.9651  -8.8140  -8.7096  -8.5483  -8.5039
    -8.3790  -8.3452  -8.1733  -8.1509  -8.0624  -7.9705  -7.7322  -7.6477
    -7.6251  -7.5343  -7.5030  -7.4685  -7.4514  -7.4174  -7.2487  -7.1924
     1.7273   1.7429   2.0722   2.0871   2.1327   2.1510   2.2445   2.2772
     2.6214   2.8281   2.9197   2.9298   3.0383   3.0700   3.1210   3.1960
     3.3428   3.4195   3.9991   4.1182   4.2377   4.2797   4.3038   4.6434
     4.6767   4.7352   4.7707   4.8330   5.0097   5.0222   5.2093   5.3003
     5.4217   5.4634   5.5592   5.7002   5.7502   5.7855   5.8611   5.9537
     5.9771   6.0106   6.1098   6.1165   6.2068   6.2302   6.3485   6.3956
     6.6579   6.7161   6.7372   6.8569   6.9704   7.0383   7.1132   7.1327
     7.1886   7.2341   7.3037   7.3814   7.4374   7.5003   7.5114   7.5707
     7.6696   7.7602   8.0039   8.0499   8.1433   8.1780   8.3222   8.3814
    10.6764  10.7283  11.1274  11.3169  11.3678  11.6197  12.2385  12.3184
    12.5060  12.6536  12.7442  12.9142  12.9298  13.0149  13.1785  13.3080
    13.4324  13.4780  13.5336  13.6069  13.8199  13.9847  14.0266  14.1594
    15.1845  15.2838  15.5866  15.7777  15.9272  16.0982  16.2639  16.4772
    16.7640  17.0488  17.4109  17.6874  17.9050

          k = 0.0000 0.1649-0.5000 ( 61030 PWs)   bands (ev):

   -65.6793 -65.6793 -65.6786 -65.6786 -65.6785 -65.6785 -65.6778 -65.6778
   -30.2252 -30.2252 -30.1852 -30.1852 -30.1814 -30.1814 -30.1417 -30.1417
   -30.0337 -30.0337 -30.0277 -30.0277 -29.9637 -29.9637 -29.9598 -29.9598
   -29.9475 -29.9475 -29.9114 -29.9114 -29.9051 -29.9051 -29.8694 -29.8693
   -19.8232 -19.8232 -19.8220 -19.8220 -19.8219 -19.8219 -19.8209 -19.8209
   -19.8123 -19.8122 -19.8113 -19.8113 -19.8112 -19.8112 -19.8103 -19.8103
   -19.8065 -19.8065 -19.8055 -19.8055 -19.8053 -19.8053 -19.8039 -19.8039
   -19.7900 -19.7900 -19.7894 -19.7894 -19.7886 -19.7886 -19.7878 -19.7877
   -19.7874 -19.7874 -19.7864 -19.7864 -19.7843 -19.7843 -19.7834 -19.7834
   -19.7817 -19.7817 -19.7802 -19.7802 -19.7801 -19.7801 -19.7788 -19.7788
   -19.7757 -19.7757 -19.7749 -19.7749 -19.7743 -19.7743 -19.7731 -19.7731
    -9.3407  -9.3407  -8.9374  -8.9374  -8.8015  -8.8015  -8.4300  -8.4300
    -8.3300  -8.3300  -8.2272  -8.2272  -7.9294  -7.9294  -7.8957  -7.8957
    -7.6531  -7.6531  -7.4884  -7.4883  -7.4385  -7.4385  -7.2202  -7.2202
     1.7331   1.7331   2.0828   2.0828   2.1488   2.1488   2.2799   2.2799
     2.9804   2.9804   3.3143   3.3143   3.4216   3.4216   3.5629   3.5629
     3.5933   3.5933   3.6923   3.6923   3.9163   3.9164   4.0706   4.0706
     4.2808   4.2808   4.6995   4.6996   4.9013   4.9013   5.2059   5.2059
     5.4307   5.4307   5.5720   5.5720   5.6868   5.6868   5.9457   5.9457
     5.9882   5.9883   6.0837   6.0837   6.2500   6.2500   6.3490   6.3490
     6.6676   6.6676   6.8420   6.8420   6.9525   6.9525   7.0899   7.0899
     7.2419   7.2419   7.2817   7.2817   7.4394   7.4395   7.8137   7.8137
     7.8465   7.8465   7.9628   7.9629   8.0160   8.0160   8.3472   8.3472
    10.7109  10.7109  11.7062  11.7062  11.8903  11.8903  11.9559  11.9559
    12.2936  12.2936  12.7450  12.7450  13.0620  13.0620  13.2581  13.2581
    13.4010  13.4010  13.6108  13.6108  13.7839  13.7839  14.0718  14.0718
    15.2304  15.2304  15.7987  15.7987  16.1989  16.1989  16.4293  16.4293
    16.8732  16.8732  17.8775  17.8775  18.2041

          k = 0.0000 0.3298 0.0000 ( 61081 PWs)   bands (ev):

   -65.6796 -65.6792 -65.6788 -65.6788 -65.6783 -65.6783 -65.6779 -65.6775
   -30.2278 -30.2264 -30.2231 -30.2231 -30.1436 -30.1436 -30.1410 -30.1381
   -30.0214 -30.0161 -30.0161 -30.0106 -29.9803 -29.9763 -29.9763 -29.9720
   -29.9518 -29.9510 -29.9434 -29.9434 -29.8719 -29.8719 -29.8670 -29.8662
   -19.8233 -19.8232 -19.8231 -19.8231 -19.8210 -19.8210 -19.8209 -19.8208
   -19.8123 -19.8123 -19.8121 -19.8121 -19.8103 -19.8103 -19.8103 -19.8103
   -19.8066 -19.8065 -19.8064 -19.8064 -19.8041 -19.8041 -19.8039 -19.8037
   -19.7897 -19.7892 -19.7890 -19.7890 -19.7881 -19.7881 -19.7881 -19.7879
   -19.7866 -19.7866 -19.7866 -19.7859 -19.7856 -19.7849 -19.7849 -19.7841
   -19.7819 -19.7818 -19.7817 -19.7817 -19.7790 -19.7790 -19.7789 -19.7786
   -19.7761 -19.7759 -19.7754 -19.7754 -19.7734 -19.7734 -19.7729 -19.7727
    -9.5070  -9.3370  -9.1356  -9.1356  -8.6817  -8.6817  -8.4933  -8.4390
    -8.4326  -8.2674  -8.2576  -8.2576  -7.8631  -7.7594  -7.7594  -7.7080
    -7.7073  -7.6744  -7.5721  -7.5721  -7.2839  -7.2751  -7.1664  -7.1664
     1.7029   1.7181   1.7673   1.7673   2.0972   2.0972   2.2091   2.2474
     2.6532   2.7649   2.7893   2.7894   2.8421   2.9684   3.0240   3.3755
     3.3755   3.4515   4.0473   4.0936   4.0936   4.1288   4.4095   4.8456
     4.8456   4.9394   4.9395   5.1091   5.1091   5.1738   5.3394   5.4633
     5.4856   5.4856   5.6271   5.7006   5.7686   5.7686   5.8186   6.0031
     6.0496   6.0843   6.0843   6.2008   6.2008   6.2643   6.3841   6.4076
     6.6827   6.7287   6.8269   6.8495   6.8495   6.9806   7.2075   7.2075
     7.2800   7.3348   7.3408   7.3408   7.4393   7.4683   7.4989   7.4989
     7.7883   7.7883   8.0182   8.0940   8.1690   8.2194   8.2194   8.2459
    10.4813  10.5123  11.1389  11.1793  11.1793  11.3471  12.4281  12.4281
    12.4597  12.5103  12.6479  12.6479  12.9069  12.9539  13.1917  13.1917
    13.3876  13.5004  13.5004  13.6379  13.8478  13.8478  14.0876  14.1465
    15.2259  15.4906  15.4920  15.4920  15.9017  16.1307  16.2635  16.2636
    16.4497  17.4390  17.6465  17.8718  17.8718

          k = 0.0000 0.3298 0.1667 ( 61063 PWs)   bands (ev):

   -65.6796 -65.6792 -65.6788 -65.6787 -65.6784 -65.6783 -65.6779 -65.6776
   -30.2270 -30.2233 -30.2214 -30.2174 -30.1491 -30.1454 -30.1433 -30.1394
   -30.0211 -30.0165 -30.0158 -30.0111 -29.9801 -29.9766 -29.9761 -29.9724
   -29.9510 -29.9460 -29.9440 -29.9383 -29.8772 -29.8718 -29.8716 -29.8670
   -19.8232 -19.8231 -19.8230 -19.8230 -19.8211 -19.8210 -19.8210 -19.8209
   -19.8123 -19.8122 -19.8121 -19.8120 -19.8104 -19.8104 -19.8103 -19.8103
   -19.8066 -19.8065 -19.8064 -19.8063 -19.8043 -19.8040 -19.8040 -19.8038
   -19.7897 -19.7892 -19.7891 -19.7889 -19.7881 -19.7881 -19.7880 -19.7878
   -19.7867 -19.7867 -19.7865 -19.7859 -19.7856 -19.7849 -19.7848 -19.7842
   -19.7818 -19.7817 -19.7816 -19.7815 -19.7791 -19.7791 -19.7789 -19.7786
   -19.7760 -19.7758 -19.7754 -19.7752 -19.7737 -19.7734 -19.7731 -19.7728
    -9.4626  -9.2864  -9.1504  -9.0615  -8.7050  -8.6253  -8.4710  -8.4449
    -8.4062  -8.2638  -8.2494  -8.2312  -7.8863  -7.7826  -7.7758  -7.7497
    -7.7209  -7.6795  -7.6488  -7.5791  -7.3754  -7.2714  -7.2665  -7.1736
     1.7211   1.7600   1.9205   1.9761   2.1016   2.2637   2.3063   2.4336
     2.6677   2.7766   2.7967   2.8551   2.9259   2.9663   3.0791   3.3576
     3.4458   3.5001   4.0633   4.0761   4.1079   4.1910   4.3744   4.6347
     4.6831   4.8349   4.9029   4.9224   5.0654   5.1882   5.2275   5.2628
     5.4437   5.4564   5.5166   5.5967   5.6974   5.7527   5.8974   5.9215
     6.0027   6.0139   6.0414   6.0722   6.0805   6.2077   6.2868   6.3893
     6.7206   6.7847   6.8304   6.9058   6.9871   7.0451   7.0760   7.2351
     7.3131   7.3503   7.3696   7.4077   7.4590   7.4743   7.5064   7.5278
     7.6550   7.7272   8.0235   8.0934   8.1653   8.2037   8.2182   8.2483
    10.6797  10.7389  11.1752  11.2052  11.3059  11.4569  12.4085  12.4624
    12.5018  12.5449  12.6419  12.7082  12.9570  12.9790  13.1315  13.1960
    13.2667  13.4422  13.5145  13.6233  13.7550  13.8520  14.0444  14.1328
    15.2576  15.4690  15.5266  15.6873  15.9811  16.1879  16.2387  16.4596
    16.5944  17.4071  17.6040  17.7240  17.9395

          k = 0.0000 0.3298 0.3333 ( 61036 PWs)   bands (ev):

   -65.6794 -65.6790 -65.6790 -65.6786 -65.6785 -65.6781 -65.6781 -65.6777
   -30.2262 -30.2241 -30.2061 -30.2021 -30.1643 -30.1604 -30.1425 -30.1404
   -30.0203 -30.0177 -30.0150 -30.0122 -29.9795 -29.9774 -29.9754 -29.9732
   -29.9496 -29.9457 -29.9313 -29.9243 -29.8917 -29.8859 -29.8706 -29.8680
   -19.8232 -19.8232 -19.8226 -19.8225 -19.8215 -19.8214 -19.8210 -19.8209
   -19.8123 -19.8122 -19.8118 -19.8117 -19.8108 -19.8107 -19.8103 -19.8103
   -19.8065 -19.8065 -19.8060 -19.8059 -19.8048 -19.8046 -19.8040 -19.8038
   -19.7895 -19.7892 -19.7889 -19.7887 -19.7883 -19.7883 -19.7878 -19.7877
   -19.7871 -19.7870 -19.7864 -19.7861 -19.7854 -19.7850 -19.7847 -19.7843
   -19.7818 -19.7818 -19.7810 -19.7809 -19.7795 -19.7795 -19.7789 -19.7788
   -19.7759 -19.7755 -19.7755 -19.7749 -19.7742 -19.7736 -19.7733 -19.7729
    -9.3644  -9.1958  -9.1361  -8.8609  -8.7840  -8.5033  -8.4758  -8.4069
    -8.3352  -8.2804  -8.1584  -8.1304  -8.0662  -7.9793  -7.8190  -7.7803
    -7.7277  -7.7090  -7.6620  -7.6152  -7.5896  -7.5041  -7.2499  -7.1935
     1.7316   1.7469   2.1121   2.1178   2.5205   2.5995   2.6818   2.7666
     2.8391   2.8960   2.9553   3.0817   3.0853   3.1634   3.2153   3.3355
     3.6208   3.6470   3.9733   4.0474   4.0712   4.1511   4.2168   4.3606
     4.3779   4.5165   4.5792   4.7690   4.8236   4.9325   4.9935   5.0177
     5.2281   5.3129   5.3184   5.4376   5.4900   5.6176   5.6557   5.6896
     5.8007   5.8333   5.9060   5.9962   6.1989   6.2214   6.2349   6.3805
     6.7780   6.8203   6.8660   6.8869   7.0421   7.1579   7.2247   7.2534
     7.3304   7.3568   7.4070   7.4487   7.4521   7.5152   7.5373   7.5890
     7.7508   7.8131   7.9842   8.0490   8.1289   8.1410   8.2159   8.2363
    11.0577  11.1488  11.2484  11.4205  11.6597  11.8361  12.2621  12.3712
    12.5212  12.5813  12.6553  12.7998  12.8540  12.8845  13.0542  13.0708
    13.2537  13.2957  13.4674  13.5701  13.5968  13.8710  13.9116  14.0481
    15.2602  15.4067  15.7955  16.0985  16.2394  16.3819  16.4230  16.9967
    17.0216  17.2193  17.3026  17.8345  17.8680

          k = 0.0000 0.3298-0.5000 ( 61048 PWs)   bands (ev):

   -65.6792 -65.6792 -65.6788 -65.6788 -65.6783 -65.6783 -65.6779 -65.6779
   -30.2251 -30.2251 -30.1851 -30.1851 -30.1812 -30.1812 -30.1415 -30.1415
   -30.0191 -30.0191 -30.0137 -30.0137 -29.9785 -29.9785 -29.9744 -29.9744
   -29.9477 -29.9477 -29.9115 -29.9115 -29.9051 -29.9051 -29.8694 -29.8694
   -19.8232 -19.8232 -19.8220 -19.8220 -19.8219 -19.8219 -19.8210 -19.8209
   -19.8123 -19.8122 -19.8113 -19.8113 -19.8112 -19.8112 -19.8103 -19.8103
   -19.8065 -19.8065 -19.8055 -19.8055 -19.8053 -19.8052 -19.8039 -19.8039
   -19.7893 -19.7893 -19.7886 -19.7886 -19.7885 -19.7885 -19.7874 -19.7874
   -19.7874 -19.7874 -19.7863 -19.7863 -19.7852 -19.7852 -19.7845 -19.7845
   -19.7818 -19.7818 -19.7802 -19.7802 -19.7801 -19.7801 -19.7788 -19.7788
   -19.7757 -19.7757 -19.7749 -19.7749 -19.7743 -19.7743 -19.7731 -19.7731
    -9.2679  -9.2679  -8.9380  -8.9380  -8.6247  -8.6247  -8.3243  -8.3243
    -8.3102  -8.3102  -8.2228  -8.2228  -7.9446  -7.9446  -7.9202  -7.9202
    -7.7500  -7.7500  -7.6838  -7.6838  -7.6191  -7.6191  -7.2213  -7.2212
     1.7375   1.7375   2.1243   2.1243   2.6635   2.6635   2.8207   2.8207
     3.2013   3.2013   3.3386   3.3386   3.4153   3.4153   3.5801   3.5801
     3.6747   3.6747   3.7070   3.7070   3.9783   3.9783   4.0862   4.0862
     4.2565   4.2565   4.3810   4.3810   4.6534   4.6534   4.7627   4.7627
     5.2678   5.2679   5.3546   5.3546   5.4933   5.4933   5.5619   5.5619
     5.7136   5.7136   5.9773   5.9773   6.2156   6.2156   6.3106   6.3106
     6.8034   6.8034   6.9079   6.9079   7.0858   7.0858   7.1908   7.1908
     7.3978   7.3978   7.4271   7.4271   7.4666   7.4666   7.8003   7.8003
     7.8472   7.8472   7.9934   7.9934   8.0306   8.0306   8.2193   8.2194
    11.1559  11.1559  11.7740  11.7740  11.9699  11.9699  12.1474  12.1474
    12.3912  12.3912  12.6096  12.6096  12.9067  12.9067  13.0681  13.0681
    13.2823  13.2823  13.3475  13.3475  13.7362  13.7362  13.9282  13.9282
    15.3160  15.3160  16.0037  16.0037  16.7166  16.7166  16.9283  16.9283
    17.0228  17.0228  17.7131  17.7131  18.0248

          k = 0.0000-0.4946 0.0000 ( 61042 PWs)   bands (ev):

   -65.6794 -65.6794 -65.6786 -65.6786 -65.6785 -65.6785 -65.6777 -65.6777
   -30.2271 -30.2271 -30.2230 -30.2230 -30.1434 -30.1434 -30.1394 -30.1394
   -30.0009 -30.0009 -29.9983 -29.9983 -29.9943 -29.9943 -29.9915 -29.9915
   -29.9515 -29.9515 -29.9435 -29.9435 -29.8719 -29.8719 -29.8666 -29.8666
   -19.8232 -19.8232 -19.8231 -19.8231 -19.8210 -19.8210 -19.8209 -19.8209
   -19.8123 -19.8123 -19.8121 -19.8121 -19.8103 -19.8103 -19.8103 -19.8103
   -19.8066 -19.8066 -19.8064 -19.8064 -19.8041 -19.8041 -19.8038 -19.8038
   -19.7894 -19.7894 -19.7888 -19.7888 -19.7877 -19.7877 -19.7871 -19.7871
   -19.7868 -19.7868 -19.7861 -19.7861 -19.7859 -19.7859 -19.7853 -19.7853
   -19.7819 -19.7819 -19.7818 -19.7818 -19.7790 -19.7790 -19.7788 -19.7788
   -19.7760 -19.7760 -19.7754 -19.7754 -19.7734 -19.7734 -19.7728 -19.7728
    -9.4114  -9.4114  -9.1090  -9.1090  -8.6509  -8.6509  -8.4492  -8.4491
    -8.1289  -8.1289  -8.0772  -8.0772  -8.0500  -8.0500  -8.0203  -8.0203
    -7.7073  -7.7073  -7.5813  -7.5813  -7.2801  -7.2801  -7.1670  -7.1669
     1.7094   1.7094   1.7673   1.7673   2.1009   2.1009   2.2416   2.2416
     2.8012   2.8012   3.1254   3.1254   3.1826   3.1826   3.6555   3.6555
     3.7186   3.7186   3.7734   3.7735   3.9380   3.9380   4.2376   4.2376
     4.2509   4.2509   4.8964   4.8964   5.0561   5.0561   5.5094   5.5094
     5.5899   5.5899   5.5952   5.5952   5.6701   5.6701   5.8605   5.8605
     6.0875   6.0875   6.1781   6.1781   6.1907   6.1907   6.3916   6.3916
     6.6895   6.6895   6.7893   6.7893   6.8884   6.8884   7.2263   7.2263
     7.2976   7.2976   7.2983   7.2983   7.6491   7.6491   7.6953   7.6953
     7.8293   7.8293   7.9903   7.9903   8.0944   8.0944   8.1369   8.1369
    10.5073  10.5073  11.5658  11.5658  11.6176  11.6176  12.1430  12.1430
    12.2490  12.2490  12.6448  12.6448  12.8390  12.8390  13.1987  13.1987
    13.5100  13.5100  13.5923  13.5923  13.6453  13.6453  14.0589  14.0589
    15.3909  15.3909  15.5737  15.5737  16.0901  16.0902  16.2732  16.2732
    16.9471  16.9471  18.3053  18.3053  18.5004

          k = 0.0000-0.4946 0.1667 ( 61012 PWs)   bands (ev):

   -65.6794 -65.6793 -65.6787 -65.6786 -65.6785 -65.6784 -65.6778 -65.6777
   -30.2268 -30.2233 -30.2215 -30.2174 -30.1490 -30.1449 -30.1431 -30.1396
   -30.0009 -30.0005 -29.9986 -29.9979 -29.9948 -29.9942 -29.9920 -29.9918
   -29.9510 -29.9460 -29.9441 -29.9384 -29.8772 -29.8718 -29.8716 -29.8670
   -19.8232 -19.8231 -19.8230 -19.8230 -19.8211 -19.8210 -19.8210 -19.8209
   -19.8123 -19.8122 -19.8121 -19.8120 -19.8104 -19.8104 -19.8103 -19.8103
   -19.8066 -19.8064 -19.8064 -19.8063 -19.8043 -19.8040 -19.8040 -19.8038
   -19.7893 -19.7893 -19.7888 -19.7887 -19.7878 -19.7876 -19.7871 -19.7871
   -19.7868 -19.7867 -19.7862 -19.7861 -19.7860 -19.7859 -19.7854 -19.7854
   -19.7819 -19.7818 -19.7816 -19.7815 -19.7791 -19.7789 -19.7789 -19.7788
   -19.7760 -19.7759 -19.7754 -19.7753 -19.7737 -19.7734 -19.7730 -19.7728
    -9.3822  -9.3443  -9.1229  -9.0310  -8.6770  -8.5868  -8.4312  -8.4048
    -8.1386  -8.1379  -8.0871  -8.0698  -8.0553  -8.0446  -8.0232  -8.0071
    -7.7964  -7.7002  -7.6810  -7.5884  -7.3760  -7.2720  -7.2670  -7.1741
     1.7207   1.7601   1.9194   1.9774   2.1053   2.2874   2.3149   2.4506
     2.8804   2.8883   3.1217   3.1251   3.2190   3.2438   3.6155   3.6554
     3.6588   3.7121   3.7821   3.8741   3.9551   4.0199   4.2154   4.2630
     4.2664   4.2844   4.6662   4.6681   4.9037   4.9835   5.3392   5.3555
     5.4217   5.4401   5.5422   5.5804   5.5850   5.7234   5.7952   5.9000
     5.9572   6.0165   6.0225   6.0447   6.0761   6.1975   6.2503   6.3954
     6.7292   6.7669   6.7757   6.9054   6.9729   7.0471   7.0564   7.2726
     7.2790   7.3433   7.4037   7.4841   7.5552   7.6321   7.6577   7.6685
     7.7685   7.8077   7.9976   8.0059   8.0831   8.0891   8.1412   8.1424
    10.6990  10.7589  11.5674  11.6212  11.6581  11.7391  12.1413  12.2173
    12.2508  12.3312  12.5980  12.7024  12.9035  12.9256  13.0800  13.2131
    13.3630  13.4979  13.5075  13.5465  13.6058  13.6513  13.9944  14.0717
    15.3475  15.4960  15.5473  15.8048  16.1593  16.2125  16.3040  16.4653
    16.9916  17.0115  18.0913  18.2870  18.3324

          k = 0.0000-0.4946 0.3333 ( 61042 PWs)   bands (ev):

   -65.6792 -65.6792 -65.6788 -65.6787 -65.6784 -65.6783 -65.6779 -65.6779
   -30.2261 -30.2241 -30.2061 -30.2021 -30.1642 -30.1602 -30.1424 -30.1403
   -30.0006 -29.9995 -29.9991 -29.9968 -29.9961 -29.9939 -29.9934 -29.9924
   -29.9497 -29.9457 -29.9313 -29.9243 -29.8917 -29.8859 -29.8707 -29.8680
   -19.8232 -19.8232 -19.8226 -19.8225 -19.8215 -19.8214 -19.8210 -19.8209
   -19.8123 -19.8122 -19.8118 -19.8117 -19.8108 -19.8107 -19.8103 -19.8103
   -19.8065 -19.8065 -19.8060 -19.8059 -19.8048 -19.8046 -19.8040 -19.8039
   -19.7892 -19.7890 -19.7889 -19.7883 -19.7881 -19.7875 -19.7875 -19.7872
   -19.7867 -19.7866 -19.7864 -19.7861 -19.7859 -19.7858 -19.7855 -19.7855
   -19.7819 -19.7818 -19.7810 -19.7809 -19.7795 -19.7794 -19.7789 -19.7788
   -19.7758 -19.7756 -19.7755 -19.7749 -19.7743 -19.7736 -19.7733 -19.7730
    -9.3107  -9.1731  -9.1548  -8.8121  -8.7658  -8.4236  -8.3710  -8.2856
    -8.2281  -8.1677  -8.1113  -8.0632  -8.0516  -8.0377  -8.0340  -7.9785
    -7.9497  -7.8788  -7.6869  -7.6134  -7.6078  -7.5086  -7.2504  -7.1940
     1.7315   1.7470   2.1165   2.1198   2.5580   2.7486   2.8512   3.0047
     3.1024   3.1150   3.1462   3.1498   3.3307   3.3931   3.5116   3.6166
     3.6542   3.6913   3.8104   3.8630   4.0168   4.1554   4.1722   4.2124
     4.2294   4.3058   4.3301   4.3571   4.6099   4.7311   4.8405   4.9788
     5.0154   5.1891   5.2737   5.3015   5.4547   5.5685   5.5894   5.6236
     5.6978   5.8212   5.8584   5.8893   6.2070   6.2243   6.2410   6.3937
     6.7903   6.8149   6.8277   6.8891   7.0489   7.1767   7.2225   7.2722
     7.4052   7.4173   7.4409   7.5205   7.5956   7.6510   7.6551   7.6796
     7.8295   7.8583   7.9661   8.0170   8.0560   8.0782   8.1083   8.1264
    11.1603  11.3109  11.5820  11.6436  11.9371  12.0528  12.1306  12.2633
    12.3620  12.4212  12.5384  12.6876  12.8671  12.8856  12.9804  13.0072
    13.2554  13.2769  13.2934  13.4046  13.6583  13.6778  13.8915  13.9672
    15.2974  15.4610  15.8164  16.1726  16.3833  16.5969  16.7909  17.0333
    17.1277  17.2097  17.7344  17.8176  18.1296

          k = 0.0000-0.4946-0.5000 ( 61012 PWs)   bands (ev):

   -65.6790 -65.6790 -65.6789 -65.6789 -65.6782 -65.6782 -65.6781 -65.6781
   -30.2251 -30.2251 -30.1851 -30.1851 -30.1811 -30.1811 -30.1413 -30.1413
   -30.0000 -30.0000 -29.9978 -29.9977 -29.9952 -29.9952 -29.9932 -29.9932
   -29.9478 -29.9478 -29.9115 -29.9115 -29.9051 -29.9051 -29.8694 -29.8694
   -19.8232 -19.8232 -19.8220 -19.8220 -19.8219 -19.8219 -19.8210 -19.8209
   -19.8123 -19.8122 -19.8113 -19.8113 -19.8112 -19.8112 -19.8103 -19.8103
   -19.8065 -19.8065 -19.8055 -19.8055 -19.8053 -19.8052 -19.8039 -19.8039
   -19.7891 -19.7891 -19.7885 -19.7885 -19.7879 -19.7879 -19.7873 -19.7873
   -19.7866 -19.7866 -19.7863 -19.7863 -19.7858 -19.7858 -19.7857 -19.7856
   -19.7818 -19.7818 -19.7802 -19.7802 -19.7801 -19.7801 -19.7789 -19.7789
   -19.7757 -19.7757 -19.7750 -19.7750 -19.7743 -19.7743 -19.7731 -19.7731
    -9.2303  -9.2303  -8.9387  -8.9387  -8.5067  -8.5067  -8.2569  -8.2569
    -8.2427  -8.2427  -8.1519  -8.1519  -8.0336  -8.0336  -8.0092  -8.0092
    -7.8707  -7.8707  -7.8011  -7.8011  -7.6291  -7.6291  -7.2218  -7.2218
     1.7376   1.7376   2.1283   2.1283   3.0449   3.0449   3.3107   3.3107
     3.3804   3.3804   3.4059   3.4059   3.4423   3.4423   3.5527   3.5527
     3.6697   3.6697   3.7495   3.7495   3.8421   3.8421   3.9245   3.9245
     4.1953   4.1953   4.3015   4.3015   4.6459   4.6459   4.7104   4.7104
     4.7973   4.7973   4.8869   4.8869   5.4750   5.4750   5.5997   5.5997
     5.6550   5.6550   5.8938   5.8938   6.2373   6.2374   6.3096   6.3096
     6.8046   6.8046   6.8965   6.8965   7.0954   7.0954   7.2047   7.2047
     7.4863   7.4863   7.5408   7.5408   7.6738   7.6738   7.7703   7.7703
     7.8523   7.8523   7.9951   7.9951   8.0230   8.0230   8.0960   8.0960
    11.5004  11.5004  11.8731  11.8731  11.9428  11.9429  12.2591  12.2591
    12.4043  12.4043  12.5510  12.5510  12.8030  12.8030  12.9221  12.9221
    13.0914  13.0914  13.3100  13.3100  13.7689  13.7689  13.7753  13.7753
    15.3531  15.3531  16.0503  16.0504  17.0122  17.0122  17.3210  17.3210
    17.4256  17.4257  17.6607  17.6607  17.7977

          k = 0.1667 0.0000 0.1667 ( 61061 PWs)   bands (ev):

   -65.6797 -65.6790 -65.6789 -65.6789 -65.6782 -65.6782 -65.6781 -65.6774
   -30.2228 -30.2199 -30.2178 -30.2178 -30.1494 -30.1492 -30.1484 -30.1429
   -30.0411 -30.0357 -30.0356 -30.0302 -29.9597 -29.9568 -29.9565 -29.9527
   -29.9459 -29.9445 -29.9386 -29.9384 -29.8769 -29.8768 -29.8731 -29.8713
   -19.8231 -19.8230 -19.8230 -19.8229 -19.8211 -19.8211 -19.8211 -19.8209
   -19.8122 -19.8122 -19.8120 -19.8120 -19.8105 -19.8104 -19.8104 -19.8104
   -19.8065 -19.8063 -19.8063 -19.8063 -19.8042 -19.8042 -19.8042 -19.8039
   -19.7905 -19.7900 -19.7900 -19.7895 -19.7890 -19.7884 -19.7882 -19.7882
   -19.7868 -19.7868 -19.7866 -19.7862 -19.7844 -19.7836 -19.7836 -19.7827
   -19.7816 -19.7814 -19.7813 -19.7813 -19.7793 -19.7791 -19.7790 -19.7785
   -19.7760 -19.7756 -19.7753 -19.7753 -19.7736 -19.7736 -19.7733 -19.7728
    -9.5413  -9.1849  -9.1797  -9.1777  -8.7594  -8.7223  -8.7169  -8.5766
    -8.3706  -8.3276  -8.3241  -8.2863  -7.8514  -7.7961  -7.7183  -7.7151
    -7.4253  -7.3867  -7.3748  -7.3526  -7.3489  -7.3086  -7.2776  -7.2687
     1.8418   1.8818   1.8876   1.9454   1.9854   2.0439   2.0626   2.0626
     2.3573   2.3656   2.4778   2.6141   2.8130   2.9091   3.0521   3.0633
     3.1047   3.1107   4.3742   4.4527   4.5297   4.5559   4.6811   4.7315
     4.7965   4.9537   4.9752   5.0248   5.1860   5.2528   5.4540   5.4716
     5.6689   5.6786   5.7655   5.8046   5.8060   5.9074   5.9451   5.9958
     5.9960   6.0777   6.0801   6.1241   6.1740   6.2190   6.2633   6.5479
     6.5545   6.7037   6.7891   6.8182   7.0072   7.0122   7.1484   7.1599
     7.1844   7.1972   7.2531   7.2648   7.3335   7.4225   7.5014   7.5356
     7.6386   7.6527   8.0593   8.0991   8.1707   8.2709   8.3108   8.4534
    10.5969  10.6429  10.7977  10.8009  11.0427  11.0824  12.5111  12.5209
    12.5466  12.6433  12.7538  12.8663  13.0925  13.2194  13.2351  13.4228
    13.4721  13.4914  13.6252  13.6570  13.9353  13.9681  14.1498  14.2048
    15.1296  15.3056  15.3260  15.3852  15.6135  16.1051  16.1723  16.3707
    16.3757  17.1789  17.2125  17.3178  18.0622

          k = 0.1667 0.0000 0.3333 ( 61033 PWs)   bands (ev):

   -65.6795 -65.6791 -65.6788 -65.6787 -65.6784 -65.6783 -65.6780 -65.6776
   -30.2207 -30.2186 -30.2058 -30.2025 -30.1643 -30.1613 -30.1484 -30.1460
   -30.0402 -30.0370 -30.0347 -30.0316 -29.9591 -29.9573 -29.9558 -29.9535
   -29.9440 -29.9401 -29.9307 -29.9246 -29.8913 -29.8864 -29.8759 -29.8732
   -19.8230 -19.8230 -19.8226 -19.8225 -19.8215 -19.8214 -19.8211 -19.8210
   -19.8122 -19.8121 -19.8118 -19.8117 -19.8108 -19.8107 -19.8105 -19.8104
   -19.8064 -19.8063 -19.8060 -19.8059 -19.8048 -19.8046 -19.8042 -19.8040
   -19.7904 -19.7901 -19.7899 -19.7896 -19.7888 -19.7884 -19.7882 -19.7879
   -19.7872 -19.7869 -19.7867 -19.7864 -19.7842 -19.7838 -19.7834 -19.7828
   -19.7815 -19.7813 -19.7809 -19.7808 -19.7796 -19.7795 -19.7790 -19.7787
   -19.7758 -19.7754 -19.7753 -19.7749 -19.7742 -19.7737 -19.7735 -19.7731
    -9.4340  -9.2330  -9.0452  -9.0316  -8.8016  -8.7712  -8.5759  -8.5286
    -8.3637  -8.3034  -8.1762  -8.1608  -8.0574  -7.9719  -7.8144  -7.7337
    -7.6205  -7.5292  -7.4116  -7.3815  -7.3533  -7.3413  -7.3211  -7.2906
     1.8658   1.8786   1.9423   1.9438   2.0622   2.0633   2.3242   2.3749
     2.6228   2.8171   2.9108   2.9271   3.0418   3.0844   3.1645   3.2623
     3.3121   3.3500   4.0142   4.1114   4.2487   4.2729   4.3198   4.5849
     4.6756   4.7833   4.8011   4.9227   5.0156   5.0717   5.1276   5.2525
     5.3776   5.4827   5.5710   5.6208   5.6434   5.7701   5.8538   5.9450
     5.9893   6.0355   6.0469   6.0814   6.2374   6.2537   6.3519   6.5535
     6.6172   6.6952   6.7700   6.8480   6.8938   6.9544   7.0877   7.1373
     7.1628   7.2505   7.3067   7.3735   7.4313   7.5070   7.5421   7.5965
     7.6755   7.7420   8.0153   8.0337   8.1170   8.1914   8.3329   8.4139
    10.7046  10.7335  11.1600  11.2487  11.4503  11.6488  12.2588  12.3098
    12.5095  12.6075  12.6825  12.9150  12.9285  13.1727  13.2892  13.3497
    13.5069  13.5313  13.5728  13.6647  13.8953  13.9146  14.0548  14.1170
    15.2160  15.3099  15.4987  15.6196  15.9481  16.0525  16.1983  16.3700
    16.8396  16.9627  17.6271  17.6440  17.7621

          k = 0.1667 0.0000-0.5000 ( 61084 PWs)   bands (ev):

   -65.6793 -65.6793 -65.6786 -65.6786 -65.6785 -65.6785 -65.6778 -65.6778
   -30.2196 -30.2196 -30.1850 -30.1850 -30.1817 -30.1817 -30.1473 -30.1473
   -30.0387 -30.0387 -30.0333 -30.0333 -29.9582 -29.9582 -29.9547 -29.9546
   -29.9421 -29.9421 -29.9110 -29.9110 -29.9055 -29.9055 -29.8746 -29.8746
   -19.8230 -19.8230 -19.8220 -19.8220 -19.8219 -19.8219 -19.8211 -19.8211
   -19.8121 -19.8121 -19.8113 -19.8113 -19.8112 -19.8112 -19.8105 -19.8105
   -19.8064 -19.8064 -19.8055 -19.8054 -19.8053 -19.8053 -19.8041 -19.8041
   -19.7902 -19.7902 -19.7898 -19.7898 -19.7885 -19.7885 -19.7878 -19.7878
   -19.7874 -19.7874 -19.7866 -19.7866 -19.7840 -19.7840 -19.7831 -19.7831
   -19.7814 -19.7814 -19.7802 -19.7802 -19.7801 -19.7801 -19.7789 -19.7789
   -19.7756 -19.7756 -19.7748 -19.7748 -19.7744 -19.7744 -19.7733 -19.7733
    -9.3194  -9.3194  -8.8907  -8.8907  -8.8784  -8.8784  -8.4419  -8.4419
    -8.3392  -8.3391  -8.2002  -8.2001  -7.9482  -7.9482  -7.9017  -7.9017
    -7.7180  -7.7180  -7.3970  -7.3970  -7.3383  -7.3383  -7.3162  -7.3162
     1.8701   1.8701   1.9447   1.9447   2.0660   2.0660   2.3772   2.3773
     2.9725   2.9725   3.3294   3.3294   3.4320   3.4320   3.5329   3.5329
     3.6153   3.6153   3.7132   3.7132   3.9231   3.9231   4.0207   4.0207
     4.3006   4.3006   4.7007   4.7007   4.9796   4.9796   5.2612   5.2612
     5.3182   5.3182   5.5094   5.5094   5.6886   5.6887   5.8396   5.8396
     6.0084   6.0084   6.0559   6.0559   6.2674   6.2674   6.4891   6.4891
     6.6548   6.6548   6.7755   6.7755   6.8596   6.8596   7.0946   7.0946
     7.2507   7.2507   7.3439   7.3439   7.4237   7.4237   7.8217   7.8217
     7.8578   7.8578   7.9487   7.9487   8.0098   8.0098   8.3658   8.3658
    10.7324  10.7324  11.7253  11.7253  11.8435  11.8435  11.9980  11.9980
    12.3247  12.3247  12.6720  12.6720  13.1649  13.1649  13.2936  13.2936
    13.4678  13.4678  13.7152  13.7152  13.7642  13.7642  14.0495  14.0496
    15.2756  15.2757  15.7841  15.7842  15.9306  15.9306  16.4785  16.4785
    16.9072  16.9072  17.8158  17.8158  18.2900

          k = 0.1667 0.1649 0.1667 ( 61047 PWs)   bands (ev):

   -65.6796 -65.6790 -65.6789 -65.6789 -65.6782 -65.6782 -65.6781 -65.6775
   -30.2225 -30.2201 -30.2178 -30.2178 -30.1492 -30.1491 -30.1479 -30.1432
   -30.0357 -30.0305 -30.0305 -30.0253 -29.9650 -29.9620 -29.9618 -29.9581
   -29.9460 -29.9447 -29.9388 -29.9386 -29.8769 -29.8769 -29.8729 -29.8714
   -19.8231 -19.8230 -19.8230 -19.8230 -19.8211 -19.8211 -19.8211 -19.8209
   -19.8122 -19.8122 -19.8120 -19.8120 -19.8104 -19.8104 -19.8104 -19.8104
   -19.8065 -19.8064 -19.8063 -19.8063 -19.8042 -19.8042 -19.8041 -19.8039
   -19.7902 -19.7897 -19.7897 -19.7891 -19.7890 -19.7883 -19.7882 -19.7882
   -19.7868 -19.7868 -19.7866 -19.7862 -19.7847 -19.7840 -19.7839 -19.7831
   -19.7816 -19.7815 -19.7814 -19.7813 -19.7793 -19.7791 -19.7791 -19.7786
   -19.7760 -19.7757 -19.7753 -19.7753 -19.7736 -19.7736 -19.7733 -19.7729
    -9.5040  -9.1937  -9.1472  -9.1438  -8.7048  -8.6979  -8.6792  -8.5407
    -8.3711  -8.3120  -8.3084  -8.2788  -7.8546  -7.7970  -7.7230  -7.7167
    -7.5209  -7.4698  -7.4698  -7.4236  -7.3712  -7.3584  -7.2743  -7.2695
     1.9058   1.9417   1.9528   1.9846   2.1373   2.1745   2.1835   2.1906
     2.3862   2.3967   2.4783   2.6529   2.8788   2.9396   3.0423   3.1560
     3.1881   3.2045   4.3313   4.3788   4.4850   4.5248   4.6265   4.7210
     4.7492   4.7866   4.7893   5.0447   5.0810   5.1276   5.4127   5.4170
     5.4995   5.6538   5.7264   5.7714   5.7723   5.8384   5.8600   5.9306
     5.9561   5.9961   6.0206   6.0946   6.1173   6.2151   6.2553   6.4161
     6.6876   6.7310   6.8651   6.9318   7.0005   7.0036   7.1257   7.1456
     7.1734   7.2091   7.3018   7.3107   7.3717   7.4049   7.5189   7.5314
     7.6387   7.6488   8.0538   8.0966   8.1852   8.2614   8.2958   8.4004
    10.7000  10.7573  10.9286  10.9445  11.0778  11.1581  12.5172  12.5224
    12.5727  12.6538  12.7591  12.8793  12.9630  13.2060  13.2166  13.3337
    13.3430  13.3994  13.5854  13.6568  13.9287  13.9294  14.1439  14.1540
    15.2002  15.4213  15.4308  15.5471  15.6037  16.0878  16.3604  16.3934
    16.5615  17.0932  17.3189  17.3202  18.0627

          k = 0.1667 0.1649 0.3333 ( 61039 PWs)   bands (ev):

   -65.6795 -65.6791 -65.6788 -65.6787 -65.6784 -65.6783 -65.6780 -65.6776
   -30.2207 -30.2186 -30.2058 -30.2025 -30.1642 -30.1610 -30.1483 -30.1460
   -30.0348 -30.0318 -30.0296 -30.0266 -29.9644 -29.9626 -29.9611 -29.9589
   -29.9441 -29.9402 -29.9307 -29.9247 -29.8913 -29.8864 -29.8759 -29.8732
   -19.8230 -19.8230 -19.8226 -19.8225 -19.8215 -19.8214 -19.8211 -19.8210
   -19.8122 -19.8121 -19.8118 -19.8117 -19.8108 -19.8107 -19.8105 -19.8104
   -19.8064 -19.8063 -19.8060 -19.8059 -19.8048 -19.8046 -19.8042 -19.8040
   -19.7901 -19.7898 -19.7896 -19.7893 -19.7888 -19.7883 -19.7881 -19.7879
   -19.7872 -19.7870 -19.7867 -19.7864 -19.7845 -19.7841 -19.7837 -19.7833
   -19.7815 -19.7814 -19.7809 -19.7808 -19.7796 -19.7795 -19.7790 -19.7788
   -19.7758 -19.7754 -19.7754 -19.7749 -19.7742 -19.7737 -19.7735 -19.7731
    -9.3947  -9.1960  -9.0558  -8.9820  -8.7606  -8.7232  -8.5612  -8.4932
    -8.3444  -8.3019  -8.1728  -8.1584  -8.0574  -7.9723  -7.8177  -7.7364
    -7.6262  -7.5454  -7.5024  -7.4749  -7.4560  -7.4234  -7.3440  -7.2900
     1.9340   1.9506   2.1379   2.1520   2.1850   2.1980   2.3370   2.3998
     2.6249   2.8260   2.9261   2.9940   3.0582   3.1331   3.2021   3.2963
     3.3680   3.4201   4.0197   4.1350   4.2336   4.2781   4.3107   4.5918
     4.6422   4.7083   4.7489   4.8141   4.8708   4.9626   5.0728   5.1571
     5.3050   5.3464   5.4307   5.4847   5.6252   5.6609   5.7407   5.8392
     5.9257   5.9759   6.0102   6.0376   6.0993   6.1757   6.2797   6.3836
     6.7243   6.7637   6.8930   6.9323   6.9763   7.0383   7.1265   7.1722
     7.2044   7.2298   7.3269   7.3999   7.4530   7.5106   7.5529   7.5938
     7.6922   7.7639   8.0121   8.0358   8.1368   8.1835   8.3076   8.3683
    10.8476  10.8746  11.2265  11.3605  11.4673  11.6821  12.2826  12.3456
    12.5313  12.6332  12.7091  12.9137  12.9318  13.0399  13.1904  13.2968
    13.4073  13.4363  13.5221  13.6275  13.8271  13.8600  14.0188  14.0935
    15.3128  15.4184  15.6341  15.8026  15.9591  16.2169  16.3704  16.4687
    16.8849  16.9938  17.4729  17.7182  17.7497

          k = 0.1667 0.1649-0.5000 ( 61062 PWs)   bands (ev):

   -65.6793 -65.6793 -65.6786 -65.6786 -65.6785 -65.6785 -65.6778 -65.6778
   -30.2196 -30.2196 -30.1850 -30.1850 -30.1816 -30.1816 -30.1472 -30.1472
   -30.0334 -30.0334 -30.0282 -30.0282 -29.9635 -29.9635 -29.9601 -29.9600
   -29.9422 -29.9422 -29.9110 -29.9110 -29.9056 -29.9056 -29.8746 -29.8746
   -19.8230 -19.8230 -19.8220 -19.8220 -19.8219 -19.8219 -19.8211 -19.8211
   -19.8121 -19.8121 -19.8113 -19.8113 -19.8112 -19.8112 -19.8105 -19.8105
   -19.8064 -19.8064 -19.8055 -19.8054 -19.8053 -19.8053 -19.8041 -19.8041
   -19.7899 -19.7899 -19.7894 -19.7894 -19.7885 -19.7885 -19.7877 -19.7877
   -19.7874 -19.7874 -19.7865 -19.7865 -19.7843 -19.7843 -19.7835 -19.7835
   -19.7815 -19.7815 -19.7802 -19.7802 -19.7801 -19.7801 -19.7789 -19.7789
   -19.7756 -19.7756 -19.7748 -19.7748 -19.7744 -19.7744 -19.7733 -19.7733
    -9.2807  -9.2807  -8.8836  -8.8836  -8.8175  -8.8174  -8.4127  -8.4127
    -8.3362  -8.3361  -8.1998  -8.1998  -7.9505  -7.9505  -7.9042  -7.9042
    -7.7192  -7.7192  -7.4938  -7.4938  -7.4440  -7.4440  -7.3165  -7.3165
     1.9406   1.9406   2.1536   2.1536   2.1920   2.1920   2.4015   2.4015
     3.0497   3.0497   3.3390   3.3390   3.4337   3.4337   3.5607   3.5607
     3.6352   3.6352   3.7252   3.7252   3.9455   3.9455   4.0583   4.0583
     4.3027   4.3027   4.6764   4.6764   4.7924   4.7924   5.1458   5.1458
     5.2407   5.2407   5.3854   5.3854   5.4958   5.4958   5.8007   5.8007
     5.9223   5.9223   5.9997   5.9997   6.1203   6.1203   6.3287   6.3287
     6.7638   6.7638   6.9131   6.9131   7.0135   7.0135   7.1320   7.1320
     7.2275   7.2275   7.3471   7.3471   7.4729   7.4730   7.8229   7.8229
     7.8547   7.8547   7.9690   7.9690   8.0187   8.0187   8.3306   8.3306
    10.8802  10.8802  11.7634  11.7634  11.9145  11.9145  12.0157  12.0157
    12.3426  12.3426  12.7062  12.7062  13.0763  13.0763  13.2331  13.2331
    13.4161  13.4161  13.6003  13.6003  13.7048  13.7048  14.0177  14.0177
    15.3777  15.3777  15.8824  15.8824  16.2153  16.2153  16.5327  16.5327
    16.9310  16.9310  17.8001  17.8001  18.1893

          k = 0.1667 0.3298 0.1667 ( 61049 PWs)   bands (ev):

   -65.6795 -65.6791 -65.6788 -65.6787 -65.6783 -65.6783 -65.6780 -65.6776
   -30.2219 -30.2205 -30.2177 -30.2177 -30.1489 -30.1488 -30.1467 -30.1439
   -30.0209 -30.0163 -30.0162 -30.0115 -29.9799 -29.9765 -29.9764 -29.9727
   -29.9459 -29.9451 -29.9389 -29.9388 -29.8769 -29.8769 -29.8726 -29.8717
   -19.8231 -19.8230 -19.8230 -19.8230 -19.8211 -19.8211 -19.8211 -19.8210
   -19.8122 -19.8122 -19.8120 -19.8120 -19.8104 -19.8104 -19.8104 -19.8104
   -19.8065 -19.8064 -19.8063 -19.8063 -19.8042 -19.8042 -19.8041 -19.8040
   -19.7896 -19.7891 -19.7890 -19.7890 -19.7882 -19.7880 -19.7880 -19.7878
   -19.7868 -19.7867 -19.7867 -19.7860 -19.7855 -19.7849 -19.7848 -19.7842
   -19.7816 -19.7816 -19.7815 -19.7815 -19.7792 -19.7791 -19.7791 -19.7787
   -19.7759 -19.7758 -19.7753 -19.7753 -19.7736 -19.7736 -19.7732 -19.7730
    -9.4130  -9.2378  -9.0778  -9.0752  -8.6507  -8.6457  -8.4589  -8.4487
    -8.3740  -8.2412  -8.2384  -8.2303  -7.8995  -7.8083  -7.7880  -7.7643
    -7.7385  -7.7180  -7.6677  -7.6447  -7.3712  -7.3634  -7.2740  -7.2714
     1.9355   1.9513   1.9783   1.9843   2.3113   2.3125   2.4026   2.4754
     2.6802   2.7770   2.8010   2.9388   2.9570   3.0246   3.1320   3.4275
     3.4306   3.5441   4.0811   4.0854   4.1218   4.2160   4.3494   4.6171
     4.6788   4.7187   4.7290   4.8731   4.9277   5.1523   5.1616   5.2340
     5.2621   5.3154   5.4271   5.4795   5.5834   5.6795   5.8219   5.8226
     5.9448   5.9526   5.9967   6.0068   6.0850   6.0879   6.1438   6.2667
     6.7668   6.8689   6.8792   6.9642   7.0544   7.0613   7.1578   7.1763
     7.3601   7.3902   7.4061   7.4292   7.4633   7.4714   7.5295   7.5466
     7.6605   7.6691   8.0270   8.0865   8.1577   8.1920   8.2169   8.2459
    10.8717  10.8900  11.2793  11.3186  11.3287  11.5248  12.4491  12.4647
    12.5227  12.5901  12.6542  12.7234  12.9902  12.9903  13.1493  13.1562
    13.2352  13.3226  13.5071  13.6090  13.7422  13.7663  14.0366  14.0701
    15.3408  15.5355  15.6623  15.6935  16.0553  16.2500  16.4235  16.4415
    16.7139  17.3776  17.6373  17.7001  17.8114

          k = 0.1667 0.3298 0.3333 ( 61044 PWs)   bands (ev):

   -65.6793 -65.6789 -65.6789 -65.6786 -65.6785 -65.6782 -65.6782 -65.6778
   -30.2205 -30.2185 -30.2058 -30.2024 -30.1640 -30.1606 -30.1480 -30.1459
   -30.0200 -30.0174 -30.0154 -30.0127 -29.9793 -29.9772 -29.9758 -29.9736
   -29.9443 -29.9404 -29.9309 -29.9248 -29.8913 -29.8863 -29.8759 -29.8732
   -19.8230 -19.8230 -19.8226 -19.8225 -19.8215 -19.8214 -19.8211 -19.8210
   -19.8122 -19.8121 -19.8118 -19.8117 -19.8108 -19.8107 -19.8104 -19.8104
   -19.8064 -19.8063 -19.8060 -19.8059 -19.8048 -19.8046 -19.8042 -19.8041
   -19.7894 -19.7891 -19.7888 -19.7888 -19.7883 -19.7882 -19.7878 -19.7876
   -19.7871 -19.7870 -19.7866 -19.7862 -19.7854 -19.7850 -19.7847 -19.7843
   -19.7816 -19.7815 -19.7810 -19.7809 -19.7795 -19.7795 -19.7790 -19.7789
   -19.7758 -19.7755 -19.7754 -19.7749 -19.7742 -19.7737 -19.7735 -19.7732
    -9.3030  -9.1242  -9.0893  -8.8769  -8.7279  -8.5200  -8.4937  -8.3929
    -8.3005  -8.2578  -8.1524  -8.1387  -8.0649  -7.9804  -7.8547  -7.7891
    -7.7439  -7.7294  -7.7087  -7.6703  -7.5958  -7.5089  -7.3459  -7.2911
     1.9573   1.9767   2.3037   2.3288   2.5247   2.6024   2.6938   2.7594
     2.8312   2.8891   2.9579   3.0829   3.1743   3.2506   3.2853   3.4090
     3.6083   3.6784   3.9864   4.0808   4.0934   4.1443   4.2697   4.3614
     4.3992   4.5096   4.5874   4.6803   4.8191   4.8974   4.9137   4.9902
     5.0773   5.2070   5.2259   5.3135   5.3453   5.3929   5.4975   5.5921
     5.6346   5.7252   5.7562   5.9091   6.0130   6.0614   6.1113   6.1699
     6.8660   6.8881   6.9850   7.0265   7.1194   7.2355   7.2506   7.3102
     7.3586   7.3935   7.4315   7.4595   7.5088   7.5290   7.5932   7.6031
     7.7554   7.8119   7.9950   8.0365   8.1212   8.1362   8.2110   8.2302
    11.1805  11.2427  11.3911  11.5407  11.6733  11.8687  12.3215  12.4118
    12.5631  12.5925  12.6754  12.7691  12.8769  12.9167  13.0234  13.0891
    13.2103  13.2703  13.3779  13.5251  13.6305  13.7204  13.9015  13.9629
    15.4290  15.6232  15.8600  16.1827  16.3127  16.4251  16.5151  16.9628
    17.0826  17.2546  17.3134  17.8120  17.9138

          k = 0.1667 0.3298-0.5000 ( 61042 PWs)   bands (ev):

   -65.6791 -65.6791 -65.6787 -65.6787 -65.6784 -65.6784 -65.6780 -65.6780
   -30.2195 -30.2195 -30.1849 -30.1849 -30.1814 -30.1814 -30.1470 -30.1470
   -30.0188 -30.0188 -30.0141 -30.0141 -29.9783 -29.9783 -29.9747 -29.9747
   -29.9424 -29.9424 -29.9111 -29.9111 -29.9056 -29.9056 -29.8746 -29.8746
   -19.8230 -19.8230 -19.8220 -19.8220 -19.8219 -19.8219 -19.8211 -19.8211
   -19.8121 -19.8121 -19.8113 -19.8113 -19.8112 -19.8112 -19.8105 -19.8104
   -19.8064 -19.8063 -19.8055 -19.8054 -19.8053 -19.8052 -19.8041 -19.8041
   -19.7893 -19.7893 -19.7885 -19.7885 -19.7885 -19.7885 -19.7875 -19.7875
   -19.7874 -19.7874 -19.7864 -19.7864 -19.7852 -19.7852 -19.7845 -19.7845
   -19.7816 -19.7815 -19.7802 -19.7802 -19.7801 -19.7801 -19.7790 -19.7790
   -19.7756 -19.7756 -19.7749 -19.7749 -19.7744 -19.7744 -19.7733 -19.7733
    -9.1985  -9.1985  -8.8876  -8.8876  -8.6415  -8.6415  -8.3240  -8.3240
    -8.3090  -8.3090  -8.1967  -8.1966  -7.9665  -7.9665  -7.9215  -7.9215
    -7.7562  -7.7562  -7.7006  -7.7006  -7.6735  -7.6735  -7.3179  -7.3179
     1.9661   1.9661   2.3344   2.3344   2.6751   2.6751   2.8112   2.8113
     3.2461   3.2461   3.3705   3.3706   3.4306   3.4306   3.5929   3.5930
     3.7004   3.7005   3.7559   3.7559   3.9958   3.9958   4.0983   4.0983
     4.2808   4.2808   4.4031   4.4031   4.6279   4.6279   4.7615   4.7615
     5.1055   5.1055   5.2303   5.2304   5.3535   5.3535   5.4307   5.4307
     5.5061   5.5061   5.7706   5.7706   6.0314   6.0314   6.1315   6.1315
     6.8929   6.8929   7.0726   7.0726   7.1848   7.1848   7.2671   7.2671
     7.3937   7.3937   7.4577   7.4577   7.5323   7.5323   7.8133   7.8133
     7.8505   7.8505   7.9930   7.9930   8.0278   8.0278   8.2125   8.2125
    11.2762  11.2762  11.8539  11.8539  12.0343  12.0343  12.1624  12.1625
    12.4253  12.4253  12.6487  12.6487  12.8815  12.8815  13.0786  13.0786
    13.2530  13.2530  13.3154  13.3154  13.6455  13.6455  13.8501  13.8501
    15.5271  15.5271  16.1387  16.1387  16.7690  16.7690  16.9558  16.9558
    17.0392  17.0392  17.7062  17.7062  18.0009

          k = 0.1667-0.4946 0.1667 ( 61016 PWs)   bands (ev):

   -65.6793 -65.6793 -65.6786 -65.6786 -65.6785 -65.6785 -65.6778 -65.6778
   -30.2212 -30.2212 -30.2177 -30.2177 -30.1487 -30.1487 -30.1452 -30.1452
   -30.0005 -30.0005 -29.9982 -29.9982 -29.9947 -29.9947 -29.9923 -29.9923
   -29.9456 -29.9456 -29.9390 -29.9390 -29.8769 -29.8769 -29.8722 -29.8722
   -19.8230 -19.8230 -19.8230 -19.8230 -19.8211 -19.8211 -19.8210 -19.8210
   -19.8122 -19.8122 -19.8120 -19.8120 -19.8104 -19.8104 -19.8104 -19.8104
   -19.8064 -19.8064 -19.8063 -19.8063 -19.8042 -19.8042 -19.8040 -19.8040
   -19.7892 -19.7892 -19.7887 -19.7887 -19.7877 -19.7877 -19.7872 -19.7872
   -19.7867 -19.7867 -19.7861 -19.7861 -19.7859 -19.7859 -19.7855 -19.7854
   -19.7816 -19.7816 -19.7816 -19.7815 -19.7791 -19.7791 -19.7790 -19.7790
   -19.7759 -19.7759 -19.7753 -19.7753 -19.7736 -19.7736 -19.7731 -19.7731
    -9.3135  -9.3135  -9.0450  -9.0450  -8.6137  -8.6137  -8.3887  -8.3887
    -8.1502  -8.1502  -8.0795  -8.0795  -8.0471  -8.0471  -8.0103  -8.0103
    -7.7894  -7.7894  -7.6877  -7.6877  -7.3680  -7.3680  -7.2731  -7.2731
     1.9443   1.9443   1.9824   1.9824   2.3204   2.3204   2.4650   2.4650
     2.9689   2.9689   3.1360   3.1360   3.2648   3.2648   3.6155   3.6155
     3.6547   3.6548   3.9002   3.9002   4.0215   4.0215   4.2418   4.2418
     4.2949   4.2949   4.6432   4.6432   4.7500   4.7500   5.2606   5.2607
     5.3294   5.3295   5.4007   5.4007   5.5003   5.5004   5.8462   5.8462
     5.8656   5.8656   5.9887   5.9887   6.0150   6.0150   6.1659   6.1659
     6.8127   6.8127   6.9325   6.9325   7.0556   7.0556   7.1859   7.1859
     7.4328   7.4329   7.4721   7.4721   7.5462   7.5462   7.6625   7.6625
     7.7812   7.7812   8.0103   8.0103   8.0808   8.0808   8.1390   8.1390
    10.9130  10.9130  11.6602  11.6602  11.7420  11.7420  12.2160  12.2160
    12.3320  12.3320  12.6610  12.6610  12.9668  12.9668  13.1120  13.1120
    13.3526  13.3526  13.5132  13.5132  13.5577  13.5577  14.0003  14.0003
    15.4705  15.4705  15.7841  15.7841  16.3126  16.3126  16.4546  16.4546
    17.0534  17.0534  18.1009  18.1009  18.3095

          k = 0.1667-0.4946 0.3333 ( 61040 PWs)   bands (ev):

   -65.6792 -65.6791 -65.6788 -65.6786 -65.6784 -65.6783 -65.6780 -65.6779
   -30.2205 -30.2184 -30.2058 -30.2023 -30.1639 -30.1604 -30.1479 -30.1459
   -30.0002 -29.9994 -29.9987 -29.9970 -29.9960 -29.9944 -29.9936 -29.9929
   -29.9443 -29.9405 -29.9309 -29.9249 -29.8913 -29.8863 -29.8759 -29.8732
   -19.8230 -19.8230 -19.8226 -19.8225 -19.8215 -19.8214 -19.8211 -19.8210
   -19.8122 -19.8121 -19.8118 -19.8117 -19.8108 -19.8107 -19.8104 -19.8104
   -19.8064 -19.8063 -19.8060 -19.8059 -19.8048 -19.8046 -19.8042 -19.8041
   -19.7891 -19.7889 -19.7888 -19.7884 -19.7880 -19.7876 -19.7875 -19.7873
   -19.7867 -19.7866 -19.7863 -19.7861 -19.7860 -19.7859 -19.7856 -19.7856
   -19.7816 -19.7816 -19.7810 -19.7809 -19.7795 -19.7794 -19.7790 -19.7790
   -19.7757 -19.7755 -19.7754 -19.7749 -19.7742 -19.7737 -19.7735 -19.7732
    -9.2383  -9.1294  -9.0847  -8.8270  -8.7064  -8.4521  -8.3359  -8.2745
    -8.2416  -8.1862  -8.1045  -8.0556  -8.0443  -8.0363  -8.0285  -7.9787
    -7.9484  -7.8843  -7.7716  -7.7065  -7.6054  -7.5133  -7.3466  -7.2916
     1.9592   1.9789   2.3069   2.3370   2.5614   2.7452   2.8614   2.9909
     3.1536   3.1678   3.1907   3.2132   3.3672   3.4049   3.5148   3.5921
     3.6320   3.6565   3.9091   3.9471   4.0631   4.1728   4.1913   4.2146
     4.2521   4.3208   4.3430   4.3839   4.5911   4.6490   4.8416   4.9182
     4.9832   5.0582   5.2110   5.2735   5.2790   5.3732   5.3954   5.4375
     5.5007   5.5729   5.6830   5.8034   6.0046   6.0250   6.0821   6.0974
     6.8766   6.9050   7.0059   7.0419   7.1457   7.2738   7.3167   7.3764
     7.4189   7.4724   7.4975   7.5476   7.5994   7.6358   7.6522   7.7043
     7.8256   7.8540   7.9796   8.0140   8.0634   8.0761   8.0989   8.1220
    11.2987  11.4057  11.6689  11.7704  11.9409  12.0540  12.2165  12.3260
    12.4304  12.4377  12.5421  12.7110  12.8391  12.8998  12.9977  13.0585
    13.1652  13.2517  13.2933  13.3054  13.5586  13.5836  13.8591  13.8762
    15.4753  15.7036  15.8799  16.3482  16.4665  16.6111  16.8284  17.0148
    17.1832  17.2426  17.7733  17.8564  18.0676

          k = 0.1667-0.4946-0.5000 ( 61016 PWs)   bands (ev):

   -65.6790 -65.6790 -65.6789 -65.6789 -65.6782 -65.6782 -65.6781 -65.6781
   -30.2195 -30.2195 -30.1848 -30.1848 -30.1814 -30.1813 -30.1469 -30.1469
   -29.9996 -29.9996 -29.9977 -29.9977 -29.9954 -29.9954 -29.9937 -29.9937
   -29.9425 -29.9425 -29.9111 -29.9111 -29.9056 -29.9056 -29.8746 -29.8746
   -19.8230 -19.8230 -19.8220 -19.8220 -19.8219 -19.8219 -19.8211 -19.8211
   -19.8121 -19.8121 -19.8113 -19.8113 -19.8112 -19.8112 -19.8105 -19.8104
   -19.8063 -19.8063 -19.8055 -19.8054 -19.8053 -19.8052 -19.8041 -19.8041
   -19.7890 -19.7889 -19.7885 -19.7884 -19.7879 -19.7879 -19.7875 -19.7874
   -19.7865 -19.7865 -19.7863 -19.7863 -19.7858 -19.7858 -19.7857 -19.7857
   -19.7816 -19.7816 -19.7802 -19.7802 -19.7801 -19.7801 -19.7790 -19.7790
   -19.7756 -19.7756 -19.7749 -19.7749 -19.7744 -19.7744 -19.7733 -19.7733
    -9.1547  -9.1547  -8.8910  -8.8910  -8.5215  -8.5215  -8.2761  -8.2761
    -8.2285  -8.2285  -8.1403  -8.1403  -8.0270  -8.0270  -8.0130  -8.0130
    -7.8704  -7.8704  -7.8140  -7.8140  -7.7041  -7.7041  -7.3185  -7.3184
     1.9683   1.9683   2.3423   2.3424   3.0724   3.0724   3.3156   3.3156
     3.3894   3.3894   3.4112   3.4112   3.4480   3.4480   3.5470   3.5470
     3.7154   3.7154   3.7753   3.7753   3.8583   3.8583   4.0164   4.0165
     4.2187   4.2188   4.3204   4.3204   4.6301   4.6301   4.6974   4.6974
     4.8016   4.8016   4.8733   4.8733   5.2153   5.2153   5.3471   5.3471
     5.4439   5.4439   5.6619   5.6619   6.0359   6.0359   6.0539   6.0539
     6.9040   6.9040   7.0936   7.0936   7.2214   7.2214   7.3370   7.3370
     7.5004   7.5004   7.5761   7.5762   7.6746   7.6746   7.7881   7.7881
     7.8421   7.8421   8.0008   8.0008   8.0254   8.0254   8.0931   8.0932
    11.5938  11.5938  11.9569  11.9569  12.0175  12.0175  12.3187  12.3187
    12.4050  12.4050  12.5846  12.5846  12.8172  12.8172  12.9172  12.9172
    13.0968  13.0968  13.2102  13.2102  13.6588  13.6588  13.7031  13.7031
    15.5793  15.5793  16.2104  16.2104  17.0605  17.0605  17.3209  17.3209
    17.4612  17.4613  17.6665  17.6665  17.7913

          k = 0.3333 0.0000 0.3333 ( 61026 PWs)   bands (ev):

   -65.6794 -65.6790 -65.6789 -65.6786 -65.6785 -65.6782 -65.6781 -65.6777
   -30.2069 -30.2039 -30.2033 -30.2031 -30.1642 -30.1634 -30.1632 -30.1592
   -30.0392 -30.0362 -30.0360 -30.0330 -29.9584 -29.9567 -29.9563 -29.9543
   -29.9303 -29.9287 -29.9262 -29.9258 -29.8904 -29.8902 -29.8883 -29.8866
   -19.8227 -19.8225 -19.8225 -19.8225 -19.8215 -19.8214 -19.8214 -19.8213
   -19.8118 -19.8118 -19.8117 -19.8117 -19.8108 -19.8108 -19.8108 -19.8108
   -19.8061 -19.8059 -19.8059 -19.8059 -19.8047 -19.8047 -19.8047 -19.8045
   -19.7903 -19.7900 -19.7900 -19.7897 -19.7885 -19.7881 -19.7880 -19.7880
   -19.7872 -19.7871 -19.7871 -19.7867 -19.7840 -19.7835 -19.7835 -19.7830
   -19.7810 -19.7810 -19.7807 -19.7806 -19.7798 -19.7794 -19.7794 -19.7790
   -19.7755 -19.7751 -19.7751 -19.7750 -19.7741 -19.7740 -19.7739 -19.7735
    -9.3110  -9.0937  -9.0796  -8.8997  -8.8471  -8.6299  -8.6065  -8.4888
    -8.2568  -8.2334  -8.1830  -8.1156  -8.0830  -8.0256  -7.9629  -7.9419
    -7.6071  -7.5903  -7.5670  -7.5258  -7.3979  -7.3665  -7.3648  -7.3338
     1.9233   1.9285   1.9420   1.9435   2.5892   2.6041   2.6290   2.6383
     2.9243   2.9406   3.0274   3.0658   3.1222   3.2675   3.2833   3.3678
     3.5033   3.5693   3.9587   4.0815   4.1161   4.1372   4.2602   4.4289
     4.4380   4.5155   4.6106   4.6307   4.7840   4.8853   4.9758   4.9957
     5.0425   5.1844   5.3727   5.4386   5.4584   5.5314   5.5807   5.6129
     5.6710   5.8606   5.9378   6.0258   6.3155   6.3654   6.3876   6.5594
     6.7019   6.7554   6.8086   6.8353   6.8788   6.9503   6.9759   6.9832
     7.3388   7.3825   7.4835   7.4950   7.5408   7.5959   7.6710   7.6716
     7.7469   7.7827   7.9843   7.9866   8.0705   8.1706   8.2891   8.3586
    11.0947  11.1224  11.3266  11.3457  11.8414  11.9380  12.2650  12.2851
    12.4073  12.4464  12.6829  12.7101  13.0264  13.0362  13.2629  13.3271
    13.3833  13.5132  13.5852  13.6005  13.7833  13.8806  13.9400  14.0393
    15.3887  15.5523  15.5789  15.9099  15.9994  16.1874  16.5960  16.7056
    16.7917  17.2745  17.4121  17.7460  17.7782

          k = 0.3333 0.0000-0.5000 ( 61040 PWs)   bands (ev):

   -65.6792 -65.6792 -65.6787 -65.6787 -65.6784 -65.6784 -65.6779 -65.6779
   -30.2044 -30.2044 -30.1842 -30.1842 -30.1825 -30.1825 -30.1623 -30.1623
   -30.0378 -30.0378 -30.0346 -30.0346 -29.9575 -29.9575 -29.9554 -29.9554
   -29.9279 -29.9279 -29.9099 -29.9099 -29.9068 -29.9068 -29.8889 -29.8889
   -19.8226 -19.8226 -19.8220 -19.8220 -19.8219 -19.8219 -19.8214 -19.8214
   -19.8118 -19.8118 -19.8114 -19.8113 -19.8112 -19.8112 -19.8108 -19.8108
   -19.8060 -19.8060 -19.8054 -19.8054 -19.8053 -19.8053 -19.8046 -19.8046
   -19.7901 -19.7901 -19.7899 -19.7899 -19.7882 -19.7882 -19.7876 -19.7876
   -19.7876 -19.7876 -19.7870 -19.7870 -19.7837 -19.7837 -19.7832 -19.7832
   -19.7809 -19.7809 -19.7802 -19.7802 -19.7800 -19.7800 -19.7793 -19.7793
   -19.7753 -19.7753 -19.7747 -19.7747 -19.7745 -19.7745 -19.7738 -19.7738
    -9.1810  -9.1810  -8.9390  -8.9389  -8.7243  -8.7243  -8.4019  -8.4019
    -8.3576  -8.3576  -8.1080  -8.1080  -8.0935  -8.0935  -7.9041  -7.9041
    -7.8059  -7.8059  -7.5701  -7.5701  -7.3831  -7.3830  -7.3507  -7.3507
     1.9265   1.9265   1.9445   1.9445   2.6337   2.6337   2.9170   2.9170
     3.1497   3.1497   3.3753   3.3753   3.4750   3.4750   3.5738   3.5738
     3.6486   3.6486   3.8106   3.8106   3.9587   3.9587   4.0432   4.0432
     4.2857   4.2857   4.4039   4.4039   4.5894   4.5894   4.8198   4.8198
     5.0553   5.0553   5.2451   5.2451   5.4767   5.4767   5.5103   5.5103
     5.7081   5.7081   5.9486   5.9486   6.3778   6.3778   6.5187   6.5187
     6.7206   6.7206   6.8004   6.8004   6.8428   6.8428   6.9565   6.9565
     7.4652   7.4652   7.5367   7.5367   7.6188   7.6188   7.8251   7.8251
     7.8651   7.8651   7.9437   7.9437   8.0121   8.0121   8.2955   8.2956
    11.2027  11.2027  11.8049  11.8049  11.8488  11.8488  12.2749  12.2749
    12.3954  12.3954  12.5007  12.5007  13.0145  13.0145  13.2593  13.2593
    13.3682  13.3682  13.6398  13.6398  13.7260  13.7260  13.9529  13.9529
    15.5077  15.5077  15.8315  15.8315  16.2969  16.2969  16.8377  16.8377
    17.1626  17.1626  17.5368  17.5368  18.1020

          k = 0.3333 0.1649 0.3333 ( 61041 PWs)   bands (ev):

   -65.6793 -65.6789 -65.6789 -65.6786 -65.6785 -65.6782 -65.6782 -65.6778
   -30.2066 -30.2040 -30.2032 -30.2031 -30.1639 -30.1633 -30.1630 -30.1594
   -30.0339 -30.0310 -30.0308 -30.0279 -29.9638 -29.9620 -29.9617 -29.9597
   -29.9303 -29.9289 -29.9263 -29.9260 -29.8904 -29.8903 -29.8882 -29.8867
   -19.8226 -19.8225 -19.8225 -19.8225 -19.8215 -19.8214 -19.8214 -19.8213
   -19.8118 -19.8118 -19.8117 -19.8117 -19.8108 -19.8108 -19.8108 -19.8108
   -19.8061 -19.8059 -19.8059 -19.8059 -19.8047 -19.8047 -19.8047 -19.8045
   -19.7900 -19.7897 -19.7897 -19.7894 -19.7885 -19.7880 -19.7880 -19.7879
   -19.7872 -19.7871 -19.7871 -19.7867 -19.7843 -19.7839 -19.7838 -19.7834
   -19.7810 -19.7810 -19.7808 -19.7807 -19.7797 -19.7794 -19.7794 -19.7791
   -19.7755 -19.7752 -19.7751 -19.7750 -19.7741 -19.7740 -19.7739 -19.7736
    -9.2655  -9.0439  -9.0284  -8.9129  -8.7721  -8.6224  -8.5972  -8.4562
    -8.2501  -8.2227  -8.1839  -8.1133  -8.0889  -8.0218  -7.9627  -7.9413
    -7.6141  -7.5980  -7.5844  -7.5270  -7.4915  -7.4630  -7.4605  -7.4287
     2.1104   2.1352   2.1465   2.1764   2.5869   2.6098   2.6336   2.6368
     2.9244   2.9430   3.0255   3.1142   3.1549   3.3357   3.3609   3.4592
[...]
    11.3049  11.3049  11.8539  11.8539  11.9285  11.9285  12.2805  12.2805
    12.4387  12.4388  12.5198  12.5198  13.0016  13.0016  13.2055  13.2055
    13.2783  13.2783  13.5126  13.5126  13.6252  13.6252  13.8834  13.8834
    15.7451  15.7451  16.0807  16.0807  16.3863  16.3863  16.8513  16.8513
    17.1680  17.1680  17.5591  17.5591  18.0784

          k = 0.3333 0.3298 0.3333 ( 61024 PWs)   bands (ev):

   -65.6792 -65.6788 -65.6788 -65.6787 -65.6784 -65.6783 -65.6783 -65.6779
   -30.2059 -30.2044 -30.2031 -30.2031 -30.1634 -30.1632 -30.1623 -30.1601
   -30.0192 -30.0166 -30.0165 -30.0138 -29.9787 -29.9767 -29.9765 -29.9744
   -29.9301 -29.9293 -29.9263 -29.9261 -29.8904 -29.8903 -29.8879 -29.8870
   -19.8226 -19.8225 -19.8225 -19.8225 -19.8215 -19.8214 -19.8214 -19.8214
   -19.8118 -19.8118 -19.8117 -19.8117 -19.8108 -19.8108 -19.8108 -19.8108
   -19.8060 -19.8059 -19.8059 -19.8059 -19.8047 -19.8047 -19.8047 -19.8045
   -19.7893 -19.7889 -19.7889 -19.7886 -19.7884 -19.7880 -19.7880 -19.7875
   -19.7873 -19.7869 -19.7869 -19.7865 -19.7852 -19.7849 -19.7848 -19.7845
   -19.7810 -19.7810 -19.7809 -19.7808 -19.7796 -19.7795 -19.7795 -19.7792
   -19.7755 -19.7753 -19.7750 -19.7750 -19.7741 -19.7741 -19.7739 -19.7736
    -9.1552  -8.9638  -8.9275  -8.9195  -8.6031  -8.5691  -8.5542  -8.3549
    -8.2201  -8.1856  -8.1743  -8.1185  -8.0972  -8.0097  -7.9645  -7.9387
    -7.7652  -7.7445  -7.7377  -7.7103  -7.5780  -7.5759  -7.5293  -7.5233
     2.4934   2.5288   2.5323   2.5869   2.7169   2.7382   2.7503   2.7759
     2.9510   2.9875   3.0255   3.1395   3.3442   3.4439   3.5196   3.5936
     3.6086   3.7734   3.9586   4.0143   4.1114   4.2080   4.2682   4.3297
     4.4315   4.4680   4.4971   4.5542   4.6001   4.6837   4.7396   4.7901
     4.9039   4.9086   5.0393   5.1175   5.1353   5.1986   5.2150   5.2625
     5.3570   5.4417   5.5096   5.5175   5.6432   5.7627   5.7730   5.8762
     7.0279   7.0663   7.1440   7.1956   7.2911   7.3157   7.3411   7.3657
     7.4192   7.4480   7.5442   7.5459   7.5677   7.6477   7.7146   7.7288
     7.8052   7.8344   7.9745   7.9967   8.0859   8.1085   8.1900   8.2066
    11.4786  11.4857  11.6509  11.7587  11.8859  12.0552  12.3954  12.4734
    12.5350  12.6075  12.6739  12.7260  12.8288  12.9293  12.9532  13.0077
    13.0906  13.1700  13.3014  13.3712  13.5001  13.6362  13.6368  13.8026
    15.9435  16.1204  16.2041  16.2675  16.4456  16.7702  16.8316  16.8793
    17.1835  17.3016  17.4855  17.5856  17.9130

          k = 0.3333 0.3298-0.5000 ( 61050 PWs)   bands (ev):

   -65.6790 -65.6790 -65.6786 -65.6786 -65.6785 -65.6785 -65.6781 -65.6781
   -30.2042 -30.2042 -30.1841 -30.1841 -30.1822 -30.1822 -30.1622 -30.1622
   -30.0180 -30.0180 -30.0153 -30.0153 -29.9777 -29.9777 -29.9756 -29.9756
   -29.9280 -29.9280 -29.9100 -29.9100 -29.9069 -29.9068 -29.8889 -29.8889
   -19.8226 -19.8226 -19.8220 -19.8220 -19.8219 -19.8219 -19.8214 -19.8214
   -19.8118 -19.8118 -19.8114 -19.8113 -19.8112 -19.8112 -19.8108 -19.8108
   -19.8060 -19.8060 -19.8054 -19.8054 -19.8053 -19.8052 -19.8047 -19.8046
   -19.7891 -19.7891 -19.7887 -19.7886 -19.7883 -19.7883 -19.7876 -19.7876
   -19.7872 -19.7872 -19.7867 -19.7867 -19.7850 -19.7850 -19.7847 -19.7847
   -19.7809 -19.7809 -19.7802 -19.7802 -19.7801 -19.7801 -19.7794 -19.7794
   -19.7752 -19.7752 -19.7748 -19.7748 -19.7745 -19.7745 -19.7739 -19.7739
    -9.0169  -9.0169  -8.7556  -8.7556  -8.6944  -8.6944  -8.3772  -8.3772
    -8.2838  -8.2838  -8.1072  -8.1072  -8.0744  -8.0744  -7.9139  -7.9139
    -7.8275  -7.8275  -7.7232  -7.7232  -7.6981  -7.6981  -7.5509  -7.5509
     2.5330   2.5330   2.7100   2.7100   2.7582   2.7583   2.9412   2.9412
     3.3154   3.3154   3.4334   3.4334   3.4994   3.4994   3.6195   3.6195
     3.7723   3.7723   3.8897   3.8897   4.0262   4.0262   4.1312   4.1312
     4.3367   4.3367   4.4415   4.4415   4.4950   4.4950   4.6276   4.6276
     4.7798   4.7799   4.9432   4.9432   4.9997   4.9997   5.1981   5.1981
     5.2900   5.2901   5.3691   5.3691   5.5237   5.5237   5.7792   5.7792
     7.0874   7.0874   7.2625   7.2625   7.2830   7.2831   7.3923   7.3923
     7.5008   7.5008   7.5659   7.5659   7.6972   7.6972   7.8316   7.8316
     7.8590   7.8590   7.9910   7.9910   8.0137   8.0137   8.1808   8.1808
    11.5988  11.5988  11.9999  11.9999  12.1511  12.1512  12.3064  12.3064
    12.5165  12.5165  12.6408  12.6408  12.8192  12.8192  12.9984  12.9984
    13.1344  13.1344  13.2756  13.2756  13.3793  13.3793  13.6431  13.6431
    16.1739  16.1739  16.5173  16.5173  16.8636  16.8636  17.0032  17.0032
    17.2133  17.2133  17.5968  17.5968  17.9726

          k = 0.3333-0.4946 0.3333 ( 61040 PWs)   bands (ev):

   -65.6790 -65.6790 -65.6786 -65.6786 -65.6785 -65.6785 -65.6781 -65.6781
   -30.2051 -30.2051 -30.2031 -30.2030 -30.1632 -30.1632 -30.1611 -30.1611
   -29.9991 -29.9991 -29.9976 -29.9976 -29.9957 -29.9957 -29.9943 -29.9943
   -29.9297 -29.9297 -29.9262 -29.9262 -29.8903 -29.8903 -29.8875 -29.8875
   -19.8226 -19.8226 -19.8225 -19.8225 -19.8215 -19.8215 -19.8214 -19.8214
   -19.8118 -19.8118 -19.8117 -19.8117 -19.8108 -19.8108 -19.8108 -19.8107
   -19.8060 -19.8060 -19.8059 -19.8059 -19.8047 -19.8047 -19.8046 -19.8046
   -19.7888 -19.7888 -19.7885 -19.7885 -19.7879 -19.7879 -19.7876 -19.7876
   -19.7865 -19.7865 -19.7862 -19.7862 -19.7860 -19.7860 -19.7857 -19.7857
   -19.7810 -19.7810 -19.7809 -19.7809 -19.7795 -19.7795 -19.7794 -19.7794
   -19.7754 -19.7754 -19.7750 -19.7750 -19.7741 -19.7741 -19.7738 -19.7738
    -9.0398  -9.0398  -8.8700  -8.8700  -8.5570  -8.5570  -8.2955  -8.2955
    -8.2331  -8.2331  -8.0768  -8.0768  -8.0191  -8.0191  -7.9864  -7.9864
    -7.9415  -7.9415  -7.8913  -7.8913  -7.5843  -7.5843  -7.5308  -7.5308
     2.5567   2.5567   2.5824   2.5824   2.8843   2.8843   2.9914   2.9914
     3.2195   3.2195   3.3418   3.3418   3.4941   3.4941   3.5607   3.5607
     3.6268   3.6268   4.0010   4.0010   4.2055   4.2055   4.2284   4.2284
     4.2604   4.2604   4.4291   4.4291   4.5142   4.5142   4.6429   4.6429
     4.8855   4.8856   4.9463   4.9463   5.0598   5.0598   5.2206   5.2206
     5.2912   5.2912   5.3623   5.3623   5.4711   5.4711   5.6359   5.6359
     7.1028   7.1028   7.2467   7.2467   7.3628   7.3628   7.4595   7.4595
     7.5319   7.5319   7.5868   7.5868   7.6595   7.6595   7.7716   7.7716
     7.8538   7.8538   7.9748   7.9748   8.0660   8.0660   8.0934   8.0934
    11.6514  11.6514  11.9364  11.9364  12.1032  12.1032  12.4128  12.4128
    12.5399  12.5399  12.6640  12.6640  12.7909  12.7909  12.8819  12.8819
    13.0846  13.0846  13.2459  13.2459  13.3280  13.3280  13.6634  13.6634
    16.0693  16.0693  16.4266  16.4266  16.8698  16.8698  17.0107  17.0107
    17.3473  17.3473  17.8263  17.8264  17.9761

          k = 0.3333-0.4946-0.5000 ( 61052 PWs)   bands (ev):

   -65.6788 -65.6788 -65.6787 -65.6787 -65.6784 -65.6783 -65.6783 -65.6783
   -30.2041 -30.2041 -30.1841 -30.1841 -30.1821 -30.1820 -30.1621 -30.1621
   -29.9985 -29.9984 -29.9974 -29.9974 -29.9960 -29.9960 -29.9950 -29.9950
   -29.9280 -29.9280 -29.9100 -29.9100 -29.9069 -29.9069 -29.8889 -29.8889
   -19.8226 -19.8225 -19.8220 -19.8220 -19.8219 -19.8219 -19.8214 -19.8214
   -19.8118 -19.8118 -19.8114 -19.8113 -19.8112 -19.8112 -19.8108 -19.8108
   -19.8060 -19.8059 -19.8054 -19.8054 -19.8053 -19.8052 -19.8047 -19.8047
   -19.7886 -19.7886 -19.7883 -19.7883 -19.7880 -19.7880 -19.7878 -19.7877
   -19.7864 -19.7864 -19.7862 -19.7862 -19.7860 -19.7860 -19.7859 -19.7859
   -19.7810 -19.7809 -19.7802 -19.7802 -19.7801 -19.7801 -19.7795 -19.7794
   -19.7752 -19.7752 -19.7748 -19.7748 -19.7745 -19.7745 -19.7739 -19.7739
    -8.9453  -8.9453  -8.7752  -8.7751  -8.5661  -8.5661  -8.3914  -8.3914
    -8.1794  -8.1794  -8.0939  -8.0939  -8.0306  -8.0306  -7.9962  -7.9962
    -7.9193  -7.9193  -7.8591  -7.8591  -7.7756  -7.7755  -7.5567  -7.5567
     2.5808   2.5808   2.8824   2.8824   3.1389   3.1389   3.2851   3.2851
     3.3837   3.3837   3.4605   3.4605   3.5156   3.5156   3.5389   3.5389
     3.7677   3.7677   3.8292   3.8292   3.9498   3.9498   4.2323   4.2323
     4.2765   4.2766   4.3763   4.3763   4.4661   4.4661   4.6585   4.6585
     4.7789   4.7789   4.8233   4.8233   4.8888   4.8888   4.9289   4.9289
     5.0713   5.0713   5.2225   5.2225   5.4006   5.4006   5.4387   5.4387
     7.1574   7.1574   7.3737   7.3738   7.4188   7.4188   7.4577   7.4577
     7.5609   7.5609   7.6364   7.6364   7.7449   7.7450   7.8104   7.8104
     7.8660   7.8660   7.9942   7.9942   8.0238   8.0238   8.0826   8.0826
    11.8607  11.8607  12.1115  12.1115  12.2524  12.2524  12.4234  12.4234
    12.4768  12.4768  12.6914  12.6914  12.7930  12.7930  12.8429  12.8429
    12.9649  12.9649  13.0318  13.0318  13.3740  13.3740  13.4436  13.4436
    16.2797  16.2797  16.6857  16.6857  17.1973  17.1973  17.3063  17.3063
    17.5442  17.5442  17.6912  17.6914  17.7709

          k =-0.5000 0.0000-0.5000 ( 61036 PWs)   bands (ev):

   -65.6790 -65.6789 -65.6789 -65.6789 -65.6782 -65.6782 -65.6781 -65.6781
   -30.1856 -30.1856 -30.1850 -30.1850 -30.1816 -30.1816 -30.1811 -30.1811
   -30.0364 -30.0364 -30.0362 -30.0362 -29.9567 -29.9566 -29.9563 -29.9562
   -29.9094 -29.9094 -29.9091 -29.9091 -29.9078 -29.9077 -29.9073 -29.9073
   -19.8221 -19.8221 -19.8220 -19.8220 -19.8219 -19.8219 -19.8219 -19.8218
   -19.8114 -19.8114 -19.8113 -19.8113 -19.8112 -19.8112 -19.8112 -19.8112
   -19.8055 -19.8055 -19.8054 -19.8054 -19.8053 -19.8053 -19.8051 -19.8051
   -19.7900 -19.7900 -19.7900 -19.7900 -19.7879 -19.7878 -19.7878 -19.7878
   -19.7874 -19.7874 -19.7873 -19.7873 -19.7835 -19.7835 -19.7835 -19.7834
   -19.7805 -19.7805 -19.7803 -19.7803 -19.7798 -19.7798 -19.7797 -19.7797
   -19.7749 -19.7749 -19.7748 -19.7748 -19.7744 -19.7744 -19.7743 -19.7743
    -9.0465  -9.0465  -9.0264  -9.0264  -8.5301  -8.5301  -8.4630  -8.4630
    -8.3479  -8.3479  -8.2730  -8.2730  -7.9333  -7.9332  -7.8814  -7.8814
    -7.8511  -7.8511  -7.7938  -7.7938  -7.3692  -7.3692  -7.3667  -7.3667
     1.9276   1.9276   1.9462   1.9462   3.2064   3.2064   3.2290   3.2290
     3.3654   3.3654   3.3726   3.3726   3.5985   3.5985   3.6973   3.6973
     3.7320   3.7320   3.7801   3.7801   3.8476   3.8476   3.9593   3.9593
     3.9996   3.9996   4.2416   4.2416   4.5537   4.5537   4.6038   4.6038
     4.6972   4.6973   4.8405   4.8406   5.4215   5.4215   5.4686   5.4686
     5.7576   5.7576   5.8284   5.8284   6.4802   6.4802   6.5047   6.5047
     6.7255   6.7255   6.7890   6.7890   6.8348   6.8348   6.8427   6.8427
     7.6388   7.6389   7.6606   7.6606   7.7189   7.7189   7.8233   7.8233
     7.8915   7.8916   7.9323   7.9323   7.9869   7.9869   8.2272   8.2272
    11.6227  11.6227  11.8246  11.8246  11.8545  11.8545  12.0483  12.0483
    12.6522  12.6522  12.7071  12.7071  12.7980  12.7980  12.8750  12.8751
    13.4533  13.4533  13.5924  13.5924  13.7370  13.7370  13.8583  13.8583
    15.6767  15.6767  15.7442  15.7442  16.7696  16.7696  17.2101  17.2102
    17.3336  17.3336  17.4175  17.4175  17.6857

          k =-0.5000 0.1649-0.5000 ( 61052 PWs)   bands (ev):

   -65.6789 -65.6789 -65.6789 -65.6789 -65.6782 -65.6782 -65.6782 -65.6782
   -30.1853 -30.1853 -30.1847 -30.1847 -30.1818 -30.1818 -30.1813 -30.1813
   -30.0312 -30.0312 -30.0310 -30.0310 -29.9621 -29.9621 -29.9617 -29.9617
   -29.9093 -29.9092 -29.9091 -29.9091 -29.9079 -29.9078 -29.9075 -29.9075
   -19.8221 -19.8220 -19.8220 -19.8220 -19.8219 -19.8219 -19.8219 -19.8219
   -19.8114 -19.8114 -19.8113 -19.8113 -19.8112 -19.8112 -19.8112 -19.8112
   -19.8055 -19.8055 -19.8054 -19.8054 -19.8053 -19.8053 -19.8052 -19.8051
   -19.7897 -19.7897 -19.7897 -19.7896 -19.7879 -19.7879 -19.7879 -19.7878
   -19.7874 -19.7873 -19.7873 -19.7873 -19.7839 -19.7838 -19.7838 -19.7838
   -19.7805 -19.7804 -19.7803 -19.7803 -19.7799 -19.7799 -19.7798 -19.7798
   -19.7749 -19.7748 -19.7748 -19.7748 -19.7744 -19.7744 -19.7744 -19.7743
    -8.9863  -8.9863  -8.9630  -8.9630  -8.5415  -8.5415  -8.4756  -8.4756
    -8.3283  -8.3283  -8.2560  -8.2560  -7.9350  -7.9350  -7.8818  -7.8817
    -7.8550  -7.8550  -7.7942  -7.7942  -7.4695  -7.4695  -7.4655  -7.4655
     2.1419   2.1419   2.1610   2.1611   3.2183   3.2183   3.2502   3.2502
     3.3705   3.3705   3.3720   3.3721   3.6101   3.6101   3.7386   3.7386
     3.7386   3.7386   3.7851   3.7851   3.8948   3.8948   3.9890   3.9890
     4.0482   4.0482   4.2908   4.2909   4.5377   4.5377   4.5992   4.5992
     4.6826   4.6826   4.8364   4.8365   5.1783   5.1783   5.2173   5.2173
     5.5226   5.5226   5.5582   5.5582   6.2344   6.2345   6.2371   6.2371
     6.8868   6.8868   6.9663   6.9663   7.0277   7.0277   7.0632   7.0633
     7.6423   7.6423   7.6662   7.6662   7.7321   7.7321   7.8294   7.8295
     7.8977   7.8977   7.9539   7.9539   7.9881   7.9881   8.2082   8.2082
    11.6951  11.6951  11.8904  11.8904  11.9174  11.9174  12.1190  12.1191
    12.6589  12.6589  12.6983  12.6983  12.8053  12.8053  12.8777  12.8777
    13.3167  13.3167  13.4552  13.4552  13.6428  13.6428  13.7620  13.7620
    15.9665  15.9665  16.0207  16.0207  16.8278  16.8279  17.2119  17.2119
    17.3031  17.3031  17.4352  17.4352  17.7148

          k =-0.5000 0.3298-0.5000 ( 61040 PWs)   bands (ev):

   -65.6788 -65.6788 -65.6787 -65.6787 -65.6784 -65.6784 -65.6783 -65.6783
   -30.1845 -30.1845 -30.1838 -30.1838 -30.1824 -30.1823 -30.1819 -30.1819
   -30.0168 -30.0168 -30.0166 -30.0166 -29.9769 -29.9768 -29.9765 -29.9765
   -29.9089 -29.9089 -29.9089 -29.9089 -29.9082 -29.9081 -29.9079 -29.9079
   -19.8220 -19.8220 -19.8220 -19.8220 -19.8219 -19.8219 -19.8219 -19.8219
   -19.8114 -19.8114 -19.8113 -19.8113 -19.8112 -19.8112 -19.8112 -19.8112
   -19.8055 -19.8055 -19.8054 -19.8054 -19.8053 -19.8053 -19.8052 -19.8052
   -19.7889 -19.7888 -19.7888 -19.7888 -19.7880 -19.7879 -19.7879 -19.7879
   -19.7871 -19.7871 -19.7870 -19.7870 -19.7849 -19.7849 -19.7848 -19.7848
   -19.7804 -19.7803 -19.7802 -19.7802 -19.7800 -19.7800 -19.7800 -19.7800
   -19.7748 -19.7748 -19.7747 -19.7747 -19.7745 -19.7745 -19.7745 -19.7744
    -8.8367  -8.8367  -8.8004  -8.8003  -8.5800  -8.5799  -8.5211  -8.5210
    -8.2576  -8.2576  -8.1928  -8.1928  -7.9500  -7.9500  -7.8863  -7.8863
    -7.8804  -7.8804  -7.7948  -7.7948  -7.7036  -7.7036  -7.6828  -7.6828
     2.6929   2.6929   2.7112   2.7112   3.2389   3.2389   3.2838   3.2838
     3.3782   3.3782   3.3791   3.3791   3.6530   3.6530   3.7248   3.7248
     3.7754   3.7754   3.8086   3.8086   4.0055   4.0056   4.0326   4.0326
     4.2528   4.2528   4.3495   4.3495   4.5466   4.5466   4.5782   4.5782
     4.5840   4.5841   4.8199   4.8199   4.8368   4.8368   4.8766   4.8766
     5.1052   5.1052   5.1194   5.1194   5.5539   5.5539   5.5874   5.5874
     7.1705   7.1706   7.2878   7.2878   7.2949   7.2949   7.4142   7.4142
     7.6414   7.6414   7.6754   7.6754   7.7341   7.7341   7.8307   7.8307
     7.9336   7.9336   7.9759   7.9759   7.9870   7.9870   8.1419   8.1419
    11.9274  11.9274  12.0422  12.0422  12.1520  12.1520  12.3117  12.3117
    12.6593  12.6593  12.6626  12.6626  12.8233  12.8233  12.8900  12.8900
    13.0103  13.0103  13.1380  13.1380  13.3532  13.3532  13.4496  13.4497
    16.6919  16.6919  16.6937  16.6937  17.0423  17.0423  17.2094  17.2094
    17.2253  17.2253  17.4773  17.4773  17.7922

          k =-0.5000-0.4946-0.5000 ( 61056 PWs)   bands (ev):

   -65.6786 -65.6786 -65.6786 -65.6786 -65.6785 -65.6785 -65.6785 -65.6785
   -30.1838 -30.1838 -30.1829 -30.1829 -30.1828 -30.1828 -30.1828 -30.1828
   -29.9970 -29.9970 -29.9969 -29.9969 -29.9969 -29.9969 -29.9963 -29.9963
   -29.9086 -29.9086 -29.9086 -29.9086 -29.9085 -29.9085 -29.9083 -29.9083
   -19.8220 -19.8220 -19.8220 -19.8220 -19.8220 -19.8220 -19.8219 -19.8219
   -19.8114 -19.8114 -19.8113 -19.8113 -19.8112 -19.8112 -19.8112 -19.8112
   -19.8054 -19.8054 -19.8054 -19.8054 -19.8053 -19.8053 -19.8052 -19.8052
   -19.7883 -19.7883 -19.7882 -19.7882 -19.7882 -19.7882 -19.7881 -19.7881
   -19.7863 -19.7863 -19.7861 -19.7861 -19.7861 -19.7861 -19.7860 -19.7860
   -19.7802 -19.7802 -19.7801 -19.7801 -19.7801 -19.7801 -19.7801 -19.7801
   -19.7747 -19.7747 -19.7747 -19.7746 -19.7746 -19.7746 -19.7745 -19.7745
    -8.7134  -8.7134  -8.6388  -8.6388  -8.6258  -8.6258  -8.6258  -8.6258
    -8.1525  -8.1525  -8.0552  -8.0552  -8.0552  -8.0552  -7.9976  -7.9976
    -7.8594  -7.8594  -7.8594  -7.8594  -7.7944  -7.7944  -7.7743  -7.7743
     3.1940   3.1940   3.1948   3.1948   3.1948   3.1948   3.2633   3.2633
     3.3593   3.3593   3.5299   3.5299   3.5299   3.5299   3.7033   3.7033
     3.7857   3.7857   3.8389   3.8389   3.8863   3.8863   3.8863   3.8863
     4.4448   4.4448   4.4461   4.4461   4.5586   4.5586   4.5586   4.5586
     4.7256   4.7256   4.7493   4.7493   4.7493   4.7493   4.8327   4.8327
     4.9165   4.9165   4.9977   4.9977   4.9977   4.9977   5.0158   5.0158
     7.2898   7.2898   7.4160   7.4160   7.4160   7.4160   7.5779   7.5779
     7.6596   7.6596   7.6596   7.6596   7.7284   7.7284   7.8184   7.8184
     7.9814   7.9814   7.9814   7.9814   8.0131   8.0131   8.0420   8.0420
    12.1913  12.1913  12.2593  12.2593  12.2593  12.2593  12.3434  12.3434
    12.6776  12.6776  12.6776  12.6776  12.7221  12.7221  12.8608  12.8608
    12.9269  12.9269  13.0771  13.0771  13.0771  13.0771  13.1273  13.1273
    17.0480  17.0480  17.0480  17.0480  17.1889  17.1889  17.2630  17.2630
    17.6677  17.6677  17.7422  17.7422  17.7422

     the Fermi energy is    10.6758 ev

!    total energy              =   -6260.58268947 Ry
     Harris-Foulkes estimate   =   -6260.58268947 Ry
     estimated scf accuracy    <          9.3E-10 Ry

     The total energy is the sum of the following terms:

     one-electron contribution =   -4615.27559294 Ry
     hartree contribution      =    2550.74668707 Ry
     xc contribution           =    -966.27878385 Ry
     ewald contribution        =   -3229.77495583 Ry
     smearing contrib. (-TS)   =      -0.00004392 Ry

     convergence has been achieved in  13 iterations

     Writing output data file Landau_19.save
 
     init_run     :     22.32s CPU     23.61s WALL (       1 calls)
     electrons    :    892.82s CPU    914.54s WALL (       1 calls)

     Called by init_run:
     wfcinit      :     20.78s CPU     21.94s WALL (       1 calls)
     potinit      :      0.54s CPU      0.57s WALL (       1 calls)

     Called by electrons:
     c_bands      :    801.07s CPU    821.54s WALL (      13 calls)
     sum_band     :     85.06s CPU     85.51s WALL (      13 calls)
     v_of_rho     :      1.29s CPU      1.32s WALL (      14 calls)
     mix_rho      :      2.02s CPU      2.60s WALL (      13 calls)

     Called by c_bands:
     init_us_2    :      3.76s CPU      4.43s WALL (      27 calls)
     cegterg      :    735.68s CPU    755.58s WALL (      13 calls)

     Called by sum_band:

     Called by *egterg:
     h_psi        :    541.13s CPU    546.29s WALL (      52 calls)
     g_psi        :      0.76s CPU      0.77s WALL (      38 calls)
     cdiaghg      :      8.54s CPU      8.59s WALL (      51 calls)

     Called by h_psi:
     h_psi:pot    :    539.10s CPU    543.90s WALL (      52 calls)
     h_psi:calbec :     85.24s CPU     87.68s WALL (      52 calls)
     vloc_psi     :    365.94s CPU    367.58s WALL (      52 calls)
     add_vuspsi   :     87.92s CPU     88.63s WALL (      52 calls)

     General routines
     calbec       :     85.24s CPU     87.68s WALL (      52 calls)
     fft          :      1.16s CPU      1.16s WALL (      56 calls)
     fftw         :    392.97s CPU    394.11s WALL (   17239 calls)
 
     Parallel routines
 
     PWSCF        : 15m16.49s CPU    15m44.36s WALL

 
   This run was terminated on:  20:39:19  25Mar2020            

=------------------------------------------------------------------------------=
   JOB DONE.
=------------------------------------------------------------------------------=
