
     Program PWSCF v.6.4.1 starts on 19Nov2019 at 21:30:17 

     This program is part of the open-source Quantum ESPRESSO suite
     for quantum simulation of materials; please cite
         "P. Giannozzi et al., J. Phys.:Condens. Matter 21 395502 (2009);
         "P. Giannozzi et al., J. Phys.:Condens. Matter 29 465901 (2017);
          URL http://www.quantum-espresso.org", 
     in publications or presentations arising from this work. More details at
     http://www.quantum-espresso.org/quote

     Parallel version (MPI), running on    40 processors

     MPI processes distributed on     5 nodes
     K-points division:     npool     =      40
     Reading input from scf.in

     Current dimensions of program PWSCF are:
     Max number of different atomic species (ntypx) = 10
     Max number of k-points (npk) =  40000
     Max angular momentum in pseudopotentials (lmaxx) =  3

     Subspace diagonalization in iterative solution of the eigenvalue problem:
     a serial algorithm will be used

     Message from routine setup:
     using ibrav=0 with symmetry is DISCOURAGED, use correct ibrav instead
 
     G-vector sticks info
     --------------------
     sticks:   dense  smooth     PW     G-vecs:    dense   smooth      PW
     Sum        3761    3761   1033               253093   253093   36109
 


     bravais-lattice index     =            0
     lattice parameter (alat)  =       9.9273  a.u.
     unit-cell volume          =    1424.3882 (a.u.)^3
     number of atoms/cell      =           16
     number of atomic types    =            2
     number of electrons       =       184.03
     number of Kohn-Sham states=          110
     kinetic-energy cutoff     =     120.0000  Ry
     charge density cutoff     =     480.0000  Ry
     convergence threshold     =      1.0E-08
     mixing beta               =       0.7000
     number of iterations used =            8  plain     mixing
     Exchange-correlation      = SLA PW NOGX NOGC ( 1  4  0  0 0 0)

     celldm(1)=   9.927291  celldm(2)=   0.000000  celldm(3)=   0.000000
     celldm(4)=   0.000000  celldm(5)=   0.000000  celldm(6)=   0.000000

     crystal axes: (cart. coord. in units of alat)
               a(1) = (   1.000000   0.000000   0.000000 )  
               a(2) = (   0.000000   1.000000   0.000000 )  
               a(3) = (   0.000000   0.000000   1.455915 )  

     reciprocal axes: (cart. coord. in units 2 pi/alat)
               b(1) = (  1.000000  0.000000  0.000000 )  
               b(2) = (  0.000000  1.000000  0.000000 )  
               b(3) = (  0.000000  0.000000  0.686853 )  


     PseudoPot. # 1 for W  read from file:
     /cluster/scratch/mnoe/QE/pps/W_ONCV_LDA-4.0.upf
     MD5 check sum: ba0307d5d4cd419d6f1d13dc49d7c13a
     Pseudo is Norm-conserving + core correction, Zval = 28.0
     Generated using ONCVPSP code by D. R. Hamann
     Using radial grid of 1380 points,  8 beta functions with: 
                l(1) =   0
                l(2) =   0
                l(3) =   1
                l(4) =   1
                l(5) =   2
                l(6) =   2
                l(7) =   3
                l(8) =   3

     PseudoPot. # 2 for O  read from file:
     /cluster/scratch/mnoe/QE/pps/O_ONCV_LDA-3.0.upf
     MD5 check sum: b55cdb4f45ae2203d24ad12cf8d61a31
     Pseudo is Norm-conserving + core correction, Zval =  6.0
     Generated using ONCVPSP code by D. R. Hamann
     Using radial grid of  926 points,  5 beta functions with: 
                l(1) =   0
                l(2) =   0
                l(3) =   1
                l(4) =   1
                l(5) =   2

     atomic species   valence    mass     pseudopotential
        W             28.00   183.84000     W ( 1.00)
        O              6.00    15.99940     O ( 1.00)

     16 Sym. Ops., with inversion, found (14 have fractional translation)



   Cartesian axes

     site n.     atom                  positions (alat units)
         1           W   tau(   1) = (   0.2500000   0.2500000   0.3052073  )
         2           W   tau(   2) = (   0.7500000   0.7500000   1.1507082  )
         3           W   tau(   3) = (   0.7500000   0.7500000   0.4227504  )
         4           W   tau(   4) = (   0.2500000   0.2500000   1.0331651  )
         5           O   tau(   5) = (   0.2500000   0.2500000   0.6924456  )
         6           O   tau(   6) = (   0.7500000   0.7500000   0.7634699  )
         7           O   tau(   7) = (   0.7500000   0.7500000   0.0355122  )
         8           O   tau(   8) = (   0.2500000   0.2500000   1.4204033  )
         9           O   tau(   9) = (   0.4932953   0.5067046   0.3639789  )
        10           O   tau(  10) = (   0.5067047   0.4932954   1.0919366  )
        11           O   tau(  11) = (   0.0067047   0.9932954   0.3639789  )
        12           O   tau(  12) = (   0.9932953   0.0067047   1.0919366  )
        13           O   tau(  13) = (   0.9932954   0.4932953   0.3639789  )
        14           O   tau(  14) = (   0.0067047   0.5067047   1.0919366  )
        15           O   tau(  15) = (   0.5067046   0.0067047   0.3639789  )
        16           O   tau(  16) = (   0.4932954   0.9932953   1.0919366  )

     number of k points=    40  gaussian smearing, width (Ry)=  0.0007
                       cart. coord. in units 2pi/alat
        k(    1) = (   0.0000000   0.0000000   0.0000000), wk =   0.0092593
        k(    2) = (   0.0000000   0.0000000   0.1144755), wk =   0.0185185
        k(    3) = (   0.0000000   0.0000000   0.2289510), wk =   0.0185185
        k(    4) = (   0.0000000   0.0000000  -0.3434265), wk =   0.0092593
        k(    5) = (   0.0000000   0.1666667   0.0000000), wk =   0.0370370
        k(    6) = (   0.0000000   0.1666667   0.1144755), wk =   0.0740741
        k(    7) = (   0.0000000   0.1666667   0.2289510), wk =   0.0740741
        k(    8) = (   0.0000000   0.1666667  -0.3434265), wk =   0.0370370
        k(    9) = (   0.0000000   0.3333333   0.0000000), wk =   0.0370370
        k(   10) = (   0.0000000   0.3333333   0.1144755), wk =   0.0740741
        k(   11) = (   0.0000000   0.3333333   0.2289510), wk =   0.0740741
        k(   12) = (   0.0000000   0.3333333  -0.3434265), wk =   0.0370370
        k(   13) = (   0.0000000  -0.5000000   0.0000000), wk =   0.0185185
        k(   14) = (   0.0000000  -0.5000000   0.1144755), wk =   0.0370370
        k(   15) = (   0.0000000  -0.5000000   0.2289510), wk =   0.0370370
        k(   16) = (   0.0000000  -0.5000000  -0.3434265), wk =   0.0185185
        k(   17) = (   0.1666667   0.1666667   0.0000000), wk =   0.0370370
        k(   18) = (   0.1666667   0.1666667   0.1144755), wk =   0.0740741
        k(   19) = (   0.1666667   0.1666667   0.2289510), wk =   0.0740741
        k(   20) = (   0.1666667   0.1666667  -0.3434265), wk =   0.0370370
        k(   21) = (   0.1666667   0.3333333   0.0000000), wk =   0.0740741
        k(   22) = (   0.1666667   0.3333333   0.1144755), wk =   0.1481481
        k(   23) = (   0.1666667   0.3333333   0.2289510), wk =   0.1481481
        k(   24) = (   0.1666667   0.3333333  -0.3434265), wk =   0.0740741
        k(   25) = (   0.1666667  -0.5000000   0.0000000), wk =   0.0370370
        k(   26) = (   0.1666667  -0.5000000   0.1144755), wk =   0.0740741
        k(   27) = (   0.1666667  -0.5000000   0.2289510), wk =   0.0740741
        k(   28) = (   0.1666667  -0.5000000  -0.3434265), wk =   0.0370370
        k(   29) = (   0.3333333   0.3333333   0.0000000), wk =   0.0370370
        k(   30) = (   0.3333333   0.3333333   0.1144755), wk =   0.0740741
        k(   31) = (   0.3333333   0.3333333   0.2289510), wk =   0.0740741
        k(   32) = (   0.3333333   0.3333333  -0.3434265), wk =   0.0370370
        k(   33) = (   0.3333333  -0.5000000   0.0000000), wk =   0.0370370
        k(   34) = (   0.3333333  -0.5000000   0.1144755), wk =   0.0740741
        k(   35) = (   0.3333333  -0.5000000   0.2289510), wk =   0.0740741
        k(   36) = (   0.3333333  -0.5000000  -0.3434265), wk =   0.0370370
        k(   37) = (  -0.5000000  -0.5000000   0.0000000), wk =   0.0092593
        k(   38) = (  -0.5000000  -0.5000000   0.1144755), wk =   0.0185185
        k(   39) = (  -0.5000000  -0.5000000   0.2289510), wk =   0.0185185
        k(   40) = (  -0.5000000  -0.5000000  -0.3434265), wk =   0.0092593

     Dense  grid:   253093 G-vectors     FFT dimensions: (  72,  72, 108)

     Estimated max dynamical RAM per process >     788.73 MB

     Estimated total dynamical RAM >      30.81 GB

     Initial potential from superposition of free atoms

     starting charge  183.99828, renormalised to  184.02500
     Starting wfcs are  116 randomized atomic wfcs

     total cpu time spent up to now is        6.2 secs

     Self-consistent Calculation

     iteration #  1     ecut=   120.00 Ry     beta= 0.70
     Davidson diagonalization with overlap
     ethr =  1.00E-02,  avg # of iterations =  4.2

     total cpu time spent up to now is       23.7 secs

     total energy              =   -3126.83404333 Ry
     Harris-Foulkes estimate   =   -3132.28624961 Ry
     estimated scf accuracy    <       6.89480041 Ry

     iteration #  2     ecut=   120.00 Ry     beta= 0.70
     Davidson diagonalization with overlap
     ethr =  3.75E-03,  avg # of iterations =  3.3

     total cpu time spent up to now is       40.8 secs

     total energy              =   -3125.23454573 Ry
     Harris-Foulkes estimate   =   -3135.59057047 Ry
     estimated scf accuracy    <      27.94658625 Ry

     iteration #  3     ecut=   120.00 Ry     beta= 0.70
     Davidson diagonalization with overlap
     ethr =  3.75E-03,  avg # of iterations =  3.1

     total cpu time spent up to now is       56.4 secs

     total energy              =   -3130.49348489 Ry
     Harris-Foulkes estimate   =   -3130.63554633 Ry
     estimated scf accuracy    <       0.47641524 Ry

     iteration #  4     ecut=   120.00 Ry     beta= 0.70
     Davidson diagonalization with overlap
     ethr =  2.59E-04,  avg # of iterations =  2.4

     total cpu time spent up to now is       69.6 secs

     total energy              =   -3130.48654409 Ry
     Harris-Foulkes estimate   =   -3130.52627410 Ry
     estimated scf accuracy    <       0.11597758 Ry

     iteration #  5     ecut=   120.00 Ry     beta= 0.70
     Davidson diagonalization with overlap
     ethr =  6.30E-05,  avg # of iterations =  3.9

     total cpu time spent up to now is       83.3 secs

     total energy              =   -3130.49255829 Ry
     Harris-Foulkes estimate   =   -3130.50582497 Ry
     estimated scf accuracy    <       0.03068199 Ry

     iteration #  6     ecut=   120.00 Ry     beta= 0.70
     Davidson diagonalization with overlap
     ethr =  1.67E-05,  avg # of iterations =  3.5

     total cpu time spent up to now is       98.3 secs

     total energy              =   -3130.49877927 Ry
     Harris-Foulkes estimate   =   -3130.50023851 Ry
     estimated scf accuracy    <       0.00376162 Ry

     iteration #  7     ecut=   120.00 Ry     beta= 0.70
     Davidson diagonalization with overlap
     ethr =  2.04E-06,  avg # of iterations =  3.0

     total cpu time spent up to now is      111.9 secs

     total energy              =   -3130.49932358 Ry
     Harris-Foulkes estimate   =   -3130.49935218 Ry
     estimated scf accuracy    <       0.00004808 Ry

     iteration #  8     ecut=   120.00 Ry     beta= 0.70
     Davidson diagonalization with overlap
     ethr =  2.61E-08,  avg # of iterations =  3.5

     total cpu time spent up to now is      129.6 secs

     total energy              =   -3130.49935074 Ry
     Harris-Foulkes estimate   =   -3130.49935554 Ry
     estimated scf accuracy    <       0.00002547 Ry

     iteration #  9     ecut=   120.00 Ry     beta= 0.70
     Davidson diagonalization with overlap
     ethr =  1.38E-08,  avg # of iterations =  2.0

     total cpu time spent up to now is      142.5 secs

     total energy              =   -3130.49934707 Ry
     Harris-Foulkes estimate   =   -3130.49935212 Ry
     estimated scf accuracy    <       0.00001375 Ry

     iteration # 10     ecut=   120.00 Ry     beta= 0.70
     Davidson diagonalization with overlap
     ethr =  7.47E-09,  avg # of iterations =  2.0

     total cpu time spent up to now is      155.2 secs

     total energy              =   -3130.49934896 Ry
     Harris-Foulkes estimate   =   -3130.49934910 Ry
     estimated scf accuracy    <       0.00000033 Ry

     iteration # 11     ecut=   120.00 Ry     beta= 0.70
     Davidson diagonalization with overlap
     ethr =  1.77E-10,  avg # of iterations =  2.8

     total cpu time spent up to now is      170.6 secs

     total energy              =   -3130.49934904 Ry
     Harris-Foulkes estimate   =   -3130.49934905 Ry
     estimated scf accuracy    <       0.00000003 Ry

     iteration # 12     ecut=   120.00 Ry     beta= 0.70
     Davidson diagonalization with overlap
     ethr =  1.69E-11,  avg # of iterations =  2.0

     total cpu time spent up to now is      185.1 secs

     End of self-consistent calculation

          k = 0.0000 0.0000 0.0000 ( 31631 PWs)   bands (ev):

   -66.4343 -66.4338 -66.4330 -66.4325 -30.7804 -30.7762 -30.7691 -30.7691
   -30.7651 -30.7651 -30.7098 -30.7069 -30.6905 -30.6905 -30.6872 -30.6872
   -20.6000 -20.6000 -20.5999 -20.5999 -20.5902 -20.5902 -20.5902 -20.5902
   -20.5881 -20.5881 -20.5880 -20.5880 -20.5733 -20.5732 -20.5732 -20.5732
   -20.5724 -20.5724 -20.5656 -20.5656 -20.5646 -20.5646 -20.5631 -20.5631
   -20.5618 -20.5618 -20.5603 -20.5603 -10.2041  -9.8212  -9.4082  -9.1877
    -9.1638  -9.0614  -7.9930  -7.9275  -7.9275  -7.9034  -7.9034  -7.8691
     0.9078   0.9084   0.9849   1.2000   1.2627   1.3714   2.3155   2.3155
     2.3304   2.4416   3.8933   3.8933   4.6207   4.6207   4.8507   5.4140
     5.4140   5.5381   5.5381   5.7232   5.7232   5.8022   5.8509   6.4576
     6.4576   6.6914   6.9761   7.0115   7.0115   7.0289   7.0289   7.0337
     8.1492   8.1492   8.2110   8.2209   8.7413   8.7474   9.3877   9.3877
    12.2811  12.2811  13.1435  13.1435  13.3700  13.5887  13.6016  13.9924
    13.9961  14.0225  14.0225  14.5468  15.4077  16.2732

          k = 0.0000 0.0000 0.1145 ( 31635 PWs)   bands (ev):

   -66.4343 -66.4338 -66.4330 -66.4326 -30.7757 -30.7716 -30.7689 -30.7689
   -30.7654 -30.7654 -30.7146 -30.7115 -30.6902 -30.6902 -30.6874 -30.6874
   -20.6000 -20.6000 -20.5999 -20.5999 -20.5902 -20.5902 -20.5902 -20.5902
   -20.5881 -20.5881 -20.5880 -20.5880 -20.5733 -20.5732 -20.5732 -20.5732
   -20.5720 -20.5719 -20.5661 -20.5661 -20.5645 -20.5645 -20.5632 -20.5632
   -20.5617 -20.5617 -20.5604 -20.5604 -10.1654  -9.8361  -9.3261  -9.1861
    -9.1654  -9.0163  -8.1045  -7.9910  -7.9259  -7.9259  -7.9050  -7.9050
     0.9079   0.9083   1.1490   1.2621   1.3747   1.5608   2.3377   2.3865
     2.3865   2.4339   3.7142   3.7142   4.6044   4.6803   4.6803   5.3836
     5.3836   5.4285   5.4285   5.4643   5.8454   5.9149   5.9149   6.4656
     6.4656   6.7097   6.8367   6.9562   7.0109   7.0109   7.0229   7.0229
     8.0607   8.0607   8.2117   8.2203   8.7420   8.7473   9.6377   9.6377
    12.1092  12.1092  13.1749  13.1749  13.5897  13.6008  13.6586  13.9274
    13.9274  13.9928  13.9961  14.7661  15.8280  15.9836

          k = 0.0000 0.0000 0.2290 ( 31646 PWs)   bands (ev):

   -66.4342 -66.4339 -66.4329 -66.4327 -30.7681 -30.7681 -30.7661 -30.7661
   -30.7629 -30.7590 -30.7276 -30.7243 -30.6897 -30.6897 -30.6880 -30.6880
   -20.6000 -20.6000 -20.5999 -20.5999 -20.5902 -20.5902 -20.5902 -20.5902
   -20.5881 -20.5881 -20.5880 -20.5880 -20.5733 -20.5732 -20.5732 -20.5732
   -20.5708 -20.5708 -20.5674 -20.5674 -20.5642 -20.5642 -20.5635 -20.5635
   -20.5614 -20.5614 -20.5607 -20.5607 -10.0698  -9.8828  -9.1818  -9.1698
    -9.0932  -8.8725  -8.3899  -8.2906  -7.9215  -7.9215  -7.9095  -7.9095
     0.9080   0.9083   1.2392   1.2598   1.9978   2.2897   2.3576   2.4132
     2.5941   2.5941   3.3252   3.3252   3.9001   4.5058   4.8509   4.8509
     5.2545   5.2545   5.4602   5.4602   5.7735   5.7735   5.9730   6.4788
     6.7603   6.8445   6.8445   6.9026   7.0098   7.0098   7.0218   7.0218
     7.7948   7.7948   8.2135   8.2185   8.7436   8.7467  10.2398  10.2398
    11.6342  11.6342  13.2768  13.2768  13.5921  13.5986  13.7012  13.7012
    13.9940  13.9959  14.2239  15.4193  15.4235  16.8603

          k = 0.0000 0.0000-0.3434 ( 31730 PWs)   bands (ev):

   -66.4341 -66.4340 -66.4328 -66.4328 -30.7671 -30.7671 -30.7671 -30.7671
   -30.7453 -30.7453 -30.7417 -30.7417 -30.6888 -30.6888 -30.6888 -30.6888
   -20.6000 -20.6000 -20.5999 -20.5999 -20.5902 -20.5902 -20.5902 -20.5902
   -20.5881 -20.5881 -20.5880 -20.5880 -20.5733 -20.5732 -20.5732 -20.5732
   -20.5691 -20.5691 -20.5691 -20.5691 -20.5639 -20.5639 -20.5639 -20.5639
   -20.5611 -20.5611 -20.5611 -20.5611  -9.9637  -9.9637  -9.1758  -9.1758
    -8.7533  -8.7533  -8.6209  -8.6208  -7.9155  -7.9155  -7.9155  -7.9155
     0.9082   0.9082   1.2544   1.2544   2.3852   2.3853   2.9205   2.9205
     2.9205   2.9205   2.9353   2.9353   3.3491   3.3491   5.0783   5.0783
     5.0783   5.0783   5.5567   5.5567   5.5567   5.5567   6.1828   6.1828
     6.8307   6.8307   7.0079   7.0079   7.0079   7.0079   7.3717   7.3717
     7.3717   7.3717   8.2160   8.2160   8.7454   8.7454  10.9634  10.9634
    10.9634  10.9634  13.4586  13.4586  13.4586  13.4586  13.5954  13.5954
    13.9951  13.9951  14.8131  14.8131  16.2489  16.2489

          k = 0.0000 0.1667 0.0000 ( 31663 PWs)   bands (ev):

   -66.4342 -66.4337 -66.4331 -66.4326 -30.7814 -30.7768 -30.7645 -30.7639
   -30.7599 -30.7587 -30.7092 -30.7091 -30.6958 -30.6939 -30.6925 -30.6922
   -20.6000 -20.6000 -20.5999 -20.5999 -20.5901 -20.5901 -20.5900 -20.5900
   -20.5882 -20.5882 -20.5882 -20.5882 -20.5733 -20.5733 -20.5732 -20.5732
   -20.5725 -20.5724 -20.5659 -20.5658 -20.5644 -20.5642 -20.5629 -20.5629
   -20.5620 -20.5619 -20.5605 -20.5605 -10.1215  -9.7174  -9.4284  -9.1183
    -9.0945  -9.0376  -8.0963  -8.0697  -8.0327  -8.0087  -7.9539  -7.8758
     1.0214   1.1603   1.1636   1.1826   1.5306   1.6049   2.3856   2.3949
     2.5012   2.6097   3.8448   3.8862   4.2849   4.3783   4.8371   5.1098
     5.1393   5.3406   5.4336   5.7382   5.7436   5.8769   6.1986   6.2820
     6.3181   6.3372   6.4020   6.6662   6.8551   6.9150   6.9445   6.9908
     8.0650   8.0840   8.0911   8.1094   9.4094   9.4208   9.7083   9.7988
    12.3402  12.3705  12.8781  12.8900  13.3766  13.3828  13.6580  13.8113
    13.8431  14.5363  14.5628  14.7541  15.3383  16.6066

          k = 0.0000 0.1667 0.1145 ( 31621 PWs)   bands (ev):

   -66.4342 -66.4337 -66.4331 -66.4326 -30.7771 -30.7722 -30.7643 -30.7636
   -30.7602 -30.7586 -30.7139 -30.7133 -30.6955 -30.6941 -30.6927 -30.6924
   -20.6000 -20.6000 -20.5999 -20.5999 -20.5901 -20.5900 -20.5900 -20.5900
   -20.5882 -20.5882 -20.5882 -20.5882 -20.5733 -20.5733 -20.5732 -20.5732
   -20.5720 -20.5720 -20.5663 -20.5662 -20.5643 -20.5642 -20.5630 -20.5630
   -20.5618 -20.5618 -20.5606 -20.5606 -10.0798  -9.7325  -9.3466  -9.1168
    -9.0961  -8.9954  -8.1531  -8.0678  -8.0311  -8.0300  -8.0103  -7.9777
     1.1605   1.1634   1.2503   1.4058   1.5295   1.6767   2.4582   2.4635
     2.5094   2.6033   3.6913   3.7320   4.3491   4.4402   4.5869   5.1171
     5.1448   5.1775   5.2546   5.4785   5.8227   5.8801   6.2304   6.3188
     6.3306   6.3477   6.3771   6.7738   6.7843   6.9175   6.9505   7.0051
     7.9898   8.0201   8.0788   8.0962   9.4106   9.4169   9.9044   9.9856
    12.1715  12.2048  12.9175  12.9233  13.3763  13.3808  13.7211  13.7435
    13.9555  14.5367  14.5562  14.9526  15.7582  16.2805

          k = 0.0000 0.1667 0.2290 ( 31632 PWs)   bands (ev):

   -66.4341 -66.4338 -66.4330 -66.4327 -30.7672 -30.7637 -30.7629 -30.7609
   -30.7597 -30.7564 -30.7266 -30.7254 -30.6949 -30.6941 -30.6933 -30.6930
   -20.6000 -20.6000 -20.5999 -20.5999 -20.5901 -20.5900 -20.5900 -20.5900
   -20.5882 -20.5882 -20.5882 -20.5882 -20.5733 -20.5733 -20.5732 -20.5732
   -20.5708 -20.5708 -20.5675 -20.5675 -20.5640 -20.5640 -20.5633 -20.5633
   -20.5616 -20.5616 -20.5609 -20.5608  -9.9772  -9.7801  -9.1144  -9.1124
    -9.1005  -8.8591  -8.4120  -8.2977  -8.0623  -8.0393  -8.0267  -8.0147
     1.1611   1.1628   1.4871   1.5258   2.0030   2.2553   2.5256   2.5799
     2.6699   2.6923   3.3319   3.3745   3.8922   4.5026   4.5393   4.6208
     5.0299   5.0756   5.1565   5.1817   5.5215   5.5567   6.3078   6.3125
     6.3505   6.6166   6.7885   6.8291   6.8834   6.9146   6.9760   7.0478
     7.7417   7.7707   8.0830   8.0926   9.4121   9.4142  10.4138  10.4793
    11.7096  11.7506  13.0297  13.0311  13.3651  13.3675  13.5107  13.5149
    14.5373  14.5378  14.5461  15.5843  15.7115  16.7988

          k = 0.0000 0.1667-0.3434 ( 31624 PWs)   bands (ev):

   -66.4340 -66.4340 -66.4329 -66.4329 -30.7635 -30.7635 -30.7619 -30.7619
   -30.7436 -30.7435 -30.7425 -30.7425 -30.6941 -30.6941 -30.6936 -30.6936
   -20.6000 -20.6000 -20.5999 -20.5999 -20.5901 -20.5900 -20.5900 -20.5900
   -20.5882 -20.5882 -20.5882 -20.5882 -20.5733 -20.5733 -20.5732 -20.5732
   -20.5692 -20.5692 -20.5691 -20.5691 -20.5637 -20.5636 -20.5636 -20.5636
   -20.5612 -20.5612 -20.5612 -20.5612  -9.8645  -9.8645  -9.1064  -9.1064
    -8.7752  -8.7752  -8.6163  -8.6163  -8.0536  -8.0536  -8.0208  -8.0207
     1.1620   1.1620   1.5169   1.5169   2.5514   2.5514   2.9135   2.9136
     2.9447   2.9447   2.9873   2.9873   3.3863   3.3863   4.8087   4.8087
     4.8728   4.8728   5.2585   5.2585   5.2742   5.2742   6.3188   6.3188
     6.4696   6.4696   6.9008   6.9008   6.9943   6.9943   7.3369   7.3369
     7.3708   7.3708   8.0881   8.0881   9.4131   9.4132  11.0723  11.0723
    11.1241  11.1241  13.2038  13.2038  13.2319  13.2319  13.4132  13.4132
    14.5403  14.5403  15.1186  15.1186  16.4150  16.4150

          k = 0.0000 0.3333 0.0000 ( 31642 PWs)   bands (ev):

   -66.4340 -66.4335 -66.4333 -66.4328 -30.7818 -30.7785 -30.7517 -30.7496
   -30.7458 -30.7436 -30.7181 -30.7102 -30.7072 -30.7068 -30.7059 -30.7000
   -20.6000 -20.6000 -20.5999 -20.5999 -20.5897 -20.5897 -20.5897 -20.5896
   -20.5886 -20.5886 -20.5886 -20.5885 -20.5734 -20.5733 -20.5733 -20.5733
   -20.5725 -20.5724 -20.5661 -20.5660 -20.5638 -20.5635 -20.5624 -20.5624
   -20.5623 -20.5622 -20.5610 -20.5609  -9.9062  -9.5014  -9.4216  -8.9499
    -8.9204  -8.8967  -8.4930  -8.4071  -8.2999  -8.2761  -7.9434  -7.8941
     1.0620   1.1427   1.8344   1.8594   2.2099   2.2259   2.5677   2.5970
     3.0252   3.1267   3.5947   3.6211   3.8088   3.9091   4.3434   4.4037
     4.8089   4.8901   5.1791   5.2115   5.2309   5.7319   5.8063   5.9314
     6.1027   6.1303   6.2126   6.5279   6.8588   7.0300   7.1046   7.3415
     7.7585   7.7601   7.8489   7.9757  10.4511  10.5022  10.5319  10.6451
    12.2213  12.3034  12.5381  12.6422  12.6633  12.6678  13.4066  13.4671
    14.2326  15.1246  15.3755  15.8742  15.8759  17.2452

          k = 0.0000 0.3333 0.1145 ( 31603 PWs)   bands (ev):

   -66.4339 -66.4335 -66.4333 -66.4329 -30.7775 -30.7739 -30.7517 -30.7493
   -30.7460 -30.7435 -30.7203 -30.7117 -30.7100 -30.7070 -30.7060 -30.7023
   -20.6000 -20.6000 -20.5999 -20.5999 -20.5897 -20.5897 -20.5897 -20.5896
   -20.5886 -20.5886 -20.5886 -20.5885 -20.5734 -20.5733 -20.5733 -20.5733
   -20.5720 -20.5720 -20.5665 -20.5664 -20.5637 -20.5635 -20.5625 -20.5624
   -20.5623 -20.5622 -20.5611 -20.5610  -9.8546  -9.4372  -9.4222  -8.9188
    -8.9177  -8.8983  -8.5140  -8.4025  -8.2983  -8.2777  -8.0473  -8.0033
     1.3155   1.3948   1.8363   1.8580   2.2068   2.2379   2.6412   2.6596
     3.0301   3.1209   3.5219   3.5609   3.8752   3.9724   4.3584   4.4187
     4.5405   4.7214   4.9488   5.1626   5.1773   5.4678   5.5182   5.7552
     6.2688   6.3352   6.5273   6.6090   6.8665   7.0239   7.1187   7.3333
     7.7498   7.7585   7.7909   7.9176  10.4933  10.5075  10.6020  10.7537
    12.2633  12.3187  12.4190  12.4925  12.6575  12.6665  13.2918  13.3562
    14.5852  15.4961  15.5547  15.8744  15.8756  16.9118

          k = 0.0000 0.3333 0.2290 ( 31606 PWs)   bands (ev):

   -66.4339 -66.4336 -66.4332 -66.4330 -30.7663 -30.7616 -30.7521 -30.7486
   -30.7467 -30.7426 -30.7293 -30.7236 -30.7094 -30.7077 -30.7063 -30.7055
   -20.6000 -20.6000 -20.5999 -20.5999 -20.5897 -20.5897 -20.5896 -20.5896
   -20.5886 -20.5886 -20.5886 -20.5886 -20.5733 -20.5733 -20.5733 -20.5733
   -20.5709 -20.5708 -20.5676 -20.5676 -20.5634 -20.5634 -20.5628 -20.5627
   -20.5620 -20.5620 -20.5614 -20.5613  -9.7261  -9.4885  -9.2000  -8.9145
    -8.9026  -8.8079  -8.6195  -8.3865  -8.3025  -8.2939  -8.2821  -8.2266
     1.8413   1.8538   1.9619   2.0205   2.1961   2.3519   2.8375   2.8709
     3.0389   3.1061   3.2997   3.3725   3.8772   4.0749   4.1550   4.2989
     4.4177   4.4787   4.6193   4.7456   4.9900   5.1296   5.1740   5.2066
     6.7532   6.7580   6.8196   6.8676   6.8796   7.0041   7.1785   7.2978
     7.5957   7.6603   7.7672   7.8032  10.5063  10.5105  10.9231  11.0794
    11.9571  12.0816  12.4019  12.5035  12.6505  12.6795  13.0183  13.0841
    15.2905  15.8748  15.8752  16.0089  16.3998  16.5508

          k = 0.0000 0.3333-0.3434 ( 31610 PWs)   bands (ev):

   -66.4337 -66.4337 -66.4331 -66.4331 -30.7555 -30.7555 -30.7477 -30.7477
   -30.7449 -30.7449 -30.7369 -30.7369 -30.7085 -30.7085 -30.7065 -30.7065
   -20.6000 -20.6000 -20.5999 -20.5999 -20.5897 -20.5897 -20.5896 -20.5896
   -20.5886 -20.5886 -20.5886 -20.5886 -20.5733 -20.5733 -20.5733 -20.5733
   -20.5692 -20.5692 -20.5692 -20.5692 -20.5631 -20.5631 -20.5631 -20.5631
   -20.5617 -20.5617 -20.5617 -20.5617  -9.5865  -9.5865  -8.9088  -8.9088
    -8.8889  -8.8889  -8.5950  -8.5950  -8.3466  -8.3466  -8.2881  -8.2881
     1.8478   1.8478   2.1678   2.1678   2.8603   2.8603   2.9737   2.9737
     3.0869   3.0869   3.1120   3.1120   3.4319   3.4319   4.3555   4.3555
     4.3917   4.3917   4.5996   4.5996   4.6814   4.6814   5.1696   5.1696
     6.8548   6.8548   6.9542   6.9542   7.1903   7.1903   7.2652   7.2652
     7.3701   7.3701   7.7750   7.7750  10.5098  10.5098  11.4204  11.4204
    11.5638  11.5638  12.5667  12.5667  12.7321  12.7321  12.8013  12.8013
    15.8662  15.8662  15.8785  15.8785  16.8246  16.8246

          k = 0.0000-0.5000 0.0000 ( 31646 PWs)   bands (ev):

   -66.4337 -66.4337 -66.4332 -66.4332 -30.7804 -30.7804 -30.7344 -30.7344
   -30.7300 -30.7300 -30.7263 -30.7263 -30.7245 -30.7245 -30.7043 -30.7043
   -20.6000 -20.6000 -20.5999 -20.5999 -20.5892 -20.5892 -20.5891 -20.5891
   -20.5891 -20.5891 -20.5891 -20.5891 -20.5734 -20.5734 -20.5733 -20.5733
   -20.5725 -20.5725 -20.5662 -20.5662 -20.5631 -20.5631 -20.5628 -20.5628
   -20.5617 -20.5617 -20.5616 -20.5616  -9.6620  -9.6620  -8.9831  -8.9831
    -8.7461  -8.7461  -8.6269  -8.6269  -8.6031  -8.6031  -7.9191  -7.9191
     1.0999   1.0999   2.5751   2.5751   2.6889   2.6889   2.8036   2.8036
     2.9991   2.9991   3.6672   3.6672   3.7479   3.7479   3.9249   3.9249
     4.0241   4.0241   4.8257   4.8257   5.4213   5.4213   5.8983   5.8983
     6.0005   6.0005   6.2688   6.2688   7.3492   7.3492   7.3906   7.3906
     7.4458   7.4458   7.7241   7.7241  11.3112  11.3112  11.5121  11.5121
    11.6466  11.6466  11.6978  11.6978  12.9234  12.9234  13.0341  13.0341
    14.7558  14.7558  16.3245  16.3245  17.4736  17.4737

          k = 0.0000-0.5000 0.1145 ( 31618 PWs)   bands (ev):

   -66.4336 -66.4336 -66.4332 -66.4332 -30.7760 -30.7760 -30.7350 -30.7350
   -30.7297 -30.7297 -30.7266 -30.7266 -30.7246 -30.7246 -30.7082 -30.7082
   -20.6000 -20.6000 -20.5999 -20.5999 -20.5892 -20.5892 -20.5891 -20.5891
   -20.5891 -20.5891 -20.5891 -20.5891 -20.5734 -20.5734 -20.5733 -20.5733
   -20.5720 -20.5720 -20.5665 -20.5665 -20.5630 -20.5630 -20.5628 -20.5628
   -20.5618 -20.5618 -20.5617 -20.5617  -9.5939  -9.5939  -8.9999  -8.9999
    -8.7305  -8.7305  -8.6253  -8.6253  -8.6047  -8.6047  -8.0270  -8.0270
     1.3549   1.3549   2.5979   2.5979   2.7283   2.7283   2.7942   2.7943
     2.9833   2.9833   3.7175   3.7175   3.7883   3.7883   3.9228   3.9228
     4.0244   4.0244   4.5672   4.5672   5.0614   5.0614   5.6068   5.6068
     6.3584   6.3584   6.4403   6.4403   7.3410   7.3410   7.3915   7.3915
     7.4226   7.4226   7.6905   7.6905  11.3613  11.3613  11.5649  11.5649
    11.6620  11.6620  11.7150  11.7150  12.7866  12.7866  12.9028  12.9028
    15.1527  15.1527  16.4018  16.4018  17.3508  17.3510

          k = 0.0000-0.5000 0.2290 ( 31574 PWs)   bands (ev):

   -66.4335 -66.4335 -66.4333 -66.4333 -30.7641 -30.7641 -30.7383 -30.7383
   -30.7290 -30.7290 -30.7272 -30.7272 -30.7245 -30.7245 -30.7171 -30.7171
   -20.6000 -20.6000 -20.5999 -20.5999 -20.5892 -20.5892 -20.5891 -20.5891
   -20.5891 -20.5891 -20.5891 -20.5891 -20.5734 -20.5734 -20.5733 -20.5733
   -20.5709 -20.5709 -20.5677 -20.5677 -20.5627 -20.5627 -20.5627 -20.5627
   -20.5621 -20.5621 -20.5620 -20.5620  -9.4137  -9.4137  -9.0620  -9.0620
    -8.6725  -8.6725  -8.6210  -8.6210  -8.6090  -8.6090  -8.2825  -8.2825
     2.0330   2.0330   2.6539   2.6539   2.7654   2.7654   2.8395   2.8395
     2.9275   2.9275   3.8362   3.8362   3.8807   3.8807   3.9071   3.9072
     4.0491   4.0491   4.0665   4.0665   4.5708   4.5708   4.8894   4.8894
     6.8103   6.8103   6.8302   6.8302   7.3047   7.3047   7.3179   7.3179
     7.4195   7.4195   7.5903   7.5904  11.4869  11.4869  11.6027  11.6028
    11.7994  11.7994  11.8280  11.8280  12.4446  12.4446  12.5682  12.5682
    16.0712  16.0712  16.6522  16.6522  17.0840  17.0840

          k = 0.0000-0.5000-0.3434 ( 31608 PWs)   bands (ev):

   -66.4334 -66.4334 -66.4334 -66.4334 -30.7490 -30.7490 -30.7490 -30.7489
   -30.7281 -30.7281 -30.7281 -30.7281 -30.7231 -30.7231 -30.7230 -30.7230
   -20.6000 -20.6000 -20.5999 -20.5999 -20.5892 -20.5892 -20.5891 -20.5891
   -20.5891 -20.5891 -20.5891 -20.5891 -20.5733 -20.5733 -20.5733 -20.5733
   -20.5693 -20.5693 -20.5693 -20.5693 -20.5624 -20.5624 -20.5624 -20.5624
   -20.5623 -20.5623 -20.5623 -20.5623  -9.2027  -9.2027  -9.2027  -9.2027
    -8.6152  -8.6152  -8.6152  -8.6152  -8.5317  -8.5317  -8.5317  -8.5317
     2.7153   2.7153   2.7153   2.7153   2.7515   2.7515   2.7515   2.7515
     3.1600   3.1600   3.1600   3.1600   3.9697   3.9697   3.9698   3.9698
     4.1642   4.1642   4.1642   4.1642   4.3035   4.3035   4.3035   4.3035
     7.1229   7.1229   7.1229   7.1229   7.1677   7.1677   7.1677   7.1677
     7.4721   7.4722   7.4722   7.4722  11.5771  11.5771  11.5771  11.5771
    12.0554  12.0554  12.0554  12.0554  12.1672  12.1672  12.1672  12.1672
    16.7390  16.7390  16.7390  16.7390  17.3642  17.3642

          k = 0.1667 0.1667 0.0000 ( 31595 PWs)   bands (ev):

   -66.4341 -66.4336 -66.4332 -66.4327 -30.7810 -30.7773 -30.7703 -30.7663
   -30.7496 -30.7436 -30.7160 -30.7085 -30.7074 -30.7027 -30.6894 -30.6862
   -20.6000 -20.6000 -20.5999 -20.5999 -20.5906 -20.5906 -20.5893 -20.5892
   -20.5890 -20.5890 -20.5876 -20.5876 -20.5733 -20.5733 -20.5732 -20.5732
   -20.5725 -20.5724 -20.5659 -20.5658 -20.5646 -20.5636 -20.5631 -20.5624
   -20.5623 -20.5618 -20.5610 -20.5603 -10.0659  -9.6598  -9.4525  -9.1032
    -8.9925  -8.9466  -8.3776  -8.3440  -7.9640  -7.9414  -7.9165  -7.8815
     0.9746   1.0440   1.1341   1.1721   2.0987   2.1066   2.2998   2.5899
     2.6650   2.7700   3.6153   3.7984   3.9289   4.4266   4.6319   4.8230
     5.1380   5.2741   5.4125   5.6941   5.8025   5.8945   6.0301   6.1572
     6.2451   6.2865   6.3138   6.4763   6.6131   6.7617   7.0195   7.2028
     7.8877   7.9270   7.9340   8.1402   9.4350   9.9203   9.9402  10.5314
    12.2120  12.3157  12.5887  13.1375  13.1808  13.1904  13.4193  13.6398
    14.0236  14.7056  14.9537  15.1025  15.2530  17.0819

          k = 0.1667 0.1667 0.1145 ( 31631 PWs)   bands (ev):

   -66.4341 -66.4337 -66.4331 -66.4327 -30.7765 -30.7728 -30.7700 -30.7665
   -30.7494 -30.7436 -30.7179 -30.7131 -30.7076 -30.7052 -30.6892 -30.6864
   -20.6000 -20.6000 -20.5999 -20.5999 -20.5906 -20.5906 -20.5893 -20.5892
   -20.5890 -20.5890 -20.5876 -20.5876 -20.5733 -20.5733 -20.5732 -20.5732
   -20.5720 -20.5720 -20.5663 -20.5663 -20.5645 -20.5636 -20.5632 -20.5625
   -20.5622 -20.5617 -20.5611 -20.5604 -10.0229  -9.6742  -9.3716  -9.0818
    -8.9950  -8.9256  -8.3939  -8.3412  -8.0675  -7.9962  -7.9397  -7.9182
     1.0263   1.0439   1.3238   1.4411   2.0961   2.1212   2.3705   2.6491
     2.6791   2.7636   3.5445   3.7125   3.8996   4.4423   4.5661   4.6925
     4.8872   5.2796   5.2824   5.4993   5.6018   5.9049   6.1851   6.2114
     6.2543   6.2887   6.4648   6.4855   6.6103   6.8272   6.8976   7.2001
     7.8505   7.9121   7.9246   8.0572   9.6692   9.9214   9.9455  10.6450
    12.1042  12.3072  12.4319  13.1497  13.1828  13.1976  13.3173  13.8882
    13.9293  14.6939  15.1140  15.1858  15.6696  16.6518

          k = 0.1667 0.1667 0.2290 ( 31640 PWs)   bands (ev):

   -66.4340 -66.4338 -66.4331 -66.4328 -30.7693 -30.7673 -30.7646 -30.7603
   -30.7494 -30.7435 -30.7272 -30.7254 -30.7081 -30.7080 -30.6886 -30.6870
   -20.6000 -20.6000 -20.5999 -20.5999 -20.5906 -20.5906 -20.5892 -20.5892
   -20.5890 -20.5890 -20.5876 -20.5876 -20.5733 -20.5733 -20.5733 -20.5732
   -20.5708 -20.5708 -20.5675 -20.5675 -20.5642 -20.5635 -20.5634 -20.5627
   -20.5620 -20.5614 -20.5613 -20.5607  -9.9174  -9.7202  -9.1433  -9.0411
    -9.0025  -8.8286  -8.5054  -8.3318  -8.3082  -8.2305  -7.9352  -7.9228
     1.0393   1.0434   1.9527   2.0182   2.0875   2.3209   2.5744   2.6854
     2.7497   2.8619   3.3253   3.3328   3.8861   4.0920   4.3885   4.5008
     4.7447   4.8596   5.0755   5.1732   5.3231   5.7289   6.2616   6.2873
     6.2880   6.4762   6.5970   6.6460   6.8247   6.8569   7.0175   7.1813
     7.6605   7.7563   7.9238   7.9509   9.9220   9.9238  10.2775  10.9794
    11.6428  12.0159  12.4525  13.0064  13.1844  13.1847  13.2960  13.7048
    14.3053  14.6530  15.2837  15.8133  16.1067  16.6879

          k = 0.1667 0.1667-0.3434 ( 31634 PWs)   bands (ev):

   -66.4339 -66.4339 -66.4329 -66.4329 -30.7683 -30.7683 -30.7523 -30.7523
   -30.7434 -30.7434 -30.7392 -30.7392 -30.7085 -30.7085 -30.6878 -30.6878
   -20.6000 -20.6000 -20.5999 -20.5999 -20.5906 -20.5906 -20.5892 -20.5892
   -20.5890 -20.5890 -20.5876 -20.5876 -20.5733 -20.5733 -20.5733 -20.5733
   -20.5692 -20.5692 -20.5691 -20.5691 -20.5639 -20.5639 -20.5631 -20.5631
   -20.5617 -20.5617 -20.5611 -20.5610  -9.8033  -9.8033  -9.0161  -9.0161
    -8.8151  -8.8150  -8.6081  -8.6080  -8.3105  -8.3105  -7.9290  -7.9290
     1.0422   1.0422   2.0680   2.0680   2.7065   2.7065   2.9199   2.9199
     2.9240   2.9240   3.0199   3.0199   3.3980   3.3980   4.3862   4.3862
     4.6656   4.6656   5.0546   5.0546   5.4496   5.4496   6.2828   6.2828
     6.4195   6.4195   6.5816   6.5816   7.1121   7.1121   7.3324   7.3324
     7.3367   7.3367   7.9356   7.9356   9.9258   9.9259  10.9827  10.9827
    11.4783  11.4783  12.7009  12.7009  13.1847  13.1847  13.4667  13.4667
    14.5505  14.5505  15.6180  15.6180  16.6517  16.6517

          k = 0.1667 0.3333 0.0000 ( 31614 PWs)   bands (ev):

   -66.4339 -66.4334 -66.4334 -66.4329 -30.7810 -30.7787 -30.7662 -30.7612
   -30.7341 -30.7306 -30.7272 -30.7235 -30.7066 -30.7064 -30.6930 -30.6905
   -20.6000 -20.6000 -20.5999 -20.5999 -20.5908 -20.5908 -20.5899 -20.5898
   -20.5884 -20.5884 -20.5875 -20.5874 -20.5734 -20.5733 -20.5733 -20.5733
   -20.5725 -20.5724 -20.5660 -20.5660 -20.5643 -20.5630 -20.5629 -20.5629
   -20.5619 -20.5617 -20.5617 -20.5605  -9.9109  -9.5379  -9.4801  -9.0496
    -8.7876  -8.7216  -8.6984  -8.6791  -8.0707  -8.0593  -7.9397  -7.8972
     1.0516   1.1428   1.3100   1.3493   2.3661   2.6289   2.6987   2.8875
     2.9736   3.2036   3.2606   3.6961   3.7454   3.8920   4.3660   4.7822
     4.8181   4.9146   5.1001   5.5658   5.6295   5.6692   5.7321   5.8516
     6.0879   6.1018   6.3416   6.5280   6.6936   6.7952   6.8356   7.5228
     7.5353   7.5912   7.6198   8.0860   9.8016  10.8641  10.8887  11.4333
    11.4398  12.3603  12.6339  12.6551  12.8831  12.9671  12.9928  13.8506
    13.9619  14.9858  15.4206  15.5310  16.2226  17.3890

          k = 0.1667 0.3333 0.1145 ( 31607 PWs)   bands (ev):

   -66.4339 -66.4335 -66.4333 -66.4329 -30.7767 -30.7742 -30.7660 -30.7613
   -30.7343 -30.7310 -30.7274 -30.7237 -30.7107 -30.7105 -30.6930 -30.6907
   -20.6000 -20.6000 -20.5999 -20.5999 -20.5908 -20.5908 -20.5899 -20.5899
   -20.5884 -20.5884 -20.5875 -20.5874 -20.5733 -20.5733 -20.5733 -20.5733
   -20.5720 -20.5720 -20.5664 -20.5664 -20.5643 -20.5630 -20.5629 -20.5629
   -20.5618 -20.5618 -20.5618 -20.5606  -9.8623  -9.4932  -9.4627  -9.0189
    -8.8001  -8.7260  -8.6924  -8.6706  -8.0892  -8.0690  -8.0295  -8.0005
     1.2351   1.3096   1.3635   1.4614   2.4382   2.6576   2.7358   2.8749
     2.9638   3.2028   3.2574   3.6998   3.7745   3.7945   4.4283   4.5369
     4.7892   4.7990   4.8536   5.3121   5.5482   5.5663   5.5732   5.8582
     6.2509   6.3298   6.4310   6.5509   6.6915   6.7865   6.8768   7.5215
     7.5279   7.5629   7.5892   8.0058   9.9850  10.8647  10.8889  11.4953
    11.5191  12.1958  12.6285  12.6489  12.8271  12.8481  12.9415  13.7503
    14.2450  15.3785  15.3969  15.6850  16.2836  17.1787

          k = 0.1667 0.3333 0.2290 ( 31611 PWs)   bands (ev):

   -66.4338 -66.4336 -66.4333 -66.4330 -30.7669 -30.7653 -30.7620 -30.7594
   -30.7363 -30.7341 -30.7276 -30.7240 -30.7206 -30.7195 -30.6927 -30.6913
   -20.6000 -20.6000 -20.5999 -20.5999 -20.5908 -20.5908 -20.5899 -20.5899
   -20.5884 -20.5884 -20.5874 -20.5874 -20.5733 -20.5733 -20.5733 -20.5733
   -20.5708 -20.5708 -20.5676 -20.5676 -20.5640 -20.5633 -20.5627 -20.5627
   -20.5620 -20.5620 -20.5616 -20.5608  -9.7437  -9.5364  -9.2580  -8.9210
    -8.8522  -8.7425  -8.6662  -8.6377  -8.3188  -8.2855  -8.0640  -8.0474
     1.2979   1.3082   2.0161   2.1253   2.6495   2.7392   2.8288   2.8449
     2.9262   3.1875   3.2497   3.3738   3.8957   3.9113   3.9530   4.1763
     4.5926   4.6745   4.7701   4.8351   4.8475   5.3878   5.5729   5.6430
     6.5228   6.6101   6.6740   6.7219   6.7877   6.8776   7.0420   7.4372
     7.4686   7.5093   7.5505   7.7799  10.4647  10.8650  10.8947  11.6913
    11.7277  11.7728  12.4475  12.5061  12.6443  12.6674  13.0492  13.5095
    14.7638  15.3125  16.0773  16.3112  16.5889  16.7913

          k = 0.1667 0.3333-0.3434 ( 31614 PWs)   bands (ev):

   -66.4337 -66.4337 -66.4331 -66.4331 -30.7647 -30.7647 -30.7464 -30.7464
   -30.7463 -30.7462 -30.7268 -30.7268 -30.7237 -30.7237 -30.6921 -30.6921
   -20.6000 -20.6000 -20.5999 -20.5999 -20.5908 -20.5908 -20.5899 -20.5899
   -20.5884 -20.5884 -20.5874 -20.5874 -20.5733 -20.5733 -20.5733 -20.5733
   -20.5692 -20.5692 -20.5692 -20.5692 -20.5637 -20.5637 -20.5624 -20.5624
   -20.5624 -20.5624 -20.5612 -20.5612  -9.6201  -9.6201  -9.0060  -9.0059
    -8.7951  -8.7948  -8.5601  -8.5589  -8.5384  -8.5374  -8.0569  -8.0568
     1.3053   1.3055   2.7263   2.7270   2.7940   2.7949   2.9158   2.9225
     3.0621   3.0687   3.2250   3.2276   3.2989   3.3026   4.1917   4.1938
     4.2611   4.2613   4.7071   4.7371   5.0224   5.0508   5.5852   5.5869
     6.6226   6.6351   6.6834   6.6956   7.2162   7.2178   7.2378   7.2542
     7.3009   7.3104   7.5883   7.5922  10.8486  10.8548  11.1362  11.1471
    12.0379  12.0461  12.0984  12.1007  12.6394  12.6594  13.2416  13.2546
    15.1219  15.1271  16.4208  16.4248  17.2263  17.2411

          k = 0.1667-0.5000 0.0000 ( 31594 PWs)   bands (ev):

   -66.4337 -66.4337 -66.4332 -66.4332 -30.7802 -30.7802 -30.7529 -30.7529
   -30.7468 -30.7468 -30.7140 -30.7140 -30.7042 -30.7042 -30.7016 -30.7016
   -20.6000 -20.6000 -20.5999 -20.5999 -20.5905 -20.5905 -20.5905 -20.5905
   -20.5877 -20.5877 -20.5877 -20.5877 -20.5734 -20.5734 -20.5733 -20.5733
   -20.5725 -20.5725 -20.5661 -20.5661 -20.5637 -20.5637 -20.5624 -20.5624
   -20.5623 -20.5623 -20.5610 -20.5610  -9.7053  -9.7053  -9.1788  -9.1788
    -8.9245  -8.9245  -8.3692  -8.3692  -8.3671  -8.3671  -7.9189  -7.9189
     1.1030   1.1030   1.9898   1.9898   1.9966   1.9966   2.5714   2.5714
     3.5989   3.5989   3.8517   3.8517   4.0179   4.0179   4.1061   4.1061
     4.5843   4.5843   4.9809   4.9809   5.4279   5.4279   5.7505   5.7505
     6.1633   6.1633   6.3970   6.3970   7.0648   7.0648   7.0905   7.0905
     7.1389   7.1389   7.9193   7.9193  10.5676  10.5676  11.8157  11.8157
    11.8384  11.8384  12.2847  12.2847  12.5924  12.5924  13.4491  13.4491
    14.5243  14.5243  16.4200  16.4200  16.6272  16.6272

          k = 0.1667-0.5000 0.1145 ( 31616 PWs)   bands (ev):

   -66.4336 -66.4336 -66.4332 -66.4332 -30.7758 -30.7758 -30.7528 -30.7528
   -30.7468 -30.7468 -30.7165 -30.7165 -30.7044 -30.7044 -30.7035 -30.7035
   -20.6000 -20.6000 -20.5999 -20.5999 -20.5905 -20.5905 -20.5905 -20.5905
   -20.5877 -20.5877 -20.5877 -20.5877 -20.5734 -20.5733 -20.5733 -20.5733
   -20.5720 -20.5720 -20.5665 -20.5665 -20.5636 -20.5636 -20.5625 -20.5625
   -20.5622 -20.5622 -20.5611 -20.5611  -9.6442  -9.6442  -9.1910  -9.1910
    -8.9029  -8.9029  -8.3764  -8.3764  -8.3648  -8.3648  -8.0258  -8.0257
     1.3547   1.3547   1.9936   1.9936   1.9990   1.9990   2.6421   2.6421
     3.5427   3.5427   3.8891   3.8891   4.0421   4.0421   4.0679   4.0679
     4.5930   4.5930   4.7589   4.7589   5.1035   5.1035   5.7133   5.7133
     6.2297   6.2297   6.5856   6.5856   7.0571   7.0571   7.0912   7.0912
     7.1447   7.1447   7.8582   7.8582  10.6808  10.6808  11.8135  11.8135
    11.8379  11.8379  12.3306  12.3306  12.4421  12.4421  13.3325  13.3325
    14.8737  14.8737  16.5072  16.5072  16.5930  16.5930

          k = 0.1667-0.5000 0.2290 ( 31618 PWs)   bands (ev):

   -66.4335 -66.4335 -66.4333 -66.4333 -30.7645 -30.7645 -30.7527 -30.7527
   -30.7463 -30.7463 -30.7264 -30.7264 -30.7053 -30.7053 -30.7049 -30.7049
   -20.6000 -20.6000 -20.5999 -20.5999 -20.5905 -20.5905 -20.5905 -20.5905
   -20.5877 -20.5877 -20.5877 -20.5877 -20.5733 -20.5733 -20.5733 -20.5733
   -20.5708 -20.5708 -20.5676 -20.5676 -20.5634 -20.5634 -20.5628 -20.5628
   -20.5620 -20.5620 -20.5613 -20.5613  -9.4903  -9.4903  -9.2343  -9.2343
    -8.8219  -8.8219  -8.4288  -8.4288  -8.3569  -8.3569  -8.2523  -8.2523
     1.8983   1.8983   1.9875   1.9875   2.1527   2.1527   2.8538   2.8538
     3.3326   3.3326   3.9310   3.9310   3.9593   3.9593   4.1820   4.1820
     4.2152   4.2152   4.6258   4.6258   4.7398   4.7398   5.1379   5.1379
     6.6775   6.6775   6.8553   6.8553   7.0278   7.0279   7.0839   7.0840
     7.1867   7.1867   7.6722   7.6722  11.0076  11.0076  11.7937  11.7937
    11.8373  11.8373  12.0608  12.0608  12.4757  12.4757  13.0467  13.0467
    15.6061  15.6061  16.4493  16.4493  16.8032  16.8032

          k = 0.1667-0.5000-0.3434 ( 31624 PWs)   bands (ev):

   -66.4334 -66.4334 -66.4334 -66.4334 -30.7543 -30.7543 -30.7543 -30.7543
   -30.7404 -30.7404 -30.7404 -30.7403 -30.7054 -30.7054 -30.7054 -30.7054
   -20.6000 -20.6000 -20.5999 -20.5999 -20.5905 -20.5905 -20.5905 -20.5905
   -20.5877 -20.5877 -20.5877 -20.5877 -20.5733 -20.5733 -20.5733 -20.5733
   -20.5692 -20.5692 -20.5692 -20.5692 -20.5631 -20.5631 -20.5631 -20.5631
   -20.5617 -20.5617 -20.5617 -20.5617  -9.3306  -9.3306  -9.3305  -9.3305
    -8.6420  -8.6420  -8.6418  -8.6418  -8.3391  -8.3391  -8.3389  -8.3389
     1.9740   1.9740   1.9743   1.9743   2.9071   2.9071   2.9083   2.9083
     3.2904   3.2904   3.2952   3.2952   3.9513   3.9513   3.9681   3.9682
     4.4949   4.4949   4.5027   4.5027   4.7331   4.7331   4.7350   4.7350
     6.9396   6.9396   6.9429   6.9429   7.0284   7.0284   7.0399   7.0399
     7.3820   7.3821   7.3883   7.3883  11.4730  11.4730  11.4885  11.4885
    11.8377  11.8377  11.8652  11.8652  12.7208  12.7208  12.7316  12.7316
    16.1587  16.1587  16.1715  16.1715  17.1590  17.1593

          k = 0.3333 0.3333 0.0000 ( 31598 PWs)   bands (ev):

   -66.4338 -66.4335 -66.4333 -66.4330 -30.7793 -30.7792 -30.7727 -30.7686
   -30.7540 -30.7478 -30.7142 -30.7071 -30.7032 -30.7016 -30.6873 -30.6841
   -20.6000 -20.6000 -20.5999 -20.5999 -20.5915 -20.5914 -20.5910 -20.5909
   -20.5873 -20.5873 -20.5868 -20.5867 -20.5733 -20.5733 -20.5732 -20.5732
   -20.5724 -20.5724 -20.5659 -20.5658 -20.5646 -20.5636 -20.5632 -20.5624
   -20.5623 -20.5618 -20.5610 -20.5603  -9.8862  -9.6481  -9.5017  -9.1368
    -9.0739  -8.9164  -8.3836  -8.3802  -7.9687  -7.9423  -7.9388  -7.9061
     0.9943   1.0536   1.1345   1.1770   1.9877   1.9915   2.2721   2.5754
     3.5695   3.6645   3.8186   3.9105   3.9607   4.5340   4.6586   4.7813
     4.8335   4.9936   5.2152   5.5442   5.5444   5.6083   5.8512   5.8514
     6.1699   6.1910   6.2599   6.2793   6.4744   6.6655   6.9741   7.0157
     7.0276   7.1254   7.9113   8.1326   9.5024  10.5769  11.5476  11.5753
    12.2659  12.2877  12.5190  12.5276  12.5965  13.1179  13.4494  13.7394
    14.0256  14.5723  15.1315  15.9912  16.7026  16.8550

          k = 0.3333 0.3333 0.1145 ( 31593 PWs)   bands (ev):

   -66.4338 -66.4335 -66.4334 -66.4330 -30.7748 -30.7747 -30.7724 -30.7689
   -30.7539 -30.7478 -30.7173 -30.7117 -30.7033 -30.7031 -30.6871 -30.6843
   -20.6000 -20.6000 -20.5999 -20.5999 -20.5915 -20.5914 -20.5910 -20.5909
   -20.5873 -20.5873 -20.5868 -20.5867 -20.5733 -20.5733 -20.5732 -20.5732
   -20.5720 -20.5720 -20.5663 -20.5662 -20.5645 -20.5636 -20.5633 -20.5625
   -20.5622 -20.5617 -20.5611 -20.5604  -9.8401  -9.5856  -9.5129  -9.1474
    -9.0371  -8.8951  -8.3915  -8.3776  -8.0488  -8.0178  -7.9670  -7.9441
     1.0353   1.0536   1.3585   1.4279   1.9893   1.9963   2.3449   2.6489
     3.5629   3.6596   3.7127   3.7737   3.9783   4.5440   4.7052   4.7571
     4.7857   4.8008   4.9234   5.1702   5.7128   5.7226   5.8540   5.8832
     5.9029   6.2522   6.3082   6.4304   6.4960   6.7291   6.9068   7.0086
     7.0155   7.1230   7.8492   8.0442   9.7352  10.6935  11.5479  11.5741
    12.1213  12.3100  12.4285  12.5206  12.5416  13.1499  13.3316  13.9283
    13.9905  14.9122  15.1029  16.1517  16.6608  16.9438

          k = 0.3333 0.3333 0.2290 ( 31617 PWs)   bands (ev):

   -66.4337 -66.4334 -66.4334 -66.4331 -30.7717 -30.7696 -30.7636 -30.7621
   -30.7537 -30.7470 -30.7282 -30.7241 -30.7044 -30.7038 -30.6865 -30.6849
   -20.6000 -20.6000 -20.5999 -20.5999 -20.5915 -20.5914 -20.5909 -20.5909
   -20.5873 -20.5873 -20.5867 -20.5867 -20.5733 -20.5733 -20.5733 -20.5733
   -20.5708 -20.5708 -20.5675 -20.5675 -20.5643 -20.5635 -20.5634 -20.5628
   -20.5620 -20.5614 -20.5613 -20.5607  -9.7306  -9.5497  -9.4297  -9.1855
    -8.9121  -8.8129  -8.4478  -8.3692  -8.3182  -8.2575  -7.9622  -7.9490
     1.0489   1.0532   1.8905   1.9826   2.1467   2.1522   2.5583   2.8705
     3.3124   3.4105   3.6176   3.6461   4.1518   4.1761   4.2105   4.5844
     4.6985   4.7491   4.7533   4.9492   5.1427   5.5625   5.8626   5.8994
     6.1043   6.2334   6.3913   6.6698   6.6885   6.8784   6.9302   6.9849
     7.0931   7.1285   7.6568   7.7860  10.3058  11.0266  11.5318  11.5711
    11.6805  12.0317  12.4541  12.5239  12.5329  13.0342  13.2611  13.6962
    14.4598  15.0065  15.6371  16.5213  16.5581  17.3334

          k = 0.3333 0.3333-0.3434 ( 31632 PWs)   bands (ev):

   -66.4336 -66.4336 -66.4333 -66.4332 -30.7706 -30.7706 -30.7548 -30.7548
   -30.7450 -30.7450 -30.7394 -30.7394 -30.7044 -30.7044 -30.6857 -30.6857
   -20.6000 -20.6000 -20.5999 -20.5999 -20.5914 -20.5914 -20.5909 -20.5909
   -20.5873 -20.5873 -20.5867 -20.5867 -20.5733 -20.5733 -20.5733 -20.5733
   -20.5692 -20.5692 -20.5691 -20.5691 -20.5639 -20.5639 -20.5631 -20.5631
   -20.5617 -20.5617 -20.5611 -20.5610  -9.6214  -9.6214  -9.2736  -9.2736
    -8.6827  -8.6827  -8.6174  -8.6174  -8.3501  -8.3501  -7.9556  -7.9556
     1.0521   1.0521   1.9690   1.9690   2.8951   2.8951   2.9216   2.9216
     3.1433   3.1433   3.3275   3.3275   3.6285   3.6285   4.4567   4.4567
     4.7080   4.7080   4.7606   4.7606   5.2382   5.2382   5.8763   5.8763
     6.1927   6.1927   6.5209   6.5209   6.9141   6.9141   7.0360   7.0360
     7.3309   7.3309   7.4083   7.4083  10.9988  10.9988  11.5136  11.5137
    11.5691  11.5691  12.5276  12.5276  12.7084  12.7084  13.4469  13.4469
    14.8093  14.8094  16.2209  16.2209  16.9689  16.9689

          k = 0.3333-0.5000 0.0000 ( 31612 PWs)   bands (ev):

   -66.4337 -66.4337 -66.4332 -66.4332 -30.7794 -30.7794 -30.7682 -30.7682
   -30.7630 -30.7630 -30.7089 -30.7089 -30.6914 -30.6914 -30.6887 -30.6887
   -20.6000 -20.6000 -20.5999 -20.5999 -20.5915 -20.5915 -20.5915 -20.5915
   -20.5867 -20.5867 -20.5867 -20.5867 -20.5733 -20.5733 -20.5732 -20.5732
   -20.5724 -20.5724 -20.5658 -20.5658 -20.5643 -20.5643 -20.5630 -20.5630
   -20.5619 -20.5619 -20.5605 -20.5605  -9.7901  -9.7901  -9.3882  -9.3882
    -9.0356  -9.0356  -8.0935  -8.0935  -8.0790  -8.0790  -7.9193  -7.9193
     1.0916   1.0916   1.3077   1.3077   1.3566   1.3566   2.3500   2.3500
     3.9667   3.9667   4.2427   4.2427   4.2773   4.2773   4.4245   4.4245
     5.3111   5.3111   5.4247   5.4247   5.5353   5.5353   5.6178   5.6178
     6.3512   6.3512   6.4363   6.4363   6.4706   6.4707   6.5955   6.5955
     6.8881   6.8881   8.0781   8.0781   9.8422   9.8422  12.1524  12.1524
    12.1729  12.1729  12.3622  12.3622  12.8819  12.8819  13.8549  13.8549
    14.0257  14.0257  15.6305  15.6305  16.6672  16.6672

          k = 0.3333-0.5000 0.1145 ( 31628 PWs)   bands (ev):

   -66.4336 -66.4336 -66.4332 -66.4332 -30.7751 -30.7751 -30.7680 -30.7680
   -30.7629 -30.7629 -30.7134 -30.7134 -30.6913 -30.6913 -30.6889 -30.6889
   -20.6000 -20.6000 -20.5999 -20.5999 -20.5915 -20.5915 -20.5915 -20.5915
   -20.5867 -20.5867 -20.5867 -20.5867 -20.5733 -20.5733 -20.5732 -20.5732
   -20.5720 -20.5720 -20.5662 -20.5662 -20.5643 -20.5643 -20.5631 -20.5631
   -20.5618 -20.5618 -20.5606 -20.5606  -9.7399  -9.7399  -9.3987  -9.3987
    -9.0022  -9.0022  -8.0996  -8.0996  -8.0916  -8.0916  -8.0150  -8.0150
     1.2428   1.2428   1.3073   1.3073   1.4678   1.4678   2.4247   2.4247
     3.7856   3.7856   4.2421   4.2422   4.2555   4.2555   4.4795   4.4795
     5.0184   5.0184   5.4126   5.4126   5.4295   5.4295   5.8250   5.8250
     6.1481   6.1481   6.4645   6.4645   6.5988   6.5988   6.6269   6.6269
     6.8518   6.8518   7.9959   7.9959  10.0260  10.0260  12.1443  12.1443
    12.1700  12.1700  12.2099  12.2099  12.9163  12.9163  13.7512  13.7512
    14.3044  14.3044  15.5980  15.5980  16.8134  16.8134

          k = 0.3333-0.5000 0.2290 ( 31636 PWs)   bands (ev):

   -66.4335 -66.4335 -66.4333 -66.4333 -30.7673 -30.7673 -30.7673 -30.7673
   -30.7588 -30.7588 -30.7260 -30.7260 -30.6909 -30.6909 -30.6895 -30.6895
   -20.6000 -20.6000 -20.5999 -20.5999 -20.5915 -20.5915 -20.5915 -20.5915
   -20.5867 -20.5867 -20.5867 -20.5867 -20.5733 -20.5733 -20.5732 -20.5732
   -20.5708 -20.5708 -20.5675 -20.5675 -20.5640 -20.5640 -20.5633 -20.5633
   -20.5616 -20.5616 -20.5609 -20.5609  -9.6209  -9.6209  -9.4338  -9.4338
    -8.8834  -8.8834  -8.3335  -8.3335  -8.0864  -8.0864  -8.0686  -8.0686
     1.2960   1.2960   1.3061   1.3061   2.1241   2.1241   2.6501   2.6501
     3.3690   3.3690   4.2110   4.2110   4.2404   4.2405   4.2575   4.2575
     4.6630   4.6630   5.2682   5.2682   5.4446   5.4446   5.6141   5.6141
     6.2870   6.2870   6.4446   6.4446   6.6630   6.6630   6.7895   6.7895
     6.9320   6.9320   7.7509   7.7509  10.5096  10.5096  11.7490  11.7490
    12.1607  12.1607  12.1700  12.1700  13.0292  13.0292  13.5020  13.5020
    14.8479  14.8479  15.4889  15.4889  17.1987  17.1987

          k = 0.3333-0.5000-0.3434 ( 31644 PWs)   bands (ev):

   -66.4334 -66.4334 -66.4334 -66.4334 -30.7666 -30.7666 -30.7666 -30.7666
   -30.7431 -30.7431 -30.7431 -30.7431 -30.6903 -30.6903 -30.6903 -30.6903
   -20.6000 -20.6000 -20.5999 -20.5999 -20.5915 -20.5915 -20.5915 -20.5915
   -20.5867 -20.5867 -20.5867 -20.5867 -20.5733 -20.5733 -20.5733 -20.5733
   -20.5691 -20.5691 -20.5691 -20.5691 -20.5637 -20.5637 -20.5637 -20.5637
   -20.5612 -20.5612 -20.5612 -20.5612  -9.5054  -9.5054  -9.5054  -9.5054
    -8.6484  -8.6484  -8.6484  -8.6483  -8.0788  -8.0788  -8.0788  -8.0788
     1.3034   1.3034   1.3035   1.3035   2.9086   2.9086   2.9096   2.9096
     3.2001   3.2002   3.2008   3.2008   4.2422   4.2422   4.2492   4.2493
     4.9570   4.9570   4.9637   4.9637   5.4803   5.4803   5.4831   5.4831
     6.3975   6.3975   6.3999   6.3999   6.7309   6.7309   6.7322   6.7322
     7.3639   7.3639   7.3655   7.3655  11.1384  11.1384  11.1396  11.1396
    12.1625  12.1625  12.1674  12.1674  13.2303  13.2303  13.2337  13.2337
    15.2601  15.2601  15.2630  15.2630  17.5196  17.5230

          k =-0.5000-0.5000 0.0000 ( 31576 PWs)   bands (ev):

   -66.4337 -66.4337 -66.4332 -66.4332 -30.7782 -30.7782 -30.7739 -30.7739
   -30.7698 -30.7698 -30.7083 -30.7083 -30.6862 -30.6862 -30.6831 -30.6831
   -20.6000 -20.6000 -20.5999 -20.5999 -20.5919 -20.5919 -20.5918 -20.5918
   -20.5863 -20.5863 -20.5863 -20.5863 -20.5733 -20.5733 -20.5732 -20.5732
   -20.5724 -20.5724 -20.5656 -20.5656 -20.5647 -20.5647 -20.5632 -20.5632
   -20.5618 -20.5618 -20.5603 -20.5603  -9.8307  -9.8307  -9.4647  -9.4647
    -9.0659  -9.0659  -7.9822  -7.9822  -7.9550  -7.9550  -7.9253  -7.9253
     1.0069   1.0069   1.0512   1.0512   1.1959   1.1959   2.2621   2.2621
     4.0572   4.0572   4.4484   4.4484   4.5084   4.5084   4.6422   4.6422
     5.3468   5.3468   5.3797   5.3797   5.7831   5.7831   5.8066   5.8066
     6.1381   6.1381   6.2397   6.2397   6.3070   6.3070   6.4776   6.4776
     7.0239   7.0239   8.1289   8.1289   9.5267   9.5267  12.2872  12.2872
    12.2996  12.2996  12.3187  12.3187  13.1116  13.1116  13.7600  13.7600
    14.0265  14.0265  15.2084  15.2084  16.7966  16.7966

          k =-0.5000-0.5000 0.1145 ( 31592 PWs)   bands (ev):

   -66.4336 -66.4336 -66.4332 -66.4332 -30.7736 -30.7736 -30.7736 -30.7736
   -30.7700 -30.7700 -30.7130 -30.7130 -30.6860 -30.6860 -30.6833 -30.6833
   -20.6000 -20.6000 -20.5999 -20.5999 -20.5919 -20.5919 -20.5919 -20.5919
   -20.5863 -20.5863 -20.5863 -20.5863 -20.5733 -20.5733 -20.5732 -20.5732
   -20.5720 -20.5720 -20.5661 -20.5661 -20.5646 -20.5646 -20.5633 -20.5633
   -20.5617 -20.5617 -20.5604 -20.5604  -9.7849  -9.7849  -9.4747  -9.4747
    -9.0280  -9.0280  -8.0403  -8.0403  -7.9804  -7.9804  -7.9569  -7.9569
     1.0358   1.0358   1.0511   1.0511   1.4316   1.4316   2.3361   2.3361
     3.8098   3.8098   4.4524   4.4524   4.5043   4.5043   4.7076   4.7076
     5.0445   5.0445   5.5031   5.5031   5.7864   5.7864   5.8225   5.8225
     6.1203   6.1203   6.1473   6.1473   6.3350   6.3350   6.5729   6.5729
     6.9070   6.9070   8.0397   8.0397   9.7582   9.7582  12.1203  12.1203
    12.3014  12.3014  12.3176  12.3176  13.1439  13.1439  13.9274  13.9274
    14.0116  14.0116  15.1783  15.1783  16.9968  16.9968

          k =-0.5000-0.5000 0.2290 ( 31664 PWs)   bands (ev):

   -66.4335 -66.4335 -66.4333 -66.4333 -30.7728 -30.7728 -30.7708 -30.7708
   -30.7609 -30.7609 -30.7259 -30.7259 -30.6854 -30.6854 -30.6839 -30.6839
   -20.6000 -20.6000 -20.5999 -20.5999 -20.5919 -20.5919 -20.5919 -20.5919
   -20.5863 -20.5863 -20.5863 -20.5863 -20.5733 -20.5733 -20.5732 -20.5732
   -20.5708 -20.5708 -20.5674 -20.5674 -20.5643 -20.5643 -20.5635 -20.5635
   -20.5614 -20.5614 -20.5607 -20.5607  -9.6775  -9.6775  -9.5080  -9.5080
    -8.8972  -8.8972  -8.3249  -8.3249  -7.9755  -7.9755  -7.9619  -7.9619
     1.0472   1.0472   1.0509   1.0509   2.1432   2.1432   2.5538   2.5538
     3.3453   3.3453   4.2176   4.2176   4.4633   4.4633   4.4937   4.4937
     4.8962   4.8962   5.4612   5.4612   5.7963   5.7963   5.8445   5.8445
     6.0345   6.0345   6.1136   6.1136   6.4156   6.4156   6.7076   6.7076
     6.9057   6.9057   7.7766   7.7766  10.3258  10.3258  11.6618  11.6618
    12.3055  12.3055  12.3146  12.3146  13.2486  13.2486  13.6908  13.6908
    14.4963  14.4964  15.0770  15.0770  17.6200  17.6200

          k =-0.5000-0.5000-0.3434 ( 31648 PWs)   bands (ev):

   -66.4334 -66.4334 -66.4334 -66.4334 -30.7718 -30.7718 -30.7718 -30.7718
   -30.7435 -30.7435 -30.7435 -30.7434 -30.6847 -30.6847 -30.6847 -30.6847
   -20.6000 -20.5999 -20.5999 -20.5999 -20.5919 -20.5919 -20.5919 -20.5919
   -20.5863 -20.5863 -20.5863 -20.5863 -20.5733 -20.5732 -20.5732 -20.5732
   -20.5691 -20.5691 -20.5691 -20.5691 -20.5639 -20.5639 -20.5639 -20.5639
   -20.5611 -20.5611 -20.5610 -20.5610  -9.5738  -9.5738  -9.5738  -9.5738
    -8.6493  -8.6493  -8.6493  -8.6493  -7.9687  -7.9687  -7.9687  -7.9687
     1.0500   1.0500   1.0500   1.0500   2.9007   2.9007   2.9007   2.9007
     3.1503   3.1503   3.1503   3.1503   4.4783   4.4783   4.4784   4.4784
     5.1785   5.1785   5.1785   5.1785   5.8142   5.8142   5.8143   5.8143
     6.0767   6.0767   6.0767   6.0767   6.5413   6.5413   6.5413   6.5413
     7.3682   7.3682   7.3682   7.3682  11.0173  11.0173  11.0173  11.0173
    12.3102  12.3102  12.3102  12.3102  13.4371  13.4371  13.4371  13.4371
    14.8681  14.8681  14.8681  14.8681  17.8211  17.8211

     the Fermi energy is     8.7393 ev

!    total energy              =   -3130.49934904 Ry
     Harris-Foulkes estimate   =   -3130.49934904 Ry
     estimated scf accuracy    <          1.6E-09 Ry

     The total energy is the sum of the following terms:

     one-electron contribution =   -2396.07631560 Ry
     hartree contribution      =    1314.84829246 Ry
     xc contribution           =    -482.88870024 Ry
     ewald contribution        =   -1566.38260918 Ry
     smearing contrib. (-TS)   =      -0.00001648 Ry

     convergence has been achieved in  12 iterations

     Writing output data file Landau_25.save/
 
     init_run     :      5.09s CPU      5.44s WALL (       1 calls)
     electrons    :    175.51s CPU    178.93s WALL (       1 calls)

     Called by init_run:
     wfcinit      :      4.29s CPU      4.57s WALL (       1 calls)
     potinit      :      0.29s CPU      0.31s WALL (       1 calls)
     hinit0       :      0.40s CPU      0.43s WALL (       1 calls)

     Called by electrons:
     c_bands      :    149.40s CPU    152.45s WALL (      12 calls)
     sum_band     :     22.58s CPU     22.69s WALL (      12 calls)
     v_of_rho     :      0.69s CPU      0.72s WALL (      13 calls)
     mix_rho      :      1.02s CPU      1.17s WALL (      12 calls)

     Called by c_bands:
     init_us_2    :      0.95s CPU      1.03s WALL (      25 calls)
     cegterg      :    123.61s CPU    126.59s WALL (      12 calls)

     Called by sum_band:

     Called by *egterg:
     h_psi        :    100.01s CPU    101.48s WALL (      45 calls)
     g_psi        :      0.20s CPU      0.20s WALL (      32 calls)
     cdiaghg      :      1.17s CPU      1.22s WALL (      44 calls)

     Called by h_psi:
     h_psi:pot    :     99.69s CPU    100.37s WALL (      45 calls)
     h_psi:calbec :     10.50s CPU     10.80s WALL (      45 calls)
     vloc_psi     :     78.02s CPU     78.32s WALL (      45 calls)
     add_vuspsi   :     11.17s CPU     11.24s WALL (      45 calls)

     General routines
     calbec       :     10.50s CPU     10.80s WALL (      45 calls)
     fft          :      0.39s CPU      0.40s WALL (      39 calls)
     ffts         :      0.13s CPU      0.13s WALL (      12 calls)
     fftw         :     81.21s CPU     81.46s WALL (    7818 calls)
 
     Parallel routines
 
     PWSCF        :   3m 1.40s CPU   3m 5.43s WALL

 
   This run was terminated on:  21:33:22  19Nov2019            

=------------------------------------------------------------------------------=
   JOB DONE.
=------------------------------------------------------------------------------=
