
     Program PWSCF v.6.2 (svn rev. 14038) starts on 19Mar2020 at  3: 0:20 

     This program is part of the open-source Quantum ESPRESSO suite
     for quantum simulation of materials; please cite
         "P. Giannozzi et al., J. Phys.:Condens. Matter 21 395502 (2009);
         "P. Giannozzi et al., J. Phys.:Condens. Matter 29 465901 (2017);
          URL http://www.quantum-espresso.org", 
     in publications or presentations arising from this work. More details at
     http://www.quantum-espresso.org/quote

     Parallel version (MPI), running on    40 processors

     MPI processes distributed on     2 nodes
     K-points division:     npool     =      40
     Reading input from scf.in

     Current dimensions of program PWSCF are:
     Max number of different atomic species (ntypx) = 10
     Max number of k-points (npk) =  40000
     Max angular momentum in pseudopotentials (lmaxx) =  3

     Subspace diagonalization in iterative solution of the eigenvalue problem:
     a serial algorithm will be used

 
     G-vector sticks info
     --------------------
     sticks:   dense  smooth     PW     G-vecs:    dense   smooth      PW
     Sum        7643    7643   2053               499535   499535   69243
 


     bravais-lattice index     =            0
     lattice parameter (alat)  =      13.9730  a.u.
     unit-cell volume          =    2813.6200 (a.u.)^3
     number of atoms/cell      =           32
     number of atomic types    =            2
     number of electrons       =       368.20
     number of Kohn-Sham states=          221
     kinetic-energy cutoff     =     120.0000  Ry
     charge density cutoff     =     480.0000  Ry
     convergence threshold     =      1.0E-08
     mixing beta               =       0.7000
     number of iterations used =            8  plain     mixing
     Exchange-correlation      = SLA PW NOGX NOGC ( 1  4  0  0 0 0)

     celldm(1)=  13.972995  celldm(2)=   0.000000  celldm(3)=   0.000000
     celldm(4)=   0.000000  celldm(5)=   0.000000  celldm(6)=   0.000000

     crystal axes: (cart. coord. in units of alat)
               a(1) = (   1.000000   0.000000   0.000000 )  
               a(2) = (   0.000000   1.026128   0.000000 )  
               a(3) = (   0.000000   0.000000   1.005068 )  

     reciprocal axes: (cart. coord. in units 2 pi/alat)
               b(1) = (  1.000000  0.000000  0.000000 )  
               b(2) = (  0.000000  0.974538  0.000000 )  
               b(3) = (  0.000000  0.000000  0.994957 )  


     PseudoPot. # 1 for W  read from file:
     /cluster/scratch/mnoe/QE/pps/W_ONCV_LDA-4.0.upf
     MD5 check sum: ba0307d5d4cd419d6f1d13dc49d7c13a
     Pseudo is Norm-conserving + core correction, Zval = 28.0
     Generated using ONCVPSP code by D. R. Hamann
     Using radial grid of 1380 points,  8 beta functions with: 
                l(1) =   0
                l(2) =   0
                l(3) =   1
                l(4) =   1
                l(5) =   2
                l(6) =   2
                l(7) =   3
                l(8) =   3

     PseudoPot. # 2 for O  read from file:
     /cluster/scratch/mnoe/QE/pps/O_ONCV_LDA-3.0.upf
     MD5 check sum: a1bd6164e7280c17a38c229939bfbd54
     Pseudo is Norm-conserving + core correction, Zval =  6.0
     Generated using ONCVPSP code by D. R. Hamann
     Using radial grid of  926 points,  5 beta functions with: 
                l(1) =   0
                l(2) =   0
                l(3) =   1
                l(4) =   1
                l(5) =   2

     atomic species   valence    mass     pseudopotential
        W             28.00   183.84000     W ( 1.00)
        O              6.00    15.99940     O ( 1.00)

      8 Sym. Ops., with inversion, found ( 6 have fractional translation)



   Cartesian axes

     site n.     atom                  positions (alat units)
         1           W   tau(   1) = (   0.2342800   0.2840410   0.0149253  )
         2           W   tau(   2) = (   0.7657200   0.7420868   0.9901428  )
         3           W   tau(   3) = (   0.2657200   0.2290229   0.5174593  )
         4           W   tau(   4) = (   0.7342799   0.7971048   0.4876088  )
         5           W   tau(   5) = (   0.7657200   0.2840410   0.4876088  )
         6           W   tau(   6) = (   0.2342800   0.7420868   0.5174593  )
         7           W   tau(   7) = (   0.7342799   0.2290229   0.9901428  )
         8           W   tau(   8) = (   0.2657200   0.7971048   0.0149253  )
         9           O   tau(   9) = (   0.2209900   0.0071253   0.0046434  )
        10           O   tau(  10) = (   0.7790100   1.0190024   1.0004247  )
        11           O   tau(  11) = (   0.2790100   0.5059386   0.5071775  )
        12           O   tau(  12) = (   0.7209900   0.5201891   0.4978907  )
        13           O   tau(  13) = (   0.7790100   0.0071253   0.4978907  )
        14           O   tau(  14) = (   0.2209900   1.0190024   0.5071775  )
        15           O   tau(  15) = (   0.7209900   0.5059386   1.0004247  )
        16           O   tau(  16) = (   0.2790100   0.5201891   0.0046434  )
        17           O   tau(  17) = (   0.5043000   0.2259944   0.4642326  )
        18           O   tau(  18) = (   0.4957000   0.8001334   0.5408355  )
        19           O   tau(  19) = (   0.9957000   0.2870695   0.9667667  )
        20           O   tau(  20) = (   0.0043000   0.7390582   0.0383014  )
        21           O   tau(  21) = (   0.4957000   0.2259944   0.0383014  )
        22           O   tau(  22) = (   0.5043000   0.8001334   0.9667667  )
        23           O   tau(  23) = (   0.0043000   0.2870695   0.5408355  )
        24           O   tau(  24) = (   0.9957000   0.7390582   0.4642326  )
        25           O   tau(  25) = (   0.7118917   0.2498621   0.7472480  )
        26           O   tau(  26) = (   0.2881082   0.7762657   0.2578201  )
        27           O   tau(  27) = (   0.7881083   0.2632018   0.2447140  )
        28           O   tau(  28) = (   0.2118917   0.7629260   0.7603541  )
        29           O   tau(  29) = (   0.2881082   0.2498621   0.7603541  )
        30           O   tau(  30) = (   0.7118917   0.7762657   0.2447140  )
        31           O   tau(  31) = (   0.2118917   0.2632018   0.2578201  )
        32           O   tau(  32) = (   0.7881083   0.7629260   0.7472480  )

     number of k points=    64  gaussian smearing, width (Ry)=  0.0007
                       cart. coord. in units 2pi/alat
        k(    1) = (   0.0000000   0.0000000   0.0000000), wk =   0.0092593
        k(    2) = (   0.0000000   0.0000000   0.1658262), wk =   0.0185185
        k(    3) = (   0.0000000   0.0000000   0.3316525), wk =   0.0185185
        k(    4) = (   0.0000000   0.0000000  -0.4974787), wk =   0.0092593
        k(    5) = (   0.0000000   0.1624229   0.0000000), wk =   0.0185185
        k(    6) = (   0.0000000   0.1624229   0.1658262), wk =   0.0370370
        k(    7) = (   0.0000000   0.1624229   0.3316525), wk =   0.0370370
        k(    8) = (   0.0000000   0.1624229  -0.4974787), wk =   0.0185185
        k(    9) = (   0.0000000   0.3248459   0.0000000), wk =   0.0185185
        k(   10) = (   0.0000000   0.3248459   0.1658262), wk =   0.0370370
        k(   11) = (   0.0000000   0.3248459   0.3316525), wk =   0.0370370
        k(   12) = (   0.0000000   0.3248459  -0.4974787), wk =   0.0185185
        k(   13) = (   0.0000000  -0.4872688   0.0000000), wk =   0.0092593
        k(   14) = (   0.0000000  -0.4872688   0.1658262), wk =   0.0185185
        k(   15) = (   0.0000000  -0.4872688   0.3316525), wk =   0.0185185
        k(   16) = (   0.0000000  -0.4872688  -0.4974787), wk =   0.0092593
        k(   17) = (   0.1666667   0.0000000   0.0000000), wk =   0.0185185
        k(   18) = (   0.1666667   0.0000000   0.1658262), wk =   0.0370370
        k(   19) = (   0.1666667   0.0000000   0.3316525), wk =   0.0370370
        k(   20) = (   0.1666667   0.0000000  -0.4974787), wk =   0.0185185
        k(   21) = (   0.1666667   0.1624229   0.0000000), wk =   0.0370370
        k(   22) = (   0.1666667   0.1624229   0.1658262), wk =   0.0740741
        k(   23) = (   0.1666667   0.1624229   0.3316525), wk =   0.0740741
        k(   24) = (   0.1666667   0.1624229  -0.4974787), wk =   0.0370370
        k(   25) = (   0.1666667   0.3248459   0.0000000), wk =   0.0370370
        k(   26) = (   0.1666667   0.3248459   0.1658262), wk =   0.0740741
        k(   27) = (   0.1666667   0.3248459   0.3316525), wk =   0.0740741
        k(   28) = (   0.1666667   0.3248459  -0.4974787), wk =   0.0370370
        k(   29) = (   0.1666667  -0.4872688   0.0000000), wk =   0.0185185
        k(   30) = (   0.1666667  -0.4872688   0.1658262), wk =   0.0370370
        k(   31) = (   0.1666667  -0.4872688   0.3316525), wk =   0.0370370
        k(   32) = (   0.1666667  -0.4872688  -0.4974787), wk =   0.0185185
        k(   33) = (   0.3333333   0.0000000   0.0000000), wk =   0.0185185
        k(   34) = (   0.3333333   0.0000000   0.1658262), wk =   0.0370370
        k(   35) = (   0.3333333   0.0000000   0.3316525), wk =   0.0370370
        k(   36) = (   0.3333333   0.0000000  -0.4974787), wk =   0.0185185
        k(   37) = (   0.3333333   0.1624229   0.0000000), wk =   0.0370370
        k(   38) = (   0.3333333   0.1624229   0.1658262), wk =   0.0740741
        k(   39) = (   0.3333333   0.1624229   0.3316525), wk =   0.0740741
        k(   40) = (   0.3333333   0.1624229  -0.4974787), wk =   0.0370370
        k(   41) = (   0.3333333   0.3248459   0.0000000), wk =   0.0370370
        k(   42) = (   0.3333333   0.3248459   0.1658262), wk =   0.0740741
        k(   43) = (   0.3333333   0.3248459   0.3316525), wk =   0.0740741
        k(   44) = (   0.3333333   0.3248459  -0.4974787), wk =   0.0370370
        k(   45) = (   0.3333333  -0.4872688   0.0000000), wk =   0.0185185
        k(   46) = (   0.3333333  -0.4872688   0.1658262), wk =   0.0370370
        k(   47) = (   0.3333333  -0.4872688   0.3316525), wk =   0.0370370
        k(   48) = (   0.3333333  -0.4872688  -0.4974787), wk =   0.0185185
        k(   49) = (  -0.5000000   0.0000000   0.0000000), wk =   0.0092593
        k(   50) = (  -0.5000000   0.0000000   0.1658262), wk =   0.0185185
        k(   51) = (  -0.5000000   0.0000000   0.3316525), wk =   0.0185185
        k(   52) = (  -0.5000000   0.0000000  -0.4974787), wk =   0.0092593
        k(   53) = (  -0.5000000   0.1624229   0.0000000), wk =   0.0185185
        k(   54) = (  -0.5000000   0.1624229   0.1658262), wk =   0.0370370
        k(   55) = (  -0.5000000   0.1624229   0.3316525), wk =   0.0370370
        k(   56) = (  -0.5000000   0.1624229  -0.4974787), wk =   0.0185185
        k(   57) = (  -0.5000000   0.3248459   0.0000000), wk =   0.0185185
        k(   58) = (  -0.5000000   0.3248459   0.1658262), wk =   0.0370370
        k(   59) = (  -0.5000000   0.3248459   0.3316525), wk =   0.0370370
        k(   60) = (  -0.5000000   0.3248459  -0.4974787), wk =   0.0185185
        k(   61) = (  -0.5000000  -0.4872688   0.0000000), wk =   0.0092593
        k(   62) = (  -0.5000000  -0.4872688   0.1658262), wk =   0.0185185
        k(   63) = (  -0.5000000  -0.4872688   0.3316525), wk =   0.0185185
        k(   64) = (  -0.5000000  -0.4872688  -0.4974787), wk =   0.0092593

     Dense  grid:   499535 G-vectors     FFT dimensions: ( 100, 100, 100)

     Estimated max dynamical RAM per process >       3.13 GB

     Estimated total dynamical RAM >     125.24 GB

     Initial potential from superposition of free atoms

     starting charge  367.99656, renormalised to  368.20000
     Starting wfc are  232 randomized atomic wfcs

     total cpu time spent up to now is       50.7 secs

     Self-consistent Calculation

     iteration #  1     ecut=   120.00 Ry     beta= 0.70
     Davidson diagonalization with overlap
     ethr =  1.00E-02,  avg # of iterations =  5.1

     total cpu time spent up to now is      231.6 secs

     total energy              =   -6253.82561780 Ry
     Harris-Foulkes estimate   =   -6264.47233598 Ry
     estimated scf accuracy    <      13.46053581 Ry

     iteration #  2     ecut=   120.00 Ry     beta= 0.70
     Davidson diagonalization with overlap
     ethr =  3.66E-03,  avg # of iterations =  3.5

     total cpu time spent up to now is      409.6 secs

     total energy              =   -6250.66591741 Ry
     Harris-Foulkes estimate   =   -6270.57894809 Ry
     estimated scf accuracy    <      53.35877571 Ry

     iteration #  3     ecut=   120.00 Ry     beta= 0.70
     Davidson diagonalization with overlap
     ethr =  3.66E-03,  avg # of iterations =  3.5

     total cpu time spent up to now is      572.4 secs

     total energy              =   -6260.95737031 Ry
     Harris-Foulkes estimate   =   -6261.23086297 Ry
     estimated scf accuracy    <       0.90092096 Ry

     iteration #  4     ecut=   120.00 Ry     beta= 0.70
     Davidson diagonalization with overlap
     ethr =  2.45E-04,  avg # of iterations =  2.8

     total cpu time spent up to now is      700.7 secs

     total energy              =   -6260.94536108 Ry
     Harris-Foulkes estimate   =   -6261.02086322 Ry
     estimated scf accuracy    <       0.21456270 Ry

     iteration #  5     ecut=   120.00 Ry     beta= 0.70
     Davidson diagonalization with overlap
     ethr =  5.83E-05,  avg # of iterations =  5.5

     total cpu time spent up to now is      850.3 secs

     total energy              =   -6260.95817523 Ry
     Harris-Foulkes estimate   =   -6260.98360038 Ry
     estimated scf accuracy    <       0.05915262 Ry

     iteration #  6     ecut=   120.00 Ry     beta= 0.70
     Davidson diagonalization with overlap
     ethr =  1.61E-05,  avg # of iterations =  5.7

     total cpu time spent up to now is     1000.3 secs

     total energy              =   -6260.97016156 Ry
     Harris-Foulkes estimate   =   -6260.97286152 Ry
     estimated scf accuracy    <       0.00738648 Ry

     iteration #  7     ecut=   120.00 Ry     beta= 0.70
     Davidson diagonalization with overlap
     ethr =  2.01E-06,  avg # of iterations =  5.9

     total cpu time spent up to now is     1148.4 secs

     total energy              =   -6260.97098655 Ry
     Harris-Foulkes estimate   =   -6260.97113285 Ry
     estimated scf accuracy    <       0.00028186 Ry

     iteration #  8     ecut=   120.00 Ry     beta= 0.70
     Davidson diagonalization with overlap
     ethr =  7.66E-08,  avg # of iterations =  3.0

     total cpu time spent up to now is     1311.1 secs

     total energy              =   -6260.97108031 Ry
     Harris-Foulkes estimate   =   -6260.97109813 Ry
     estimated scf accuracy    <       0.00006492 Ry

     iteration #  9     ecut=   120.00 Ry     beta= 0.70
     Davidson diagonalization with overlap
     ethr =  1.76E-08,  avg # of iterations =  2.2

     total cpu time spent up to now is     1445.0 secs

     total energy              =   -6260.97108359 Ry
     Harris-Foulkes estimate   =   -6260.97109118 Ry
     estimated scf accuracy    <       0.00003293 Ry

     iteration # 10     ecut=   120.00 Ry     beta= 0.70
     Davidson diagonalization with overlap
     ethr =  8.94E-09,  avg # of iterations =  1.1

     total cpu time spent up to now is     1567.0 secs

     total energy              =   -6260.97108115 Ry
     Harris-Foulkes estimate   =   -6260.97108559 Ry
     estimated scf accuracy    <       0.00001040 Ry

     iteration # 11     ecut=   120.00 Ry     beta= 0.70
     Davidson diagonalization with overlap
     ethr =  2.83E-09,  avg # of iterations =  2.9

     total cpu time spent up to now is     1699.1 secs

     total energy              =   -6260.97108333 Ry
     Harris-Foulkes estimate   =   -6260.97108338 Ry
     estimated scf accuracy    <       0.00000013 Ry

     iteration # 12     ecut=   120.00 Ry     beta= 0.70
     Davidson diagonalization with overlap
     ethr =  3.49E-11,  avg # of iterations =  2.1

     total cpu time spent up to now is     1862.0 secs

     total energy              =   -6260.97108336 Ry
     Harris-Foulkes estimate   =   -6260.97108338 Ry
     estimated scf accuracy    <       0.00000003 Ry

     iteration # 13     ecut=   120.00 Ry     beta= 0.70
     Davidson diagonalization with overlap
     ethr =  7.88E-12,  avg # of iterations =  2.4

     total cpu time spent up to now is     2011.8 secs

     End of self-consistent calculation

          k = 0.0000 0.0000 0.0000 ( 62433 PWs)   bands (ev):

   -66.1689 -66.1683 -66.1681 -66.1680 -66.1675 -66.1674 -66.1672 -66.1666
   -30.5647 -30.5574 -30.5563 -30.5465 -30.5407 -30.5382 -30.5353 -30.5321
   -30.5281 -30.5192 -30.5160 -30.5040 -30.4816 -30.4773 -30.4770 -30.4602
   -30.4467 -30.4455 -30.4382 -30.4326 -30.4318 -30.4223 -30.4217 -30.4131
   -20.3279 -20.3278 -20.3276 -20.3274 -20.3274 -20.3273 -20.3270 -20.3269
   -20.3091 -20.3087 -20.3086 -20.3086 -20.3083 -20.3080 -20.3080 -20.3076
   -20.3029 -20.3027 -20.3027 -20.3024 -20.3022 -20.3021 -20.3020 -20.3018
   -20.3012 -20.3008 -20.3002 -20.2999 -20.2971 -20.2967 -20.2964 -20.2964
   -20.2963 -20.2961 -20.2948 -20.2947 -20.2915 -20.2911 -20.2908 -20.2907
   -20.2902 -20.2900 -20.2896 -20.2890 -20.2856 -20.2856 -20.2846 -20.2845
   -20.2795 -20.2793 -20.2782 -20.2780 -20.2775 -20.2773 -20.2763 -20.2761
    -9.9698  -9.6460  -9.5721  -9.5626  -9.2706  -9.2368  -9.1694  -9.0218
    -8.9938  -8.9544  -8.9236  -8.9178  -7.9080  -7.8395  -7.8126  -7.7850
    -7.7765  -7.7748  -7.7699  -7.7322  -7.7139  -7.7110  -7.6892  -7.6853
     1.2021   1.2168   1.2598   1.2821   1.2892   1.2956   1.3654   1.4642
     1.5224   1.5574   1.5924   1.7950   2.4227   2.4949   2.5352   2.5509
     2.6200   2.6990   4.1545   4.2469   4.3627   4.5507   4.5927   4.6208
     4.6718   4.6807   4.6833   4.7393   4.9209   4.9704   5.2214   5.3765
     5.4220   5.4812   5.5479   5.5516   5.5611   5.6264   5.7142   5.7252
     5.7374   5.7459   5.8204   5.9367   5.9624   5.9647   6.0435   6.0480
     6.0941   6.2974   6.3246   6.3794   6.3868   6.6593   6.8209   6.8653
     6.8855   6.9123   6.9593   6.9697   6.9910   7.0067   7.0754   7.0889
     7.1631   7.1675   7.8846   7.9142   7.9166   7.9855   8.1134   8.1586
     9.5158   9.5595   9.8428   9.8694   9.8984   9.9185  12.1905  12.3533
    12.4262  12.4492  12.5419  12.5480  12.5499  12.6072  12.6812  12.8199
    13.0659  13.1525  13.1891  13.3818  13.5729  13.5980  14.0228  14.0240
    14.5325  14.5958  14.8323  14.8500  15.1249  15.1732  15.6830  15.8074
    15.9482  16.8064  16.8886  17.0313  17.3536

          k = 0.0000 0.0000 0.1658 ( 62455 PWs)   bands (ev):

   -66.1688 -66.1682 -66.1681 -66.1679 -66.1675 -66.1673 -66.1673 -66.1667
   -30.5639 -30.5577 -30.5551 -30.5470 -30.5360 -30.5350 -30.5315 -30.5299
   -30.5285 -30.5166 -30.5146 -30.5015 -30.4827 -30.4793 -30.4767 -30.4594
   -30.4507 -30.4498 -30.4436 -30.4364 -30.4315 -30.4235 -30.4220 -30.4144
   -20.3279 -20.3278 -20.3275 -20.3275 -20.3274 -20.3274 -20.3271 -20.3270
   -20.3091 -20.3086 -20.3086 -20.3086 -20.3083 -20.3081 -20.3081 -20.3077
   -20.3029 -20.3027 -20.3027 -20.3024 -20.3022 -20.3022 -20.3021 -20.3019
   -20.3011 -20.3007 -20.3003 -20.2999 -20.2970 -20.2967 -20.2965 -20.2964
   -20.2963 -20.2959 -20.2949 -20.2948 -20.2912 -20.2908 -20.2906 -20.2903
   -20.2903 -20.2898 -20.2897 -20.2889 -20.2860 -20.2859 -20.2850 -20.2849
   -20.2794 -20.2792 -20.2783 -20.2781 -20.2774 -20.2773 -20.2764 -20.2762
    -9.9266  -9.5926  -9.5865  -9.5066  -9.2481  -9.1846  -9.1776  -8.9844
    -8.9576  -8.9439  -8.9208  -8.8917  -7.9549  -7.9498  -7.8655  -7.8567
    -7.8263  -7.8167  -7.7799  -7.7684  -7.7425  -7.7172  -7.7158  -7.6949
     1.2738   1.2867   1.3113   1.3663   1.3845   1.3945   1.4611   1.5382
     1.5897   1.6559   1.7091   1.9029   2.5046   2.5083   2.6126   2.6188
     2.6343   2.7804   4.1114   4.1564   4.3081   4.3705   4.3997   4.4954
     4.5264   4.5825   4.7029   4.7335   4.7815   4.9380   5.2118   5.2217
     5.3171   5.4058   5.4664   5.4815   5.5671   5.5756   5.6194   5.6388
     5.7542   5.7798   5.7949   5.9023   5.9456   5.9688   6.0886   6.0991
     6.1102   6.3735   6.4149   6.4658   6.6499   6.6888   6.7345   6.7586
     6.7851   6.8424   6.9171   6.9441   6.9695   6.9937   7.0021   7.0065
     7.0228   7.0501   7.8665   7.8868   7.9343   7.9840   8.0583   8.1084
     9.7330   9.8385   9.8412   9.9515  10.1366  10.1895  12.2301  12.2750
    12.3447  12.4666  12.4667  12.5805  12.5933  12.6832  12.6850  12.7125
    12.9930  13.0825  13.1975  13.4009  13.5740  13.6653  13.8906  13.9140
    14.6331  14.6809  14.8294  14.9577  15.1807  15.2625  15.6537  15.9200
    16.1319  16.7597  16.9730  17.0631  17.4409

          k = 0.0000 0.0000 0.3317 ( 62445 PWs)   bands (ev):

   -66.1687 -66.1683 -66.1681 -66.1678 -66.1677 -66.1674 -66.1672 -66.1668
   -30.5621 -30.5588 -30.5526 -30.5482 -30.5319 -30.5293 -30.5280 -30.5204
   -30.5185 -30.5161 -30.5015 -30.4927 -30.4877 -30.4870 -30.4748 -30.4631
   -30.4610 -30.4579 -30.4571 -30.4448 -30.4305 -30.4265 -30.4209 -30.4169
   -20.3278 -20.3277 -20.3276 -20.3275 -20.3274 -20.3273 -20.3272 -20.3271
   -20.3090 -20.3087 -20.3085 -20.3085 -20.3082 -20.3082 -20.3081 -20.3078
   -20.3028 -20.3027 -20.3026 -20.3024 -20.3023 -20.3023 -20.3023 -20.3020
   -20.3008 -20.3004 -20.3004 -20.3000 -20.2968 -20.2967 -20.2965 -20.2965
   -20.2960 -20.2955 -20.2952 -20.2949 -20.2908 -20.2903 -20.2902 -20.2899
   -20.2897 -20.2895 -20.2890 -20.2884 -20.2871 -20.2869 -20.2861 -20.2860
   -20.2792 -20.2790 -20.2785 -20.2784 -20.2772 -20.2770 -20.2766 -20.2764
    -9.8223  -9.6316  -9.4687  -9.3781  -9.2843  -9.2055  -8.9530  -8.9402
    -8.9292  -8.8265  -8.8208  -8.7700  -8.2353  -8.2300  -8.1705  -8.1628
    -7.8554  -7.8279  -7.7670  -7.7542  -7.7451  -7.7303  -7.7247  -7.7108
     1.2781   1.2821   1.3700   1.3716   1.4365   1.4543   1.5413   1.5841
     2.2297   2.3001   2.3449   2.4502   2.5251   2.6010   2.7513   2.8644
     2.8687   3.0056   3.6896   3.8282   3.8317   3.9778   4.0150   4.2623
     4.4220   4.4920   4.5522   4.5872   4.6269   4.7452   4.8686   5.0440
     5.0761   5.1270   5.1649   5.3192   5.3387   5.4547   5.6511   5.7415
     5.7770   5.7864   5.8104   5.9121   6.0054   6.0538   6.1124   6.1763
     6.1766   6.3322   6.3605   6.3664   6.4736   6.5391   6.5905   6.7253
     6.7449   6.8756   6.9623   6.9652   6.9847   7.0044   7.0640   7.1170
     7.1633   7.2435   7.7615   7.7650   7.8841   7.9482   7.9617   7.9787
     9.8156   9.8358  10.4793  10.5457  10.7449  10.8218  11.8922  11.9543
    12.1237  12.2702  12.3350  12.4955  12.6905  12.7139  12.7344  12.7814
    12.8949  13.1448  13.1511  13.2673  13.5759  13.5810  13.6343  13.6747
    14.7395  14.8194  15.0409  15.2262  15.4047  15.5571  15.7717  15.8303
    16.2204  17.0214  17.3308  17.5095  17.6154

          k = 0.0000 0.0000-0.4975 ( 62404 PWs)   bands (ev):

   -66.1685 -66.1685 -66.1679 -66.1679 -66.1676 -66.1676 -66.1670 -66.1670
   -30.5603 -30.5603 -30.5501 -30.5501 -30.5305 -30.5305 -30.5221 -30.5221
   -30.5025 -30.5025 -30.4990 -30.4990 -30.4824 -30.4824 -30.4765 -30.4765
   -30.4704 -30.4704 -30.4525 -30.4525 -30.4289 -30.4288 -30.4192 -30.4192
   -20.3277 -20.3277 -20.3276 -20.3276 -20.3273 -20.3273 -20.3272 -20.3272
   -20.3088 -20.3088 -20.3084 -20.3084 -20.3083 -20.3083 -20.3080 -20.3080
   -20.3027 -20.3027 -20.3025 -20.3025 -20.3025 -20.3025 -20.3022 -20.3022
   -20.3005 -20.3005 -20.3002 -20.3002 -20.2967 -20.2967 -20.2966 -20.2966
   -20.2956 -20.2956 -20.2952 -20.2952 -20.2905 -20.2905 -20.2899 -20.2899
   -20.2885 -20.2885 -20.2882 -20.2882 -20.2876 -20.2876 -20.2873 -20.2873
   -20.2789 -20.2789 -20.2787 -20.2787 -20.2769 -20.2769 -20.2767 -20.2767
    -9.7118  -9.7118  -9.3543  -9.3543  -9.2662  -9.2662  -8.9405  -8.9405
    -8.5862  -8.5862  -8.5637  -8.5637  -8.5584  -8.5584  -8.5121  -8.5121
    -7.8430  -7.8430  -7.7488  -7.7488  -7.7354  -7.7354  -7.7325  -7.7325
     1.2791   1.2791   1.3752   1.3752   1.4470   1.4470   1.5750   1.5750
     2.5507   2.5507   3.0170   3.0171   3.0779   3.0779   3.1266   3.1266
     3.1811   3.1811   3.2550   3.2550   3.5145   3.5145   3.7098   3.7098
     3.7406   3.7406   4.5139   4.5139   4.5802   4.5802   4.9934   4.9934
     5.1528   5.1528   5.2066   5.2066   5.2724   5.2724   5.7022   5.7022
     5.8491   5.8491   5.9406   5.9406   5.9780   5.9780   6.1428   6.1428
     6.1941   6.1941   6.2518   6.2518   6.4981   6.4981   6.5205   6.5205
     6.7562   6.7562   6.9763   6.9763   6.9893   6.9893   7.4812   7.4812
     7.5070   7.5070   7.5767   7.5767   7.6573   7.6574   7.9741   7.9741
     9.8276   9.8276  11.2273  11.2273  11.3009  11.3009  11.4788  11.4788
    11.5788  11.5788  12.4473  12.4473  12.7111  12.7111  12.9547  12.9547
    12.9706  12.9706  13.2148  13.2148  13.3286  13.3286  13.6090  13.6090
    14.7968  14.7968  15.3642  15.3642  15.6615  15.6615  15.6690  15.6690
    16.6011  16.6011  17.9041  17.9041  18.0428

          k = 0.0000 0.1624 0.0000 ( 62482 PWs)   bands (ev):

   -66.1688 -66.1683 -66.1680 -66.1679 -66.1675 -66.1674 -66.1672 -66.1667
   -30.5613 -30.5539 -30.5528 -30.5421 -30.5406 -30.5381 -30.5354 -30.5331
   -30.5289 -30.5183 -30.5145 -30.5024 -30.4855 -30.4813 -30.4798 -30.4643
   -30.4467 -30.4456 -30.4382 -30.4338 -30.4314 -30.4234 -30.4214 -30.4141
   -20.3279 -20.3278 -20.3276 -20.3275 -20.3274 -20.3273 -20.3271 -20.3270
   -20.3091 -20.3087 -20.3086 -20.3085 -20.3083 -20.3081 -20.3080 -20.3076
   -20.3027 -20.3027 -20.3025 -20.3024 -20.3021 -20.3020 -20.3019 -20.3018
   -20.3011 -20.3006 -20.3000 -20.2997 -20.2973 -20.2968 -20.2967 -20.2964
   -20.2964 -20.2962 -20.2952 -20.2951 -20.2915 -20.2911 -20.2908 -20.2908
   -20.2902 -20.2899 -20.2897 -20.2891 -20.2856 -20.2856 -20.2846 -20.2846
   -20.2794 -20.2793 -20.2782 -20.2780 -20.2775 -20.2773 -20.2763 -20.2761
    -9.9357  -9.6586  -9.5280  -9.5218  -9.2780  -9.2460  -9.0894  -9.0193
    -8.9956  -8.9069  -8.8830  -8.8792  -7.9724  -7.9062  -7.8781  -7.8385
    -7.8364  -7.8194  -7.7769  -7.7721  -7.7302  -7.7249  -7.6975  -7.6924
     1.2026   1.2150   1.2801   1.2829   1.3348   1.3655   1.4166   1.5570
     1.6804   1.7407   1.7960   1.9441   2.4313   2.5209   2.5795   2.6348
     2.6946   2.7821   3.9996   4.0878   4.1208   4.2380   4.5407   4.6011
     4.6482   4.6832   4.6895   4.8034   4.8775   4.8964   5.1174   5.2658
     5.3249   5.4336   5.4872   5.5947   5.6118   5.6146   5.6605   5.6612
     5.6860   5.7661   5.7794   5.9361   5.9693   6.0291   6.0316   6.0355
     6.0804   6.2567   6.3514   6.4005   6.4772   6.6879   6.7334   6.7894
     6.8883   6.9017   6.9087   6.9364   6.9403   6.9563   7.0812   7.0897
     7.1653   7.1723   7.8684   7.9024   7.9146   7.9640   8.0711   8.0840
     9.5365   9.5631  10.0595  10.0753  10.0963  10.1013  12.1113  12.3324
    12.4123  12.4506  12.4767  12.4842  12.5131  12.5240  12.5566  12.8362
    13.0445  13.1245  13.1827  13.3872  13.5913  13.6984  13.9139  13.9239
    14.7285  14.7578  14.9534  14.9848  15.1222  15.1691  15.7890  15.9146
    16.0765  16.5530  17.0442  17.1876  17.5785

          k = 0.0000 0.1624 0.1658 ( 62446 PWs)   bands (ev):

   -66.1688 -66.1683 -66.1681 -66.1679 -66.1676 -66.1674 -66.1672 -66.1667
   -30.5604 -30.5542 -30.5514 -30.5425 -30.5359 -30.5350 -30.5324 -30.5302
   -30.5291 -30.5154 -30.5138 -30.5001 -30.4865 -30.4823 -30.4802 -30.4635
   -30.4508 -30.4499 -30.4435 -30.4377 -30.4311 -30.4231 -30.4230 -30.4154
   -20.3279 -20.3278 -20.3275 -20.3274 -20.3274 -20.3273 -20.3271 -20.3270
   -20.3090 -20.3087 -20.3086 -20.3085 -20.3083 -20.3081 -20.3080 -20.3077
   -20.3027 -20.3027 -20.3026 -20.3024 -20.3021 -20.3021 -20.3020 -20.3018
   -20.3009 -20.3005 -20.3001 -20.2997 -20.2972 -20.2967 -20.2967 -20.2964
   -20.2964 -20.2961 -20.2953 -20.2951 -20.2912 -20.2908 -20.2907 -20.2904
   -20.2902 -20.2898 -20.2897 -20.2890 -20.2860 -20.2859 -20.2850 -20.2850
   -20.2794 -20.2792 -20.2783 -20.2781 -20.2774 -20.2773 -20.2764 -20.2762
    -9.8910  -9.6053  -9.5423  -9.4611  -9.2575  -9.1922  -9.0977  -8.9819
    -8.9593  -8.8977  -8.8825  -8.8557  -7.9918  -7.9479  -7.9225  -7.8976
    -7.8773  -7.8547  -7.8434  -7.8015  -7.7985  -7.7716  -7.7305  -7.6982
     1.3068   1.3114   1.3340   1.3664   1.4911   1.5171   1.5390   1.6833
     1.7089   1.7849   1.7934   2.0079   2.5171   2.5780   2.6143   2.6883
     2.7188   2.8629   4.0119   4.0511   4.1420   4.2116   4.3314   4.3603
     4.5275   4.5513   4.6576   4.6947   4.7250   4.8864   5.1067   5.1529
     5.2415   5.3150   5.3991   5.4244   5.4598   5.5939   5.6093   5.6516
     5.7375   5.7594   5.7946   5.9217   5.9318   5.9484   6.0330   6.0816
     6.1638   6.3347   6.4434   6.4863   6.6753   6.6792   6.7446   6.7496
     6.8128   6.8683   6.8920   6.8995   6.9269   6.9447   6.9788   6.9970
     7.0492   7.0497   7.8555   7.8855   7.9122   7.9586   8.0188   8.0413
     9.8127   9.8459  10.0753  10.1186  10.2775  10.3335  12.1636  12.2662
    12.3485  12.4126  12.4621  12.5146  12.5232  12.5820  12.6005  12.7421
    12.9494  13.0578  13.1825  13.3917  13.5921  13.7334  13.7794  13.8181
    14.7917  14.8997  14.9845  15.0738  15.1766  15.2721  15.8861  16.0472
    16.1130  16.7096  16.8991  17.1937  17.6403

          k = 0.0000 0.1624 0.3317 ( 62466 PWs)   bands (ev):

   -66.1686 -66.1682 -66.1681 -66.1677 -66.1677 -66.1674 -66.1672 -66.1669
   -30.5586 -30.5552 -30.5485 -30.5437 -30.5325 -30.5301 -30.5276 -30.5209
   -30.5173 -30.5166 -30.5012 -30.4917 -30.4905 -30.4893 -30.4781 -30.4632
   -30.4620 -30.4606 -30.4577 -30.4470 -30.4301 -30.4261 -30.4220 -30.4180
   -20.3278 -20.3277 -20.3275 -20.3275 -20.3274 -20.3273 -20.3272 -20.3271
   -20.3089 -20.3087 -20.3085 -20.3084 -20.3082 -20.3082 -20.3082 -20.3078
   -20.3027 -20.3026 -20.3025 -20.3023 -20.3023 -20.3023 -20.3022 -20.3020
   -20.3006 -20.3003 -20.3002 -20.2998 -20.2970 -20.2966 -20.2966 -20.2965
   -20.2963 -20.2958 -20.2955 -20.2952 -20.2907 -20.2903 -20.2903 -20.2899
   -20.2898 -20.2895 -20.2890 -20.2884 -20.2871 -20.2870 -20.2861 -20.2860
   -20.2792 -20.2790 -20.2785 -20.2784 -20.2772 -20.2770 -20.2766 -20.2764
    -9.7832  -9.5880  -9.4813  -9.3177  -9.2944  -9.1264  -8.9481  -8.9216
    -8.8908  -8.8286  -8.8068  -8.7489  -8.2370  -8.2328  -8.1815  -8.1601
    -7.9342  -7.9142  -7.8564  -7.8358  -7.7884  -7.7575  -7.7461  -7.7141
     1.3334   1.3366   1.3700   1.3714   1.6544   1.6680   1.7365   1.7869
     2.2297   2.3059   2.3459   2.4658   2.6019   2.6724   2.7614   2.8586
     2.9539   3.0832   3.7008   3.8198   3.8512   3.9204   4.0751   4.1428
     4.2442   4.3935   4.4727   4.4779   4.5319   4.6890   4.7174   4.9400
     5.0077   5.0721   5.0977   5.1244   5.3043   5.4574   5.5000   5.6823
     5.7457   5.7551   5.8335   5.8383   5.9034   6.0310   6.0541   6.0838
     6.2689   6.3499   6.4219   6.4667   6.5125   6.6427   6.6973   6.7376
     6.8025   6.8710   6.8715   6.9103   6.9252   6.9510   7.1134   7.1139
     7.1726   7.2472   7.7611   7.7626   7.8565   7.8990   7.9292   7.9462
    10.0531  10.0739  10.4910  10.5537  10.8407  10.9111  11.8976  11.9531
    12.1462  12.3056  12.3152  12.5289  12.5342  12.6238  12.6399  12.7520
    12.7712  13.1178  13.1462  13.2145  13.4522  13.5671  13.5981  13.6984
    14.8805  14.9265  15.3472  15.3731  15.3921  15.7986  15.8021  15.9573
    16.3549  16.9977  17.1820  17.3981  17.6814

          k = 0.0000 0.1624-0.4975 ( 62384 PWs)   bands (ev):

   -66.1684 -66.1684 -66.1679 -66.1679 -66.1676 -66.1676 -66.1670 -66.1670
   -30.5568 -30.5568 -30.5458 -30.5458 -30.5313 -30.5313 -30.5211 -30.5211
   -30.5035 -30.5035 -30.5005 -30.5005 -30.4824 -30.4824 -30.4761 -30.4761
   -30.4727 -30.4727 -30.4557 -30.4557 -30.4284 -30.4284 -30.4203 -30.4203
   -20.3277 -20.3277 -20.3275 -20.3275 -20.3273 -20.3273 -20.3272 -20.3272
   -20.3088 -20.3088 -20.3084 -20.3084 -20.3083 -20.3083 -20.3080 -20.3080
   -20.3025 -20.3025 -20.3024 -20.3024 -20.3024 -20.3024 -20.3022 -20.3022
   -20.3003 -20.3003 -20.3000 -20.3000 -20.2968 -20.2968 -20.2966 -20.2966
   -20.2959 -20.2959 -20.2954 -20.2954 -20.2905 -20.2904 -20.2900 -20.2900
   -20.2885 -20.2885 -20.2883 -20.2883 -20.2876 -20.2876 -20.2873 -20.2873
   -20.2789 -20.2788 -20.2787 -20.2787 -20.2769 -20.2769 -20.2767 -20.2767
    -9.6696  -9.6696  -9.3657  -9.3657  -9.1917  -9.1917  -8.9030  -8.9030
    -8.5935  -8.5935  -8.5634  -8.5633  -8.5589  -8.5589  -8.5050  -8.5050
    -7.9265  -7.9265  -7.8473  -7.8473  -7.7674  -7.7674  -7.7359  -7.7359
     1.3360   1.3360   1.3750   1.3750   1.6690   1.6690   1.7759   1.7759
     2.6245   2.6245   3.0296   3.0296   3.1011   3.1011   3.1206   3.1206
     3.1782   3.1782   3.2970   3.2970   3.5041   3.5041   3.7347   3.7347
     3.7952   3.7952   4.3226   4.3226   4.4178   4.4178   4.7657   4.7657
     5.0240   5.0240   5.1786   5.1786   5.2731   5.2731   5.5695   5.5695
     5.7566   5.7566   5.8301   5.8301   5.9610   5.9610   6.1304   6.1304
     6.2709   6.2709   6.3355   6.3355   6.5121   6.5121   6.6794   6.6794
     6.8273   6.8273   6.9049   6.9049   6.9131   6.9131   7.4892   7.4892
     7.5042   7.5042   7.5683   7.5683   7.6335   7.6335   7.9395   7.9395
    10.0693  10.0693  11.2358  11.2358  11.3015  11.3015  11.5419  11.5419
    11.6343  11.6344  12.4737  12.4737  12.5489  12.5489  12.8823  12.8823
    12.9649  12.9649  13.0822  13.0822  13.2861  13.2861  13.6244  13.6244
    14.9131  14.9131  15.6364  15.6364  15.7172  15.7172  15.8196  15.8196
    16.6662  16.6662  17.6843  17.6843  18.0619

          k = 0.0000 0.3248 0.0000 ( 62524 PWs)   bands (ev):

   -66.1687 -66.1684 -66.1679 -66.1678 -66.1676 -66.1675 -66.1671 -66.1668
   -30.5530 -30.5458 -30.5444 -30.5407 -30.5385 -30.5361 -30.5360 -30.5314
   -30.5295 -30.5145 -30.5097 -30.4971 -30.4968 -30.4917 -30.4886 -30.4748
   -30.4465 -30.4458 -30.4381 -30.4359 -30.4302 -30.4258 -30.4204 -30.4164
   -20.3278 -20.3277 -20.3276 -20.3275 -20.3273 -20.3272 -20.3271 -20.3270
   -20.3090 -20.3088 -20.3085 -20.3084 -20.3084 -20.3082 -20.3079 -20.3077
   -20.3026 -20.3025 -20.3023 -20.3023 -20.3020 -20.3019 -20.3017 -20.3017
   -20.3004 -20.3000 -20.2993 -20.2989 -20.2981 -20.2977 -20.2969 -20.2966
   -20.2966 -20.2963 -20.2960 -20.2957 -20.2914 -20.2910 -20.2910 -20.2909
   -20.2901 -20.2898 -20.2898 -20.2893 -20.2856 -20.2856 -20.2846 -20.2846
   -20.2794 -20.2794 -20.2782 -20.2781 -20.2775 -20.2774 -20.2762 -20.2761
    -9.8533  -9.6975  -9.4321  -9.4263  -9.3026  -9.2757  -9.0140  -9.0005
    -8.8635  -8.7547  -8.7471  -8.7404  -8.2187  -8.1759  -8.1537  -8.1330
    -7.8381  -7.8368  -7.7796  -7.7770  -7.7245  -7.7236  -7.7077  -7.7013
     1.2042   1.2112   1.2853   1.2891   1.3609   1.3661   1.5230   1.5553
     2.2691   2.3668   2.4378   2.4485   2.5018   2.5435   2.8012   2.9063
     2.9075   3.0456   3.5864   3.6009   3.7330   3.7550   4.0836   4.3974
     4.5136   4.5941   4.6549   4.6822   4.7426   4.7518   4.9714   4.9859
     5.0697   5.0969   5.3226   5.3683   5.5186   5.5307   5.6629   5.7156
     5.8172   5.8277   5.8562   5.9325   5.9443   6.0087   6.0231   6.0795
     6.1178   6.1720   6.3168   6.4677   6.4701   6.5396   6.7091   6.7793
     6.7860   6.9035   7.0696   7.0703   7.1017   7.1059   7.1128   7.1272
     7.1707   7.1920   7.7493   7.7911   7.8478   7.8896   7.9247   7.9298
     9.5540   9.5651  10.5295  10.6072  10.6540  10.6749  11.7607  11.9462
    11.9937  12.0545  12.4479  12.4580  12.5149  12.5624  12.5941  12.8544
    13.0749  13.1705  13.1820  13.3832  13.4681  13.6510  13.6913  13.7082
    15.0160  15.1168  15.1721  15.2065  15.2967  15.6417  15.7181  15.8089
    16.0451  17.0431  17.2240  17.5691  17.6994

          k = 0.0000 0.3248 0.1658 ( 62520 PWs)   bands (ev):

   -66.1687 -66.1684 -66.1680 -66.1678 -66.1677 -66.1675 -66.1671 -66.1668
   -30.5518 -30.5458 -30.5424 -30.5358 -30.5356 -30.5353 -30.5322 -30.5308
   -30.5298 -30.5117 -30.5098 -30.4975 -30.4952 -30.4914 -30.4894 -30.4738
   -30.4508 -30.4502 -30.4433 -30.4405 -30.4299 -30.4254 -30.4220 -30.4178
   -20.3278 -20.3277 -20.3276 -20.3275 -20.3274 -20.3273 -20.3272 -20.3271
   -20.3089 -20.3087 -20.3085 -20.3085 -20.3083 -20.3082 -20.3080 -20.3078
   -20.3026 -20.3025 -20.3023 -20.3023 -20.3021 -20.3020 -20.3018 -20.3017
   -20.3003 -20.2999 -20.2993 -20.2990 -20.2980 -20.2976 -20.2970 -20.2966
   -20.2966 -20.2963 -20.2960 -20.2957 -20.2911 -20.2908 -20.2907 -20.2905
   -20.2901 -20.2898 -20.2896 -20.2892 -20.2860 -20.2860 -20.2850 -20.2850
   -20.2793 -20.2793 -20.2783 -20.2782 -20.2774 -20.2773 -20.2763 -20.2762
    -9.8052  -9.6447  -9.4412  -9.3588  -9.2880  -9.2174  -8.9769  -8.9640
    -8.8717  -8.7503  -8.7481  -8.7261  -8.2206  -8.1827  -8.1531  -8.1396
    -7.9425  -7.9238  -7.8491  -7.8309  -7.7993  -7.7799  -7.7294  -7.7071
     1.3120   1.3141   1.3611   1.3668   1.5388   1.5410   1.6671   1.7076
     2.2765   2.3665   2.4344   2.5152   2.5675   2.5867   2.8071   2.9015
     2.9868   3.1241   3.6063   3.6743   3.7331   3.7448   4.0621   4.3051
     4.3361   4.4157   4.5174   4.6368   4.7335   4.7480   4.7781   4.7866
     5.0166   5.1149   5.1616   5.2908   5.3001   5.3996   5.5264   5.6672
     5.6988   5.7006   5.8080   5.8932   5.9566   5.9589   5.9812   6.0631
     6.2520   6.3536   6.4297   6.5016   6.5159   6.6973   6.7365   6.8345
     6.8623   6.9132   6.9448   6.9709   6.9843   6.9852   7.0989   7.1271
     7.1453   7.1652   7.7534   7.7880   7.8190   7.8550   7.8955   7.9078
     9.8458   9.8535  10.6564  10.6802  10.6909  10.7725  11.8398  11.9878
    12.0223  12.0547  12.3480  12.3532  12.5491  12.6045  12.6468  12.8249
    12.9858  13.0827  13.1142  13.3138  13.4682  13.5058  13.6523  13.7032
    15.0499  15.1654  15.2511  15.3579  15.4803  15.7074  15.7789  16.0384
    16.2062  17.0101  17.2951  17.3269  17.6293

          k = 0.0000 0.3248 0.3317 ( 62431 PWs)   bands (ev):

   -66.1685 -66.1682 -66.1681 -66.1678 -66.1676 -66.1673 -66.1673 -66.1670
   -30.5498 -30.5466 -30.5379 -30.5349 -30.5327 -30.5318 -30.5263 -30.5225
   -30.5190 -30.5132 -30.5002 -30.4998 -30.4959 -30.4882 -30.4866 -30.4705
   -30.4634 -30.4628 -30.4571 -30.4517 -30.4289 -30.4249 -30.4244 -30.4204
   -20.3277 -20.3276 -20.3275 -20.3274 -20.3274 -20.3273 -20.3273 -20.3271
   -20.3089 -20.3086 -20.3086 -20.3084 -20.3083 -20.3082 -20.3081 -20.3079
   -20.3025 -20.3025 -20.3023 -20.3022 -20.3022 -20.3021 -20.3019 -20.3019
   -20.3000 -20.2996 -20.2995 -20.2991 -20.2977 -20.2973 -20.2971 -20.2967
   -20.2965 -20.2964 -20.2960 -20.2958 -20.2906 -20.2904 -20.2902 -20.2899
   -20.2898 -20.2896 -20.2889 -20.2886 -20.2871 -20.2870 -20.2861 -20.2861
   -20.2791 -20.2791 -20.2785 -20.2784 -20.2772 -20.2771 -20.2766 -20.2765
    -9.6895  -9.5207  -9.4867  -9.3271  -9.1723  -8.9758  -8.9033  -8.8668
    -8.8347  -8.7600  -8.7152  -8.6628  -8.2976  -8.2623  -8.2252  -8.1772
    -8.1516  -8.1504  -8.1200  -8.0608  -7.7891  -7.7666  -7.7455  -7.7231
     1.3626   1.3656   1.3698   1.3712   2.1254   2.1848   2.2289   2.2971
     2.3439   2.4323   2.4464   2.6406   2.7888   2.8038   2.8379   2.9010
     3.2081   3.3204   3.6477   3.6626   3.7205   3.7811   3.8012   3.8466
     4.0551   4.1900   4.2503   4.2904   4.3716   4.5343   4.5563   4.7029
     4.7074   4.8641   4.9904   5.0862   5.0886   5.1425   5.2569   5.2629
     5.3769   5.5471   5.5981   5.8320   6.0276   6.0658   6.0976   6.1020
     6.3891   6.4229   6.4413   6.5416   6.5779   6.6736   6.6898   6.6947
     6.8964   6.9716   7.0178   7.0433   7.0607   7.1144   7.1733   7.1745
     7.2010   7.2789   7.7166   7.7209   7.7415   7.7797   7.7870   7.8327
    10.4717  10.5085  10.6599  10.7268  11.1374  11.2209  11.8758  11.9435
    12.0253  12.0726  12.0958  12.2514  12.4326  12.5071  12.6385  12.6948
    12.7478  12.9921  13.0854  13.1201  13.1548  13.4755  13.5010  13.6242
    15.1179  15.2388  15.3507  15.6999  15.8794  16.0272  16.0830  16.6895
    16.7724  16.9036  16.9043  17.5410  17.6317

          k = 0.0000 0.3248-0.4975 ( 62450 PWs)   bands (ev):

   -66.1683 -66.1683 -66.1680 -66.1680 -66.1674 -66.1674 -66.1672 -66.1672
   -30.5480 -30.5480 -30.5341 -30.5341 -30.5338 -30.5338 -30.5181 -30.5181
   -30.5076 -30.5076 -30.5061 -30.5061 -30.4821 -30.4821 -30.4775 -30.4775
   -30.4744 -30.4744 -30.4632 -30.4632 -30.4272 -30.4272 -30.4227 -30.4227
   -20.3276 -20.3276 -20.3275 -20.3275 -20.3274 -20.3274 -20.3273 -20.3273
   -20.3087 -20.3087 -20.3085 -20.3085 -20.3082 -20.3082 -20.3080 -20.3080
   -20.3024 -20.3023 -20.3023 -20.3023 -20.3021 -20.3021 -20.3021 -20.3021
   -20.2997 -20.2997 -20.2993 -20.2993 -20.2974 -20.2974 -20.2969 -20.2969
   -20.2964 -20.2964 -20.2959 -20.2959 -20.2904 -20.2903 -20.2901 -20.2901
   -20.2885 -20.2885 -20.2884 -20.2884 -20.2876 -20.2876 -20.2874 -20.2874
   -20.2788 -20.2788 -20.2787 -20.2787 -20.2769 -20.2769 -20.2768 -20.2768
    -9.5699  -9.5699  -9.4021  -9.4021  -8.9890  -8.9890  -8.7831  -8.7831
    -8.6266  -8.6266  -8.5800  -8.5800  -8.5385  -8.5385  -8.4763  -8.4763
    -8.1758  -8.1758  -8.1192  -8.1192  -7.7676  -7.7675  -7.7450  -7.7450
     1.3673   1.3673   1.3747   1.3747   2.2769   2.2769   2.4074   2.4074
     2.8275   2.8275   3.0620   3.0620   3.1038   3.1038   3.1494   3.1494
     3.1679   3.1679   3.4082   3.4082   3.4615   3.4615   3.7081   3.7081
     3.9679   3.9679   3.9850   3.9850   4.0282   4.0282   4.2567   4.2567
     4.8366   4.8366   4.9878   4.9878   5.1049   5.1049   5.1622   5.1622
     5.3550   5.3550   5.7039   5.7039   6.0924   6.0924   6.1438   6.1438
     6.3946   6.3946   6.4480   6.4480   6.4941   6.4941   6.6592   6.6592
     7.0418   7.0418   7.0504   7.0504   7.1015   7.1015   7.4862   7.4862
     7.4915   7.4915   7.5123   7.5123   7.5652   7.5652   7.7967   7.7967
    10.6529  10.6529  11.2517  11.2517  11.3063  11.3063  11.7353  11.7353
    11.8323  11.8323  12.1103  12.1103  12.4552  12.4552  12.5966  12.5966
    12.8288  12.8288  12.9463  12.9463  13.2678  13.2678  13.5139  13.5139
    15.1918  15.1918  15.5574  15.5574  16.2667  16.2667  16.6255  16.6255
    16.8994  16.8994  17.2655  17.2655  17.9518

          k = 0.0000-0.4873 0.0000 ( 62510 PWs)   bands (ev):

   -66.1686 -66.1686 -66.1678 -66.1678 -66.1677 -66.1677 -66.1669 -66.1669
   -30.5443 -30.5443 -30.5389 -30.5388 -30.5384 -30.5384 -30.5365 -30.5365
   -30.5129 -30.5129 -30.5049 -30.5048 -30.5003 -30.5003 -30.4874 -30.4874
   -30.4462 -30.4462 -30.4375 -30.4375 -30.4283 -30.4283 -30.4187 -30.4187
   -20.3277 -20.3277 -20.3276 -20.3276 -20.3272 -20.3272 -20.3271 -20.3271
   -20.3089 -20.3089 -20.3085 -20.3085 -20.3083 -20.3083 -20.3078 -20.3078
   -20.3025 -20.3025 -20.3023 -20.3023 -20.3019 -20.3019 -20.3016 -20.3016
   -20.2993 -20.2993 -20.2989 -20.2989 -20.2981 -20.2981 -20.2977 -20.2977
   -20.2964 -20.2964 -20.2961 -20.2961 -20.2913 -20.2913 -20.2910 -20.2910
   -20.2899 -20.2899 -20.2896 -20.2896 -20.2856 -20.2856 -20.2846 -20.2846
   -20.2794 -20.2794 -20.2781 -20.2781 -20.2774 -20.2774 -20.2762 -20.2762
    -9.7644  -9.7644  -9.3514  -9.3514  -9.3335  -9.3335  -9.0072  -9.0072
    -8.5430  -8.5429  -8.4960  -8.4960  -8.4866  -8.4866  -8.4803  -8.4803
    -7.8371  -7.8371  -7.7804  -7.7804  -7.7166  -7.7166  -7.7131  -7.7131
     1.2072   1.2072   1.2882   1.2882   1.3659   1.3659   1.5489   1.5489
     2.4731   2.4731   2.9719   2.9719   3.0842   3.0842   3.1340   3.1340
     3.1863   3.1863   3.2899   3.2900   3.5560   3.5560   3.6370   3.6370
     3.7430   3.7430   4.6131   4.6131   4.6910   4.6910   5.1294   5.1294
     5.2327   5.2327   5.2597   5.2597   5.3175   5.3175   5.7540   5.7540
     5.8145   5.8145   5.8461   5.8461   6.0109   6.0109   6.0289   6.0289
     6.1594   6.1594   6.2726   6.2726   6.5638   6.5639   6.6348   6.6348
     6.8459   6.8459   7.0867   7.0867   7.1648   7.1648   7.4599   7.4599
     7.5003   7.5003   7.5026   7.5026   7.5588   7.5588   7.9205   7.9205
     9.5623   9.5623  11.1615  11.1615  11.2327  11.2327  11.3649  11.3649
    11.4445  11.4445  12.4562  12.4562  12.5455  12.5455  12.7592  12.7592
    13.2347  13.2347  13.2848  13.2848  13.3678  13.3678  13.6153  13.6153
    15.1085  15.1085  15.5214  15.5214  15.5457  15.5457  15.6132  15.6132
    16.5196  16.5196  17.9372  17.9372  18.0471

          k = 0.0000-0.4873 0.1658 ( 62562 PWs)   bands (ev):

   -66.1685 -66.1685 -66.1678 -66.1678 -66.1676 -66.1676 -66.1670 -66.1670
   -30.5424 -30.5424 -30.5374 -30.5374 -30.5354 -30.5354 -30.5344 -30.5344
   -30.5135 -30.5134 -30.5035 -30.5035 -30.5008 -30.5008 -30.4860 -30.4860
   -30.4506 -30.4506 -30.4424 -30.4424 -30.4279 -30.4279 -30.4202 -30.4202
   -20.3277 -20.3277 -20.3276 -20.3276 -20.3273 -20.3273 -20.3272 -20.3272
   -20.3088 -20.3088 -20.3084 -20.3084 -20.3083 -20.3083 -20.3079 -20.3079
   -20.3025 -20.3025 -20.3023 -20.3023 -20.3020 -20.3020 -20.3017 -20.3017
   -20.2992 -20.2992 -20.2988 -20.2988 -20.2981 -20.2981 -20.2978 -20.2978
   -20.2964 -20.2964 -20.2961 -20.2961 -20.2910 -20.2910 -20.2907 -20.2906
   -20.2900 -20.2900 -20.2894 -20.2894 -20.2860 -20.2860 -20.2850 -20.2850
   -20.2793 -20.2793 -20.2782 -20.2782 -20.2774 -20.2773 -20.2763 -20.2763
    -9.7133  -9.7133  -9.3470  -9.3470  -9.2692  -9.2692  -8.9704  -8.9704
    -8.5483  -8.5483  -8.5006  -8.5006  -8.4872  -8.4872  -8.4745  -8.4745
    -7.9348  -7.9348  -7.8411  -7.8411  -7.7905  -7.7905  -7.7190  -7.7190
     1.3133   1.3133   1.3665   1.3665   1.5428   1.5428   1.7005   1.7005
     2.5581   2.5581   2.9895   2.9895   3.0814   3.0814   3.1344   3.1344
     3.2441   3.2441   3.2843   3.2843   3.5574   3.5574   3.6692   3.6692
     3.7716   3.7716   4.3257   4.3257   4.6947   4.6947   4.9301   4.9301
     5.0262   5.0262   5.1999   5.1999   5.3119   5.3119   5.4769   5.4769
     5.7172   5.7172   5.7689   5.7689   5.9674   5.9674   6.0540   6.0540
     6.3159   6.3159   6.3995   6.3995   6.5642   6.5642   6.8090   6.8090
     6.9034   6.9034   6.9635   6.9635   7.0035   7.0035   7.4712   7.4712
     7.4840   7.4841   7.5020   7.5020   7.5468   7.5468   7.8940   7.8940
     9.8537   9.8537  11.2636  11.2636  11.3232  11.3232  11.3763  11.3763
    11.4658  11.4658  12.3502  12.3502  12.5845  12.5845  12.8198  12.8198
    13.1227  13.1227  13.2015  13.2015  13.2435  13.2435  13.6256  13.6256
    15.1409  15.1409  15.5750  15.5750  15.7038  15.7038  15.8595  15.8595
    16.5891  16.5891  17.8033  17.8034  17.9649

          k = 0.0000-0.4873 0.3317 ( 62480 PWs)   bands (ev):

   -66.1684 -66.1684 -66.1680 -66.1680 -66.1675 -66.1675 -66.1671 -66.1671
   -30.5406 -30.5406 -30.5380 -30.5380 -30.5261 -30.5261 -30.5247 -30.5247
   -30.5152 -30.5152 -30.5054 -30.5054 -30.4953 -30.4953 -30.4810 -30.4810
   -30.4634 -30.4634 -30.4553 -30.4553 -30.4269 -30.4269 -30.4230 -30.4230
   -20.3276 -20.3276 -20.3275 -20.3275 -20.3273 -20.3273 -20.3272 -20.3272
   -20.3087 -20.3087 -20.3085 -20.3085 -20.3083 -20.3083 -20.3080 -20.3080
   -20.3024 -20.3024 -20.3022 -20.3022 -20.3021 -20.3021 -20.3019 -20.3019
   -20.2989 -20.2989 -20.2985 -20.2985 -20.2983 -20.2983 -20.2980 -20.2980
   -20.2963 -20.2963 -20.2962 -20.2962 -20.2905 -20.2905 -20.2901 -20.2901
   -20.2897 -20.2897 -20.2888 -20.2888 -20.2870 -20.2870 -20.2861 -20.2861
   -20.2791 -20.2791 -20.2785 -20.2785 -20.2771 -20.2771 -20.2765 -20.2765
    -9.5914  -9.5914  -9.3896  -9.3896  -9.0416  -9.0416  -8.8453  -8.8453
    -8.5839  -8.5839  -8.5210  -8.5210  -8.4813  -8.4813  -8.4526  -8.4526
    -8.2090  -8.2090  -8.1335  -8.1335  -7.7786  -7.7786  -7.7350  -7.7350
     1.3688   1.3688   1.3707   1.3707   2.2215   2.2215   2.3260   2.3260
     2.7992   2.7992   3.0173   3.0173   3.0804   3.0804   3.1576   3.1576
     3.2395   3.2395   3.3945   3.3945   3.5197   3.5197   3.7636   3.7636
     3.8048   3.8048   3.8466   3.8466   4.3518   4.3518   4.5097   4.5097
     4.7419   4.7419   4.8428   4.8428   5.1304   5.1304   5.1836   5.1836
     5.3558   5.3558   5.6543   5.6543   6.0711   6.0711   6.1224   6.1224
     6.4198   6.4198   6.4801   6.4801   6.5736   6.5736   6.6956   6.6956
     7.0145   7.0145   7.1312   7.1312   7.1384   7.1384   7.4384   7.4384
     7.4627   7.4627   7.5030   7.5030   7.5212   7.5212   7.7831   7.7831
    10.5129  10.5129  11.3527  11.3527  11.3957  11.3957  11.6179  11.6179
    11.7165  11.7165  11.9599  11.9599  12.6696  12.6696  12.6870  12.6870
    12.7474  12.7474  12.9449  12.9449  13.2592  13.2592  13.5249  13.5249
    15.2666  15.2666  15.5207  15.5207  16.2453  16.2453  16.6460  16.6460
    16.8479  16.8479  17.3142  17.3142  17.9353

          k = 0.0000-0.4873-0.4975 ( 62440 PWs)   bands (ev):

   -66.1682 -66.1682 -66.1682 -66.1682 -66.1673 -66.1673 -66.1673 -66.1673
   -30.5392 -30.5392 -30.5392 -30.5392 -30.5192 -30.5192 -30.5192 -30.5192
   -30.5126 -30.5126 -30.5126 -30.5126 -30.4809 -30.4809 -30.4809 -30.4809
   -30.4704 -30.4704 -30.4704 -30.4704 -30.4253 -30.4253 -30.4253 -30.4253
   -20.3275 -20.3275 -20.3275 -20.3275 -20.3274 -20.3274 -20.3274 -20.3274
   -20.3086 -20.3086 -20.3086 -20.3086 -20.3081 -20.3081 -20.3081 -20.3081
   -20.3023 -20.3023 -20.3023 -20.3023 -20.3020 -20.3020 -20.3020 -20.3020
   -20.2985 -20.2985 -20.2985 -20.2985 -20.2982 -20.2982 -20.2982 -20.2982
   -20.2962 -20.2962 -20.2962 -20.2962 -20.2902 -20.2902 -20.2902 -20.2902
   -20.2884 -20.2884 -20.2884 -20.2884 -20.2875 -20.2875 -20.2875 -20.2875
   -20.2788 -20.2788 -20.2788 -20.2788 -20.2768 -20.2768 -20.2768 -20.2768
    -9.4699  -9.4699  -9.4699  -9.4699  -8.7479  -8.7479  -8.7479  -8.7479
    -8.6313  -8.6313  -8.6312  -8.6312  -8.4383  -8.4383  -8.4383  -8.4383
    -8.3774  -8.3774  -8.3774  -8.3774  -7.7570  -7.7570  -7.7570  -7.7570
     1.3737   1.3737   1.3737   1.3737   2.9377   2.9377   2.9377   2.9377
     3.0351   3.0351   3.0351   3.0352   3.1517   3.1517   3.1517   3.1517
     3.2571   3.2571   3.2571   3.2571   3.4879   3.4879   3.4879   3.4879
     3.6333   3.6333   3.6333   3.6333   4.2751   4.2751   4.2751   4.2751
     4.3672   4.3672   4.3672   4.3672   5.1350   5.1350   5.1350   5.1350
     5.4808   5.4808   5.4808   5.4808   6.1407   6.1407   6.1407   6.1407
     6.4418   6.4418   6.4418   6.4418   6.5366   6.5366   6.5366   6.5366
     7.2759   7.2759   7.2759   7.2759   7.3510   7.3510   7.3510   7.3510
     7.4415   7.4415   7.4415   7.4415   7.5890   7.5890   7.5890   7.5890
    11.2166  11.2166  11.2166  11.2166  11.4450  11.4450  11.4450  11.4450
    12.1219  12.1219  12.1219  12.1219  12.2015  12.2015  12.2015  12.2015
    12.8627  12.8627  12.8627  12.8627  13.3445  13.3445  13.3445  13.3445
    15.4144  15.4144  15.4144  15.4144  16.8229  16.8229  16.8229  16.8229
    17.4262  17.4265  17.4265  17.4266  17.5562

          k = 0.1667 0.0000 0.0000 ( 62423 PWs)   bands (ev):

   -66.1688 -66.1682 -66.1680 -66.1680 -66.1674 -66.1674 -66.1673 -66.1667
   -30.5637 -30.5567 -30.5560 -30.5470 -30.5401 -30.5356 -30.5355 -30.5272
   -30.5231 -30.5198 -30.5112 -30.5009 -30.4824 -30.4790 -30.4763 -30.4592
   -30.4494 -30.4484 -30.4378 -30.4374 -30.4321 -30.4269 -30.4250 -30.4162
   -20.3279 -20.3278 -20.3276 -20.3274 -20.3274 -20.3274 -20.3270 -20.3270
   -20.3091 -20.3087 -20.3086 -20.3086 -20.3083 -20.3081 -20.3080 -20.3076
   -20.3029 -20.3028 -20.3027 -20.3025 -20.3022 -20.3021 -20.3020 -20.3019
   -20.3012 -20.3009 -20.3003 -20.2999 -20.2970 -20.2964 -20.2964 -20.2960
   -20.2959 -20.2957 -20.2949 -20.2946 -20.2914 -20.2913 -20.2911 -20.2906
   -20.2905 -20.2904 -20.2898 -20.2892 -20.2855 -20.2855 -20.2846 -20.2846
   -20.2793 -20.2792 -20.2781 -20.2779 -20.2777 -20.2775 -20.2765 -20.2763
    -9.9271  -9.5976  -9.5784  -9.5182  -9.2819  -9.1795  -9.1518  -8.9971
    -8.9531  -8.9295  -8.9276  -8.8834  -7.9761  -7.9049  -7.8817  -7.8390
    -7.8158  -7.8013  -7.7813  -7.7701  -7.7584  -7.7386  -7.7183  -7.6914
     1.2532   1.2580   1.2587   1.2835   1.3801   1.3926   1.4621   1.5207
     1.6088   1.7325   1.7622   1.9336   2.4990   2.5586   2.5788   2.6214
     2.6886   2.7145   4.0731   4.2177   4.2638   4.3712   4.3851   4.4401
     4.5658   4.6520   4.6573   4.6948   4.7417   4.9515   5.1842   5.3431
     5.3473   5.3793   5.4697   5.5088   5.5352   5.6052   5.6481   5.6747
     5.7257   5.7629   5.8553   5.9055   5.9238   6.0013   6.0371   6.0618
     6.2258   6.3617   6.3872   6.4265   6.5905   6.6906   6.8054   6.8187
     6.8407   6.8601   6.8755   6.8783   6.8827   6.9394   6.9909   7.0073
     7.0393   7.0487   7.8654   7.8698   7.9129   7.9555   8.1303   8.1591
     9.8090   9.8278   9.8891   9.8987  10.1149  10.1702  12.1310  12.3028
    12.4103  12.4338  12.4870  12.5279  12.5776  12.6161  12.7472  12.8560
    12.9420  13.1596  13.2874  13.3059  13.5679  13.5963  14.0151  14.0206
    14.5307  14.5608  14.8469  14.9771  15.1803  15.2023  15.6362  15.7909
    16.2550  16.6507  16.9619  17.2095  17.4401

          k = 0.1667 0.0000 0.1658 ( 62447 PWs)   bands (ev):

   -66.1687 -66.1682 -66.1681 -66.1680 -66.1675 -66.1674 -66.1673 -66.1667
   -30.5628 -30.5564 -30.5555 -30.5474 -30.5349 -30.5321 -30.5305 -30.5267
   -30.5234 -30.5152 -30.5118 -30.4988 -30.4835 -30.4787 -30.4785 -30.4585
   -30.4532 -30.4521 -30.4432 -30.4371 -30.4357 -30.4274 -30.4264 -30.4178
   -20.3279 -20.3278 -20.3275 -20.3275 -20.3274 -20.3274 -20.3271 -20.3270
   -20.3090 -20.3086 -20.3086 -20.3086 -20.3083 -20.3081 -20.3080 -20.3077
   -20.3029 -20.3027 -20.3027 -20.3025 -20.3022 -20.3022 -20.3021 -20.3019
   -20.3011 -20.3007 -20.3003 -20.2999 -20.2969 -20.2964 -20.2963 -20.2960
   -20.2960 -20.2956 -20.2950 -20.2946 -20.2913 -20.2910 -20.2909 -20.2906
   -20.2902 -20.2902 -20.2897 -20.2890 -20.2859 -20.2859 -20.2850 -20.2850
   -20.2793 -20.2791 -20.2782 -20.2780 -20.2776 -20.2774 -20.2765 -20.2763
    -9.8821  -9.5395  -9.5324  -9.5224  -9.1962  -9.1880  -9.1632  -8.9539
    -8.9268  -8.9218  -8.8955  -8.8866  -7.9901  -7.9512  -7.8935  -7.8933
    -7.8884  -7.8677  -7.8471  -7.8073  -7.7988  -7.7614  -7.7466  -7.7213
     1.3559   1.3818   1.3852   1.4560   1.4587   1.4694   1.5398   1.6099
     1.6592   1.7334   1.8226   1.9986   2.5839   2.5891   2.6345   2.7062
     2.7135   2.7746   4.0634   4.1167   4.2822   4.3212   4.4045   4.4109
     4.4429   4.4450   4.5024   4.5955   4.6829   4.7888   5.1596   5.1646
     5.2583   5.2819   5.3298   5.4544   5.4699   5.5194   5.6206   5.6586
     5.6650   5.7578   5.7615   5.8228   5.9233   6.0478   6.0823   6.1147
     6.2665   6.4598   6.5552   6.5580   6.5966   6.6867   6.7103   6.7180
     6.7563   6.7667   6.8261   6.8292   6.8799   6.8846   6.9148   6.9876
     7.0707   7.1032   7.8536   7.8584   7.9124   7.9525   8.0775   8.1089
     9.9730   9.9979  10.0927  10.1449  10.1792  10.2846  12.1656  12.3281
    12.3342  12.3938  12.4791  12.5047  12.5717  12.6753  12.7360  12.7441
    12.9403  13.0222  13.3116  13.3178  13.5939  13.6053  13.8838  13.9086
    14.6085  14.6773  14.8468  15.1004  15.2784  15.2955  15.6184  16.1023
    16.2243  16.8122  16.8998  17.1241  17.5229

          k = 0.1667 0.0000 0.3317 ( 62424 PWs)   bands (ev):

   -66.1686 -66.1682 -66.1680 -66.1678 -66.1676 -66.1675 -66.1673 -66.1669
   -30.5609 -30.5575 -30.5530 -30.5487 -30.5267 -30.5246 -30.5240 -30.5201
   -30.5164 -30.5137 -30.5020 -30.4910 -30.4878 -30.4868 -30.4767 -30.4643
   -30.4632 -30.4574 -30.4561 -30.4441 -30.4360 -30.4314 -30.4253 -30.4208
   -20.3278 -20.3277 -20.3276 -20.3275 -20.3274 -20.3273 -20.3272 -20.3271
   -20.3089 -20.3087 -20.3085 -20.3085 -20.3082 -20.3082 -20.3082 -20.3078
   -20.3028 -20.3027 -20.3026 -20.3024 -20.3024 -20.3023 -20.3023 -20.3020
   -20.3008 -20.3005 -20.3004 -20.3000 -20.2967 -20.2964 -20.2960 -20.2960
   -20.2960 -20.2953 -20.2952 -20.2947 -20.2910 -20.2908 -20.2905 -20.2902
   -20.2899 -20.2894 -20.2890 -20.2884 -20.2870 -20.2869 -20.2862 -20.2860
   -20.2791 -20.2789 -20.2784 -20.2783 -20.2774 -20.2772 -20.2768 -20.2766
    -9.7734  -9.5777  -9.4018  -9.3933  -9.2170  -9.2003  -8.9521  -8.9188
    -8.8958  -8.8120  -8.8042  -8.7747  -8.2296  -8.2271  -8.1818  -8.1725
    -7.9312  -7.8954  -7.8730  -7.8329  -7.7947  -7.7711  -7.7497  -7.7294
     1.3671   1.3788   1.4324   1.4514   1.6148   1.6160   1.6920   1.7329
     2.2331   2.3030   2.3421   2.4530   2.6084   2.6785   2.8325   2.8888
     2.9585   3.0055   3.7168   3.8553   3.8910   3.9409   4.0151   4.2679
     4.2808   4.4061   4.4109   4.4994   4.6149   4.7119   4.7372   4.8270
     4.9131   5.0003   5.1155   5.1646   5.1994   5.3377   5.5023   5.6635
     5.6794   5.7724   5.8074   5.8736   5.8933   5.9124   5.9924   6.0905
     6.3491   6.3694   6.4365   6.5005   6.5598   6.5719   6.6727   6.7506
     6.7965   6.8395   6.8507   6.8764   6.9488   6.9948   7.1322   7.1453
     7.1921   7.2518   7.7576   7.7637   7.8874   7.9396   7.9460   7.9531
    10.0705  10.0707  10.6072  10.6890  10.7536  10.8564  11.9547  12.0127
    12.1416  12.2533  12.2870  12.3735  12.6305  12.6984  12.7452  12.8209
    12.8778  13.0164  13.1894  13.2372  13.5172  13.5714  13.6128  13.6649
    14.7341  14.8389  15.0304  15.3812  15.5271  15.5980  15.8134  16.1341
    16.3599  16.9873  17.2896  17.4006  17.5785

          k = 0.1667 0.0000-0.4975 ( 62380 PWs)   bands (ev):

   -66.1684 -66.1684 -66.1678 -66.1678 -66.1677 -66.1676 -66.1671 -66.1671
   -30.5590 -30.5590 -30.5506 -30.5506 -30.5254 -30.5254 -30.5177 -30.5177
   -30.5022 -30.5022 -30.4993 -30.4993 -30.4831 -30.4831 -30.4757 -30.4757
   -30.4724 -30.4724 -30.4516 -30.4516 -30.4342 -30.4342 -30.4235 -30.4235
   -20.3277 -20.3277 -20.3276 -20.3276 -20.3273 -20.3273 -20.3272 -20.3272
   -20.3088 -20.3088 -20.3084 -20.3084 -20.3083 -20.3083 -20.3080 -20.3080
   -20.3027 -20.3027 -20.3025 -20.3025 -20.3025 -20.3025 -20.3022 -20.3022
   -20.3006 -20.3006 -20.3002 -20.3002 -20.2965 -20.2965 -20.2961 -20.2961
   -20.2956 -20.2956 -20.2950 -20.2950 -20.2909 -20.2909 -20.2903 -20.2903
   -20.2885 -20.2885 -20.2882 -20.2882 -20.2877 -20.2877 -20.2873 -20.2873
   -20.2788 -20.2788 -20.2786 -20.2786 -20.2771 -20.2771 -20.2769 -20.2769
    -9.6592  -9.6592  -9.2795  -9.2795  -9.2747  -9.2747  -8.9074  -8.9074
    -8.5999  -8.5999  -8.5639  -8.5639  -8.5451  -8.5451  -8.5134  -8.5134
    -7.9149  -7.9149  -7.8536  -7.8536  -7.7837  -7.7837  -7.7401  -7.7401
     1.3718   1.3718   1.4435   1.4435   1.6241   1.6241   1.7307   1.7307
     2.6295   2.6295   3.0330   3.0330   3.0667   3.0667   3.1502   3.1502
     3.1789   3.1789   3.3218   3.3218   3.5695   3.5695   3.7159   3.7159
     3.7507   3.7507   4.3229   4.3229   4.5476   4.5476   4.9188   4.9188
     4.9485   4.9485   5.0056   5.0056   5.1515   5.1516   5.6036   5.6036
     5.7152   5.7152   5.7544   5.7544   5.8988   5.8988   6.0471   6.0471
     6.2883   6.2883   6.4686   6.4686   6.4868   6.4868   6.7712   6.7712
     6.8014   6.8014   6.8704   6.8704   6.9205   6.9205   7.5034   7.5035
     7.5253   7.5253   7.5928   7.5928   7.6561   7.6561   7.9431   7.9431
    10.0776  10.0776  11.3068  11.3068  11.3868  11.3868  11.4897  11.4897
    11.5977  11.5977  12.3493  12.3493  12.7612  12.7612  12.8612  12.8612
    12.9683  12.9683  13.2021  13.2021  13.2499  13.2499  13.6024  13.6024
    14.8088  14.8088  15.3426  15.3426  15.8057  15.8057  15.9317  15.9317
    16.6710  16.6710  17.7949  17.7949  17.9789

          k = 0.1667 0.1624 0.0000 ( 62454 PWs)   bands (ev):

   -66.1688 -66.1682 -66.1680 -66.1680 -66.1675 -66.1675 -66.1672 -66.1667
   -30.5602 -30.5533 -30.5522 -30.5425 -30.5401 -30.5358 -30.5355 -30.5282
   -30.5240 -30.5189 -30.5101 -30.4994 -30.4863 -30.4827 -30.4792 -30.4632
   -30.4493 -30.4484 -30.4379 -30.4370 -30.4333 -30.4281 -30.4247 -30.4173
   -20.3279 -20.3278 -20.3276 -20.3275 -20.3274 -20.3273 -20.3271 -20.3270
   -20.3090 -20.3087 -20.3086 -20.3085 -20.3084 -20.3080 -20.3080 -20.3077
   -20.3027 -20.3027 -20.3026 -20.3025 -20.3021 -20.3020 -20.3019 -20.3018
   -20.3011 -20.3007 -20.3001 -20.2997 -20.2973 -20.2968 -20.2964 -20.2960
   -20.2960 -20.2958 -20.2952 -20.2948 -20.2914 -20.2913 -20.2911 -20.2907
   -20.2905 -20.2903 -20.2898 -20.2893 -20.2855 -20.2855 -20.2846 -20.2846
   -20.2793 -20.2792 -20.2781 -20.2779 -20.2777 -20.2775 -20.2764 -20.2763
    -9.8918  -9.6100  -9.5376  -9.4692  -9.2897  -9.1612  -9.0995  -8.9881
    -8.9551  -8.8897  -8.8868  -8.8498  -8.0014  -7.9265  -7.9122  -7.8949
    -7.8740  -7.8542  -7.8280  -7.8111  -7.8014  -7.7794  -7.7365  -7.7037
     1.2586   1.2673   1.2811   1.2844   1.5205   1.5323   1.6057   1.6903
     1.7308   1.7694   1.8488   2.0243   2.5103   2.6035   2.6421   2.6681
     2.7724   2.7873   3.9611   4.0524   4.1577   4.2758   4.2930   4.3679
     4.4499   4.5718   4.6213   4.6989   4.8073   4.8929   5.0150   5.2416
     5.2827   5.3130   5.3916   5.4121   5.4810   5.5400   5.6002   5.7197
     5.7260   5.7325   5.8855   5.9073   5.9244   6.0042   6.0256   6.0415
     6.2049   6.3402   6.3935   6.4116   6.6480   6.6838   6.7072   6.7681
     6.8003   6.8388   6.9089   6.9105   6.9357   6.9498   6.9938   7.0116
     7.0509   7.0656   7.8523   7.8631   7.9041   7.9391   8.0757   8.0845
     9.8346   9.8411  10.0619  10.0748  10.3054  10.3394  12.0734  12.3301
    12.3887  12.4089  12.4277  12.4755  12.5242  12.5580  12.5987  12.8452
    12.9292  13.1258  13.2732  13.3060  13.5834  13.6224  13.9115  13.9142
    14.7497  14.7611  15.0003  15.1045  15.1951  15.1987  15.7523  16.0489
    16.2209  16.6968  16.8051  17.3226  17.5021

          k = 0.1667 0.1624 0.1658 ( 62465 PWs)   bands (ev):

   -66.1687 -66.1682 -66.1680 -66.1679 -66.1675 -66.1674 -66.1673 -66.1668
   -30.5592 -30.5527 -30.5517 -30.5429 -30.5349 -30.5322 -30.5306 -30.5278
   -30.5243 -30.5146 -30.5107 -30.4974 -30.4873 -30.4823 -30.4810 -30.4624
   -30.4532 -30.4521 -30.4431 -30.4373 -30.4365 -30.4278 -30.4270 -30.4189
   -20.3279 -20.3278 -20.3275 -20.3274 -20.3274 -20.3273 -20.3271 -20.3270
   -20.3090 -20.3086 -20.3086 -20.3085 -20.3083 -20.3081 -20.3081 -20.3077
   -20.3027 -20.3027 -20.3026 -20.3024 -20.3022 -20.3021 -20.3020 -20.3019
   -20.3009 -20.3006 -20.3001 -20.2997 -20.2972 -20.2967 -20.2964 -20.2960
   -20.2960 -20.2957 -20.2953 -20.2949 -20.2913 -20.2910 -20.2909 -20.2906
   -20.2904 -20.2902 -20.2897 -20.2891 -20.2859 -20.2859 -20.2850 -20.2850
   -20.2793 -20.2791 -20.2782 -20.2780 -20.2776 -20.2774 -20.2765 -20.2764
    -9.8450  -9.5520  -9.4839  -9.4767  -9.2040  -9.1728  -9.1081  -8.9485
    -8.9235  -8.8849  -8.8598  -8.8528  -8.0152  -7.9511  -7.9311  -7.9157
    -7.8931  -7.8891  -7.8807  -7.8592  -7.8516  -7.8215  -7.8067  -7.7978
     1.4489   1.4646   1.4907   1.5196   1.5385   1.5445   1.6103   1.6886
     1.7825   1.8247   1.8476   2.0740   2.5967   2.6620   2.7039   2.7201
     2.7866   2.8555   3.9697   4.0389   4.1524   4.2401   4.3135   4.3684
     4.4021   4.4263   4.4851   4.5436   4.6045   4.7039   5.0008   5.0917
     5.1853   5.2398   5.3121   5.3454   5.4091   5.4226   5.4361   5.5950
     5.6711   5.7318   5.8258   5.8878   5.9051   5.9564   6.0625   6.1079
     6.3036   6.3739   6.5024   6.5828   6.6369   6.6576   6.6622   6.7163
     6.7554   6.8077   6.8458   6.8675   6.8998   6.9405   6.9635   6.9974
     7.0811   7.1095   7.8414   7.8572   7.8929   7.9314   8.0260   8.0417
    10.0376  10.0569  10.2475  10.2778  10.3304  10.4144  12.1212  12.3254
    12.3555  12.3884  12.4374  12.4584  12.5201  12.5846  12.5968  12.7666
    12.8881  12.9643  13.2904  13.3123  13.5712  13.6396  13.7742  13.8121
    14.8271  14.9289  15.0197  15.2030  15.2861  15.2991  15.9931  16.1004
    16.1921  16.8243  16.9423  17.0288  17.5773

          k = 0.1667 0.1624 0.3317 ( 62458 PWs)   bands (ev):

   -66.1686 -66.1682 -66.1681 -66.1678 -66.1677 -66.1674 -66.1673 -66.1669
   -30.5572 -30.5537 -30.5489 -30.5442 -30.5274 -30.5251 -30.5241 -30.5207
   -30.5169 -30.5128 -30.5017 -30.4911 -30.4899 -30.4888 -30.4798 -30.4644
   -30.4638 -30.4598 -30.4573 -30.4464 -30.4356 -30.4310 -30.4266 -30.4220
   -20.3278 -20.3277 -20.3275 -20.3274 -20.3274 -20.3273 -20.3272 -20.3271
   -20.3089 -20.3086 -20.3085 -20.3085 -20.3082 -20.3082 -20.3082 -20.3078
   -20.3027 -20.3026 -20.3025 -20.3023 -20.3023 -20.3023 -20.3022 -20.3020
   -20.3006 -20.3003 -20.3002 -20.2998 -20.2969 -20.2965 -20.2963 -20.2961
   -20.2960 -20.2957 -20.2953 -20.2950 -20.2910 -20.2908 -20.2905 -20.2902
   -20.2899 -20.2895 -20.2890 -20.2885 -20.2870 -20.2869 -20.2862 -20.2861
   -20.2791 -20.2789 -20.2784 -20.2783 -20.2774 -20.2772 -20.2768 -20.2766
    -9.7319  -9.5298  -9.4146  -9.3333  -9.2106  -9.1380  -8.9603  -8.8867
    -8.8617  -8.8061  -8.8008  -8.7535  -8.2351  -8.2271  -8.1926  -8.1696
    -7.9540  -7.9314  -7.8874  -7.8778  -7.8557  -7.8490  -7.8362  -7.8159
     1.5157   1.5227   1.6082   1.6119   1.6619   1.6815   1.7743   1.8429
     2.2332   2.3089   2.3428   2.4667   2.6862   2.7518   2.8542   2.9527
     2.9667   3.0796   3.7289   3.8687   3.8802   3.9043   4.0713   4.1533
     4.2424   4.3271   4.3696   4.4321   4.4778   4.6399   4.6669   4.7596
     4.8162   4.8791   4.9683   5.0826   5.0976   5.2144   5.4382   5.4687
     5.6211   5.7051   5.7539   5.8374   5.8511   5.8894   5.9537   5.9732
     6.3062   6.4434   6.5231   6.5948   6.6357   6.6551   6.6851   6.7161
     6.7782   6.8367   6.8919   6.9460   6.9679   7.0311   7.1321   7.1552
     7.1977   7.2547   7.7580   7.7600   7.8520   7.8937   7.9163   7.9182
    10.2583  10.2714  10.6322  10.6995  10.8507  10.9331  11.9593  12.0113
    12.1679  12.2528  12.3209  12.4117  12.5743  12.5896  12.6691  12.7157
    12.7481  12.9426  13.1643  13.2288  13.4334  13.4523  13.6113  13.6314
    14.9460  15.0076  15.3593  15.4772  15.5903  15.8265  15.9324  16.1076
    16.4714  16.9686  17.2331  17.3644  17.4715

          k = 0.1667 0.1624-0.4975 ( 62434 PWs)   bands (ev):

   -66.1684 -66.1684 -66.1679 -66.1679 -66.1676 -66.1676 -66.1671 -66.1671
   -30.5553 -30.5553 -30.5462 -30.5462 -30.5262 -30.5262 -30.5170 -30.5170
   -30.5032 -30.5032 -30.5008 -30.5008 -30.4831 -30.4831 -30.4753 -30.4753
   -30.4745 -30.4745 -30.4548 -30.4548 -30.4338 -30.4338 -30.4247 -30.4247
   -20.3276 -20.3276 -20.3276 -20.3276 -20.3273 -20.3273 -20.3272 -20.3272
   -20.3088 -20.3088 -20.3084 -20.3084 -20.3083 -20.3083 -20.3080 -20.3080
   -20.3025 -20.3025 -20.3024 -20.3024 -20.3024 -20.3024 -20.3022 -20.3022
   -20.3004 -20.3004 -20.3000 -20.3000 -20.2967 -20.2967 -20.2961 -20.2961
   -20.2959 -20.2959 -20.2951 -20.2951 -20.2908 -20.2908 -20.2903 -20.2903
   -20.2885 -20.2885 -20.2882 -20.2882 -20.2877 -20.2877 -20.2874 -20.2874
   -20.2788 -20.2787 -20.2786 -20.2786 -20.2771 -20.2771 -20.2769 -20.2769
    -9.6135  -9.6135  -9.2865  -9.2865  -9.2053  -9.2053  -8.8731  -8.8731
    -8.6074  -8.6074  -8.5641  -8.5641  -8.5440  -8.5440  -8.5072  -8.5072
    -7.9451  -7.9451  -7.8731  -7.8731  -7.8599  -7.8599  -7.8309  -7.8309
     1.5188   1.5189   1.6184   1.6184   1.6769   1.6769   1.8329   1.8329
     2.7032   2.7032   3.0472   3.0472   3.0893   3.0893   3.1479   3.1479
     3.1788   3.1788   3.3597   3.3597   3.5598   3.5598   3.7536   3.7536
     3.7909   3.7909   4.2896   4.2896   4.3492   4.3492   4.7329   4.7329
     4.8384   4.8384   4.9533   4.9533   5.0185   5.0185   5.5161   5.5161
     5.5990   5.5990   5.7067   5.7067   5.8104   5.8104   5.9260   5.9260
     6.4156   6.4156   6.5486   6.5486   6.6209   6.6209   6.7235   6.7235
     6.7973   6.7973   6.8886   6.8886   6.9917   6.9917   7.5054   7.5054
     7.5223   7.5223   7.5761   7.5761   7.6322   7.6322   7.9125   7.9125
    10.2774  10.2774  11.3172  11.3172  11.3893  11.3893  11.5526  11.5526
    11.6497  11.6497  12.3809  12.3810  12.6024  12.6024  12.8320  12.8320
    12.9360  12.9360  13.0720  13.0720  13.1752  13.1752  13.5893  13.5893
    14.9920  14.9920  15.7058  15.7058  15.8703  15.8703  15.9610  15.9610
    16.7261  16.7261  17.6763  17.6763  17.8996

          k = 0.1667 0.3248 0.0000 ( 62498 PWs)   bands (ev):

   -66.1687 -66.1684 -66.1679 -66.1679 -66.1676 -66.1676 -66.1671 -66.1668
   -30.5517 -30.5454 -30.5428 -30.5403 -30.5364 -30.5357 -30.5312 -30.5300
   -30.5269 -30.5151 -30.5061 -30.4975 -30.4945 -30.4928 -30.4874 -30.4734
   -30.4491 -30.4486 -30.4377 -30.4357 -30.4355 -30.4308 -30.4238 -30.4197
   -20.3278 -20.3277 -20.3276 -20.3275 -20.3273 -20.3272 -20.3271 -20.3270
   -20.3090 -20.3088 -20.3086 -20.3084 -20.3084 -20.3081 -20.3080 -20.3077
   -20.3026 -20.3025 -20.3024 -20.3023 -20.3020 -20.3019 -20.3017 -20.3017
   -20.3004 -20.3001 -20.2993 -20.2990 -20.2981 -20.2977 -20.2969 -20.2965
   -20.2961 -20.2959 -20.2957 -20.2953 -20.2913 -20.2913 -20.2912 -20.2909
   -20.2904 -20.2903 -20.2898 -20.2895 -20.2855 -20.2855 -20.2846 -20.2846
   -20.2793 -20.2792 -20.2781 -20.2780 -20.2776 -20.2775 -20.2764 -20.2763
    -9.8068  -9.6487  -9.4467  -9.3563  -9.3149  -9.1916  -8.9773  -8.9605
    -8.8734  -8.7467  -8.7462  -8.7282  -8.2193  -8.1731  -8.1622  -8.1422
    -7.9305  -7.9106  -7.8451  -7.8240  -7.8060  -7.7878  -7.7308  -7.7139
     1.2609   1.2679   1.2869   1.2906   1.5964   1.6079   1.7108   1.7573
     2.2779   2.3631   2.4294   2.5141   2.5500   2.5853   2.8946   2.9159
     3.0003   3.0386   3.5828   3.5903   3.7861   3.8098   4.0605   4.3012
     4.3497   4.4406   4.5262   4.5777   4.6660   4.7673   4.8447   4.8751
     4.9642   4.9879   5.2020   5.2849   5.2968   5.4595   5.5333   5.6201
     5.6816   5.7410   5.8124   5.8900   5.9593   5.9798   6.0383   6.0679
     6.1825   6.2990   6.3736   6.4644   6.5663   6.7416   6.7611   6.8349
     6.8788   6.9188   6.9215   6.9475   6.9943   7.0177   7.1042   7.1231
     7.1576   7.1841   7.7382   7.7702   7.8512   7.8845   7.9043   7.9109
     9.8535   9.8545  10.5341  10.5874  10.8128  10.8243  11.7548  11.9442
    12.0703  12.1161  12.3875  12.4024  12.4996  12.5149  12.6428  12.8362
    12.9906  13.1649  13.2276  13.2740  13.4326  13.5674  13.6509  13.6883
    15.1369  15.1414  15.2131  15.2146  15.4946  15.6914  15.6972  16.1123
    16.1882  17.0056  17.2085  17.3554  17.7899

          k = 0.1667 0.3248 0.1658 ( 62478 PWs)   bands (ev):

   -66.1686 -66.1683 -66.1679 -66.1678 -66.1676 -66.1675 -66.1672 -66.1669
   -30.5503 -30.5438 -30.5425 -30.5354 -30.5329 -30.5316 -30.5308 -30.5302
   -30.5271 -30.5118 -30.5068 -30.4982 -30.4928 -30.4920 -30.4888 -30.4725
   -30.4530 -30.4524 -30.4429 -30.4400 -30.4353 -30.4305 -30.4259 -30.4215
   -20.3278 -20.3277 -20.3276 -20.3275 -20.3273 -20.3273 -20.3272 -20.3271
   -20.3089 -20.3087 -20.3085 -20.3084 -20.3084 -20.3082 -20.3080 -20.3078
   -20.3026 -20.3025 -20.3023 -20.3023 -20.3021 -20.3020 -20.3018 -20.3018
   -20.3003 -20.2999 -20.2993 -20.2990 -20.2980 -20.2976 -20.2969 -20.2965
   -20.2961 -20.2959 -20.2957 -20.2954 -20.2912 -20.2910 -20.2909 -20.2906
   -20.2904 -20.2902 -20.2897 -20.2893 -20.2859 -20.2859 -20.2850 -20.2850
   -20.2792 -20.2792 -20.2782 -20.2781 -20.2776 -20.2775 -20.2765 -20.2764
    -9.7558  -9.5915  -9.3748  -9.3703  -9.2300  -9.2040  -8.9423  -8.9286
    -8.8820  -8.7410  -8.7333  -8.7294  -8.2229  -8.1789  -8.1621  -8.1483
    -7.9466  -7.9404  -7.8918  -7.8881  -7.8677  -7.8473  -7.8287  -7.8097
     1.4533   1.4617   1.5382   1.5410   1.6011   1.6127   1.7596   1.8184
     2.2837   2.3654   2.4243   2.5273   2.6258   2.6758   2.9013   2.9888
     3.0026   3.1163   3.5991   3.6583   3.7873   3.8034   4.0432   4.3110
     4.3291   4.3789   4.4297   4.4543   4.5614   4.6708   4.7591   4.7714
     4.8294   4.8857   5.0781   5.1109   5.2968   5.3075   5.3462   5.3998
     5.6531   5.6761   5.6905   5.7158   5.8269   5.8414   6.0795   6.0882
     6.3418   6.4305   6.5024   6.5870   6.6667   6.7028   6.7171   6.7737
     6.8344   6.8739   6.9536   6.9722   7.0236   7.0285   7.1088   7.1178
     7.1808   7.1888   7.7406   7.7653   7.8226   7.8529   7.8769   7.8897
    10.0782  10.0819  10.6938  10.7263  10.8199  10.8570  11.8321  12.0091
    12.0748  12.1139  12.3935  12.4144  12.4229  12.4600  12.6810  12.8402
    12.8969  12.9872  13.1987  13.2591  13.3759  13.4977  13.5813  13.6266
    15.2344  15.2433  15.3396  15.4477  15.5116  15.7564  16.0045  16.0907
    16.3211  16.9756  17.2739  17.3946  17.4336

          k = 0.1667 0.3248 0.3317 ( 62466 PWs)   bands (ev):

   -66.1685 -66.1682 -66.1681 -66.1678 -66.1677 -66.1674 -66.1673 -66.1670
   -30.5478 -30.5444 -30.5383 -30.5322 -30.5303 -30.5281 -30.5236 -30.5220
   -30.5192 -30.5096 -30.5008 -30.5004 -30.4949 -30.4879 -30.4865 -30.4693
   -30.4646 -30.4644 -30.4566 -30.4510 -30.4343 -30.4297 -30.4293 -30.4248
   -20.3277 -20.3276 -20.3275 -20.3274 -20.3274 -20.3274 -20.3272 -20.3272
   -20.3088 -20.3086 -20.3086 -20.3084 -20.3083 -20.3082 -20.3081 -20.3079
   -20.3025 -20.3025 -20.3023 -20.3023 -20.3022 -20.3021 -20.3019 -20.3019
   -20.3000 -20.2997 -20.2995 -20.2992 -20.2977 -20.2973 -20.2971 -20.2967
   -20.2960 -20.2959 -20.2956 -20.2954 -20.2909 -20.2907 -20.2905 -20.2903
   -20.2898 -20.2896 -20.2890 -20.2887 -20.2870 -20.2869 -20.2862 -20.2861
   -20.2790 -20.2789 -20.2784 -20.2783 -20.2773 -20.2772 -20.2767 -20.2766
    -9.6323  -9.4551  -9.4176  -9.2443  -9.1884  -8.9891  -8.9154  -8.8367
    -8.8115  -8.7416  -8.7108  -8.6672  -8.3070  -8.2622  -8.2195  -8.1757
    -8.1612  -8.1544  -8.1195  -8.0656  -7.9010  -7.8789  -7.8580  -7.8365
     1.5964   1.6036   1.6158   1.6188   2.1290   2.1780   2.2318   2.2989
     2.3417   2.4190   2.4503   2.6242   2.8688   2.8929   2.9488   2.9925
     3.2168   3.3144   3.6337   3.6833   3.7668   3.8062   3.8447   3.9195
     4.0388   4.1890   4.2351   4.2864   4.3683   4.4523   4.5506   4.6355
     4.6693   4.7494   4.8226   4.8571   4.9038   4.9413   5.0436   5.2110
     5.2857   5.3382   5.3620   5.6305   5.7022   5.8299   5.9342   5.9621
     6.4724   6.5369   6.5702   6.6810   6.7271   6.7550   6.8392   6.8586
     6.9340   6.9924   7.0184   7.0497   7.0939   7.1484   7.1659   7.2045
     7.2506   7.2716   7.7162   7.7183   7.7271   7.7714   7.7823   7.8176
    10.6074  10.6343  10.8141  10.8690  11.1483  11.2299  11.9431  11.9779
    12.0645  12.1105  12.1578  12.2517  12.4460  12.4989  12.5176  12.6019
    12.7498  12.8860  12.9949  13.1406  13.1794  13.2797  13.4809  13.5037
    15.3271  15.4227  15.5733  15.9159  15.9553  16.0777  16.1001  16.7488
    16.7846  16.8806  16.9303  17.5069  17.6164

          k = 0.1667 0.3248-0.4975 ( 62472 PWs)   bands (ev):

   -66.1683 -66.1683 -66.1680 -66.1680 -66.1675 -66.1675 -66.1672 -66.1672
   -30.5458 -30.5458 -30.5346 -30.5346 -30.5291 -30.5291 -30.5148 -30.5148
   -30.5075 -30.5075 -30.5058 -30.5058 -30.4829 -30.4829 -30.4789 -30.4789
   -30.4735 -30.4735 -30.4622 -30.4622 -30.4325 -30.4325 -30.4275 -30.4275
   -20.3276 -20.3276 -20.3275 -20.3275 -20.3274 -20.3274 -20.3273 -20.3273
   -20.3087 -20.3087 -20.3084 -20.3084 -20.3083 -20.3083 -20.3081 -20.3081
   -20.3024 -20.3024 -20.3023 -20.3023 -20.3022 -20.3022 -20.3021 -20.3021
   -20.2997 -20.2997 -20.2994 -20.2994 -20.2974 -20.2974 -20.2969 -20.2969
   -20.2960 -20.2960 -20.2955 -20.2955 -20.2907 -20.2907 -20.2904 -20.2904
   -20.2884 -20.2884 -20.2883 -20.2883 -20.2876 -20.2876 -20.2875 -20.2875
   -20.2787 -20.2787 -20.2786 -20.2786 -20.2770 -20.2770 -20.2769 -20.2769
    -9.5048  -9.5048  -9.3242  -9.3242  -9.0040  -9.0040  -8.7615  -8.7615
    -8.6416  -8.6416  -8.5723  -8.5723  -8.5299  -8.5299  -8.4800  -8.4800
    -8.1725  -8.1725  -8.1262  -8.1262  -7.8803  -7.8803  -7.8580  -7.8580
     1.6088   1.6088   1.6223   1.6223   2.2816   2.2816   2.3944   2.3944
     2.8997   2.8997   3.0841   3.0841   3.1176   3.1176   3.1556   3.1556
     3.1835   3.1835   3.4606   3.4606   3.5167   3.5167   3.7522   3.7522
     3.9520   3.9520   3.9865   3.9865   4.0303   4.0303   4.2766   4.2766
     4.7052   4.7052   4.8611   4.8611   4.9397   4.9397   4.9992   4.9992
     5.0961   5.0961   5.4541   5.4541   5.7626   5.7626   5.8533   5.8533
     6.5672   6.5672   6.6816   6.6816   6.7180   6.7180   6.7792   6.7792
     7.0215   7.0215   7.0649   7.0649   7.1565   7.1565   7.4980   7.4980
     7.5034   7.5034   7.5125   7.5125   7.5684   7.5684   7.7812   7.7812
    10.7871  10.7871  11.3366  11.3366  11.3986  11.3986  11.7517  11.7517
    11.8419  11.8419  12.1623  12.1623  12.4160  12.4160  12.5938  12.5938
    12.7804  12.7804  12.8863  12.8863  13.1339  13.1339  13.4269  13.4269
    15.3986  15.3986  15.8177  15.8177  16.3393  16.3393  16.6093  16.6093
    16.9277  16.9277  17.3031  17.3032  17.8578

          k = 0.1667-0.4873 0.0000 ( 62536 PWs)   bands (ev):

   -66.1685 -66.1685 -66.1677 -66.1677 -66.1677 -66.1677 -66.1670 -66.1670
   -30.5434 -30.5434 -30.5390 -30.5390 -30.5347 -30.5347 -30.5330 -30.5330
   -30.5135 -30.5135 -30.5056 -30.5056 -30.4981 -30.4981 -30.4854 -30.4854
   -30.4488 -30.4488 -30.4371 -30.4371 -30.4336 -30.4336 -30.4221 -30.4221
   -20.3277 -20.3277 -20.3276 -20.3276 -20.3272 -20.3272 -20.3271 -20.3271
   -20.3089 -20.3088 -20.3085 -20.3085 -20.3083 -20.3083 -20.3079 -20.3079
   -20.3025 -20.3025 -20.3023 -20.3023 -20.3019 -20.3019 -20.3017 -20.3017
   -20.2993 -20.2993 -20.2989 -20.2989 -20.2981 -20.2981 -20.2977 -20.2977
   -20.2959 -20.2959 -20.2957 -20.2957 -20.2912 -20.2912 -20.2912 -20.2912
   -20.2903 -20.2903 -20.2897 -20.2897 -20.2855 -20.2855 -20.2846 -20.2846
   -20.2793 -20.2793 -20.2780 -20.2780 -20.2776 -20.2776 -20.2764 -20.2764
    -9.7161  -9.7161  -9.3649  -9.3649  -9.2531  -9.2531  -8.9683  -8.9683
    -8.5506  -8.5506  -8.5005  -8.5005  -8.4828  -8.4828  -8.4767  -8.4767
    -7.9229  -7.9229  -7.8363  -7.8363  -7.7971  -7.7971  -7.7228  -7.7228
     1.2643   1.2643   1.2897   1.2897   1.6070   1.6070   1.7488   1.7488
     2.5561   2.5561   2.9744   2.9744   3.0817   3.0817   3.1258   3.1259
     3.2592   3.2592   3.3024   3.3024   3.5731   3.5731   3.6613   3.6614
     3.7643   3.7643   4.3655   4.3655   4.5920   4.5920   4.9889   4.9889
     5.0636   5.0636   5.1613   5.1613   5.2739   5.2739   5.5231   5.5231
     5.7227   5.7227   5.7346   5.7346   5.9707   5.9707   6.0561   6.0561
     6.3248   6.3248   6.3519   6.3519   6.6075   6.6075   6.8002   6.8002
     6.9258   6.9258   6.9470   6.9470   7.0232   7.0232   7.4594   7.4594
     7.5021   7.5021   7.5092   7.5092   7.5560   7.5560   7.9005   7.9005
     9.8582   9.8582  11.1646  11.1646  11.2295  11.2295  11.4672  11.4672
    11.5339  11.5339  12.4119  12.4119  12.5088  12.5088  12.7981  12.7981
    13.1081  13.1081  13.2735  13.2735  13.3626  13.3626  13.5396  13.5396
    15.1541  15.1541  15.5314  15.5314  15.6535  15.6535  15.8760  15.8760
    16.5862  16.5862  17.8159  17.8160  17.9679

          k = 0.1667-0.4873 0.1658 ( 62488 PWs)   bands (ev):

   -66.1685 -66.1685 -66.1678 -66.1678 -66.1677 -66.1677 -66.1670 -66.1670
   -30.5406 -30.5406 -30.5355 -30.5351 -30.5333 -30.5330 -30.5325 -30.5325
   -30.5140 -30.5140 -30.5040 -30.5038 -30.4991 -30.4990 -30.4841 -30.4841
   -30.4527 -30.4527 -30.4420 -30.4420 -30.4333 -30.4332 -30.4241 -30.4241
   -20.3277 -20.3277 -20.3276 -20.3276 -20.3272 -20.3272 -20.3272 -20.3272
   -20.3088 -20.3088 -20.3084 -20.3084 -20.3083 -20.3083 -20.3079 -20.3079
   -20.3025 -20.3025 -20.3023 -20.3023 -20.3020 -20.3020 -20.3017 -20.3017
   -20.2992 -20.2992 -20.2988 -20.2988 -20.2982 -20.2981 -20.2978 -20.2978
   -20.2959 -20.2959 -20.2957 -20.2957 -20.2911 -20.2911 -20.2908 -20.2907
   -20.2904 -20.2903 -20.2896 -20.2895 -20.2859 -20.2859 -20.2850 -20.2850
   -20.2792 -20.2792 -20.2781 -20.2781 -20.2775 -20.2775 -20.2765 -20.2764
    -9.6611  -9.6611  -9.2837  -9.2831  -9.2667  -9.2663  -8.9354  -8.9353
    -8.5581  -8.5575  -8.4994  -8.4983  -8.4867  -8.4848  -8.4739  -8.4720
    -7.9453  -7.9441  -7.8921  -7.8918  -7.8604  -7.8596  -7.8201  -7.8198
     1.4553   1.4587   1.5417   1.5436   1.6109   1.6127   1.8070   1.8094
     2.6417   2.6433   2.9915   2.9933   3.0762   3.1034   3.1218   3.1414
     3.2630   3.2829   3.3103   3.3441   3.5833   3.6007   3.6727   3.6827
     3.7860   3.7879   4.3347   4.3657   4.4114   4.4342   4.8375   4.8825
     4.9705   4.9750   4.9961   5.0472   5.0852   5.1186   5.4286   5.4412
     5.4969   5.5029   5.6582   5.6950   5.7538   5.7591   6.0913   6.0945
[...]
    11.4058  11.4058  11.4058  11.4058  11.5891  11.5891  11.5891  11.5891
    12.0797  12.0797  12.0797  12.0797  12.2039  12.2039  12.2039  12.2039
    12.9625  12.9625  12.9625  12.9625  13.1432  13.1432  13.1432  13.1432
    15.4961  15.4961  15.4961  15.4961  16.7855  16.7855  16.7855  16.7855
    17.4953  17.4953  17.4953  17.4953  17.6366

          k =-0.5000 0.3248 0.0000 ( 62512 PWs)   bands (ev):

   -66.1683 -66.1683 -66.1680 -66.1680 -66.1675 -66.1675 -66.1672 -66.1672
   -30.5477 -30.5477 -30.5384 -30.5384 -30.5343 -30.5343 -30.5217 -30.5217
   -30.5058 -30.5058 -30.5054 -30.5054 -30.4766 -30.4766 -30.4727 -30.4727
   -30.4688 -30.4688 -30.4584 -30.4584 -30.4341 -30.4341 -30.4312 -30.4312
   -20.3278 -20.3278 -20.3276 -20.3276 -20.3273 -20.3273 -20.3271 -20.3271
   -20.3088 -20.3088 -20.3086 -20.3086 -20.3082 -20.3082 -20.3079 -20.3079
   -20.3026 -20.3026 -20.3025 -20.3025 -20.3019 -20.3019 -20.3018 -20.3018
   -20.3003 -20.3003 -20.2992 -20.2992 -20.2979 -20.2979 -20.2966 -20.2966
   -20.2934 -20.2934 -20.2934 -20.2934 -20.2930 -20.2930 -20.2928 -20.2928
   -20.2907 -20.2907 -20.2903 -20.2903 -20.2851 -20.2851 -20.2850 -20.2850
   -20.2786 -20.2786 -20.2785 -20.2785 -20.2773 -20.2773 -20.2772 -20.2772
    -9.5775  -9.5775  -9.4255  -9.4255  -9.0003  -9.0003  -8.7926  -8.7926
    -8.6102  -8.6101  -8.5669  -8.5668  -8.5118  -8.5117  -8.4640  -8.4639
    -8.1596  -8.1596  -8.1243  -8.1243  -7.7719  -7.7719  -7.7543  -7.7543
     1.2941   1.2941   1.3003   1.3004   2.2760   2.2760   2.3841   2.3841
     2.9479   2.9479   2.9921   2.9921   3.0523   3.0523   3.1606   3.1606
     3.2206   3.2207   3.4283   3.4283   3.5210   3.5210   3.6629   3.6629
     3.8531   3.8531   3.9395   3.9395   4.2276   4.2276   4.3893   4.3894
     4.8234   4.8234   4.8383   4.8383   5.0867   5.0867   5.1858   5.1859
     5.3532   5.3533   5.7055   5.7055   6.1135   6.1135   6.1234   6.1234
     6.3766   6.3766   6.4542   6.4542   6.5075   6.5075   6.7123   6.7123
     7.0183   7.0183   7.0655   7.0655   7.0907   7.0907   7.4512   7.4513
     7.4737   7.4737   7.5655   7.5655   7.5941   7.5942   7.8752   7.8752
    10.5557  10.5557  11.2488  11.2488  11.3101  11.3101  11.5691  11.5691
    11.8594  11.8594  12.1109  12.1109  12.6065  12.6065  12.6613  12.6613
    12.9191  12.9191  13.0070  13.0071  13.1734  13.1734  13.6372  13.6372
    15.1450  15.1450  15.4588  15.4588  16.2520  16.2521  16.5786  16.5786
    16.7022  16.7022  17.2999  17.2999  17.9031

          k =-0.5000 0.3248 0.1658 ( 62486 PWs)   bands (ev):

   -66.1682 -66.1682 -66.1679 -66.1679 -66.1676 -66.1675 -66.1673 -66.1673
   -30.5455 -30.5455 -30.5349 -30.5349 -30.5334 -30.5334 -30.5184 -30.5184
   -30.5059 -30.5059 -30.5050 -30.5050 -30.4778 -30.4778 -30.4744 -30.4744
   -30.4685 -30.4685 -30.4577 -30.4577 -30.4389 -30.4389 -30.4350 -30.4350
   -20.3277 -20.3277 -20.3276 -20.3275 -20.3273 -20.3273 -20.3271 -20.3271
   -20.3087 -20.3087 -20.3085 -20.3085 -20.3082 -20.3082 -20.3080 -20.3080
   -20.3025 -20.3025 -20.3025 -20.3025 -20.3020 -20.3020 -20.3019 -20.3019
   -20.3002 -20.3002 -20.2993 -20.2993 -20.2978 -20.2978 -20.2967 -20.2967
   -20.2934 -20.2934 -20.2933 -20.2933 -20.2930 -20.2930 -20.2928 -20.2928
   -20.2903 -20.2903 -20.2900 -20.2900 -20.2855 -20.2855 -20.2854 -20.2854
   -20.2785 -20.2785 -20.2784 -20.2784 -20.2774 -20.2774 -20.2773 -20.2773
    -9.5108  -9.5108  -9.3459  -9.3459  -9.0134  -9.0133  -8.7726  -8.7726
    -8.6249  -8.6249  -8.5593  -8.5593  -8.5055  -8.5054  -8.4670  -8.4670
    -8.1579  -8.1579  -8.1292  -8.1292  -7.8887  -7.8887  -7.8697  -7.8697
     1.5465   1.5465   1.5541   1.5541   2.2828   2.2828   2.3774   2.3774
     2.9913   2.9913   3.0303   3.0303   3.0633   3.0633   3.1833   3.1833
     3.2333   3.2333   3.4791   3.4792   3.5645   3.5646   3.7098   3.7098
     3.8461   3.8461   3.9552   3.9552   4.2192   4.2192   4.3753   4.3753
     4.6677   4.6677   4.7957   4.7957   4.9502   4.9502   4.9887   4.9887
     5.0886   5.0887   5.4507   5.4507   5.7479   5.7479   5.8407   5.8407
     6.5820   6.5820   6.7051   6.7051   6.7507   6.7507   6.7885   6.7885
     6.9984   6.9984   7.0724   7.0724   7.1332   7.1333   7.4496   7.4496
     7.4764   7.4765   7.5700   7.5700   7.5915   7.5915   7.8457   7.8458
    10.7138  10.7138  11.3187  11.3187  11.3962  11.3962  11.6082  11.6082
    11.8777  11.8777  12.1501  12.1501  12.5896  12.5896  12.6477  12.6477
    12.8406  12.8406  12.9514  12.9515  13.0341  13.0341  13.5000  13.5000
    15.3977  15.3977  15.7438  15.7438  16.3194  16.3194  16.5740  16.5740
    16.7504  16.7504  17.3422  17.3422  17.7890

          k =-0.5000 0.3248 0.3317 ( 62448 PWs)   bands (ev):

   -66.1681 -66.1681 -66.1678 -66.1678 -66.1677 -66.1677 -66.1674 -66.1674
   -30.5414 -30.5414 -30.5360 -30.5360 -30.5213 -30.5213 -30.5081 -30.5081
   -30.5071 -30.5071 -30.5023 -30.5023 -30.4823 -30.4823 -30.4812 -30.4812
   -30.4664 -30.4664 -30.4557 -30.4557 -30.4502 -30.4502 -30.4437 -30.4437
   -20.3276 -20.3276 -20.3275 -20.3275 -20.3274 -20.3274 -20.3272 -20.3272
   -20.3086 -20.3086 -20.3084 -20.3084 -20.3083 -20.3083 -20.3081 -20.3081
   -20.3025 -20.3024 -20.3024 -20.3024 -20.3021 -20.3021 -20.3021 -20.3021
   -20.2999 -20.2999 -20.2994 -20.2994 -20.2975 -20.2975 -20.2969 -20.2969
   -20.2934 -20.2934 -20.2933 -20.2933 -20.2929 -20.2929 -20.2928 -20.2928
   -20.2894 -20.2894 -20.2892 -20.2892 -20.2866 -20.2866 -20.2865 -20.2865
   -20.2783 -20.2783 -20.2782 -20.2782 -20.2777 -20.2777 -20.2776 -20.2776
    -9.3416  -9.3415  -9.1279  -9.1279  -9.0591  -9.0591  -8.7054  -8.7054
    -8.6743  -8.6743  -8.5350  -8.5349  -8.4896  -8.4895  -8.4718  -8.4718
    -8.2021  -8.2021  -8.1715  -8.1715  -8.1406  -8.1406  -8.0925  -8.0925
     2.1347   2.1348   2.2347   2.2348   2.3008   2.3008   2.4394   2.4394
     3.0274   3.0275   3.0533   3.0533   3.1692   3.1692   3.2186   3.2186
     3.3110   3.3110   3.6278   3.6278   3.6998   3.6998   3.7808   3.7808
     3.8362   3.8362   4.0110   4.0110   4.1454   4.1454   4.1868   4.1868
     4.3176   4.3176   4.4860   4.4860   4.6034   4.6034   4.7895   4.7895
     4.8662   4.8662   4.9694   4.9694   5.0269   5.0269   5.3302   5.3302
     6.8282   6.8282   6.8990   6.8990   6.9757   6.9757   6.9873   6.9873
     7.1122   7.1122   7.1817   7.1817   7.2563   7.2563   7.4451   7.4451
     7.4829   7.4830   7.5664   7.5664   7.5822   7.5822   7.7544   7.7544
    11.1435  11.1435  11.5163  11.5163  11.6334  11.6334  11.7028  11.7029
    11.9550  11.9550  12.2917  12.2917  12.3477  12.3477  12.4813  12.4813
    12.6652  12.6652  12.7511  12.7511  12.7869  12.7869  13.1487  13.1487
    16.0264  16.0264  16.4069  16.4069  16.5415  16.5415  16.6569  16.6569
    16.9367  16.9367  17.4090  17.4090  17.5373

          k =-0.5000 0.3248-0.4975 ( 62432 PWs)   bands (ev):

   -66.1679 -66.1679 -66.1679 -66.1679 -66.1676 -66.1676 -66.1676 -66.1676
   -30.5382 -30.5382 -30.5382 -30.5382 -30.5110 -30.5110 -30.5110 -30.5110
   -30.4945 -30.4945 -30.4945 -30.4945 -30.4921 -30.4921 -30.4921 -30.4921
   -30.4611 -30.4610 -30.4610 -30.4610 -30.4512 -30.4512 -30.4512 -30.4512
   -20.3275 -20.3275 -20.3275 -20.3275 -20.3273 -20.3273 -20.3273 -20.3273
   -20.3085 -20.3085 -20.3085 -20.3085 -20.3083 -20.3083 -20.3083 -20.3083
   -20.3023 -20.3023 -20.3023 -20.3023 -20.3023 -20.3023 -20.3023 -20.3023
   -20.2996 -20.2996 -20.2996 -20.2996 -20.2971 -20.2971 -20.2971 -20.2971
   -20.2933 -20.2933 -20.2933 -20.2933 -20.2928 -20.2928 -20.2928 -20.2928
   -20.2881 -20.2881 -20.2881 -20.2881 -20.2878 -20.2878 -20.2878 -20.2878
   -20.2780 -20.2780 -20.2780 -20.2780 -20.2779 -20.2779 -20.2779 -20.2779
    -9.1645  -9.1645  -9.1645  -9.1645  -8.8528  -8.8528  -8.8528  -8.8528
    -8.5528  -8.5528  -8.5528  -8.5528  -8.4383  -8.4383  -8.4383  -8.4383
    -8.4060  -8.4060  -8.4059  -8.4059  -8.1316  -8.1316  -8.1316  -8.1316
     2.2881   2.2881   2.2881   2.2881   2.9556   2.9556   2.9556   2.9556
     3.0665   3.0665   3.0665   3.0665   3.1657   3.1657   3.1657   3.1657
     3.3710   3.3710   3.3710   3.3710   3.7580   3.7581   3.7581   3.7581
     3.9347   3.9347   3.9347   3.9347   4.0631   4.0631   4.0631   4.0631
     4.2451   4.2451   4.2451   4.2451   4.3966   4.3967   4.3967   4.3967
     4.6812   4.6812   4.6812   4.6812   5.0748   5.0748   5.0748   5.0748
     6.9110   6.9110   6.9110   6.9110   7.0059   7.0059   7.0059   7.0059
     7.3014   7.3014   7.3014   7.3014   7.4195   7.4195   7.4195   7.4195
     7.4930   7.4930   7.4930   7.4930   7.6306   7.6306   7.6306   7.6306
    11.6330  11.6330  11.6330  11.6330  11.7723  11.7723  11.7723  11.7723
    12.0812  12.0812  12.0812  12.0812  12.2341  12.2341  12.2341  12.2341
    12.6074  12.6074  12.6074  12.6074  12.8116  12.8116  12.8116  12.8116
    16.3853  16.3853  16.3853  16.3853  16.9390  16.9390  16.9390  16.9390
    17.4098  17.4098  17.4098  17.4098  17.6519

          k =-0.5000-0.4873 0.0000 ( 62480 PWs)   bands (ev):

   -66.1681 -66.1681 -66.1681 -66.1681 -66.1674 -66.1674 -66.1674 -66.1673
   -30.5409 -30.5409 -30.5409 -30.5409 -30.5197 -30.5197 -30.5183 -30.5183
   -30.5155 -30.5155 -30.5141 -30.5141 -30.4753 -30.4753 -30.4743 -30.4743
   -30.4658 -30.4658 -30.4640 -30.4640 -30.4333 -30.4333 -30.4329 -30.4329
   -20.3277 -20.3277 -20.3277 -20.3277 -20.3272 -20.3272 -20.3272 -20.3272
   -20.3087 -20.3087 -20.3087 -20.3087 -20.3081 -20.3081 -20.3080 -20.3080
   -20.3025 -20.3025 -20.3025 -20.3025 -20.3019 -20.3019 -20.3018 -20.3018
   -20.2992 -20.2992 -20.2991 -20.2991 -20.2981 -20.2981 -20.2979 -20.2979
   -20.2934 -20.2934 -20.2934 -20.2933 -20.2930 -20.2930 -20.2929 -20.2929
   -20.2906 -20.2906 -20.2904 -20.2904 -20.2851 -20.2851 -20.2850 -20.2850
   -20.2785 -20.2785 -20.2785 -20.2785 -20.2773 -20.2773 -20.2773 -20.2773
    -9.4898  -9.4898  -9.4824  -9.4824  -8.7642  -8.7642  -8.7333  -8.7333
    -8.6411  -8.6411  -8.6143  -8.6143  -8.4445  -8.4444  -8.3936  -8.3936
    -8.3928  -8.3928  -8.3461  -8.3460  -7.7636  -7.7636  -7.7634  -7.7634
     1.2955   1.2955   1.3012   1.3012   2.8800   2.8800   2.9685   2.9685
     2.9696   2.9696   3.0351   3.0351   3.1595   3.1595   3.2388   3.2388
     3.2632   3.2632   3.3757   3.3757   3.4612   3.4612   3.5096   3.5096
     3.5234   3.5234   3.8664   3.8664   4.1797   4.1797   4.2686   4.2686
     4.3177   4.3178   4.3848   4.3848   5.0992   5.0992   5.1531   5.1531
     5.4229   5.4229   5.5152   5.5152   6.1193   6.1193   6.1223   6.1223
     6.4662   6.4662   6.5008   6.5008   6.5153   6.5153   6.5829   6.5829
     7.2229   7.2230   7.2456   7.2456   7.3093   7.3093   7.4047   7.4047
     7.4769   7.4769   7.5580   7.5580   7.5940   7.5941   7.6065   7.6065
    11.1568  11.1568  11.1779  11.1779  11.3082  11.3082  11.3272  11.3272
    12.1402  12.1402  12.2055  12.2055  12.2765  12.2765  12.3051  12.3051
    12.9382  12.9382  12.9602  12.9602  13.3221  13.3221  13.3900  13.3900
    15.3567  15.3567  15.3741  15.3741  16.6973  16.6973  16.8375  16.8375
    17.3470  17.3470  17.3965  17.3966  17.4972

          k =-0.5000-0.4873 0.1658 ( 62488 PWs)   bands (ev):

   -66.1681 -66.1681 -66.1681 -66.1681 -66.1674 -66.1674 -66.1674 -66.1674
   -30.5371 -30.5371 -30.5370 -30.5370 -30.5202 -30.5202 -30.5188 -30.5188
   -30.5138 -30.5138 -30.5125 -30.5125 -30.4767 -30.4767 -30.4758 -30.4758
   -30.4652 -30.4652 -30.4633 -30.4633 -30.4378 -30.4378 -30.4373 -30.4373
   -20.3276 -20.3276 -20.3276 -20.3276 -20.3272 -20.3272 -20.3272 -20.3272
   -20.3086 -20.3086 -20.3086 -20.3086 -20.3081 -20.3081 -20.3081 -20.3081
   -20.3025 -20.3025 -20.3024 -20.3024 -20.3019 -20.3019 -20.3019 -20.3019
   -20.2991 -20.2991 -20.2990 -20.2990 -20.2981 -20.2981 -20.2979 -20.2979
   -20.2934 -20.2934 -20.2933 -20.2933 -20.2930 -20.2930 -20.2929 -20.2929
   -20.2903 -20.2903 -20.2901 -20.2901 -20.2855 -20.2855 -20.2854 -20.2854
   -20.2785 -20.2784 -20.2784 -20.2784 -20.2774 -20.2774 -20.2774 -20.2774
    -9.4148  -9.4148  -9.4065  -9.4065  -8.7801  -8.7800  -8.7493  -8.7492
    -8.6275  -8.6275  -8.6000  -8.6000  -8.4420  -8.4420  -8.4003  -8.4003
    -8.3859  -8.3858  -8.3487  -8.3487  -7.8802  -7.8802  -7.8801  -7.8801
     1.5499   1.5499   1.5569   1.5569   2.8932   2.8932   2.9717   2.9718
     2.9930   2.9930   3.0534   3.0534   3.1378   3.1378   3.2184   3.2184
     3.3348   3.3348   3.4129   3.4129   3.5045   3.5045   3.5391   3.5391
     3.5835   3.5836   3.8924   3.8924   4.1838   4.1838   4.2584   4.2584
     4.3163   4.3163   4.3708   4.3708   4.8272   4.8272   4.9344   4.9344
     5.1364   5.1364   5.2439   5.2440   5.7585   5.7585   5.7774   5.7775
     6.6582   6.6582   6.7286   6.7286   6.7422   6.7422   6.7936   6.7936
     7.2091   7.2091   7.2555   7.2555   7.3349   7.3349   7.3932   7.3932
     7.4673   7.4673   7.5578   7.5578   7.5689   7.5689   7.6192   7.6192
    11.2450  11.2450  11.2877  11.2877  11.3730  11.3730  11.4429  11.4429
    12.1489  12.1489  12.2060  12.2060  12.2682  12.2682  12.3181  12.3181
    12.8322  12.8322  12.9090  12.9090  13.1694  13.1694  13.2501  13.2501
    15.6414  15.6414  15.6620  15.6620  16.7612  16.7612  16.8984  16.8984
    17.3437  17.3437  17.4080  17.4081  17.4919

          k =-0.5000-0.4873 0.3317 ( 62424 PWs)   bands (ev):

   -66.1679 -66.1679 -66.1679 -66.1679 -66.1675 -66.1675 -66.1675 -66.1675
   -30.5294 -30.5294 -30.5289 -30.5289 -30.5215 -30.5215 -30.5203 -30.5203
   -30.5068 -30.5068 -30.5059 -30.5059 -30.4820 -30.4820 -30.4815 -30.4815
   -30.4629 -30.4629 -30.4612 -30.4612 -30.4482 -30.4482 -30.4474 -30.4474
   -20.3276 -20.3275 -20.3275 -20.3275 -20.3273 -20.3273 -20.3273 -20.3273
   -20.3085 -20.3085 -20.3085 -20.3085 -20.3082 -20.3082 -20.3082 -20.3082
   -20.3024 -20.3024 -20.3024 -20.3024 -20.3021 -20.3021 -20.3020 -20.3020
   -20.2988 -20.2988 -20.2987 -20.2987 -20.2983 -20.2983 -20.2981 -20.2981
   -20.2933 -20.2933 -20.2932 -20.2932 -20.2930 -20.2929 -20.2929 -20.2929
   -20.2893 -20.2893 -20.2893 -20.2893 -20.2865 -20.2865 -20.2865 -20.2865
   -20.2782 -20.2782 -20.2782 -20.2782 -20.2776 -20.2776 -20.2776 -20.2776
    -9.2147  -9.2147  -9.2025  -9.2025  -8.8379  -8.8379  -8.8084  -8.8084
    -8.5765  -8.5765  -8.5497  -8.5496  -8.4358  -8.4358  -8.4084  -8.4084
    -8.3765  -8.3765  -8.3562  -8.3562  -8.1583  -8.1583  -8.1569  -8.1569
     2.2190   2.2190   2.2350   2.2350   2.9230   2.9231   2.9658   2.9658
     3.0296   3.0296   3.1028   3.1028   3.1244   3.1244   3.1972   3.1972
     3.4127   3.4127   3.4656   3.4656   3.5881   3.5881   3.6507   3.6507
     3.8047   3.8047   3.9782   3.9782   4.1753   4.1753   4.1923   4.1923
     4.2543   4.2543   4.3089   4.3090   4.4338   4.4338   4.5233   4.5234
     4.6642   4.6642   4.7727   4.7727   4.9934   4.9934   5.0165   5.0165
     6.9274   6.9274   7.0424   7.0424   7.0655   7.0655   7.1028   7.1028
     7.1965   7.1965   7.2891   7.2891   7.3465   7.3465   7.3999   7.3999
     7.4526   7.4526   7.5350   7.5350   7.5521   7.5521   7.6118   7.6118
    11.5160  11.5160  11.5825  11.5825  11.6105  11.6105  11.7467  11.7467
    12.1524  12.1524  12.2065  12.2065  12.2343  12.2343  12.3587  12.3587
    12.4825  12.4825  12.6378  12.6378  12.7897  12.7897  12.8821  12.8821
    16.4193  16.4193  16.4683  16.4683  16.9382  16.9382  17.0665  17.0665
    17.3025  17.3025  17.4280  17.4281  17.4870

          k =-0.5000-0.4873-0.4975 ( 62392 PWs)   bands (ev):

   -66.1677 -66.1677 -66.1677 -66.1677 -66.1677 -66.1677 -66.1677 -66.1677
   -30.5243 -30.5242 -30.5242 -30.5242 -30.5230 -30.5230 -30.5230 -30.5230
   -30.4945 -30.4945 -30.4945 -30.4945 -30.4922 -30.4922 -30.4922 -30.4922
   -30.4582 -30.4582 -30.4582 -30.4582 -30.4559 -30.4559 -30.4559 -30.4559
   -20.3274 -20.3274 -20.3274 -20.3274 -20.3274 -20.3274 -20.3274 -20.3274
   -20.3084 -20.3084 -20.3084 -20.3084 -20.3084 -20.3084 -20.3084 -20.3083
   -20.3023 -20.3023 -20.3023 -20.3023 -20.3022 -20.3022 -20.3022 -20.3022
   -20.2985 -20.2985 -20.2985 -20.2985 -20.2983 -20.2983 -20.2983 -20.2983
   -20.2933 -20.2933 -20.2933 -20.2933 -20.2929 -20.2929 -20.2929 -20.2929
   -20.2881 -20.2881 -20.2881 -20.2881 -20.2879 -20.2879 -20.2879 -20.2879
   -20.2780 -20.2779 -20.2779 -20.2779 -20.2779 -20.2779 -20.2779 -20.2779
    -8.9833  -8.9833  -8.9833  -8.9833  -8.9567  -8.9567  -8.9567  -8.9567
    -8.4568  -8.4568  -8.4567  -8.4567  -8.4202  -8.4202  -8.4202  -8.4202
    -8.4010  -8.4010  -8.4010  -8.4010  -8.3632  -8.3632  -8.3631  -8.3631
     2.8570   2.8570   2.8570   2.8570   2.9612   2.9612   2.9613   2.9613
     3.1026   3.1026   3.1026   3.1026   3.2056   3.2056   3.2056   3.2056
     3.3162   3.3162   3.3162   3.3162   3.5062   3.5062   3.5062   3.5062
     4.0978   4.0978   4.0978   4.0978   4.1428   4.1428   4.1429   4.1429
     4.2542   4.2542   4.2542   4.2542   4.3379   4.3379   4.3379   4.3379
     4.4194   4.4194   4.4194   4.4194   4.5264   4.5264   4.5264   4.5264
     7.0777   7.0777   7.0777   7.0777   7.2183   7.2184   7.2184   7.2184
     7.2796   7.2796   7.2796   7.2796   7.3641   7.3641   7.3641   7.3641
     7.4904   7.4904   7.4904   7.4904   7.5720   7.5720   7.5721   7.5721
    11.8641  11.8641  11.8641  11.8641  11.9220  11.9220  11.9220  11.9220
    12.0808  12.0808  12.0808  12.0808  12.2650  12.2650  12.2650  12.2650
    12.3803  12.3803  12.3803  12.3803  12.5052  12.5052  12.5052  12.5052
    17.0629  17.0629  17.0629  17.0629  17.1698  17.1698  17.1698  17.1698
    17.4584  17.4585  17.4585  17.4585  17.5237

     the Fermi energy is     9.8204 ev

!    total energy              =   -6260.97108336 Ry
     Harris-Foulkes estimate   =   -6260.97108336 Ry
     estimated scf accuracy    <          2.4E-09 Ry

     The total energy is the sum of the following terms:

     one-electron contribution =   -4727.41966256 Ry
     hartree contribution      =    2600.38889671 Ry
     xc contribution           =    -965.88433052 Ry
     ewald contribution        =   -3168.05597238 Ry
     smearing contrib. (-TS)   =      -0.00001461 Ry

     convergence has been achieved in  13 iterations

     Writing output data file Landau_17.save
 
     init_run     :     47.96s CPU     50.22s WALL (       1 calls)
     electrons    :   1913.34s CPU   1961.55s WALL (       1 calls)

     Called by init_run:
     wfcinit      :     45.03s CPU     47.12s WALL (       1 calls)
     potinit      :      1.16s CPU      1.20s WALL (       1 calls)

     Called by electrons:
     c_bands      :   1718.96s CPU   1763.84s WALL (      13 calls)
     sum_band     :    188.68s CPU    190.68s WALL (      13 calls)
     v_of_rho     :      1.49s CPU      1.53s WALL (      14 calls)
     mix_rho      :      3.46s CPU      4.23s WALL (      13 calls)

     Called by c_bands:
     init_us_2    :     14.32s CPU     15.23s WALL (      54 calls)
     cegterg      :   1474.30s CPU   1516.43s WALL (      26 calls)

     Called by sum_band:

     Called by *egterg:
     h_psi        :   1089.97s CPU   1100.68s WALL (     117 calls)
     g_psi        :      2.08s CPU      2.10s WALL (      89 calls)
     cdiaghg      :     19.47s CPU     19.61s WALL (     115 calls)

     Called by h_psi:
     h_psi:pot    :   1084.62s CPU   1094.73s WALL (     117 calls)
     h_psi:calbec :    171.90s CPU    176.88s WALL (     117 calls)
     vloc_psi     :    736.54s CPU    739.98s WALL (     117 calls)
     add_vuspsi   :    176.18s CPU    177.87s WALL (     117 calls)

     General routines
     calbec       :    171.90s CPU    176.88s WALL (     117 calls)
     fft          :      1.23s CPU      1.24s WALL (      56 calls)
     fftw         :    780.87s CPU    784.01s WALL (   33828 calls)
 
     Parallel routines
 
     PWSCF        : 32m42.76s CPU    33m37.23s WALL

 
   This run was terminated on:   3:33:57  19Mar2020            

=------------------------------------------------------------------------------=
   JOB DONE.
=------------------------------------------------------------------------------=
