
     Program PWSCF v.6.2 (svn rev. 14038) starts on 11Mar2020 at 12:36:30 

     This program is part of the open-source Quantum ESPRESSO suite
     for quantum simulation of materials; please cite
         "P. Giannozzi et al., J. Phys.:Condens. Matter 21 395502 (2009);
         "P. Giannozzi et al., J. Phys.:Condens. Matter 29 465901 (2017);
          URL http://www.quantum-espresso.org", 
     in publications or presentations arising from this work. More details at
     http://www.quantum-espresso.org/quote

     Parallel version (MPI), running on    40 processors

     MPI processes distributed on     9 nodes
     K-points division:     npool     =      40
     Reading input from rscf.in

     Current dimensions of program PWSCF are:
     Max number of different atomic species (ntypx) = 10
     Max number of k-points (npk) =  40000
     Max angular momentum in pseudopotentials (lmaxx) =  3

     Subspace diagonalization in iterative solution of the eigenvalue problem:
     a serial algorithm will be used

 
     G-vector sticks info
     --------------------
     sticks:   dense  smooth     PW     G-vecs:    dense   smooth      PW
     Sum        7747    7747   2077               498127   498127   69057
 


     bravais-lattice index     =            0
     lattice parameter (alat)  =      13.8397  a.u.
     unit-cell volume          =    2804.9816 (a.u.)^3
     number of atoms/cell      =           32
     number of atomic types    =            2
     number of electrons       =       368.00
     number of Kohn-Sham states=          221
     kinetic-energy cutoff     =     120.0000  Ry
     charge density cutoff     =     480.0000  Ry
     convergence threshold     =      1.0E-08
     mixing beta               =       0.7000
     number of iterations used =            8  plain     mixing
     Exchange-correlation      = SLA PW NOGX NOGC ( 1  4  0  0 0 0)
     nstep                     =           50


     celldm(1)=  13.839685  celldm(2)=   0.000000  celldm(3)=   0.000000
     celldm(4)=   0.000000  celldm(5)=   0.000000  celldm(6)=   0.000000

     crystal axes: (cart. coord. in units of alat)
               a(1) = (   1.000000   0.000000   0.000000 )  
               a(2) = (   0.000000   1.058160   0.000000 )  
               a(3) = (   0.000000   0.000000   1.000000 )  

     reciprocal axes: (cart. coord. in units 2 pi/alat)
               b(1) = (  1.000000  0.000000  0.000000 )  
               b(2) = (  0.000000  0.945037  0.000000 )  
               b(3) = (  0.000000  0.000000  1.000000 )  


     PseudoPot. # 1 for W  read from file:
     /cluster/scratch/mnoe/QE/pps/W_ONCV_LDA-4.0.upf
     MD5 check sum: ba0307d5d4cd419d6f1d13dc49d7c13a
     Pseudo is Norm-conserving + core correction, Zval = 28.0
     Generated using ONCVPSP code by D. R. Hamann
     Using radial grid of 1380 points,  8 beta functions with: 
                l(1) =   0
                l(2) =   0
                l(3) =   1
                l(4) =   1
                l(5) =   2
                l(6) =   2
                l(7) =   3
                l(8) =   3

     PseudoPot. # 2 for O  read from file:
     /cluster/scratch/mnoe/QE/pps/O_ONCV_LDA-3.0.upf
     MD5 check sum: a1bd6164e7280c17a38c229939bfbd54
     Pseudo is Norm-conserving + core correction, Zval =  6.0
     Generated using ONCVPSP code by D. R. Hamann
     Using radial grid of  926 points,  5 beta functions with: 
                l(1) =   0
                l(2) =   0
                l(3) =   1
                l(4) =   1
                l(5) =   2

     atomic species   valence    mass     pseudopotential
        W             28.00   183.84000     W ( 1.00)
        O              6.00    15.99940     O ( 1.00)

      8 Sym. Ops., with inversion, found ( 6 have fractional translation)



   Cartesian axes

     site n.     atom                  positions (alat units)
         1           W   tau(   1) = (   0.2324300   0.2922789   0.0166000  )
         2           W   tau(   2) = (   0.7675700   0.7658811   0.9834000  )
         3           W   tau(   3) = (   0.2675700   0.2368011   0.5166000  )
         4           W   tau(   4) = (   0.7324300   0.8213590   0.4834000  )
         5           W   tau(   5) = (   0.7675700   0.2922789   0.4834000  )
         6           W   tau(   6) = (   0.2324300   0.7658811   0.5166000  )
         7           W   tau(   7) = (   0.7324300   0.2368011   0.9834000  )
         8           W   tau(   8) = (   0.2675700   0.8213590   0.0166000  )
         9           O   tau(   9) = (   0.2175800   0.0071764   0.0051600  )
        10           O   tau(  10) = (   0.7824200   1.0509837   0.9948400  )
        11           O   tau(  11) = (   0.2824200   0.5219037   0.5051600  )
        12           O   tau(  12) = (   0.7175800   0.5362564   0.4948400  )
        13           O   tau(  13) = (   0.7824200   0.0071764   0.4948400  )
        14           O   tau(  14) = (   0.2175800   1.0509837   0.5051600  )
        15           O   tau(  15) = (   0.7175800   0.5219037   0.9948400  )
        16           O   tau(  16) = (   0.2824200   0.5362564   0.0051600  )
        17           O   tau(  17) = (   0.5048000   0.2293456   0.4633449  )
        18           O   tau(  18) = (   0.4952000   0.8288145   0.5366552  )
        19           O   tau(  19) = (   0.9952000   0.2997344   0.9633449  )
        20           O   tau(  20) = (   0.0048001   0.7584257   0.0366551  )
        21           O   tau(  21) = (   0.4952000   0.2293456   0.0366551  )
        22           O   tau(  22) = (   0.5048000   0.8288145   0.9633449  )
        23           O   tau(  23) = (   0.0048001   0.2997344   0.5366552  )
        24           O   tau(  24) = (   0.9952000   0.7584257   0.4633449  )
        25           O   tau(  25) = (   0.7133449   0.2568578   0.7427100  )
        26           O   tau(  26) = (   0.2866551   0.8013023   0.2572900  )
        27           O   tau(  27) = (   0.7866552   0.2722223   0.2427100  )
        28           O   tau(  28) = (   0.2133449   0.7859379   0.7572900  )
        29           O   tau(  29) = (   0.2866551   0.2568578   0.7572900  )
        30           O   tau(  30) = (   0.7133449   0.8013023   0.2427100  )
        31           O   tau(  31) = (   0.2133449   0.2722223   0.2572900  )
        32           O   tau(  32) = (   0.7866552   0.7859379   0.7427100  )

     number of k points=    64  gaussian smearing, width (Ry)=  0.0007
                       cart. coord. in units 2pi/alat
        k(    1) = (   0.0000000   0.0000000   0.0000000), wk =   0.0092593
        k(    2) = (   0.0000000   0.0000000   0.1666667), wk =   0.0185185
        k(    3) = (   0.0000000   0.0000000   0.3333333), wk =   0.0185185
        k(    4) = (   0.0000000   0.0000000  -0.5000000), wk =   0.0092593
        k(    5) = (   0.0000000   0.1575061   0.0000000), wk =   0.0185185
        k(    6) = (   0.0000000   0.1575061   0.1666667), wk =   0.0370370
        k(    7) = (   0.0000000   0.1575061   0.3333333), wk =   0.0370370
        k(    8) = (   0.0000000   0.1575061  -0.5000000), wk =   0.0185185
        k(    9) = (   0.0000000   0.3150122   0.0000000), wk =   0.0185185
        k(   10) = (   0.0000000   0.3150122   0.1666667), wk =   0.0370370
        k(   11) = (   0.0000000   0.3150122   0.3333333), wk =   0.0370370
        k(   12) = (   0.0000000   0.3150122  -0.5000000), wk =   0.0185185
        k(   13) = (   0.0000000  -0.4725183   0.0000000), wk =   0.0092593
        k(   14) = (   0.0000000  -0.4725183   0.1666667), wk =   0.0185185
        k(   15) = (   0.0000000  -0.4725183   0.3333333), wk =   0.0185185
        k(   16) = (   0.0000000  -0.4725183  -0.5000000), wk =   0.0092593
        k(   17) = (   0.1666667   0.0000000   0.1666667), wk =   0.0370370
        k(   18) = (   0.1666667   0.0000000   0.3333333), wk =   0.0370370
        k(   19) = (   0.1666667   0.0000000  -0.5000000), wk =   0.0185185
        k(   20) = (   0.1666667   0.1575061   0.1666667), wk =   0.0740741
        k(   21) = (   0.1666667   0.1575061   0.3333333), wk =   0.0740741
        k(   22) = (   0.1666667   0.1575061  -0.5000000), wk =   0.0370370
        k(   23) = (   0.1666667   0.3150122   0.1666667), wk =   0.0740741
        k(   24) = (   0.1666667   0.3150122   0.3333333), wk =   0.0740741
        k(   25) = (   0.1666667   0.3150122  -0.5000000), wk =   0.0370370
        k(   26) = (   0.1666667  -0.4725183   0.1666667), wk =   0.0370370
        k(   27) = (   0.1666667  -0.4725183   0.3333333), wk =   0.0370370
        k(   28) = (   0.1666667  -0.4725183  -0.5000000), wk =   0.0185185
        k(   29) = (   0.3333333   0.0000000   0.3333333), wk =   0.0370370
        k(   30) = (   0.3333333   0.0000000  -0.5000000), wk =   0.0185185
        k(   31) = (   0.3333333   0.1575061   0.3333333), wk =   0.0740741
        k(   32) = (   0.3333333   0.1575061  -0.5000000), wk =   0.0370370
        k(   33) = (   0.3333333   0.3150122   0.3333333), wk =   0.0740741
        k(   34) = (   0.3333333   0.3150122  -0.5000000), wk =   0.0370370
        k(   35) = (   0.3333333  -0.4725183   0.3333333), wk =   0.0370370
        k(   36) = (   0.3333333  -0.4725183  -0.5000000), wk =   0.0185185
        k(   37) = (  -0.5000000   0.0000000  -0.5000000), wk =   0.0092593
        k(   38) = (  -0.5000000   0.1575061  -0.5000000), wk =   0.0185185
        k(   39) = (  -0.5000000   0.3150122  -0.5000000), wk =   0.0185185
        k(   40) = (  -0.5000000  -0.4725183  -0.5000000), wk =   0.0092593
        k(   41) = (   0.1666667   0.0000000   0.0000000), wk =   0.0185185
        k(   42) = (   0.3333333   0.0000000   0.0000000), wk =   0.0185185
        k(   43) = (  -0.5000000   0.0000000   0.0000000), wk =   0.0092593
        k(   44) = (   0.1666667  -0.1575061   0.0000000), wk =   0.0370370
        k(   45) = (   0.3333333  -0.1575061   0.0000000), wk =   0.0370370
        k(   46) = (  -0.5000000  -0.1575061   0.0000000), wk =   0.0185185
        k(   47) = (   0.1666667  -0.3150122   0.0000000), wk =   0.0370370
        k(   48) = (   0.3333333  -0.3150122   0.0000000), wk =   0.0370370
        k(   49) = (  -0.5000000  -0.3150122   0.0000000), wk =   0.0185185
        k(   50) = (   0.1666667   0.4725183   0.0000000), wk =   0.0185185
        k(   51) = (   0.3333333   0.4725183   0.0000000), wk =   0.0185185
        k(   52) = (  -0.5000000   0.4725183   0.0000000), wk =   0.0092593
        k(   53) = (   0.3333333   0.0000000   0.1666667), wk =   0.0370370
        k(   54) = (  -0.5000000   0.0000000   0.1666667), wk =   0.0185185
        k(   55) = (   0.3333333  -0.1575061   0.1666667), wk =   0.0740741
        k(   56) = (  -0.5000000  -0.1575061   0.1666667), wk =   0.0370370
        k(   57) = (   0.3333333  -0.3150122   0.1666667), wk =   0.0740741
        k(   58) = (  -0.5000000  -0.3150122   0.1666667), wk =   0.0370370
        k(   59) = (   0.3333333   0.4725183   0.1666667), wk =   0.0370370
        k(   60) = (  -0.5000000   0.4725183   0.1666667), wk =   0.0185185
        k(   61) = (  -0.5000000   0.0000000   0.3333333), wk =   0.0185185
        k(   62) = (  -0.5000000  -0.1575061   0.3333333), wk =   0.0370370
        k(   63) = (  -0.5000000  -0.3150122   0.3333333), wk =   0.0370370
        k(   64) = (  -0.5000000   0.4725183   0.3333333), wk =   0.0185185

     Dense  grid:   498127 G-vectors     FFT dimensions: ( 100, 108, 100)

     Estimated max dynamical RAM per process >       3.15 GB

     Estimated total dynamical RAM >     125.81 GB

     Initial potential from superposition of free atoms

     starting charge  367.99656, renormalised to  368.00000
     Starting wfc are  232 randomized atomic wfcs

     total cpu time spent up to now is       68.4 secs

     Self-consistent Calculation

     iteration #  1     ecut=   120.00 Ry     beta= 0.70
     Davidson diagonalization with overlap
     ethr =  1.00E-02,  avg # of iterations =  5.1

     total cpu time spent up to now is      239.9 secs

     total energy              =   -6253.96985192 Ry
     Harris-Foulkes estimate   =   -6264.51491163 Ry
     estimated scf accuracy    <      13.36122036 Ry

     iteration #  2     ecut=   120.00 Ry     beta= 0.70
     Davidson diagonalization with overlap
     ethr =  3.63E-03,  avg # of iterations =  3.5

     total cpu time spent up to now is      408.2 secs

     total energy              =   -6250.58699396 Ry
     Harris-Foulkes estimate   =   -6270.71387175 Ry
     estimated scf accuracy    <      54.45780852 Ry

     iteration #  3     ecut=   120.00 Ry     beta= 0.70
     Davidson diagonalization with overlap
     ethr =  3.63E-03,  avg # of iterations =  3.4

     total cpu time spent up to now is      566.3 secs

     total energy              =   -6260.98605625 Ry
     Harris-Foulkes estimate   =   -6261.44260768 Ry
     estimated scf accuracy    <       1.43078943 Ry

     iteration #  4     ecut=   120.00 Ry     beta= 0.70
     Davidson diagonalization with overlap
     ethr =  3.89E-04,  avg # of iterations =  2.3

     total cpu time spent up to now is      694.8 secs

     total energy              =   -6261.04998609 Ry
     Harris-Foulkes estimate   =   -6261.14751933 Ry
     estimated scf accuracy    <       0.34025563 Ry

     iteration #  5     ecut=   120.00 Ry     beta= 0.70
     Davidson diagonalization with overlap
     ethr =  9.25E-05,  avg # of iterations =  4.9

     total cpu time spent up to now is      835.0 secs

     total energy              =   -6261.03012962 Ry
     Harris-Foulkes estimate   =   -6261.07807000 Ry
     estimated scf accuracy    <       0.10366722 Ry

     iteration #  6     ecut=   120.00 Ry     beta= 0.70
     Davidson diagonalization with overlap
     ethr =  2.82E-05,  avg # of iterations =  5.3

     total cpu time spent up to now is      985.5 secs

     total energy              =   -6261.05417707 Ry
     Harris-Foulkes estimate   =   -6261.05602212 Ry
     estimated scf accuracy    <       0.00607680 Ry

     iteration #  7     ecut=   120.00 Ry     beta= 0.70
     Davidson diagonalization with overlap
     ethr =  1.65E-06,  avg # of iterations =  4.1

     total cpu time spent up to now is     1127.3 secs

     total energy              =   -6261.05448697 Ry
     Harris-Foulkes estimate   =   -6261.05495955 Ry
     estimated scf accuracy    <       0.00135612 Ry

     iteration #  8     ecut=   120.00 Ry     beta= 0.70
     Davidson diagonalization with overlap
     ethr =  3.69E-07,  avg # of iterations =  2.3

     total cpu time spent up to now is     1252.4 secs

     total energy              =   -6261.05463961 Ry
     Harris-Foulkes estimate   =   -6261.05467936 Ry
     estimated scf accuracy    <       0.00008994 Ry

     iteration #  9     ecut=   120.00 Ry     beta= 0.70
     Davidson diagonalization with overlap
     ethr =  2.44E-08,  avg # of iterations =  2.9

     total cpu time spent up to now is     1397.6 secs

     total energy              =   -6261.05465941 Ry
     Harris-Foulkes estimate   =   -6261.05466266 Ry
     estimated scf accuracy    <       0.00000647 Ry

     iteration # 10     ecut=   120.00 Ry     beta= 0.70
     Davidson diagonalization with overlap
     ethr =  1.76E-09,  avg # of iterations =  2.2

     total cpu time spent up to now is     1541.6 secs

     total energy              =   -6261.05466060 Ry
     Harris-Foulkes estimate   =   -6261.05466105 Ry
     estimated scf accuracy    <       0.00000095 Ry

     iteration # 11     ecut=   120.00 Ry     beta= 0.70
     Davidson diagonalization with overlap
     ethr =  2.57E-10,  avg # of iterations =  2.3

     total cpu time spent up to now is     1692.4 secs

     total energy              =   -6261.05466080 Ry
     Harris-Foulkes estimate   =   -6261.05466081 Ry
     estimated scf accuracy    <       0.00000002 Ry

     iteration # 12     ecut=   120.00 Ry     beta= 0.70
     Davidson diagonalization with overlap
     ethr =  6.06E-12,  avg # of iterations =  2.2

     total cpu time spent up to now is     1850.8 secs

     End of self-consistent calculation

          k = 0.0000 0.0000 0.0000 ( 62239 PWs)   bands (ev):

   -66.1526 -66.1522 -66.1516 -66.1515 -66.1512 -66.1511 -66.1506 -66.1502
   -30.6115 -30.6092 -30.6039 -30.6014 -30.5661 -30.5648 -30.5638 -30.5624
   -30.5033 -30.5021 -30.5007 -30.5000 -30.4661 -30.4638 -30.4595 -30.4570
   -30.4141 -30.4096 -30.4078 -30.4034 -30.3592 -30.3556 -30.3544 -30.3510
   -20.3088 -20.3086 -20.3086 -20.3084 -20.3082 -20.3081 -20.3080 -20.3078
   -20.2890 -20.2888 -20.2885 -20.2885 -20.2884 -20.2882 -20.2879 -20.2877
   -20.2821 -20.2818 -20.2817 -20.2817 -20.2814 -20.2814 -20.2813 -20.2809
   -20.2799 -20.2794 -20.2792 -20.2789 -20.2775 -20.2772 -20.2771 -20.2764
   -20.2744 -20.2743 -20.2734 -20.2731 -20.2718 -20.2718 -20.2716 -20.2716
   -20.2705 -20.2695 -20.2694 -20.2691 -20.2682 -20.2676 -20.2673 -20.2670
   -20.2586 -20.2585 -20.2571 -20.2570 -20.2569 -20.2569 -20.2555 -20.2554
   -10.0646  -9.8851  -9.6658  -9.5517  -9.5431  -9.3877  -9.2196  -9.1921
    -8.6612  -8.6005  -8.5968  -8.5937  -7.9612  -7.9406  -7.8491  -7.8280
    -7.8274  -7.8092  -7.8068  -7.7484  -7.5758  -7.5190  -7.4941  -7.4463
     0.9094   0.9226   0.9912   1.0097   1.2202   1.2265   1.3708   1.4050
     1.9534   1.9855   2.0334   2.0791   2.1498   2.2170   2.6469   2.6751
     2.8014   2.8024   4.0265   4.1036   4.2397   4.4019   4.4033   4.4363
     4.4999   4.5198   4.8296   5.1812   5.2649   5.2813   5.2960   5.4048
     5.4545   5.5097   5.5402   5.5681   5.5790   5.6225   5.6565   5.7653
     5.8189   5.8417   5.8590   5.8636   5.9611   5.9796   6.0315   6.2041
     6.2228   6.2498   6.2694   6.3863   6.5740   6.6519   6.8253   6.8882
     6.9173   6.9210   6.9497   6.9777   7.0492   7.0507   7.1466   7.1526
     7.2797   7.2869   7.8244   7.8497   7.9776   8.0330   8.1921   8.2236
     9.6191   9.6559   9.8949   9.9342   9.9499   9.9890  12.0693  12.3692
    12.3911  12.4940  12.5013  12.6526  12.6615  12.6898  12.7066  12.9736
    13.1009  13.2814  13.2999  13.4318  13.5715  13.6384  14.0244  14.0415
    14.3823  14.4093  14.6550  14.9654  15.1962  15.4137  15.4859  16.1496
    16.1614  16.9281  16.9832  17.0820  17.4268

          k = 0.0000 0.0000 0.1667 ( 62262 PWs)   bands (ev):

   -66.1525 -66.1521 -66.1517 -66.1515 -66.1513 -66.1511 -66.1506 -66.1502
   -30.6052 -30.6031 -30.5973 -30.5948 -30.5668 -30.5645 -30.5637 -30.5614
   -30.5101 -30.5088 -30.5072 -30.5063 -30.4657 -30.4634 -30.4602 -30.4577
   -30.4137 -30.4092 -30.4082 -30.4038 -30.3588 -30.3553 -30.3547 -30.3513
   -20.3088 -20.3086 -20.3085 -20.3083 -20.3083 -20.3081 -20.3080 -20.3078
   -20.2890 -20.2888 -20.2886 -20.2885 -20.2883 -20.2883 -20.2880 -20.2878
   -20.2821 -20.2818 -20.2817 -20.2817 -20.2814 -20.2814 -20.2813 -20.2810
   -20.2798 -20.2794 -20.2792 -20.2789 -20.2772 -20.2768 -20.2766 -20.2759
   -20.2745 -20.2744 -20.2732 -20.2729 -20.2720 -20.2717 -20.2717 -20.2715
   -20.2708 -20.2698 -20.2693 -20.2690 -20.2686 -20.2677 -20.2677 -20.2673
   -20.2586 -20.2584 -20.2572 -20.2570 -20.2569 -20.2568 -20.2556 -20.2555
   -10.0038  -9.8191  -9.5757  -9.5585  -9.4573  -9.3997  -9.1839  -9.1598
    -8.6758  -8.6042  -8.5963  -8.5872  -8.0618  -8.0615  -7.9638  -7.9593
    -7.8775  -7.8293  -7.8130  -7.7545  -7.5724  -7.5230  -7.4923  -7.4499
     1.0752   1.0849   1.2192   1.2240   1.2703   1.2844   1.4716   1.5224
     1.9555   1.9927   2.0242   2.0993   2.2355   2.3081   2.6828   2.7398
     2.7939   2.8876   4.0391   4.0618   4.1568   4.1780   4.2735   4.3578
     4.4910   4.5021   4.7995   4.8031   4.9037   5.2266   5.2763   5.2924
     5.3239   5.4378   5.4540   5.5349   5.5351   5.5958   5.5961   5.7003
     5.7577   5.7616   5.8500   5.8842   5.9673   6.0545   6.1457   6.1501
     6.2271   6.3304   6.4727   6.5553   6.6522   6.7551   6.7854   6.7998
     6.8007   6.8651   6.8686   6.8845   6.9791   6.9796   7.0829   7.1117
     7.2806   7.2851   7.8021   7.8202   7.9968   8.0353   8.1414   8.1827
     9.8162   9.8949   9.9366  10.0377  10.2009  10.2627  12.1267  12.3426
    12.4536  12.5031  12.5241  12.5695  12.5817  12.7022  12.7502  12.8707
    13.0778  13.1225  13.2456  13.4375  13.6167  13.6835  13.8730  13.9474
    14.4060  14.4731  14.6481  15.0671  15.1709  15.4642  15.5990  16.1368
    16.4718  16.8167  17.0989  17.2142  17.5161

          k = 0.0000 0.0000 0.3333 ( 62268 PWs)   bands (ev):

   -66.1523 -66.1519 -66.1518 -66.1514 -66.1513 -66.1509 -66.1508 -66.1504
   -30.5892 -30.5880 -30.5791 -30.5768 -30.5691 -30.5671 -30.5590 -30.5574
   -30.5288 -30.5272 -30.5245 -30.5236 -30.4647 -30.4624 -30.4616 -30.4593
   -30.4126 -30.4094 -30.4081 -30.4050 -30.3579 -30.3555 -30.3544 -30.3521
   -20.3087 -20.3085 -20.3084 -20.3084 -20.3082 -20.3082 -20.3081 -20.3079
   -20.2889 -20.2887 -20.2887 -20.2884 -20.2884 -20.2882 -20.2881 -20.2879
   -20.2820 -20.2818 -20.2817 -20.2817 -20.2815 -20.2814 -20.2813 -20.2811
   -20.2797 -20.2794 -20.2793 -20.2790 -20.2764 -20.2760 -20.2755 -20.2749
   -20.2747 -20.2746 -20.2729 -20.2726 -20.2721 -20.2719 -20.2717 -20.2714
   -20.2713 -20.2705 -20.2697 -20.2690 -20.2689 -20.2688 -20.2681 -20.2679
   -20.2583 -20.2581 -20.2575 -20.2574 -20.2567 -20.2565 -20.2559 -20.2558
    -9.8559  -9.6625  -9.6087  -9.4389  -9.3238  -9.1881  -9.0590  -9.0359
    -8.7462  -8.6414  -8.5824  -8.5636  -8.3911  -8.3548  -8.3295  -8.2731
    -7.8741  -7.8300  -7.8159  -7.7710  -7.5625  -7.5337  -7.4844  -7.4594
     1.2011   1.2017   1.2187   1.2206   1.8642   1.8750   1.9524   2.0067
     2.0212   2.1483   2.1607   2.3342   2.4916   2.5629   2.7087   2.7747
     2.9918   3.1140   3.5215   3.6071   3.8865   3.9710   4.1129   4.2305
     4.2906   4.3985   4.5482   4.6054   4.6420   4.7040   4.7142   4.8977
     4.9644   5.1826   5.2879   5.3073   5.3153   5.3909   5.7183   5.7816
     5.8175   5.8192   5.9020   5.9120   5.9900   5.9926   6.2343   6.2387
     6.3011   6.3147   6.4140   6.4354   6.4698   6.6372   6.7155   6.7846
     6.9125   6.9631   6.9839   7.0205   7.0378   7.0467   7.2085   7.2307
     7.2783   7.3561   7.6922   7.6974   7.9788   8.0225   8.0360   8.0411
     9.8791   9.8932  10.5931  10.6696  10.8394  10.9165  12.0614  12.1531
    12.2554  12.2918  12.4266  12.5102  12.5563  12.6434  12.6710  12.8357
    12.8817  13.1797  13.2139  13.3457  13.4643  13.5045  13.7094  13.7327
    14.4738  14.6241  14.7058  15.0899  15.3235  15.6742  16.0580  16.1215
    16.2851  17.3495  17.5739  17.6475  17.7892

          k = 0.0000 0.0000-0.5000 ( 62264 PWs)   bands (ev):

   -66.1521 -66.1521 -66.1517 -66.1517 -66.1511 -66.1510 -66.1507 -66.1506
   -30.5746 -30.5746 -30.5738 -30.5738 -30.5541 -30.5541 -30.5522 -30.5521
   -30.5453 -30.5453 -30.5451 -30.5451 -30.4633 -30.4633 -30.4609 -30.4609
   -30.4110 -30.4110 -30.4065 -30.4065 -30.3567 -30.3567 -30.3532 -30.3532
   -20.3085 -20.3085 -20.3083 -20.3083 -20.3083 -20.3083 -20.3081 -20.3081
   -20.2888 -20.2888 -20.2885 -20.2885 -20.2883 -20.2883 -20.2881 -20.2881
   -20.2820 -20.2819 -20.2817 -20.2817 -20.2816 -20.2816 -20.2812 -20.2812
   -20.2795 -20.2795 -20.2792 -20.2792 -20.2756 -20.2756 -20.2752 -20.2752
   -20.2739 -20.2739 -20.2730 -20.2730 -20.2723 -20.2723 -20.2711 -20.2711
   -20.2709 -20.2709 -20.2703 -20.2703 -20.2685 -20.2685 -20.2684 -20.2684
   -20.2579 -20.2579 -20.2578 -20.2577 -20.2563 -20.2563 -20.2561 -20.2561
    -9.7061  -9.7060  -9.5196  -9.5196  -8.9839  -8.9839  -8.8239  -8.8239
    -8.7938  -8.7938  -8.7575  -8.7575  -8.5436  -8.5436  -8.4951  -8.4951
    -7.8529  -7.8529  -7.7937  -7.7937  -7.5483  -7.5483  -7.4721  -7.4721
     1.2179   1.2179   1.2183   1.2183   1.9430   1.9430   1.9830   1.9830
     2.7066   2.7066   2.8258   2.8258   2.9018   2.9018   3.0182   3.0182
     3.0378   3.0378   3.2375   3.2375   3.3646   3.3646   3.7003   3.7004
     3.8272   3.8272   4.4518   4.4518   4.5884   4.5884   4.8571   4.8571
     5.0510   5.0510   5.0780   5.0780   5.3499   5.3499   5.7764   5.7764
     5.8412   5.8412   5.9590   5.9590   6.0099   6.0099   6.1835   6.1835
     6.2600   6.2600   6.2892   6.2892   6.5276   6.5276   6.7915   6.7915
     6.8677   6.8677   6.9887   6.9887   7.2649   7.2649   7.4265   7.4265
     7.4296   7.4296   7.6722   7.6722   7.7605   7.7605   8.0335   8.0335
     9.8884   9.8884  11.3723  11.3723  11.4607  11.4607  11.6124  11.6125
    11.7079  11.7079  12.4807  12.4807  12.5344  12.5345  12.9524  12.9524
    13.0618  13.0618  13.1051  13.1051  13.4329  13.4329  13.5517  13.5517
    14.5710  14.5710  14.9380  14.9380  15.7444  15.7445  15.9081  15.9081
    16.9140  16.9141  17.9785  17.9785  18.1462

          k = 0.0000 0.1575 0.0000 ( 62231 PWs)   bands (ev):

   -66.1525 -66.1522 -66.1516 -66.1515 -66.1512 -66.1512 -66.1505 -66.1502
   -30.6113 -30.6093 -30.6038 -30.6015 -30.5659 -30.5646 -30.5639 -30.5626
   -30.5032 -30.5021 -30.5006 -30.5000 -30.4659 -30.4639 -30.4593 -30.4572
   -30.4105 -30.4060 -30.4043 -30.4000 -30.3629 -30.3593 -30.3580 -30.3546
   -20.3088 -20.3086 -20.3086 -20.3084 -20.3082 -20.3081 -20.3080 -20.3078
   -20.2890 -20.2888 -20.2885 -20.2885 -20.2884 -20.2882 -20.2879 -20.2877
   -20.2821 -20.2818 -20.2817 -20.2817 -20.2814 -20.2814 -20.2813 -20.2810
   -20.2798 -20.2794 -20.2792 -20.2789 -20.2774 -20.2771 -20.2771 -20.2765
   -20.2741 -20.2741 -20.2731 -20.2729 -20.2719 -20.2718 -20.2716 -20.2715
   -20.2707 -20.2697 -20.2696 -20.2694 -20.2682 -20.2677 -20.2673 -20.2671
   -20.2586 -20.2585 -20.2571 -20.2570 -20.2569 -20.2569 -20.2555 -20.2554
   -10.0487  -9.8941  -9.6542  -9.5567  -9.5272  -9.3945  -9.2177  -9.1939
    -8.5951  -8.5454  -8.5432  -8.5356  -7.9630  -7.9395  -7.8494  -7.8300
    -7.8257  -7.8124  -7.8081  -7.7512  -7.6587  -7.6052  -7.5832  -7.5419
     0.9099   0.9213   0.9921   1.0077   1.2209   1.2273   1.3844   1.4051
     2.0835   2.1908   2.1909   2.2107   2.2490   2.3174   2.7290   2.7449
     2.8686   2.8804   3.8930   3.9225   4.1186   4.1837   4.4058   4.4279
     4.4796   4.5125   4.6934   5.2268   5.2341   5.2904   5.2999   5.3408
     5.4006   5.4783   5.4938   5.5834   5.5941   5.6072   5.6450   5.6814
     5.7784   5.8153   5.8327   5.9332   5.9379   5.9868   6.0382   6.0492
     6.1900   6.2141   6.2983   6.4246   6.6802   6.7202   6.7698   6.8490
     6.8713   6.8773   6.9168   6.9188   7.0323   7.0425   7.1223   7.1459
     7.1917   7.2021   7.8216   7.8475   7.9706   7.9998   8.1469   8.1498
     9.6416   9.6613  10.0892  10.1158  10.1436  10.1490  11.9648  12.2329
    12.2702  12.3483  12.5354  12.6473  12.6551  12.6951  12.7217  12.9914
    13.1023  13.2682  13.3155  13.4880  13.6289  13.7201  13.9375  13.9724
    14.5352  14.6525  14.8023  15.0269  15.4093  15.4732  15.5988  16.1135
    16.1290  16.6936  17.0747  17.1869  17.4495

          k = 0.0000 0.1575 0.1667 ( 62237 PWs)   bands (ev):

   -66.1525 -66.1521 -66.1516 -66.1514 -66.1513 -66.1511 -66.1506 -66.1503
   -30.6051 -30.6032 -30.5971 -30.5949 -30.5666 -30.5647 -30.5635 -30.5616
   -30.5100 -30.5089 -30.5071 -30.5064 -30.4656 -30.4635 -30.4600 -30.4579
   -30.4100 -30.4056 -30.4047 -30.4004 -30.3625 -30.3590 -30.3583 -30.3549
   -20.3088 -20.3086 -20.3086 -20.3083 -20.3083 -20.3081 -20.3080 -20.3079
   -20.2890 -20.2888 -20.2885 -20.2885 -20.2884 -20.2883 -20.2880 -20.2878
   -20.2821 -20.2818 -20.2817 -20.2817 -20.2814 -20.2814 -20.2813 -20.2810
   -20.2798 -20.2794 -20.2792 -20.2789 -20.2771 -20.2767 -20.2766 -20.2760
   -20.2743 -20.2742 -20.2730 -20.2727 -20.2720 -20.2717 -20.2716 -20.2716
   -20.2710 -20.2700 -20.2695 -20.2693 -20.2686 -20.2679 -20.2677 -20.2674
   -20.2585 -20.2584 -20.2572 -20.2571 -20.2569 -20.2568 -20.2556 -20.2555
    -9.9873  -9.8282  -9.5632  -9.5423  -9.4623  -9.4067  -9.1823  -9.1614
    -8.6099  -8.5511  -8.5421  -8.5304  -8.0648  -8.0593  -7.9634  -7.9615
    -7.8771  -7.8320  -7.8141  -7.7573  -7.6555  -7.6081  -7.5826  -7.5437
     1.0756   1.0841   1.2198   1.2251   1.2712   1.2840   1.4924   1.5227
     2.1179   2.1920   2.2406   2.2450   2.3019   2.3289   2.7520   2.8222
     2.8604   2.9663   3.9093   3.9907   4.0285   4.1564   4.1722   4.2155
     4.4716   4.4778   4.6705   4.8320   4.9192   5.1853   5.2330   5.2539
     5.2981   5.3537   5.4204   5.4926   5.5450   5.5839   5.5957   5.6796
     5.7380   5.7650   5.8093   5.8828   5.9301   6.0341   6.0746   6.1107
     6.1853   6.2317   6.5155   6.6400   6.7076   6.7495   6.7771   6.8008
     6.8174   6.8351   6.8691   6.8905   6.8922   6.9066   7.1073   7.1334
     7.1875   7.2105   7.8000   7.8184   7.9795   8.0034   8.0980   8.1174
     9.9129   9.9454  10.1171  10.1722  10.3187  10.3879  12.0319  12.2553
    12.3023  12.3499  12.5576  12.5609  12.5897  12.6871  12.7623  12.9056
    13.0746  13.1230  13.2507  13.4891  13.5782  13.7829  13.7937  13.9000
    14.5557  14.7368  14.8225  15.1232  15.4572  15.5279  15.6420  16.0941
    16.4436  16.8569  16.9108  17.2887  17.5161

          k = 0.0000 0.1575 0.3333 ( 62284 PWs)   bands (ev):

   -66.1523 -66.1520 -66.1518 -66.1515 -66.1513 -66.1509 -66.1508 -66.1504
   -30.5891 -30.5880 -30.5789 -30.5769 -30.5689 -30.5672 -30.5589 -30.5575
   -30.5287 -30.5273 -30.5244 -30.5236 -30.4646 -30.4625 -30.4615 -30.4594
   -30.4089 -30.4058 -30.4045 -30.4015 -30.3616 -30.3591 -30.3581 -30.3557
   -20.3087 -20.3085 -20.3084 -20.3084 -20.3082 -20.3082 -20.3081 -20.3080
   -20.2889 -20.2887 -20.2886 -20.2884 -20.2884 -20.2882 -20.2881 -20.2879
   -20.2820 -20.2818 -20.2818 -20.2817 -20.2816 -20.2814 -20.2814 -20.2811
   -20.2796 -20.2793 -20.2793 -20.2790 -20.2763 -20.2758 -20.2755 -20.2747
   -20.2747 -20.2745 -20.2727 -20.2727 -20.2720 -20.2719 -20.2718 -20.2714
   -20.2712 -20.2706 -20.2696 -20.2692 -20.2691 -20.2689 -20.2683 -20.2680
   -20.2583 -20.2581 -20.2575 -20.2574 -20.2567 -20.2565 -20.2559 -20.2558
    -9.8381  -9.6718  -9.5916  -9.4465  -9.3077  -9.1931  -9.0573  -9.0373
    -8.6878  -8.5968  -8.5302  -8.5106  -8.3943  -8.3442  -8.3340  -8.2630
    -7.8740  -7.8308  -7.8188  -7.7739  -7.6457  -7.6178  -7.5754  -7.5517
     1.2013   1.2032   1.2192   1.2222   1.9586   1.9891   2.0217   2.1465
     2.1483   2.2189   2.2664   2.4258   2.5073   2.5586   2.7741   2.8421
     3.0716   3.1856   3.5261   3.6000   3.8367   3.9602   4.0211   4.1674
     4.2740   4.3851   4.4425   4.5148   4.5700   4.6070   4.6301   4.9027
     4.9171   5.0234   5.2460   5.2661   5.3602   5.4042   5.5734   5.7672
     5.8129   5.8446   5.8539   5.8989   5.9121   5.9275   6.0397   6.0826
     6.2854   6.3379   6.4885   6.4938   6.5408   6.6629   6.7931   6.8135
     6.8260   6.9164   7.0007   7.0362   7.0492   7.0890   7.1331   7.1775
     7.2732   7.3406   7.6910   7.6975   7.9510   7.9910   7.9942   8.0047
    10.1039  10.1185  10.6056  10.6748  10.9153  10.9901  12.0593  12.1487
    12.2361  12.2376  12.3495  12.4669  12.5124  12.5865  12.5969  12.7901
    12.9098  13.2072  13.2122  13.2609  13.4034  13.5095  13.7182  13.7543
    14.6464  14.7599  15.0561  15.3694  15.4797  15.6559  16.0186  16.1589
    16.3747  17.3084  17.3320  17.6243  17.7604

          k = 0.0000 0.1575-0.5000 ( 62234 PWs)   bands (ev):

   -66.1521 -66.1521 -66.1517 -66.1517 -66.1510 -66.1510 -66.1507 -66.1507
   -30.5746 -30.5746 -30.5739 -30.5738 -30.5540 -30.5539 -30.5523 -30.5523
   -30.5452 -30.5452 -30.5451 -30.5451 -30.4631 -30.4631 -30.4611 -30.4611
   -30.4074 -30.4074 -30.4030 -30.4030 -30.3604 -30.3604 -30.3569 -30.3569
   -20.3085 -20.3085 -20.3083 -20.3083 -20.3083 -20.3083 -20.3081 -20.3081
   -20.2888 -20.2888 -20.2885 -20.2885 -20.2883 -20.2882 -20.2881 -20.2881
   -20.2819 -20.2819 -20.2817 -20.2817 -20.2816 -20.2815 -20.2813 -20.2812
   -20.2795 -20.2795 -20.2792 -20.2792 -20.2754 -20.2754 -20.2750 -20.2750
   -20.2740 -20.2740 -20.2731 -20.2731 -20.2723 -20.2723 -20.2712 -20.2712
   -20.2709 -20.2709 -20.2703 -20.2703 -20.2687 -20.2687 -20.2687 -20.2687
   -20.2579 -20.2579 -20.2578 -20.2578 -20.2563 -20.2563 -20.2562 -20.2561
    -9.6881  -9.6881  -9.5282  -9.5282  -8.9546  -8.9545  -8.8148  -8.8148
    -8.7982  -8.7982  -8.7602  -8.7602  -8.4993  -8.4993  -8.4551  -8.4551
    -7.8533  -7.8533  -7.7966  -7.7966  -7.6318  -7.6318  -7.5637  -7.5637
     1.2186   1.2186   1.2199   1.2199   2.1243   2.1243   2.2035   2.2035
     2.7583   2.7583   2.8348   2.8348   2.9083   2.9083   3.0268   3.0269
     3.0394   3.0395   3.2687   3.2688   3.3582   3.3582   3.7371   3.7371
     3.8893   3.8893   4.2827   4.2827   4.4383   4.4383   4.7003   4.7003
     5.0333   5.0333   5.0636   5.0636   5.3603   5.3603   5.6300   5.6300
     5.8585   5.8585   5.8853   5.8853   5.9505   5.9505   6.0867   6.0867
     6.2424   6.2424   6.3186   6.3186   6.6061   6.6061   6.8139   6.8139
     6.9448   6.9448   6.9860   6.9861   7.1484   7.1484   7.4263   7.4263
     7.4363   7.4363   7.6699   7.6699   7.7341   7.7341   8.0024   8.0024
    10.1163  10.1163  11.3802  11.3803  11.4605  11.4605  11.6613  11.6613
    11.7505  11.7505  12.3874  12.3874  12.4901  12.4901  12.8486  12.8486
    13.0063  13.0064  13.0930  13.0930  13.4283  13.4283  13.5877  13.5877
    14.7250  14.7250  15.3054  15.3054  15.8236  15.8236  15.8761  15.8761
    16.9656  16.9656  17.7617  17.7617  18.2297

          k = 0.0000 0.3150 0.0000 ( 62175 PWs)   bands (ev):

   -66.1525 -66.1523 -66.1515 -66.1514 -66.1513 -66.1512 -66.1505 -66.1503
   -30.6109 -30.6097 -30.6033 -30.6020 -30.5655 -30.5644 -30.5642 -30.5630
   -30.5029 -30.5023 -30.5004 -30.5000 -30.4655 -30.4643 -30.4588 -30.4576
   -30.4004 -30.3962 -30.3946 -30.3906 -30.3730 -30.3692 -30.3679 -30.3643
   -20.3088 -20.3086 -20.3085 -20.3084 -20.3082 -20.3080 -20.3080 -20.3079
   -20.2890 -20.2889 -20.2885 -20.2884 -20.2884 -20.2883 -20.2879 -20.2878
   -20.2820 -20.2819 -20.2816 -20.2816 -20.2815 -20.2814 -20.2812 -20.2810
   -20.2797 -20.2795 -20.2791 -20.2790 -20.2773 -20.2771 -20.2769 -20.2765
   -20.2734 -20.2733 -20.2725 -20.2723 -20.2721 -20.2718 -20.2716 -20.2713
   -20.2712 -20.2705 -20.2702 -20.2702 -20.2682 -20.2679 -20.2673 -20.2672
   -20.2586 -20.2585 -20.2571 -20.2570 -20.2570 -20.2569 -20.2555 -20.2554
   -10.0086  -9.9204  -9.6264  -9.5716  -9.4892  -9.4149  -9.2125  -9.1988
    -8.4177  -8.3836  -8.3760  -8.3677  -7.9879  -7.9363  -7.8771  -7.8690
    -7.8531  -7.8353  -7.8349  -7.8209  -7.7844  -7.7824  -7.7587  -7.7563
     0.9117   0.9181   0.9947   1.0033   1.2227   1.2272   1.3992   1.4053
     2.1430   2.1934   2.6362   2.7065   2.8296   2.8426   2.9446   3.0571
     3.0665   3.1592   3.5417   3.5727   3.7833   3.8147   4.2205   4.3940
     4.4136   4.4732   4.4838   4.6597   4.7459   4.9781   5.3333   5.3645
     5.3774   5.3791   5.4557   5.4774   5.5312   5.6810   5.7092   5.7207
     5.7416   5.7722   5.8205   5.9662   5.9826   5.9968   6.0372   6.0549
     6.0554   6.1012   6.3887   6.4270   6.5008   6.6672   6.6692   6.7874
     6.8098   6.9012   6.9160   6.9180   7.0469   7.0502   7.2362   7.2399
     7.2644   7.2833   7.7794   7.8447   7.8702   7.8969   7.9252   7.9699
     9.6585   9.6658  10.5066  10.5994  10.6568  10.6749  11.6175  11.8129
    11.8969  11.9389  12.6514  12.6610  12.6761  12.6967  12.7298  12.9669
    13.1409  13.3136  13.3253  13.4321  13.5634  13.7274  13.8329  13.8535
    15.1025  15.2149  15.2908  15.2916  15.3940  15.5334  15.9721  16.0299
    16.2197  16.5254  16.9484  17.4081  17.5511

          k = 0.0000 0.3150 0.1667 ( 62260 PWs)   bands (ev):

   -66.1524 -66.1522 -66.1516 -66.1514 -66.1514 -66.1512 -66.1505 -66.1503
   -30.6047 -30.6036 -30.5966 -30.5954 -30.5662 -30.5651 -30.5631 -30.5620
   -30.5097 -30.5091 -30.5069 -30.5064 -30.4651 -30.4640 -30.4595 -30.4583
   -30.4000 -30.3958 -30.3950 -30.3909 -30.3726 -30.3689 -30.3682 -30.3646
   -20.3087 -20.3086 -20.3085 -20.3084 -20.3082 -20.3081 -20.3080 -20.3079
   -20.2890 -20.2888 -20.2885 -20.2885 -20.2884 -20.2883 -20.2879 -20.2878
   -20.2820 -20.2819 -20.2816 -20.2816 -20.2815 -20.2815 -20.2812 -20.2811
   -20.2797 -20.2795 -20.2792 -20.2790 -20.2770 -20.2767 -20.2764 -20.2760
   -20.2736 -20.2734 -20.2725 -20.2723 -20.2721 -20.2718 -20.2716 -20.2714
   -20.2714 -20.2706 -20.2702 -20.2701 -20.2686 -20.2682 -20.2677 -20.2675
   -20.2585 -20.2584 -20.2572 -20.2571 -20.2569 -20.2568 -20.2556 -20.2555
    -9.9458  -9.8551  -9.5338  -9.5036  -9.4773  -9.4276  -9.1779  -9.1658
    -8.4297  -8.3941  -8.3795  -8.3641  -8.0797  -8.0516  -7.9865  -7.9541
    -7.9078  -7.8739  -7.8390  -7.8331  -7.8147  -7.7755  -7.7647  -7.7606
     1.0768   1.0818   1.2214   1.2253   1.2738   1.2815   1.5141   1.5229
     2.2337   2.2848   2.6463   2.7067   2.8122   2.8688   2.9495   3.0492
     3.1223   3.2419   3.5754   3.6480   3.7781   3.8058   4.1230   4.1449
     4.2364   4.4408   4.4663   4.6273   4.7397   4.9372   4.9790   5.0556
     5.1609   5.3268   5.3936   5.4163   5.4338   5.4355   5.6092   5.6789
     5.6835   5.7575   5.8244   5.8449   5.8875   5.9084   5.9946   6.0625
     6.2258   6.2336   6.5204   6.5339   6.6339   6.6572   6.7424   6.8020
     6.8089   6.8597   6.8768   6.9235   6.9385   6.9866   7.2421   7.2548
     7.2697   7.2885   7.7693   7.8166   7.8663   7.8902   7.9015   7.9417
     9.9513   9.9557  10.6598  10.6785  10.6818  10.7749  11.7057  11.8960
    11.8979  11.9388  12.5656  12.5762  12.6773  12.7129  12.7692  12.9686
    13.1330  13.1573  13.1800  13.4305  13.4315  13.5626  13.8435  13.8593
    15.1334  15.2201  15.3763  15.4324  15.4616  15.6897  15.9547  16.3303
    16.3915  16.5002  17.0227  17.2316  17.5582

          k = 0.0000 0.3150 0.3333 ( 62269 PWs)   bands (ev):

   -66.1522 -66.1520 -66.1517 -66.1515 -66.1512 -66.1510 -66.1507 -66.1505
   -30.5889 -30.5882 -30.5785 -30.5773 -30.5686 -30.5676 -30.5586 -30.5578
   -30.5284 -30.5276 -30.5242 -30.5237 -30.4641 -30.4630 -30.4610 -30.4598
   -30.3990 -30.3960 -30.3948 -30.3920 -30.3717 -30.3691 -30.3680 -30.3655
   -20.3086 -20.3085 -20.3084 -20.3083 -20.3083 -20.3082 -20.3081 -20.3080
   -20.2889 -20.2887 -20.2886 -20.2884 -20.2884 -20.2883 -20.2881 -20.2880
   -20.2820 -20.2818 -20.2817 -20.2816 -20.2816 -20.2814 -20.2813 -20.2812
   -20.2796 -20.2794 -20.2793 -20.2791 -20.2760 -20.2756 -20.2754 -20.2748
   -20.2741 -20.2738 -20.2729 -20.2723 -20.2722 -20.2717 -20.2715 -20.2715
   -20.2710 -20.2710 -20.2699 -20.2698 -20.2695 -20.2688 -20.2687 -20.2684
   -20.2583 -20.2582 -20.2575 -20.2574 -20.2566 -20.2566 -20.2559 -20.2558
    -9.7939  -9.6993  -9.5507  -9.4690  -9.2713  -9.2084  -9.0528  -9.0414
    -8.5432  -8.4867  -8.4054  -8.3771  -8.3523  -8.3504  -8.2883  -8.2159
    -7.9141  -7.8851  -7.8263  -7.8215  -7.8118  -7.7817  -7.7814  -7.7732
     1.2021   1.2041   1.2204   1.2232   2.0157   2.0229   2.1128   2.1473
     2.4850   2.5433   2.6760   2.7013   2.8155   2.8892   2.9640   3.0320
     3.3203   3.4180   3.5386   3.5653   3.6593   3.7645   3.7769   3.8322
     4.1406   4.2944   4.3126   4.4140   4.4570   4.5076   4.6021   4.6552
     4.7908   4.9066   4.9320   5.0640   5.2551   5.2611   5.3597   5.4587
     5.4969   5.5926   5.7750   5.8808   5.9626   5.9641   6.0056   6.0762
     6.3332   6.3411   6.5334   6.5600   6.5900   6.6074   6.6464   6.6716
     6.8980   6.9345   7.1201   7.1250   7.1606   7.2532   7.2561   7.2786
     7.2911   7.3748   7.6774   7.7007   7.8149   7.8435   7.8625   7.8762
    10.5594  10.6268  10.6650  10.7661  11.1591  11.2552  11.8784  11.9382
    11.9745  12.1491  12.1506  12.1663  12.5509  12.6088  12.7022  12.7829
    12.9077  13.0314  13.1356  13.1553  13.2356  13.4540  13.7072  13.7545
    15.1712  15.2134  15.5943  15.6659  15.8673  15.8921  16.2631  16.4290
    16.6863  16.8695  17.1331  17.3213  17.7539

          k = 0.0000 0.3150-0.5000 ( 62306 PWs)   bands (ev):

   -66.1520 -66.1520 -66.1518 -66.1518 -66.1510 -66.1509 -66.1508 -66.1507
   -30.5744 -30.5744 -30.5740 -30.5740 -30.5536 -30.5536 -30.5526 -30.5526
   -30.5452 -30.5452 -30.5451 -30.5451 -30.4627 -30.4627 -30.4615 -30.4615
   -30.3975 -30.3975 -30.3934 -30.3934 -30.3704 -30.3704 -30.3667 -30.3667
   -20.3085 -20.3085 -20.3083 -20.3083 -20.3083 -20.3083 -20.3082 -20.3081
   -20.2887 -20.2887 -20.2886 -20.2886 -20.2882 -20.2882 -20.2881 -20.2881
   -20.2819 -20.2819 -20.2817 -20.2817 -20.2815 -20.2815 -20.2813 -20.2813
   -20.2794 -20.2794 -20.2793 -20.2792 -20.2749 -20.2749 -20.2744 -20.2744
   -20.2741 -20.2741 -20.2733 -20.2733 -20.2720 -20.2720 -20.2713 -20.2713
   -20.2706 -20.2706 -20.2701 -20.2701 -20.2694 -20.2693 -20.2693 -20.2693
   -20.2579 -20.2579 -20.2578 -20.2578 -20.2563 -20.2563 -20.2562 -20.2562
    -9.6441  -9.6441  -9.5536  -9.5536  -8.8932  -8.8931  -8.8129  -8.8129
    -8.7967  -8.7967  -8.7680  -8.7680  -8.3609  -8.3609  -8.3195  -8.3195
    -7.9005  -7.9005  -7.8097  -7.8097  -7.8041  -7.8041  -7.7849  -7.7849
     1.2195   1.2195   1.2215   1.2215   2.6093   2.6093   2.7069   2.7069
     2.8280   2.8280   2.9049   2.9049   2.9646   2.9646   3.0743   3.0743
     3.0787   3.0787   3.3376   3.3376   3.3528   3.3528   3.7320   3.7320
     4.0435   4.0435   4.0553   4.0553   4.1323   4.1323   4.3080   4.3080
     4.9481   4.9481   5.0290   5.0290   5.0809   5.0809   5.2090   5.2090
     5.5292   5.5292   5.8436   5.8436   6.0156   6.0156   6.0826   6.0826
     6.3083   6.3083   6.3383   6.3383   6.6285   6.6285   6.6463   6.6463
     7.1523   7.1523   7.1682   7.1683   7.2361   7.2361   7.4266   7.4266
     7.4601   7.4601   7.6153   7.6153   7.6496   7.6496   7.8675   7.8675
    10.6608  10.6608  11.3960  11.3960  11.4610  11.4610  11.7925  11.7925
    11.9103  11.9103  12.0186  12.0186  12.4143  12.4143  12.5747  12.5747
    12.8686  12.8687  13.0651  13.0651  13.4343  13.4343  13.5509  13.5509
    15.1971  15.1971  15.7737  15.7737  16.0925  16.0925  16.2446  16.2446
    17.1324  17.1324  17.3198  17.3198  17.9128

          k = 0.0000-0.4725 0.0000 ( 62212 PWs)   bands (ev):

   -66.1524 -66.1524 -66.1514 -66.1514 -66.1513 -66.1513 -66.1504 -66.1504
   -30.6103 -30.6103 -30.6026 -30.6026 -30.5649 -30.5649 -30.5636 -30.5636
   -30.5026 -30.5026 -30.5002 -30.5002 -30.4649 -30.4649 -30.4582 -30.4582
   -30.3867 -30.3867 -30.3828 -30.3828 -30.3813 -30.3813 -30.3775 -30.3775
   -20.3087 -20.3087 -20.3085 -20.3085 -20.3081 -20.3081 -20.3079 -20.3079
   -20.2889 -20.2889 -20.2885 -20.2885 -20.2884 -20.2884 -20.2879 -20.2878
   -20.2819 -20.2819 -20.2816 -20.2815 -20.2815 -20.2815 -20.2811 -20.2811
   -20.2796 -20.2796 -20.2790 -20.2790 -20.2772 -20.2772 -20.2767 -20.2767
   -20.2726 -20.2726 -20.2724 -20.2724 -20.2717 -20.2717 -20.2716 -20.2715
   -20.2712 -20.2712 -20.2709 -20.2709 -20.2681 -20.2681 -20.2673 -20.2672
   -20.2586 -20.2586 -20.2570 -20.2570 -20.2570 -20.2570 -20.2554 -20.2554
    -9.9611  -9.9611  -9.5959  -9.5959  -9.4478  -9.4478  -9.2056  -9.2056
    -8.1802  -8.1801  -8.1384  -8.1383  -8.1144  -8.1143  -8.1026  -8.1026
    -7.9273  -7.9273  -7.8397  -7.8397  -7.8131  -7.8131  -7.7671  -7.7671
     0.9146   0.9146   0.9987   0.9987   1.2252   1.2252   1.4044   1.4044
     2.1694   2.1694   3.0951   3.0951   3.1851   3.1851   3.2518   3.2518
     3.2928   3.2929   3.5327   3.5327   3.8063   3.8063   3.8429   3.8430
     4.0063   4.0063   4.4275   4.4275   4.4920   4.4920   5.3787   5.3787
     5.4496   5.4496   5.4712   5.4712   5.5880   5.5880   5.7529   5.7529
     5.8339   5.8339   5.9078   5.9078   5.9540   5.9540   5.9748   5.9748
     6.0720   6.0720   6.3733   6.3733   6.5348   6.5348   6.6063   6.6063
     6.8301   6.8301   6.9187   6.9187   7.0533   7.0533   7.5464   7.5464
     7.5850   7.5850   7.6006   7.6006   7.6593   7.6594   7.8538   7.8538
     9.6651   9.6651  11.0752  11.0752  11.1403  11.1403  11.3121  11.3121
    11.4100  11.4100  12.6912  12.6912  12.7050  12.7050  12.8232  12.8232
    13.2581  13.2581  13.4147  13.4147  13.4990  13.4990  13.8221  13.8221
    15.3457  15.3457  15.6862  15.6862  15.7588  15.7588  15.7832  15.7832
    16.1503  16.1503  17.6361  17.6361  18.0760

          k = 0.0000-0.4725 0.1667 ( 62246 PWs)   bands (ev):

   -66.1523 -66.1523 -66.1515 -66.1515 -66.1513 -66.1513 -66.1504 -66.1504
   -30.6041 -30.6041 -30.5960 -30.5960 -30.5657 -30.5657 -30.5626 -30.5626
   -30.5094 -30.5094 -30.5066 -30.5066 -30.4645 -30.4645 -30.4589 -30.4589
   -30.3863 -30.3863 -30.3824 -30.3824 -30.3816 -30.3816 -30.3779 -30.3778
   -20.3087 -20.3087 -20.3085 -20.3084 -20.3081 -20.3081 -20.3080 -20.3080
   -20.2889 -20.2889 -20.2885 -20.2884 -20.2884 -20.2884 -20.2879 -20.2879
   -20.2819 -20.2819 -20.2816 -20.2816 -20.2815 -20.2815 -20.2812 -20.2811
   -20.2796 -20.2796 -20.2791 -20.2791 -20.2768 -20.2768 -20.2762 -20.2762
   -20.2728 -20.2728 -20.2725 -20.2725 -20.2717 -20.2717 -20.2714 -20.2714
   -20.2711 -20.2711 -20.2709 -20.2709 -20.2684 -20.2684 -20.2677 -20.2677
   -20.2585 -20.2585 -20.2571 -20.2571 -20.2569 -20.2569 -20.2556 -20.2556
    -9.8968  -9.8968  -9.5021  -9.5021  -9.4613  -9.4613  -9.1719  -9.1719
    -8.1964  -8.1964  -8.1578  -8.1578  -8.1256  -8.1256  -8.1106  -8.1106
    -8.0238  -8.0238  -7.9332  -7.9332  -7.8464  -7.8464  -7.7731  -7.7731
     1.0790   1.0790   1.2237   1.2237   1.2775   1.2775   1.5216   1.5216
     2.2610   2.2610   3.1289   3.1289   3.1853   3.1853   3.2927   3.2927
     3.3215   3.3215   3.5140   3.5140   3.8179   3.8179   3.8480   3.8480
     4.0232   4.0232   4.1612   4.1612   4.4807   4.4807   5.0758   5.0758
     5.2657   5.2658   5.3743   5.3743   5.5029   5.5029   5.5614   5.5614
     5.6900   5.6900   5.8211   5.8211   5.9060   5.9060   6.0283   6.0283
     6.2455   6.2455   6.4446   6.4446   6.5604   6.5604   6.7901   6.7901
     6.8428   6.8428   6.8882   6.8882   6.9603   6.9603   7.5534   7.5534
     7.5758   7.5758   7.6001   7.6002   7.6498   7.6498   7.8295   7.8295
     9.9580   9.9580  11.1885  11.1885  11.2362  11.2362  11.3216  11.3216
    11.4367  11.4367  12.5744  12.5744  12.7390  12.7390  12.8783  12.8783
    13.2311  13.2311  13.2640  13.2640  13.3241  13.3241  13.8406  13.8406
    15.3666  15.3666  15.6768  15.6768  15.9495  15.9495  16.0408  16.0408
    16.2235  16.2235  17.5942  17.5945  17.7822

          k = 0.0000-0.4725 0.3333 ( 62268 PWs)   bands (ev):

   -66.1521 -66.1521 -66.1516 -66.1516 -66.1511 -66.1511 -66.1506 -66.1506
   -30.5886 -30.5885 -30.5779 -30.5779 -30.5681 -30.5681 -30.5582 -30.5582
   -30.5280 -30.5280 -30.5239 -30.5239 -30.4635 -30.4635 -30.4604 -30.4604
   -30.3853 -30.3853 -30.3826 -30.3826 -30.3814 -30.3814 -30.3788 -30.3788
   -20.3086 -20.3085 -20.3084 -20.3083 -20.3083 -20.3082 -20.3081 -20.3081
   -20.2888 -20.2888 -20.2885 -20.2885 -20.2883 -20.2883 -20.2880 -20.2880
   -20.2819 -20.2819 -20.2817 -20.2817 -20.2815 -20.2815 -20.2813 -20.2813
   -20.2795 -20.2795 -20.2792 -20.2792 -20.2758 -20.2758 -20.2751 -20.2750
   -20.2734 -20.2734 -20.2729 -20.2729 -20.2718 -20.2718 -20.2715 -20.2715
   -20.2708 -20.2708 -20.2706 -20.2706 -20.2692 -20.2692 -20.2687 -20.2687
   -20.2582 -20.2582 -20.2574 -20.2574 -20.2566 -20.2566 -20.2558 -20.2558
    -9.7424  -9.7424  -9.5054  -9.5054  -9.2349  -9.2349  -9.0470  -9.0470
    -8.4355  -8.4355  -8.3939  -8.3939  -8.1473  -8.1473  -8.1219  -8.1219
    -8.0930  -8.0930  -8.0567  -8.0567  -7.8341  -7.8341  -7.7896  -7.7896
     1.2033   1.2033   1.2221   1.2221   2.0233   2.0233   2.1411   2.1411
     2.5202   2.5202   3.1647   3.1647   3.2070   3.2070   3.3100   3.3100
     3.4361   3.4361   3.4812   3.4812   3.6322   3.6323   3.7582   3.7582
     3.8932   3.8932   4.0367   4.0367   4.4113   4.4113   4.5420   4.5420
     4.7536   4.7536   4.8907   4.8907   5.0546   5.0546   5.2657   5.2657
     5.6410   5.6410   5.7729   5.7730   5.9875   5.9875   6.0664   6.0664
     6.3479   6.3479   6.5144   6.5144   6.5460   6.5460   6.6013   6.6013
     6.9330   6.9330   7.1991   7.1991   7.2391   7.2391   7.5216   7.5216
     7.5657   7.5657   7.5941   7.5941   7.6171   7.6171   7.7350   7.7350
    10.6332  10.6332  11.3044  11.3044  11.3356  11.3356  11.5740  11.5740
    11.6946  11.6946  12.1480  12.1480  12.7460  12.7460  12.7806  12.7806
    12.8617  12.8617  12.9851  12.9851  13.3168  13.3168  13.7206  13.7206
    15.4656  15.4656  15.6437  15.6437  16.3684  16.3684  16.6146  16.6146
    16.7058  16.7058  17.2126  17.2126  17.5334

          k = 0.0000-0.4725-0.5000 ( 62284 PWs)   bands (ev):

   -66.1519 -66.1519 -66.1519 -66.1519 -66.1509 -66.1508 -66.1508 -66.1508
   -30.5742 -30.5742 -30.5742 -30.5742 -30.5531 -30.5531 -30.5531 -30.5531
   -30.5452 -30.5452 -30.5452 -30.5452 -30.4621 -30.4621 -30.4621 -30.4621
   -30.3840 -30.3840 -30.3840 -30.3840 -30.3801 -30.3801 -30.3801 -30.3801
   -20.3084 -20.3084 -20.3084 -20.3084 -20.3082 -20.3082 -20.3082 -20.3082
   -20.2887 -20.2887 -20.2887 -20.2887 -20.2882 -20.2882 -20.2882 -20.2882
   -20.2818 -20.2818 -20.2818 -20.2818 -20.2814 -20.2814 -20.2814 -20.2814
   -20.2793 -20.2793 -20.2793 -20.2793 -20.2745 -20.2745 -20.2745 -20.2745
   -20.2738 -20.2738 -20.2738 -20.2738 -20.2717 -20.2717 -20.2717 -20.2717
   -20.2701 -20.2701 -20.2701 -20.2701 -20.2698 -20.2698 -20.2698 -20.2698
   -20.2578 -20.2578 -20.2578 -20.2578 -20.2562 -20.2562 -20.2562 -20.2562
    -9.5943  -9.5943  -9.5943  -9.5943  -8.8424  -8.8424  -8.8424  -8.8424
    -8.7803  -8.7803  -8.7803  -8.7803  -8.1377  -8.1377  -8.1377  -8.1376
    -8.0827  -8.0827  -8.0827  -8.0826  -7.8122  -7.8122  -7.8122  -7.8122
     1.2208   1.2208   1.2208   1.2208   2.8209   2.8209   2.8209   2.8209
     2.9565   2.9565   2.9565   2.9565   3.1935   3.1935   3.1935   3.1935
     3.3304   3.3304   3.3304   3.3304   3.5271   3.5271   3.5271   3.5271
     3.7576   3.7576   3.7576   3.7576   4.3989   4.3989   4.3989   4.3989
     4.4965   4.4966   4.4966   4.4966   5.0474   5.0474   5.0474   5.0474
     5.7022   5.7022   5.7022   5.7023   6.0762   6.0762   6.0762   6.0762
     6.3392   6.3392   6.3392   6.3392   6.5572   6.5572   6.5572   6.5572
     7.3036   7.3036   7.3036   7.3036   7.4518   7.4518   7.4518   7.4518
     7.4924   7.4924   7.4924   7.4924   7.6425   7.6426   7.6426   7.6426
    11.2664  11.2664  11.2664  11.2664  11.4967  11.4967  11.4967  11.4967
    12.1325  12.1325  12.1325  12.1325  12.2221  12.2221  12.2221  12.2221
    12.9457  12.9457  12.9457  12.9457  13.4723  13.4723  13.4723  13.4723
    15.5753  15.5753  15.5753  15.5753  16.7353  16.7353  16.7353  16.7353
    17.2619  17.2619  17.2619  17.2619  17.4671

          k = 0.1667 0.0000 0.1667 ( 62234 PWs)   bands (ev):

   -66.1524 -66.1520 -66.1516 -66.1515 -66.1512 -66.1511 -66.1507 -66.1503
   -30.6044 -30.6022 -30.5977 -30.5952 -30.5605 -30.5590 -30.5570 -30.5552
   -30.5109 -30.5096 -30.5066 -30.5058 -30.4725 -30.4703 -30.4664 -30.4642
   -30.4134 -30.4093 -30.4079 -30.4040 -30.3585 -30.3555 -30.3544 -30.3514
   -20.3088 -20.3086 -20.3085 -20.3083 -20.3083 -20.3081 -20.3080 -20.3079
   -20.2890 -20.2887 -20.2885 -20.2885 -20.2884 -20.2882 -20.2880 -20.2878
   -20.2822 -20.2819 -20.2818 -20.2818 -20.2815 -20.2814 -20.2814 -20.2811
   -20.2793 -20.2788 -20.2787 -20.2784 -20.2771 -20.2768 -20.2765 -20.2760
   -20.2746 -20.2744 -20.2732 -20.2731 -20.2722 -20.2721 -20.2721 -20.2718
   -20.2708 -20.2699 -20.2692 -20.2690 -20.2686 -20.2677 -20.2677 -20.2673
   -20.2585 -20.2583 -20.2571 -20.2571 -20.2570 -20.2569 -20.2558 -20.2556
    -9.9546  -9.7711  -9.5903  -9.4766  -9.4675  -9.3105  -9.1422  -9.1139
    -8.6930  -8.5974  -8.5938  -8.5894  -8.0816  -8.0620  -7.9819  -7.9761
    -7.9616  -7.9539  -7.9228  -7.8795  -7.5690  -7.5208  -7.4980  -7.4552
     1.1819   1.1961   1.2700   1.2831   1.4686   1.4730   1.5943   1.6787
     1.9569   1.9862   2.0355   2.1292   2.3178   2.3981   2.7439   2.7753
     2.8712   2.8973   4.0020   4.0298   4.0931   4.2052   4.2151   4.2351
     4.3216   4.4465   4.6592   4.7602   4.7996   4.9865   5.1622   5.1696
     5.2473   5.2559   5.2865   5.4691   5.5102   5.5143   5.6371   5.6417
     5.6768   5.7731   5.8055   5.9632   5.9786   6.0552   6.1564   6.2126
     6.3182   6.3834   6.4919   6.5810   6.5875   6.7053   6.7233   6.7837
     6.8147   6.8684   6.8728   6.9468   6.9540   7.0058   7.0687   7.0852
     7.1772   7.1948   7.7884   7.7953   7.9858   8.0214   8.1584   8.1849
    10.0384  10.0807  10.1635  10.2125  10.2643  10.3729  12.0875  12.4005
    12.4139  12.4539  12.5301  12.6052  12.6272  12.6609  12.7168  12.9012
    12.9443  13.0901  13.3561  13.3885  13.6103  13.6218  13.8655  13.9172
    14.3560  14.4618  14.6228  15.1395  15.2314  15.5730  15.6168  16.4356
    16.4427  16.9548  16.9896  17.2257  17.6763

          k = 0.1667 0.0000 0.3333 ( 62265 PWs)   bands (ev):

   -66.1523 -66.1519 -66.1518 -66.1514 -66.1514 -66.1510 -66.1509 -66.1505
   -30.5878 -30.5861 -30.5795 -30.5772 -30.5631 -30.5615 -30.5538 -30.5520
   -30.5292 -30.5276 -30.5235 -30.5228 -30.4715 -30.4693 -30.4682 -30.4659
   -30.4122 -30.4091 -30.4082 -30.4052 -30.3576 -30.3552 -30.3546 -30.3523
   -20.3087 -20.3085 -20.3084 -20.3084 -20.3082 -20.3082 -20.3081 -20.3080
   -20.2889 -20.2886 -20.2886 -20.2884 -20.2883 -20.2883 -20.2881 -20.2879
   -20.2821 -20.2819 -20.2818 -20.2818 -20.2816 -20.2815 -20.2814 -20.2812
   -20.2791 -20.2788 -20.2787 -20.2785 -20.2764 -20.2760 -20.2754 -20.2750
   -20.2747 -20.2746 -20.2730 -20.2729 -20.2724 -20.2721 -20.2717 -20.2717
   -20.2716 -20.2707 -20.2696 -20.2690 -20.2689 -20.2687 -20.2680 -20.2679
   -20.2582 -20.2580 -20.2574 -20.2573 -20.2568 -20.2567 -20.2561 -20.2559
    -9.7952  -9.5982  -9.5280  -9.3516  -9.3388  -9.1994  -9.0286  -9.0066
    -8.7653  -8.6289  -8.5762  -8.5723  -8.3879  -8.3494  -8.3393  -8.2788
    -7.9879  -7.9497  -7.9406  -7.9001  -7.5595  -7.5314  -7.4900  -7.4648
     1.4329   1.4434   1.4703   1.4765   1.8619   1.8744   1.9489   2.0128
     2.0286   2.1513   2.1604   2.3390   2.5862   2.6598   2.8026   2.8603
     3.0053   3.1075   3.5731   3.6722   3.8651   3.9878   4.1230   4.1653
     4.2209   4.4002   4.4075   4.5310   4.5909   4.6165   4.6574   4.7241
     4.8785   4.9113   5.0710   5.1014   5.1107   5.2423   5.5430   5.6488
     5.6940   5.7414   5.8002   5.8430   5.9884   6.0771   6.1450   6.2268
     6.3498   6.3973   6.5627   6.6134   6.6358   6.7070   6.7780   6.8460
     6.8711   6.9234   6.9320   7.0077   7.0547   7.0651   7.1739   7.1815
     7.2445   7.3409   7.6904   7.6910   7.9830   8.0203   8.0216   8.0431
    10.1268  10.1332  10.7151  10.8154  10.8520  10.9590  12.1237  12.2069
    12.2287  12.2936  12.4431  12.4473  12.5724  12.6307  12.7091  12.7894
    12.8548  12.9961  13.3184  13.3261  13.4110  13.4975  13.5979  13.6754
    14.4326  14.5950  14.6880  15.0607  15.5045  15.8793  16.1464  16.3748
    16.4598  17.3175  17.4985  17.6292  17.7051

          k = 0.1667 0.0000-0.5000 ( 62322 PWs)   bands (ev):

   -66.1520 -66.1520 -66.1516 -66.1516 -66.1511 -66.1511 -66.1507 -66.1507
   -30.5703 -30.5703 -30.5698 -30.5698 -30.5544 -30.5544 -30.5525 -30.5525
   -30.5427 -30.5427 -30.5424 -30.5424 -30.4700 -30.4700 -30.4677 -30.4677
   -30.4107 -30.4106 -30.4067 -30.4067 -30.3564 -30.3564 -30.3534 -30.3534
   -20.3085 -20.3085 -20.3084 -20.3084 -20.3083 -20.3083 -20.3081 -20.3081
   -20.2888 -20.2888 -20.2885 -20.2885 -20.2883 -20.2883 -20.2881 -20.2881
   -20.2821 -20.2820 -20.2818 -20.2817 -20.2816 -20.2816 -20.2813 -20.2813
   -20.2790 -20.2790 -20.2786 -20.2786 -20.2756 -20.2756 -20.2753 -20.2753
   -20.2740 -20.2740 -20.2731 -20.2731 -20.2726 -20.2726 -20.2715 -20.2715
   -20.2709 -20.2709 -20.2704 -20.2704 -20.2685 -20.2685 -20.2684 -20.2684
   -20.2578 -20.2578 -20.2577 -20.2577 -20.2564 -20.2564 -20.2563 -20.2563
    -9.6321  -9.6321  -9.4377  -9.4377  -9.0032  -9.0032  -8.8170  -8.8170
    -8.7907  -8.7907  -8.7476  -8.7476  -8.5380  -8.5380  -8.5010  -8.5010
    -7.9687  -7.9686  -7.9226  -7.9226  -7.5456  -7.5456  -7.4776  -7.4776
     1.4585   1.4585   1.4794   1.4794   1.9384   1.9384   1.9940   1.9940
     2.7646   2.7646   2.8721   2.8721   2.9480   2.9480   3.0185   3.0185
     3.0397   3.0397   3.2852   3.2852   3.4116   3.4116   3.7168   3.7168
     3.8162   3.8162   4.4108   4.4108   4.5172   4.5172   4.7344   4.7344
     4.7811   4.7811   4.9265   4.9265   5.0620   5.0620   5.5937   5.5937
     5.6986   5.6986   5.7567   5.7567   6.0293   6.0293   6.2257   6.2257
     6.3730   6.3730   6.5120   6.5120   6.7318   6.7318   6.7844   6.7844
     6.8833   6.8833   6.9413   6.9413   7.1497   7.1497   7.4405   7.4405
     7.4564   7.4564   7.6897   7.6897   7.7592   7.7592   8.0198   8.0198
    10.1376  10.1377  11.4500  11.4500  11.5487  11.5487  11.6250  11.6250
    11.7312  11.7312  12.3921  12.3921  12.5887  12.5887  12.9413  12.9413
    13.0492  13.0492  13.0970  13.0970  13.3012  13.3012  13.5032  13.5032
    14.5354  14.5354  14.9128  14.9128  15.9239  15.9239  16.1699  16.1699
    16.9912  16.9912  17.9111  17.9111  18.1113

          k = 0.1667 0.1575 0.1667 ( 62255 PWs)   bands (ev):

   -66.1524 -66.1521 -66.1516 -66.1515 -66.1512 -66.1512 -66.1507 -66.1503
   -30.6043 -30.6023 -30.5975 -30.5954 -30.5604 -30.5590 -30.5570 -30.5554
   -30.5108 -30.5096 -30.5065 -30.5058 -30.4724 -30.4704 -30.4663 -30.4643
   -30.4097 -30.4058 -30.4043 -30.4006 -30.3622 -30.3591 -30.3580 -30.3550
   -20.3088 -20.3086 -20.3085 -20.3084 -20.3082 -20.3081 -20.3080 -20.3079
   -20.2890 -20.2888 -20.2885 -20.2885 -20.2884 -20.2882 -20.2880 -20.2878
   -20.2821 -20.2819 -20.2818 -20.2818 -20.2816 -20.2815 -20.2814 -20.2811
   -20.2793 -20.2788 -20.2787 -20.2784 -20.2770 -20.2767 -20.2765 -20.2760
   -20.2744 -20.2741 -20.2731 -20.2729 -20.2722 -20.2721 -20.2721 -20.2718
   -20.2709 -20.2700 -20.2695 -20.2693 -20.2685 -20.2678 -20.2677 -20.2674
   -20.2585 -20.2583 -20.2571 -20.2571 -20.2570 -20.2569 -20.2558 -20.2556
    -9.9379  -9.7800  -9.5774  -9.4739  -9.4580  -9.3176  -9.1402  -9.1158
    -8.6272  -8.5436  -8.5397  -8.5362  -8.0834  -8.0603  -7.9849  -7.9736
    -7.9629  -7.9569  -7.9211  -7.8828  -7.6535  -7.6084  -7.5869  -7.5473
     1.1825   1.1949   1.2709   1.2830   1.4736   1.4746   1.6294   1.6788
     2.1341   2.1876   2.2406   2.2989   2.3482   2.3974   2.8275   2.8466
     2.9502   2.9648   3.8880   3.9416   4.0612   4.1336   4.1772   4.2189
     4.2352   4.2976   4.5890   4.7738   4.8448   4.9915   5.1076   5.1376
     5.2050   5.2585   5.2728   5.3206   5.4623   5.4817   5.5041   5.6050
     5.6426   5.8132   5.8369   5.8885   5.9496   5.9736   6.0882   6.1243
     6.3017   6.3489   6.5074   6.5291   6.6030   6.7061   6.7256   6.8137
     6.8344   6.8564   6.8908   6.9017   6.9504   6.9820   7.1013   7.1191
     7.1819   7.2023   7.7857   7.7956   7.9686   7.9918   8.1032   8.1196
    10.1205  10.1564  10.2912  10.3229  10.3841  10.4812  12.0068  12.2894
    12.3319  12.3961  12.4508  12.5841  12.6188  12.6494  12.7316  12.9043
    12.9560  13.0752  13.3524  13.4043  13.5850  13.7020  13.7777  13.8629
    14.5469  14.7498  14.8258  15.2926  15.5101  15.5728  15.6416  16.3890
    16.4199  16.9329  17.0457  17.0865  17.5688

          k = 0.1667 0.1575 0.3333 ( 62260 PWs)   bands (ev):

   -66.1522 -66.1519 -66.1517 -66.1514 -66.1513 -66.1510 -66.1509 -66.1505
   -30.5876 -30.5862 -30.5793 -30.5773 -30.5630 -30.5616 -30.5537 -30.5521
   -30.5291 -30.5277 -30.5235 -30.5228 -30.4713 -30.4694 -30.4680 -30.4660
   -30.4086 -30.4055 -30.4047 -30.4017 -30.3613 -30.3589 -30.3582 -30.3559
   -20.3086 -20.3085 -20.3084 -20.3084 -20.3083 -20.3082 -20.3081 -20.3080
   -20.2889 -20.2887 -20.2886 -20.2884 -20.2884 -20.2883 -20.2881 -20.2880
   -20.2821 -20.2819 -20.2818 -20.2817 -20.2816 -20.2815 -20.2814 -20.2812
   -20.2791 -20.2788 -20.2787 -20.2785 -20.2763 -20.2758 -20.2755 -20.2748
   -20.2746 -20.2745 -20.2730 -20.2728 -20.2723 -20.2720 -20.2718 -20.2717
   -20.2715 -20.2708 -20.2696 -20.2692 -20.2691 -20.2688 -20.2682 -20.2680
   -20.2582 -20.2581 -20.2574 -20.2573 -20.2568 -20.2567 -20.2561 -20.2559
    -9.7768  -9.6076  -9.5097  -9.3587  -9.3228  -9.2045  -9.0271  -9.0081
    -8.7074  -8.5854  -8.5244  -8.5203  -8.3913  -8.3439  -8.3389  -8.2684
    -7.9859  -7.9524  -7.9401  -7.9039  -7.6445  -7.6177  -7.5795  -7.5556
     1.4370   1.4467   1.4722   1.4792   1.9597   1.9878   2.0235   2.1356
     2.1608   2.2233   2.2617   2.4229   2.5959   2.6611   2.8690   2.9318
     3.0829   3.1784   3.5758   3.6647   3.8210   3.9807   4.0335   4.1399
     4.2635   4.3126   4.3625   4.4403   4.5273   4.5546   4.5967   4.7330
     4.7953   4.8951   5.0135   5.0666   5.0960   5.1231   5.4949   5.5268
     5.6235   5.7408   5.7504   5.7964   5.8994   5.9923   6.0249   6.0597
     6.3010   6.4164   6.6266   6.6556   6.6603   6.7438   6.7709   6.8494
     6.8616   6.8685   7.0251   7.0423   7.0706   7.0860   7.1660   7.2199
     7.2520   7.3419   7.6877   7.6928   7.9465   7.9834   7.9928   8.0011
    10.3048  10.3201  10.7412  10.8221  10.9304  11.0179  12.1210  12.1772
    12.2121  12.2846  12.4163  12.4769  12.4941  12.5106  12.6117  12.7380
    12.8714  12.9771  13.2598  13.3304  13.3916  13.4058  13.6317  13.6661
    14.6479  14.7837  15.0379  15.4236  15.5766  15.8665  16.1647  16.3469
    16.5350  17.2814  17.3649  17.5671  17.6839

          k = 0.1667 0.1575-0.5000 ( 62292 PWs)   bands (ev):

   -66.1520 -66.1520 -66.1516 -66.1516 -66.1511 -66.1511 -66.1507 -66.1507
   -30.5703 -30.5703 -30.5699 -30.5699 -30.5543 -30.5543 -30.5526 -30.5526
   -30.5427 -30.5427 -30.5424 -30.5424 -30.4698 -30.4698 -30.4679 -30.4679
   -30.4071 -30.4070 -30.4032 -30.4032 -30.3601 -30.3601 -30.3570 -30.3570
   -20.3085 -20.3085 -20.3083 -20.3083 -20.3083 -20.3083 -20.3081 -20.3081
   -20.2888 -20.2887 -20.2885 -20.2885 -20.2883 -20.2883 -20.2881 -20.2881
   -20.2820 -20.2820 -20.2818 -20.2818 -20.2816 -20.2816 -20.2813 -20.2813
   -20.2789 -20.2789 -20.2786 -20.2786 -20.2754 -20.2754 -20.2750 -20.2750
   -20.2740 -20.2740 -20.2732 -20.2731 -20.2725 -20.2725 -20.2716 -20.2716
   -20.2708 -20.2708 -20.2704 -20.2704 -20.2687 -20.2687 -20.2686 -20.2686
   -20.2578 -20.2578 -20.2577 -20.2577 -20.2564 -20.2564 -20.2563 -20.2563
    -9.6129  -9.6129  -9.4464  -9.4464  -8.9735  -8.9735  -8.8171  -8.8171
    -8.7877  -8.7877  -8.7496  -8.7496  -8.4938  -8.4938  -8.4619  -8.4619
    -7.9670  -7.9670  -7.9262  -7.9262  -7.6311  -7.6311  -7.5677  -7.5677
     1.4664   1.4664   1.4793   1.4793   2.1256   2.1256   2.2001   2.2001
     2.8021   2.8021   2.8824   2.8824   2.9648   2.9648   3.0267   3.0267
     3.0483   3.0483   3.3150   3.3150   3.4053   3.4053   3.7544   3.7544
     3.8787   3.8787   4.2797   4.2797   4.4046   4.4046   4.6647   4.6647
     4.7340   4.7340   4.8417   4.8417   5.0380   5.0380   5.5546   5.5546
     5.6117   5.6117   5.6807   5.6807   5.9370   5.9370   6.0298   6.0298
     6.4339   6.4339   6.5366   6.5366   6.7374   6.7374   6.8187   6.8187
     6.9405   6.9405   6.9748   6.9748   7.1583   7.1583   7.4408   7.4408
     7.4599   7.4599   7.6744   7.6744   7.7322   7.7322   7.9922   7.9923
    10.3242  10.3242  11.4594  11.4594  11.5496  11.5496  11.6745  11.6745
    11.7699  11.7699  12.3973  12.3973  12.4582  12.4582  12.8473  12.8473
    12.9849  12.9849  13.0553  13.0553  13.2936  13.2936  13.5261  13.5261
    14.7390  14.7390  15.2799  15.2799  15.9905  15.9906  16.1427  16.1427
    17.0338  17.0338  17.7658  17.7659  18.0322

          k = 0.1667 0.3150 0.1667 ( 62249 PWs)   bands (ev):

   -66.1523 -66.1521 -66.1515 -66.1514 -66.1513 -66.1512 -66.1506 -66.1504
   -30.6038 -30.6027 -30.5971 -30.5958 -30.5600 -30.5592 -30.5567 -30.5558
   -30.5105 -30.5098 -30.5063 -30.5059 -30.4719 -30.4708 -30.4658 -30.4647
   -30.3997 -30.3960 -30.3947 -30.3911 -30.3723 -30.3691 -30.3679 -30.3648
   -20.3087 -20.3086 -20.3085 -20.3084 -20.3082 -20.3081 -20.3080 -20.3079
   -20.2889 -20.2888 -20.2885 -20.2885 -20.2884 -20.2883 -20.2880 -20.2879
   -20.2821 -20.2819 -20.2818 -20.2817 -20.2816 -20.2815 -20.2813 -20.2811
   -20.2792 -20.2789 -20.2786 -20.2784 -20.2769 -20.2766 -20.2765 -20.2761
   -20.2737 -20.2734 -20.2728 -20.2725 -20.2723 -20.2720 -20.2719 -20.2717
   -20.2714 -20.2706 -20.2702 -20.2701 -20.2685 -20.2681 -20.2677 -20.2676
   -20.2584 -20.2584 -20.2571 -20.2570 -20.2570 -20.2570 -20.2557 -20.2556
    -9.8964  -9.8064  -9.5472  -9.4891  -9.4172  -9.3386  -9.1348  -9.1208
    -8.4460  -8.3885  -8.3794  -8.3763  -8.0974  -8.0544  -8.0064  -7.9764
    -7.9648  -7.9635  -7.9230  -7.8957  -7.8626  -7.8193  -7.8044  -7.7697
     1.1844   1.1917   1.2734   1.2809   1.4756   1.4788   1.6644   1.6789
     2.3214   2.3720   2.6527   2.7015   2.7844   2.8387   3.0588   3.1248
     3.1587   3.2376   3.5699   3.6365   3.8287   3.8633   4.1231   4.1360
     4.1673   4.2148   4.2609   4.6259   4.6868   4.9053   4.9541   5.0377
     5.0818   5.1496   5.1718   5.1903   5.3074   5.3837   5.4328   5.4407
     5.6366   5.6517   5.7567   5.7933   5.8509   5.8694   5.9053   5.9232
     6.3368   6.3783   6.4748   6.5417   6.6051   6.6840   6.7491   6.8614
     6.8745   6.8860   6.9102   6.9541   7.0264   7.0368   7.2352   7.2493
     7.3134   7.3219   7.7617   7.7973   7.8583   7.8790   7.9044   7.9410
    10.1771  10.1864  10.6821  10.7216  10.8219  10.8719  11.7007  11.8884
    11.9844  12.0068  12.5300  12.5875  12.6224  12.6468  12.7775  12.9153
    13.0360  13.1325  13.2328  13.3079  13.4400  13.5563  13.7530  13.7845
    15.2478  15.3301  15.4521  15.4891  15.5837  15.6967  16.2408  16.2985
    16.4785  16.4819  17.0586  17.2947  17.3542

          k = 0.1667 0.3150 0.3333 ( 62265 PWs)   bands (ev):

   -66.1522 -66.1520 -66.1517 -66.1515 -66.1513 -66.1511 -66.1508 -66.1506
   -30.5873 -30.5865 -30.5789 -30.5777 -30.5627 -30.5619 -30.5534 -30.5525
   -30.5288 -30.5280 -30.5233 -30.5229 -30.4709 -30.4698 -30.4676 -30.4664
   -30.3986 -30.3957 -30.3950 -30.3921 -30.3714 -30.3688 -30.3681 -30.3657
   -20.3086 -20.3085 -20.3084 -20.3083 -20.3083 -20.3082 -20.3082 -20.3080
   -20.2888 -20.2887 -20.2886 -20.2884 -20.2884 -20.2883 -20.2881 -20.2880
   -20.2821 -20.2819 -20.2818 -20.2817 -20.2816 -20.2815 -20.2814 -20.2812
   -20.2790 -20.2788 -20.2787 -20.2785 -20.2760 -20.2756 -20.2755 -20.2748
   -20.2741 -20.2738 -20.2731 -20.2725 -20.2722 -20.2721 -20.2718 -20.2716
   -20.2713 -20.2710 -20.2699 -20.2698 -20.2694 -20.2688 -20.2687 -20.2684
   -20.2582 -20.2581 -20.2574 -20.2573 -20.2568 -20.2567 -20.2560 -20.2559
    -9.7313  -9.6352  -9.4662  -9.3815  -9.2855  -9.2205  -9.0230  -9.0120
    -8.5630  -8.4788  -8.4039  -8.3735  -8.3648  -8.3592  -8.2839  -8.2215
    -7.9881  -7.9721  -7.9411  -7.9192  -7.8538  -7.8276  -7.8005  -7.7778
     1.4413   1.4474   1.4758   1.4814   2.0179   2.0252   2.1157   2.1500
     2.5730   2.6239   2.6912   2.7059   2.7812   2.8605   3.0739   3.1432
     3.3268   3.4091   3.5643   3.6233   3.6750   3.7705   3.8449   3.8839
     4.1177   4.2138   4.2556   4.3867   4.4137   4.4659   4.5858   4.6180
     4.6516   4.7970   4.8186   4.9607   5.0533   5.0752   5.1685   5.2271
     5.3526   5.4490   5.4866   5.6742   5.6864   5.8089   5.8796   5.8985
     6.3790   6.4395   6.6150   6.7225   6.7316   6.7546   6.7991   6.8683
     6.9321   7.0214   7.1155   7.1346   7.1964   7.2488   7.2625   7.3039
     7.3403   7.3722   7.6757   7.6966   7.8097   7.8283   7.8726   7.8751
    10.6890  10.7333  10.8422  10.9131  11.1737  11.2654  11.9331  11.9675
    12.0096  12.1603  12.2082  12.2381  12.5611  12.5874  12.6111  12.7130
    12.8753  12.9584  13.0433  13.1500  13.2436  13.3102  13.6171  13.6334
    15.3015  15.3439  15.7790  15.8198  15.8562  16.1372  16.3052  16.4212
    16.7927  16.9221  17.1277  17.3383  17.6619

          k = 0.1667 0.3150-0.5000 ( 62264 PWs)   bands (ev):

   -66.1519 -66.1519 -66.1517 -66.1517 -66.1510 -66.1510 -66.1508 -66.1508
   -30.5702 -30.5702 -30.5699 -30.5699 -30.5539 -30.5539 -30.5529 -30.5529
   -30.5426 -30.5426 -30.5425 -30.5425 -30.4694 -30.4694 -30.4683 -30.4682
   -30.3972 -30.3972 -30.3936 -30.3936 -30.3701 -30.3701 -30.3669 -30.3669
   -20.3085 -20.3084 -20.3083 -20.3083 -20.3083 -20.3083 -20.3082 -20.3082
   -20.2887 -20.2887 -20.2886 -20.2886 -20.2883 -20.2883 -20.2882 -20.2882
   -20.2820 -20.2820 -20.2818 -20.2818 -20.2816 -20.2815 -20.2814 -20.2814
   -20.2789 -20.2789 -20.2787 -20.2787 -20.2750 -20.2750 -20.2745 -20.2745
   -20.2742 -20.2741 -20.2734 -20.2734 -20.2723 -20.2723 -20.2717 -20.2717
   -20.2706 -20.2706 -20.2702 -20.2702 -20.2693 -20.2693 -20.2692 -20.2692
   -20.2578 -20.2578 -20.2577 -20.2577 -20.2564 -20.2564 -20.2563 -20.2563
    -9.5665  -9.5664  -9.4724  -9.4724  -8.9108  -8.9108  -8.8284  -8.8284
    -8.7769  -8.7769  -8.7554  -8.7554  -8.3566  -8.3566  -8.3292  -8.3292
    -7.9743  -7.9743  -7.9384  -7.9384  -7.8406  -7.8406  -7.7896  -7.7896
     1.4736   1.4737   1.4792   1.4792   2.6153   2.6153   2.6944   2.6945
     2.8506   2.8506   2.9269   2.9269   3.0006   3.0006   3.0701   3.0701
     3.1588   3.1588   3.3833   3.3833   3.3941   3.3941   3.7730   3.7730
     4.0315   4.0315   4.0609   4.0609   4.1207   4.1207   4.3284   4.3284
     4.6990   4.6990   4.7731   4.7731   4.9932   4.9932   5.1702   5.1702
     5.2129   5.2129   5.5415   5.5415   5.7125   5.7125   5.8817   5.8817
     6.4995   6.4995   6.5709   6.5709   6.7341   6.7341   6.8753   6.8753
     7.1356   7.1357   7.2061   7.2061   7.2683   7.2683   7.4421   7.4421
     7.4828   7.4828   7.6101   7.6101   7.6459   7.6459   7.8674   7.8674
    10.7971  10.7971  11.4796  11.4796  11.5517  11.5518  11.8226  11.8226
    11.9223  11.9223  12.0642  12.0642  12.3902  12.3902  12.5742  12.5742
    12.8135  12.8135  13.0054  13.0054  13.2965  13.2965  13.4489  13.4489
    15.3311  15.3311  16.0246  16.0246  16.1531  16.1532  16.2881  16.2881
    17.1685  17.1685  17.3726  17.3726  17.8592

          k = 0.1667-0.4725 0.1667 ( 62220 PWs)   bands (ev):

   -66.1522 -66.1522 -66.1514 -66.1514 -66.1513 -66.1513 -66.1505 -66.1505
   -30.6033 -30.6033 -30.5964 -30.5964 -30.5596 -30.5596 -30.5563 -30.5563
   -30.5101 -30.5101 -30.5061 -30.5061 -30.4714 -30.4714 -30.4652 -30.4652
   -30.3861 -30.3860 -30.3826 -30.3826 -30.3813 -30.3813 -30.3780 -30.3780
   -20.3086 -20.3086 -20.3085 -20.3085 -20.3081 -20.3081 -20.3080 -20.3080
   -20.2889 -20.2889 -20.2885 -20.2885 -20.2884 -20.2884 -20.2879 -20.2879
   -20.2820 -20.2820 -20.2817 -20.2817 -20.2816 -20.2816 -20.2812 -20.2812
   -20.2790 -20.2790 -20.2785 -20.2785 -20.2767 -20.2767 -20.2762 -20.2762
   -20.2731 -20.2731 -20.2727 -20.2725 -20.2722 -20.2720 -20.2715 -20.2714
   -20.2713 -20.2712 -20.2709 -20.2709 -20.2684 -20.2684 -20.2677 -20.2677
   -20.2584 -20.2584 -20.2571 -20.2570 -20.2570 -20.2570 -20.2557 -20.2557
    -9.8476  -9.8476  -9.5147  -9.5145  -9.3731  -9.3730  -9.1278  -9.1278
    -8.2149  -8.2105  -8.1602  -8.1540  -8.1454  -8.1419  -8.1289  -8.1209
    -8.0260  -8.0168  -7.9498  -7.9485  -7.9355  -7.9351  -7.8835  -7.8824
     1.1865   1.1889   1.2766   1.2776   1.4772   1.4787   1.6746   1.6778
     2.3478   2.3506   3.1251   3.1363   3.1781   3.2271   3.2548   3.2852
     3.4035   3.4132   3.5214   3.5247   3.8217   3.8218   3.8623   3.8719
     4.0205   4.0270   4.1504   4.1923   4.2285   4.2332   5.0092   5.0418
     5.1375   5.1432   5.2239   5.2622   5.3477   5.3554   5.4348   5.4630
     5.5554   5.5654   5.6221   5.6718   5.7539   5.7649   5.8885   5.8937
     6.3736   6.3779   6.5515   6.5573   6.6030   6.6066   6.8206   6.8326
     6.8662   6.8669   6.9161   6.9276   7.0412   7.0499   7.5528   7.5561
     7.5829   7.5858   7.6086   7.6234   7.6502   7.6538   7.8076   7.8112
    10.1879  10.1912  11.1818  11.2006  11.2393  11.2545  11.4229  11.4316
    11.5142  11.5190  12.5727  12.6089  12.6290  12.6481  12.8788  12.8931
    13.1316  13.1416  13.2357  13.2393  13.3046  13.3263  13.7538  13.7567
    15.5154  15.5240  15.8602  15.8852  16.0208  16.0262  16.0322  16.0522
    16.2819  16.2819  17.5152  17.5380  17.8076

          k = 0.1667-0.4725 0.3333 ( 62252 PWs)   bands (ev):

   -66.1521 -66.1521 -66.1516 -66.1516 -66.1512 -66.1512 -66.1507 -66.1507
   -30.5869 -30.5869 -30.5783 -30.5783 -30.5623 -30.5623 -30.5529 -30.5529
   -30.5284 -30.5284 -30.5231 -30.5231 -30.4703 -30.4703 -30.4670 -30.4670
   -30.3850 -30.3850 -30.3823 -30.3823 -30.3816 -30.3816 -30.3790 -30.3789
   -20.3085 -20.3085 -20.3084 -20.3084 -20.3082 -20.3082 -20.3081 -20.3081
   -20.2888 -20.2888 -20.2885 -20.2885 -20.2884 -20.2884 -20.2881 -20.2880
   -20.2820 -20.2820 -20.2818 -20.2818 -20.2816 -20.2816 -20.2813 -20.2813
   -20.2789 -20.2789 -20.2786 -20.2786 -20.2758 -20.2757 -20.2751 -20.2751
   -20.2736 -20.2735 -20.2730 -20.2729 -20.2722 -20.2720 -20.2717 -20.2717
   -20.2708 -20.2708 -20.2706 -20.2706 -20.2692 -20.2691 -20.2687 -20.2687
   -20.2581 -20.2581 -20.2574 -20.2573 -20.2567 -20.2567 -20.2560 -20.2560
    -9.6788  -9.6788  -9.4188  -9.4188  -9.2480  -9.2477  -9.0176  -9.0174
    -8.4439  -8.4402  -8.4012  -8.3963  -8.1498  -8.1439  -8.1365  -8.1272
    -8.1054  -8.0991  -8.0720  -8.0699  -7.9386  -7.9383  -7.8987  -7.8986
     1.4436   1.4460   1.4779   1.4809   2.0248   2.0266   2.1424   2.1470
     2.6108   2.6189   3.1623   3.1923   3.2203   3.2316   3.2894   3.3250
     3.4462   3.4648   3.5348   3.5372   3.6517   3.7097   3.7911   3.7943
     3.8699   3.9033   4.0476   4.0504   4.3157   4.3223   4.4906   4.5156
     4.5978   4.6715   4.8670   4.8699   4.9508   4.9941   5.0130   5.0711
     5.3201   5.3757   5.3770   5.5079   5.7142   5.7357   5.8089   5.8391
     6.4201   6.4241   6.6650   6.6881   6.7712   6.7789   6.8334   6.8414
     6.9458   7.0060   7.1921   7.2238   7.2538   7.2551   7.5378   7.5389
     7.5579   7.5618   7.5881   7.6024   7.6252   7.6403   7.7218   7.7345
    10.7691  10.7759  11.3600  11.3796  11.4364  11.4528  11.5724  11.5965
    11.6975  11.7211  12.1971  12.2304  12.6584  12.7384  12.7660  12.7697
    12.7849  12.8444  12.9312  12.9667  13.1723  13.2079  13.5994  13.6173
    15.6897  15.6898  15.8710  15.8711  16.4249  16.4357  16.6199  16.6392
    16.6879  16.7199  17.2465  17.2815  17.4671

          k = 0.1667-0.4725-0.5000 ( 62232 PWs)   bands (ev):

   -66.1518 -66.1518 -66.1518 -66.1518 -66.1509 -66.1509 -66.1509 -66.1509
   -30.5701 -30.5700 -30.5700 -30.5700 -30.5534 -30.5534 -30.5534 -30.5534
   -30.5426 -30.5426 -30.5425 -30.5425 -30.4688 -30.4688 -30.4688 -30.4688
   -30.3837 -30.3837 -30.3837 -30.3837 -30.3803 -30.3803 -30.3803 -30.3803
   -20.3084 -20.3084 -20.3084 -20.3084 -20.3082 -20.3082 -20.3082 -20.3082
   -20.2886 -20.2886 -20.2886 -20.2886 -20.2882 -20.2882 -20.2882 -20.2882
   -20.2819 -20.2819 -20.2819 -20.2819 -20.2815 -20.2815 -20.2815 -20.2815
   -20.2788 -20.2788 -20.2788 -20.2788 -20.2745 -20.2745 -20.2745 -20.2745
   -20.2738 -20.2738 -20.2738 -20.2738 -20.2720 -20.2720 -20.2720 -20.2720
   -20.2702 -20.2702 -20.2701 -20.2701 -20.2698 -20.2698 -20.2697 -20.2697
   -20.2578 -20.2577 -20.2577 -20.2577 -20.2564 -20.2564 -20.2564 -20.2564
    -9.5144  -9.5144  -9.5144  -9.5144  -8.8590  -8.8590  -8.8577  -8.8577
    -8.7655  -8.7655  -8.7641  -8.7641  -8.1402  -8.1402  -8.1388  -8.1388
    -8.0999  -8.0999  -8.0982  -8.0982  -7.9193  -7.9193  -7.9188  -7.9188
     1.4768   1.4768   1.4777   1.4777   2.8461   2.8461   2.8477   2.8477
     2.9526   2.9526   2.9691   2.9691   3.2151   3.2151   3.2366   3.2366
     3.3449   3.3450   3.3798   3.3798   3.5274   3.5274   3.5669   3.5669
     3.7789   3.7789   3.8090   3.8090   4.3884   4.3885   4.3967   4.3967
     4.4730   4.4730   4.4932   4.4932   4.7398   4.7398   4.8050   4.8050
     5.3196   5.3196   5.4246   5.4246   5.7283   5.7283   5.7620   5.7621
     6.5436   6.5436   6.5446   6.5446   6.8093   6.8093   6.8206   6.8206
     7.2912   7.2913   7.3601   7.3601   7.4495   7.4495   7.4549   7.4549
     7.4859   7.4859   7.5156   7.5156   7.6371   7.6372   7.6610   7.6610
    11.3228  11.3228  11.3708  11.3708  11.5625  11.5625  11.6350  11.6350
    12.1372  12.1372  12.1374  12.1374  12.2092  12.2092  12.2359  12.2359
    12.8459  12.8459  12.9090  12.9091  13.3185  13.3185  13.3666  13.3666
    15.8083  15.8083  15.8134  15.8134  16.7809  16.7809  16.8015  16.8015
    17.2264  17.2264  17.2600  17.2600  17.4684

          k = 0.3333 0.0000 0.3333 ( 62316 PWs)   bands (ev):

   -66.1521 -66.1517 -66.1516 -66.1516 -66.1512 -66.1511 -66.1511 -66.1507
   -30.5850 -30.5829 -30.5806 -30.5783 -30.5482 -30.5477 -30.5380 -30.5360
   -30.5309 -30.5294 -30.5190 -30.5189 -30.4898 -30.4876 -30.4855 -30.4834
   -30.4113 -30.4089 -30.4081 -30.4058 -30.3569 -30.3551 -30.3545 -30.3528
   -20.3086 -20.3085 -20.3084 -20.3083 -20.3083 -20.3083 -20.3081 -20.3080
   -20.2888 -20.2886 -20.2885 -20.2885 -20.2883 -20.2883 -20.2882 -20.2880
   -20.2822 -20.2820 -20.2819 -20.2819 -20.2817 -20.2817 -20.2816 -20.2814
   -20.2780 -20.2776 -20.2774 -20.2772 -20.2764 -20.2758 -20.2756 -20.2752
   -20.2747 -20.2744 -20.2739 -20.2736 -20.2735 -20.2727 -20.2721 -20.2719
   -20.2716 -20.2710 -20.2695 -20.2692 -20.2688 -20.2686 -20.2680 -20.2679
   -20.2579 -20.2578 -20.2572 -20.2572 -20.2570 -20.2570 -20.2564 -20.2562
    -9.6458  -9.4467  -9.3915  -9.3090  -9.2347  -9.1016  -8.9231  -8.8964
    -8.8355  -8.6075  -8.5848  -8.5540  -8.4357  -8.3541  -8.3386  -8.2978
    -8.2632  -8.2526  -8.2119  -8.1861  -7.5465  -7.5192  -7.5053  -7.4795
     1.8431   1.8539   1.8599   1.9421   1.9575   1.9613   2.0211   2.1334
     2.1986   2.2658   2.3415   2.4880   2.8454   2.9102   2.9961   3.0596
     3.0674   3.1693   3.6353   3.7093   3.7445   3.8514   3.9285   4.0252
     4.1719   4.1752   4.2090   4.2409   4.3236   4.3814   4.4137   4.5499
     4.5944   4.6908   4.7487   4.8465   4.8511   4.9519   5.0709   5.1994
     5.2600   5.3149   5.5054   5.7005   6.1828   6.1978   6.2278   6.2414
     6.5075   6.5379   6.5991   6.6949   6.7142   6.7882   6.8059   6.8655
     6.9562   6.9723   7.0272   7.0311   7.1153   7.1455   7.2456   7.2665
     7.3420   7.4451   7.6109   7.6144   7.9169   7.9416   8.0288   8.0452
    10.6633  10.7346  10.8210  10.8939  11.2234  11.3234  11.9663  12.0309
    12.2838  12.3518  12.3803  12.3895  12.5321  12.5493  12.6800  12.7543
    12.7673  12.8527  13.0505  13.2411  13.3442  13.3520  13.4905  13.5733
    14.4304  14.6317  14.6459  14.9707  15.9834  16.4337  16.4461  16.8927
    16.9262  17.2074  17.2672  17.7616  17.8167

          k = 0.3333 0.0000-0.5000 ( 62288 PWs)   bands (ev):

   -66.1518 -66.1518 -66.1514 -66.1514 -66.1513 -66.1513 -66.1509 -66.1509
   -30.5629 -30.5629 -30.5617 -30.5617 -30.5556 -30.5556 -30.5537 -30.5537
   -30.5324 -30.5324 -30.5309 -30.5308 -30.4880 -30.4880 -30.4858 -30.4858
   -30.4097 -30.4097 -30.4074 -30.4074 -30.3557 -30.3557 -30.3539 -30.3539
   -20.3085 -20.3085 -20.3084 -20.3084 -20.3082 -20.3082 -20.3081 -20.3081
   -20.2887 -20.2887 -20.2884 -20.2884 -20.2884 -20.2884 -20.2882 -20.2882
   -20.2821 -20.2821 -20.2818 -20.2818 -20.2818 -20.2818 -20.2815 -20.2815
   -20.2777 -20.2777 -20.2773 -20.2773 -20.2757 -20.2757 -20.2752 -20.2752
   -20.2743 -20.2743 -20.2736 -20.2736 -20.2730 -20.2730 -20.2722 -20.2722
   -20.2709 -20.2709 -20.2706 -20.2706 -20.2684 -20.2684 -20.2683 -20.2683
   -20.2576 -20.2576 -20.2574 -20.2574 -20.2568 -20.2568 -20.2566 -20.2566
    -9.4375  -9.4375  -9.2175  -9.2174  -9.0687  -9.0687  -8.8477  -8.8477
    -8.7342  -8.7341  -8.7028  -8.7028  -8.5237  -8.5237  -8.5185  -8.5185
    -8.2494  -8.2494  -8.2322  -8.2322  -7.5330  -7.5330  -7.4927  -7.4926
     1.8777   1.8777   1.9300   1.9300   2.1625   2.1625   2.2404   2.2404
     2.8700   2.8700   2.9426   2.9426   3.0031   3.0031   3.0234   3.0234
     3.1571   3.1571   3.4263   3.4263   3.5817   3.5817   3.7685   3.7685
     3.7827   3.7828   4.0394   4.0394   4.1506   4.1506   4.2455   4.2455
     4.5353   4.5353   4.7644   4.7644   4.8328   4.8328   4.9511   4.9511
     5.1238   5.1238   5.5650   5.5650   6.2125   6.2125   6.2487   6.2487
     6.5744   6.5744   6.5938   6.5938   6.7445   6.7445   6.8226   6.8226
     6.9958   6.9958   7.1169   7.1170   7.2511   7.2511   7.4409   7.4409
     7.4716   7.4716   7.7051   7.7051   7.7591   7.7591   7.9474   7.9474
    10.7291  10.7291  11.5725  11.5726  11.6428  11.6428  11.8111  11.8112
[...]
   -20.3162 -20.3162 -20.3152 -20.3152 -20.3146 -20.3146 -20.3134 -20.3133
   -20.3133 -20.3133 -20.3131 -20.3131 -20.3127 -20.3127 -20.3113 -20.3113
   -20.3108 -20.3108 -20.3090 -20.3090 -20.3073 -20.3073 -20.3068 -20.3068
   -20.2960 -20.2960 -20.2959 -20.2958 -20.2949 -20.2949 -20.2947 -20.2947
    -9.4978  -9.4977  -9.3317  -9.3317  -9.0026  -9.0026  -8.7581  -8.7580
    -8.6174  -8.6173  -8.5456  -8.5456  -8.4926  -8.4925  -8.4590  -8.4590
    -8.1360  -8.1360  -8.1075  -8.1075  -7.8895  -7.8895  -7.8687  -7.8687
     1.5560   1.5561   1.5633   1.5633   2.2913   2.2913   2.3799   2.3799
     2.9945   2.9945   3.0393   3.0393   3.0697   3.0697   3.1830   3.1830
     3.2389   3.2389   3.4950   3.4950   3.5967   3.5967   3.7229   3.7229
     3.8327   3.8327   3.9539   3.9540   4.2490   4.2490   4.4016   4.4017
     4.6841   4.6841   4.8150   4.8150   4.9600   4.9600   5.0148   5.0148
     5.1020   5.1020   5.4523   5.4523   5.7352   5.7352   5.8482   5.8482
     6.5899   6.5899   6.7030   6.7030   6.7496   6.7496   6.8070   6.8070
     7.0222   7.0222   7.0960   7.0960   7.1549   7.1550   7.4541   7.4541
     7.4824   7.4824   7.5803   7.5803   7.5992   7.5992   7.8730   7.8730
    10.7177  10.7177  11.3395  11.3395  11.4286  11.4286  11.5974  11.5974
    11.8793  11.8793  12.1650  12.1650  12.5981  12.5981  12.6661  12.6661
    12.8451  12.8451  12.9663  12.9663  13.0162  13.0162  13.4768  13.4768
    15.3999  15.3999  15.6969  15.6969  16.3425  16.3425  16.5940  16.5940
    16.7272  16.7272  17.3949  17.3950  17.7970

          k = 0.3299 0.4846 0.1639 ( 62370 PWs)   bands (ev):

   -66.1864 -66.1864 -66.1859 -66.1859 -66.1857 -66.1857 -66.1853 -66.1853
   -30.5547 -30.5547 -30.5520 -30.5520 -30.5396 -30.5396 -30.5360 -30.5358
   -30.5177 -30.5176 -30.5159 -30.5157 -30.5083 -30.5081 -30.4910 -30.4910
   -30.4871 -30.4871 -30.4689 -30.4688 -30.4609 -30.4608 -30.4526 -30.4526
   -20.3513 -20.3513 -20.3512 -20.3512 -20.3507 -20.3507 -20.3506 -20.3506
   -20.3311 -20.3311 -20.3309 -20.3309 -20.3307 -20.3307 -20.3304 -20.3304
   -20.3231 -20.3231 -20.3228 -20.3228 -20.3227 -20.3226 -20.3224 -20.3223
   -20.3160 -20.3159 -20.3156 -20.3154 -20.3151 -20.3149 -20.3146 -20.3146
   -20.3129 -20.3129 -20.3127 -20.3127 -20.3116 -20.3116 -20.3112 -20.3112
   -20.3103 -20.3102 -20.3098 -20.3097 -20.3073 -20.3073 -20.3070 -20.3069
   -20.2961 -20.2961 -20.2957 -20.2957 -20.2950 -20.2949 -20.2946 -20.2946
    -9.5223  -9.5221  -9.3135  -9.3132  -9.0347  -9.0345  -8.7974  -8.7973
    -8.5869  -8.5854  -8.4993  -8.4992  -8.4506  -8.4465  -8.4418  -8.4405
    -8.1771  -8.1768  -8.1252  -8.1239  -7.9007  -7.9000  -7.8584  -7.8582
     1.5511   1.5565   1.5594   1.5634   2.2687   2.2711   2.3850   2.3942
     2.8763   2.8876   2.9888   2.9947   3.0872   3.1070   3.1383   3.1391
     3.3022   3.3088   3.4513   3.4911   3.6290   3.6318   3.8024   3.8156
     3.8183   3.9012   3.9466   3.9504   4.2208   4.2283   4.5156   4.5199
     4.6487   4.6787   4.8242   4.8375   4.8962   4.9629   4.9868   5.0019
     5.1155   5.1403   5.3634   5.4122   5.7105   5.7232   5.9049   5.9091
     6.5894   6.6310   6.6358   6.6498   6.7867   6.7893   6.8266   6.8464
     7.0212   7.0699   7.1034   7.1557   7.1849   7.1923   7.4522   7.4523
     7.5013   7.5184   7.5380   7.5580   7.5770   7.5818   7.7806   7.7874
    10.6968  10.7038  11.2770  11.2882  11.3346  11.3411  11.7910  11.8094
    11.8180  11.8372  12.0383  12.0958  12.5722  12.5945  12.6281  12.6392
    12.7343  12.7445  13.0509  13.0801  13.1333  13.1857  13.3214  13.3593
    15.4278  15.4456  15.7369  15.7443  16.2583  16.2610  16.5586  16.5800
    16.8380  16.8646  17.4277  17.4584  17.8306

          k =-0.4948 0.4846 0.1639 ( 62404 PWs)   bands (ev):

   -66.1862 -66.1862 -66.1861 -66.1861 -66.1855 -66.1855 -66.1855 -66.1855
   -30.5533 -30.5533 -30.5531 -30.5531 -30.5265 -30.5265 -30.5245 -30.5245
   -30.5244 -30.5243 -30.5225 -30.5225 -30.5009 -30.5009 -30.4995 -30.4995
   -30.4833 -30.4833 -30.4810 -30.4810 -30.4582 -30.4582 -30.4575 -30.4575
   -20.3513 -20.3513 -20.3513 -20.3513 -20.3507 -20.3507 -20.3507 -20.3507
   -20.3310 -20.3310 -20.3310 -20.3310 -20.3306 -20.3306 -20.3306 -20.3305
   -20.3230 -20.3230 -20.3230 -20.3230 -20.3225 -20.3225 -20.3225 -20.3225
   -20.3157 -20.3157 -20.3155 -20.3155 -20.3141 -20.3141 -20.3133 -20.3133
   -20.3132 -20.3132 -20.3131 -20.3131 -20.3126 -20.3126 -20.3119 -20.3119
   -20.3102 -20.3102 -20.3099 -20.3099 -20.3072 -20.3072 -20.3071 -20.3071
   -20.2959 -20.2959 -20.2959 -20.2959 -20.2948 -20.2948 -20.2948 -20.2948
    -9.4016  -9.4016  -9.3922  -9.3922  -8.7721  -8.7721  -8.7374  -8.7374
    -8.6146  -8.6146  -8.5835  -8.5834  -8.4275  -8.4275  -8.3865  -8.3865
    -8.3688  -8.3688  -8.3329  -8.3328  -7.8805  -7.8805  -7.8804  -7.8804
     1.5592   1.5592   1.5663   1.5663   2.8959   2.8959   2.9567   2.9567
     2.9842   2.9842   3.0555   3.0555   3.1253   3.1253   3.2294   3.2295
     3.3495   3.3495   3.4295   3.4295   3.5269   3.5269   3.5610   3.5610
     3.6174   3.6174   3.9337   3.9338   4.1929   4.1929   4.2762   4.2762
     4.3397   4.3398   4.3769   4.3770   4.8423   4.8423   4.9407   4.9407
     5.1500   5.1500   5.2557   5.2557   5.7504   5.7504   5.7679   5.7679
     6.6686   6.6686   6.7303   6.7303   6.7410   6.7410   6.7948   6.7948
     7.2249   7.2250   7.2762   7.2762   7.3536   7.3536   7.4068   7.4068
     7.4867   7.4867   7.5764   7.5764   7.5876   7.5876   7.6381   7.6381
    11.2551  11.2551  11.2887  11.2887  11.4071  11.4071  11.4664  11.4664
    12.1576  12.1576  12.2218  12.2218  12.2625  12.2625  12.3214  12.3214
    12.8477  12.8477  12.9258  12.9258  13.1380  13.1380  13.2274  13.2274
    15.6100  15.6100  15.6323  15.6323  16.7734  16.7735  16.9342  16.9342
    17.3447  17.3447  17.4054  17.4055  17.4716

          k =-0.4948 0.0000 0.3279 ( 62350 PWs)   bands (ev):

   -66.1863 -66.1863 -66.1860 -66.1860 -66.1857 -66.1857 -66.1853 -66.1853
   -30.5593 -30.5593 -30.5541 -30.5541 -30.5388 -30.5388 -30.5311 -30.5311
   -30.5116 -30.5116 -30.5111 -30.5111 -30.5087 -30.5087 -30.5002 -30.5002
   -30.4909 -30.4909 -30.4729 -30.4729 -30.4561 -30.4561 -30.4496 -30.4496
   -20.3513 -20.3513 -20.3510 -20.3510 -20.3510 -20.3510 -20.3507 -20.3506
   -20.3311 -20.3310 -20.3308 -20.3308 -20.3308 -20.3308 -20.3305 -20.3305
   -20.3230 -20.3230 -20.3228 -20.3228 -20.3228 -20.3228 -20.3225 -20.3225
   -20.3166 -20.3166 -20.3159 -20.3159 -20.3140 -20.3140 -20.3136 -20.3136
   -20.3134 -20.3134 -20.3129 -20.3129 -20.3126 -20.3125 -20.3112 -20.3112
   -20.3107 -20.3107 -20.3083 -20.3083 -20.3074 -20.3074 -20.3066 -20.3066
   -20.2958 -20.2958 -20.2956 -20.2956 -20.2952 -20.2952 -20.2949 -20.2949
    -9.5195  -9.5195  -9.3197  -9.3197  -9.0657  -9.0656  -8.7991  -8.7991
    -8.6149  -8.6148  -8.5426  -8.5425  -8.5001  -8.5000  -8.4720  -8.4719
    -8.1756  -8.1756  -8.1556  -8.1555  -7.7514  -7.7514  -7.7307  -7.7307
     1.4299   1.4299   1.4503   1.4504   2.2377   2.2377   2.3051   2.3051
     2.9213   2.9213   3.0075   3.0075   3.0169   3.0170   3.1897   3.1897
     3.2382   3.2382   3.5073   3.5073   3.6147   3.6147   3.8048   3.8048
     3.8387   3.8388   3.9565   3.9565   4.2085   4.2086   4.4167   4.4167
     4.6432   4.6432   4.8674   4.8674   4.9937   4.9937   5.0933   5.0934
     5.3825   5.3825   5.5845   5.5845   6.0523   6.0523   6.1501   6.1501
     6.3735   6.3735   6.4316   6.4316   6.5284   6.5284   6.5539   6.5539
     7.0664   7.0665   7.1457   7.1457   7.2010   7.2010   7.4315   7.4315
     7.5043   7.5044   7.5941   7.5941   7.5961   7.5962   7.9631   7.9631
    10.7490  10.7490  11.3084  11.3084  11.3309  11.3309  11.6956  11.6956
    11.8376  11.8376  12.1840  12.1840  12.5436  12.5436  12.6478  12.6478
    12.8823  12.8823  13.1924  13.1924  13.2236  13.2236  13.5635  13.5635
    14.9872  14.9872  15.3129  15.3129  16.2593  16.2593  16.5182  16.5182
    16.8250  16.8250  17.3724  17.3724  17.9420

          k =-0.4948-0.1615 0.3279 ( 62368 PWs)   bands (ev):

   -66.1863 -66.1863 -66.1859 -66.1859 -66.1857 -66.1857 -66.1854 -66.1854
   -30.5556 -30.5556 -30.5498 -30.5498 -30.5388 -30.5387 -30.5309 -30.5308
   -30.5128 -30.5128 -30.5117 -30.5117 -30.5085 -30.5085 -30.5014 -30.5014
   -30.4900 -30.4900 -30.4725 -30.4725 -30.4599 -30.4599 -30.4527 -30.4527
   -20.3513 -20.3513 -20.3510 -20.3510 -20.3509 -20.3509 -20.3507 -20.3507
   -20.3310 -20.3310 -20.3308 -20.3308 -20.3308 -20.3308 -20.3305 -20.3305
   -20.3230 -20.3230 -20.3228 -20.3228 -20.3228 -20.3228 -20.3225 -20.3225
   -20.3164 -20.3164 -20.3156 -20.3156 -20.3141 -20.3141 -20.3135 -20.3135
   -20.3134 -20.3134 -20.3130 -20.3130 -20.3126 -20.3126 -20.3113 -20.3113
   -20.3106 -20.3106 -20.3083 -20.3083 -20.3078 -20.3078 -20.3069 -20.3069
   -20.2958 -20.2958 -20.2956 -20.2956 -20.2952 -20.2952 -20.2949 -20.2949
    -9.4644  -9.4644  -9.2467  -9.2467  -9.0770  -9.0769  -8.7736  -8.7736
    -8.6270  -8.6269  -8.5352  -8.5352  -8.4971  -8.4970  -8.4717  -8.4717
    -8.1733  -8.1732  -8.1600  -8.1600  -7.8585  -7.8585  -7.8383  -7.8383
     1.6566   1.6566   1.6880   1.6881   2.2381   2.2381   2.3109   2.3109
     2.9846   2.9847   3.0222   3.0222   3.0407   3.0407   3.2008   3.2008
     3.2495   3.2496   3.5431   3.5431   3.6602   3.6603   3.8011   3.8011
     3.8443   3.8443   4.0128   4.0128   4.1652   4.1653   4.4166   4.4166
     4.5196   4.5196   4.7205   4.7205   4.9211   4.9211   4.9942   4.9942
     5.1061   5.1061   5.3252   5.3252   5.7874   5.7874   5.9092   5.9092
     6.5670   6.5670   6.5823   6.5823   6.6639   6.6639   6.7691   6.7691
     7.0832   7.0832   7.1478   7.1478   7.2109   7.2109   7.4416   7.4417
     7.5004   7.5004   7.5938   7.5938   7.6032   7.6032   7.9163   7.9163
    10.8400  10.8400  11.3760  11.3760  11.4149  11.4149  11.7000  11.7000
    11.8570  11.8570  12.2185  12.2185  12.5368  12.5368  12.6524  12.6524
    12.7290  12.7290  13.0764  13.0764  13.1045  13.1045  13.4392  13.4392
    15.3148  15.3148  15.6525  15.6525  16.3290  16.3291  16.5270  16.5270
    16.8373  16.8373  17.4051  17.4051  17.8441

          k =-0.4948-0.3231 0.3279 ( 62336 PWs)   bands (ev):

   -66.1862 -66.1862 -66.1859 -66.1859 -66.1858 -66.1858 -66.1855 -66.1855
   -30.5469 -30.5469 -30.5392 -30.5392 -30.5382 -30.5382 -30.5293 -30.5293
   -30.5170 -30.5170 -30.5150 -30.5150 -30.5080 -30.5080 -30.5045 -30.5045
   -30.4867 -30.4866 -30.4710 -30.4710 -30.4692 -30.4692 -30.4599 -30.4599
   -20.3512 -20.3512 -20.3511 -20.3511 -20.3509 -20.3509 -20.3507 -20.3507
   -20.3310 -20.3310 -20.3309 -20.3308 -20.3307 -20.3307 -20.3306 -20.3306
   -20.3230 -20.3230 -20.3228 -20.3228 -20.3227 -20.3227 -20.3225 -20.3225
   -20.3157 -20.3157 -20.3149 -20.3149 -20.3143 -20.3143 -20.3134 -20.3134
   -20.3133 -20.3133 -20.3131 -20.3131 -20.3126 -20.3126 -20.3117 -20.3117
   -20.3103 -20.3103 -20.3087 -20.3087 -20.3082 -20.3082 -20.3074 -20.3074
   -20.2958 -20.2958 -20.2956 -20.2956 -20.2951 -20.2951 -20.2950 -20.2950
    -9.3304  -9.3304  -9.1165  -9.1165  -9.0484  -9.0484  -8.6938  -8.6938
    -8.6643  -8.6643  -8.5226  -8.5225  -8.4788  -8.4788  -8.4622  -8.4622
    -8.1913  -8.1913  -8.1668  -8.1668  -8.1186  -8.1186  -8.0759  -8.0759
     2.1375   2.1375   2.2382   2.2383   2.3094   2.3094   2.4481   2.4481
     3.0279   3.0280   3.0487   3.0487   3.1743   3.1743   3.2226   3.2227
     3.3300   3.3300   3.6275   3.6275   3.7220   3.7220   3.7754   3.7754
     3.8436   3.8436   4.0173   4.0173   4.1510   4.1510   4.2081   4.2081
     4.3408   4.3408   4.5070   4.5070   4.6312   4.6312   4.7972   4.7972
     4.8760   4.8760   4.9704   4.9704   5.0542   5.0542   5.3598   5.3598
     6.8473   6.8473   6.9216   6.9216   6.9906   6.9907   7.0043   7.0044
     7.1165   7.1165   7.1824   7.1824   7.2610   7.2610   7.4505   7.4505
     7.4889   7.4889   7.5723   7.5724   7.5895   7.5895   7.7745   7.7745
    11.1413  11.1413  11.5249  11.5249  11.6337  11.6337  11.7183  11.7183
    11.9648  11.9648  12.3001  12.3001  12.3461  12.3461  12.5054  12.5054
    12.6702  12.6702  12.7591  12.7591  12.7991  12.7991  13.1362  13.1362
    16.0512  16.0512  16.3929  16.3929  16.5475  16.5475  16.6580  16.6580
    16.9000  16.9000  17.4502  17.4502  17.5679

          k =-0.4948 0.4846 0.3279 ( 62336 PWs)   bands (ev):

   -66.1860 -66.1860 -66.1860 -66.1860 -66.1857 -66.1856 -66.1856 -66.1856
   -30.5407 -30.5407 -30.5404 -30.5404 -30.5260 -30.5260 -30.5245 -30.5245
   -30.5238 -30.5238 -30.5229 -30.5229 -30.5073 -30.5073 -30.5065 -30.5065
   -30.4808 -30.4808 -30.4787 -30.4787 -30.4673 -30.4673 -30.4661 -30.4661
   -20.3511 -20.3511 -20.3511 -20.3511 -20.3508 -20.3508 -20.3508 -20.3508
   -20.3309 -20.3309 -20.3309 -20.3309 -20.3307 -20.3307 -20.3307 -20.3307
   -20.3229 -20.3229 -20.3229 -20.3229 -20.3226 -20.3226 -20.3226 -20.3226
   -20.3151 -20.3151 -20.3149 -20.3149 -20.3142 -20.3142 -20.3134 -20.3134
   -20.3132 -20.3132 -20.3131 -20.3131 -20.3126 -20.3126 -20.3121 -20.3121
   -20.3098 -20.3098 -20.3095 -20.3095 -20.3080 -20.3080 -20.3079 -20.3079
   -20.2957 -20.2957 -20.2957 -20.2957 -20.2950 -20.2950 -20.2950 -20.2950
    -9.2040  -9.2040  -9.1903  -9.1903  -8.8298  -8.8298  -8.7969  -8.7969
    -8.5646  -8.5646  -8.5343  -8.5343  -8.4219  -8.4219  -8.3943  -8.3943
    -8.3596  -8.3596  -8.3403  -8.3403  -8.1531  -8.1531  -8.1518  -8.1518
     2.2224   2.2224   2.2394   2.2394   2.9248   2.9249   2.9582   2.9582
     3.0226   3.0226   3.1036   3.1036   3.1190   3.1191   3.2033   3.2034
     3.4201   3.4201   3.4740   3.4741   3.6101   3.6101   3.6724   3.6724
     3.8291   3.8291   4.0192   4.0192   4.1774   4.1774   4.2033   4.2033
     4.2730   4.2730   4.3206   4.3206   4.4491   4.4491   4.5430   4.5431
     4.6829   4.6829   4.7928   4.7928   5.0002   5.0002   5.0211   5.0211
     6.9402   6.9402   7.0548   7.0548   7.0567   7.0567   7.1016   7.1016
     7.2080   7.2080   7.3074   7.3074   7.3592   7.3592   7.4215   7.4215
     7.4731   7.4731   7.5377   7.5378   7.5729   7.5729   7.6242   7.6242
    11.5305  11.5305  11.5828  11.5828  11.6334  11.6334  11.7570  11.7570
    12.1608  12.1608  12.2060  12.2060  12.2445  12.2445  12.3656  12.3656
    12.4972  12.4972  12.6463  12.6463  12.7802  12.7802  12.8717  12.8717
    16.3925  16.3925  16.4388  16.4388  16.9433  16.9434  17.0996  17.0996
    17.3011  17.3012  17.4343  17.4343  17.4739

     the Fermi energy is     9.0225 ev

!    total energy              =   -6261.11205365 Ry
     Harris-Foulkes estimate   =   -6261.11205365 Ry
     estimated scf accuracy    <          1.4E-12 Ry

     The total energy is the sum of the following terms:

     one-electron contribution =   -4719.81908300 Ry
     hartree contribution      =    2596.32512802 Ry
     xc contribution           =    -965.66361469 Ry
     ewald contribution        =   -3171.95448398 Ry
     smearing contrib. (-TS)   =      -0.00000000 Ry

     convergence has been achieved in  15 iterations

     Forces acting on atoms (cartesian axes, Ry/au):

     atom    1 type  1   force =     0.00228979    0.00173253   -0.00095720
     atom    2 type  1   force =    -0.00228979   -0.00173253    0.00095720
     atom    3 type  1   force =    -0.00228979   -0.00173253   -0.00095720
     atom    4 type  1   force =     0.00228979    0.00173253    0.00095720
     atom    5 type  1   force =    -0.00228979    0.00173253    0.00095720
     atom    6 type  1   force =     0.00228979   -0.00173253   -0.00095720
     atom    7 type  1   force =     0.00228979   -0.00173253    0.00095720
     atom    8 type  1   force =    -0.00228979    0.00173253   -0.00095720
     atom    9 type  2   force =     0.00076535   -0.00163434   -0.00056656
     atom   10 type  2   force =    -0.00076535    0.00163434    0.00056656
     atom   11 type  2   force =    -0.00076535    0.00163434   -0.00056656
     atom   12 type  2   force =     0.00076535   -0.00163434    0.00056656
     atom   13 type  2   force =    -0.00076535   -0.00163434    0.00056656
     atom   14 type  2   force =     0.00076535    0.00163434   -0.00056656
     atom   15 type  2   force =     0.00076535    0.00163434    0.00056656
     atom   16 type  2   force =    -0.00076535   -0.00163434   -0.00056656
     atom   17 type  2   force =     0.00088485   -0.00032977    0.00145860
     atom   18 type  2   force =    -0.00088485    0.00032977   -0.00145860
     atom   19 type  2   force =    -0.00088485    0.00032977    0.00145860
     atom   20 type  2   force =     0.00088485   -0.00032977   -0.00145860
     atom   21 type  2   force =    -0.00088485   -0.00032977   -0.00145860
     atom   22 type  2   force =     0.00088485    0.00032977    0.00145860
     atom   23 type  2   force =     0.00088485    0.00032977   -0.00145860
     atom   24 type  2   force =    -0.00088485   -0.00032977    0.00145860
     atom   25 type  2   force =    -0.00264307    0.00198726    0.00018994
     atom   26 type  2   force =     0.00264307   -0.00198726   -0.00018994
     atom   27 type  2   force =     0.00264307   -0.00198726    0.00018994
     atom   28 type  2   force =    -0.00264307    0.00198726   -0.00018994
     atom   29 type  2   force =     0.00264307    0.00198726   -0.00018994
     atom   30 type  2   force =    -0.00264307   -0.00198726    0.00018994
     atom   31 type  2   force =    -0.00264307   -0.00198726   -0.00018994
     atom   32 type  2   force =     0.00264307    0.00198726    0.00018994

     Total force =     0.000000     Total SCF correction =     0.000000


     Computing stress (Cartesian axis) and pressure

          total   stress  (Ry/bohr**3)                   (kbar)     P=    0.45
   0.00000411   0.00000000   0.00000000          0.60      0.00      0.00
   0.00000000  -0.00000150   0.00000000          0.00     -0.22      0.00
   0.00000000   0.00000000   0.00000658          0.00      0.00      0.97


     Writing output data file Landau_38.save
 
     init_run     :    111.33s CPU    114.62s WALL (       2 calls)
     electrons    :  12610.01s CPU  12896.98s WALL (       6 calls)
     update_pot   :    123.04s CPU    123.27s WALL (       4 calls)
     forces       :    217.74s CPU    220.74s WALL (       6 calls)
     stress       :   1649.21s CPU   1668.82s WALL (       6 calls)

     Called by init_run:
     wfcinit      :     84.34s CPU     87.31s WALL (       2 calls)
     potinit      :     12.05s CPU     12.14s WALL (       2 calls)

     Called by electrons:
     c_bands      :  11091.61s CPU  11364.90s WALL (      87 calls)
     sum_band     :   1444.02s CPU   1451.51s WALL (      87 calls)
     v_of_rho     :     13.19s CPU     13.39s WALL (      92 calls)
     mix_rho      :     25.73s CPU     30.63s WALL (      87 calls)

     Called by c_bands:
     init_us_2    :    110.05s CPU    114.97s WALL (     376 calls)
     cegterg      :   9375.82s CPU   9637.49s WALL (     174 calls)

     Called by sum_band:

     Called by *egterg:
     h_psi        :   7176.17s CPU   7210.70s WALL (     694 calls)
     g_psi        :     29.22s CPU     29.35s WALL (     516 calls)
     cdiaghg      :    100.10s CPU    100.35s WALL (     680 calls)

     Called by h_psi:
     h_psi:pot    :   7122.64s CPU   7154.50s WALL (     694 calls)
     h_psi:calbec :    835.27s CPU    855.40s WALL (     694 calls)
     vloc_psi     :   5407.88s CPU   5415.75s WALL (     694 calls)
     add_vuspsi   :    879.48s CPU    883.35s WALL (     694 calls)

     General routines
     calbec       :    950.50s CPU    970.87s WALL (     754 calls)
     fft          :      9.57s CPU      9.58s WALL (     416 calls)
     fftw         :   5327.27s CPU   5331.31s WALL (  226570 calls)
 
     Parallel routines
 
     PWSCF        :     4h 5m CPU        4h10m WALL

 
   This run was terminated on:  16:47: 3  11Mar2020            

=------------------------------------------------------------------------------=
   JOB DONE.
=------------------------------------------------------------------------------=
