
     Program PWSCF v.6.2 (svn rev. 14038) starts on 25Mar2020 at  0: 0:12 

     This program is part of the open-source Quantum ESPRESSO suite
     for quantum simulation of materials; please cite
         "P. Giannozzi et al., J. Phys.:Condens. Matter 21 395502 (2009);
         "P. Giannozzi et al., J. Phys.:Condens. Matter 29 465901 (2017);
          URL http://www.quantum-espresso.org", 
     in publications or presentations arising from this work. More details at
     http://www.quantum-espresso.org/quote

     Parallel version (MPI), running on    40 processors

     MPI processes distributed on     6 nodes
     K-points division:     npool     =      40
     Reading input from scf.in

     Current dimensions of program PWSCF are:
     Max number of different atomic species (ntypx) = 10
     Max number of k-points (npk) =  40000
     Max angular momentum in pseudopotentials (lmaxx) =  3

     Subspace diagonalization in iterative solution of the eigenvalue problem:
     a serial algorithm will be used

 
     G-vector sticks info
     --------------------
     sticks:   dense  smooth     PW     G-vecs:    dense   smooth      PW
     Sum        7563    7563   2021               489611   489611   67923
 


     bravais-lattice index     =            0
     lattice parameter (alat)  =      13.9508  a.u.
     unit-cell volume          =    2756.1412 (a.u.)^3
     number of atoms/cell      =           32
     number of atomic types    =            2
     number of electrons       =       368.20
     number of Kohn-Sham states=          221
     kinetic-energy cutoff     =     120.0000  Ry
     charge density cutoff     =     480.0000  Ry
     convergence threshold     =      1.0E-08
     mixing beta               =       0.7000
     number of iterations used =            8  plain     mixing
     Exchange-correlation      = SLA PW NOGX NOGC ( 1  4  0  0 0 0)

     celldm(1)=  13.950838  celldm(2)=   0.000000  celldm(3)=   0.000000
     celldm(4)=   0.000000  celldm(5)=   0.000000  celldm(6)=   0.000000

     crystal axes: (cart. coord. in units of alat)
               a(1) = (   1.000000   0.000000   0.000000 )  
               a(2) = (   0.000000   1.015081   0.000000 )  
               a(3) = (   0.000000   0.000000   1.000000 )  

     reciprocal axes: (cart. coord. in units 2 pi/alat)
               b(1) = (  1.000000  0.000000  0.000000 )  
               b(2) = (  0.000000  0.985143  0.000000 )  
               b(3) = (  0.000000  0.000000  1.000000 )  


     PseudoPot. # 1 for W  read from file:
     /cluster/scratch/mnoe/QE/pps/W_ONCV_LDA-4.0.upf
     MD5 check sum: ba0307d5d4cd419d6f1d13dc49d7c13a
     Pseudo is Norm-conserving + core correction, Zval = 28.0
     Generated using ONCVPSP code by D. R. Hamann
     Using radial grid of 1380 points,  8 beta functions with: 
                l(1) =   0
                l(2) =   0
                l(3) =   1
                l(4) =   1
                l(5) =   2
                l(6) =   2
                l(7) =   3
                l(8) =   3

     PseudoPot. # 2 for O  read from file:
     /cluster/scratch/mnoe/QE/pps/O_ONCV_LDA-3.0.upf
     MD5 check sum: a1bd6164e7280c17a38c229939bfbd54
     Pseudo is Norm-conserving + core correction, Zval =  6.0
     Generated using ONCVPSP code by D. R. Hamann
     Using radial grid of  926 points,  5 beta functions with: 
                l(1) =   0
                l(2) =   0
                l(3) =   1
                l(4) =   1
                l(5) =   2

     atomic species   valence    mass     pseudopotential
        W             28.00   183.84000     W ( 1.00)
        O              6.00    15.99940     O ( 1.00)

      8 Sym. Ops. (no inversion) found ( 7 have fractional translation)



   Cartesian axes

     site n.     atom                  positions (alat units)
         1           W   tau(   1) = (   0.2176270   0.2842867  -0.0009270  )
         2           W   tau(   2) = (   0.7509270   0.7307941  -0.0323730  )
         3           W   tau(   3) = (   0.2823730   0.2232537   0.4990730  )
         4           W   tau(   4) = (   0.7490730   0.7918271   0.4676270  )
         5           W   tau(   5) = (   0.7823730   0.2842867   0.5009270  )
         6           W   tau(   6) = (   0.2490730   0.7307941   0.5323730  )
         7           W   tau(   7) = (   0.7176270   0.2232537   0.0009270  )
         8           W   tau(   8) = (   0.2509270   0.7918271   0.0323730  )
         9           O   tau(   9) = (   0.2143960   0.0079486  -0.0258300  )
        10           O   tau(  10) = (   0.7758300  -0.0079486  -0.0356040  )
        11           O   tau(  11) = (   0.2856040   0.4995918   0.4741700  )
        12           O   tau(  12) = (   0.7241700   0.5154889   0.4643960  )
        13           O   tau(  13) = (   0.7856040   0.0079486   0.5258300  )
        14           O   tau(  14) = (   0.2241700  -0.0079486   0.5356040  )
        15           O   tau(  15) = (   0.7143960   0.4995918   0.0258300  )
        16           O   tau(  16) = (   0.2758300   0.5154889   0.0356040  )
        17           O   tau(  17) = (   0.5114570   0.2148063   0.4539337  )
        18           O   tau(  18) = (   0.5023490   0.7863151   0.5460663  )
        19           O   tau(  19) = (  -0.0114570   0.2927340   0.9539338  )
        20           O   tau(  20) = (  -0.0023490   0.7363062   0.0460663  )
        21           O   tau(  21) = (   0.4885430   0.2148063   0.0460663  )
        22           O   tau(  22) = (   0.4976510   0.7863151   0.9539338  )
        23           O   tau(  23) = (   0.0114569   0.2927340   0.5460663  )
        24           O   tau(  24) = (   0.0023490   0.7363062   0.4539337  )
        25           O   tau(  25) = (   0.7039337   0.2787747   0.7476510  )
        26           O   tau(  26) = (   0.2960663   0.8002745   0.2614570  )
        27           O   tau(  27) = (   0.7960663   0.2287657   0.2476511  )
        28           O   tau(  28) = (   0.2039337   0.7223468   0.7614570  )
        29           O   tau(  29) = (   0.2960663   0.2787747   0.7523490  )
        30           O   tau(  30) = (   0.7039337   0.8002745   0.2385431  )
        31           O   tau(  31) = (   0.2039337   0.2287657   0.2523490  )
        32           O   tau(  32) = (   0.7960663   0.7223468   0.7385430  )

     number of k points=    40  gaussian smearing, width (Ry)=  0.0007
                       cart. coord. in units 2pi/alat
        k(    1) = (   0.0000000   0.0000000   0.0000000), wk =   0.0092593
        k(    2) = (   0.0000000   0.0000000   0.1666667), wk =   0.0370370
        k(    3) = (   0.0000000   0.0000000   0.3333333), wk =   0.0370370
        k(    4) = (   0.0000000   0.0000000  -0.5000000), wk =   0.0185185
        k(    5) = (   0.0000000   0.1641905   0.0000000), wk =   0.0185185
        k(    6) = (   0.0000000   0.1641905   0.1666667), wk =   0.0740741
        k(    7) = (   0.0000000   0.1641905   0.3333333), wk =   0.0740741
        k(    8) = (   0.0000000   0.1641905  -0.5000000), wk =   0.0370370
        k(    9) = (   0.0000000   0.3283811   0.0000000), wk =   0.0185185
        k(   10) = (   0.0000000   0.3283811   0.1666667), wk =   0.0740741
        k(   11) = (   0.0000000   0.3283811   0.3333333), wk =   0.0740741
        k(   12) = (   0.0000000   0.3283811  -0.5000000), wk =   0.0370370
        k(   13) = (   0.0000000  -0.4925716   0.0000000), wk =   0.0092593
        k(   14) = (   0.0000000  -0.4925716   0.1666667), wk =   0.0370370
        k(   15) = (   0.0000000  -0.4925716   0.3333333), wk =   0.0370370
        k(   16) = (   0.0000000  -0.4925716  -0.5000000), wk =   0.0185185
        k(   17) = (   0.1666667   0.0000000   0.1666667), wk =   0.0370370
        k(   18) = (   0.1666667   0.0000000   0.3333333), wk =   0.0740741
        k(   19) = (   0.1666667   0.0000000  -0.5000000), wk =   0.0370370
        k(   20) = (   0.1666667   0.1641905   0.1666667), wk =   0.0740741
        k(   21) = (   0.1666667   0.1641905   0.3333333), wk =   0.1481481
        k(   22) = (   0.1666667   0.1641905  -0.5000000), wk =   0.0740741
        k(   23) = (   0.1666667   0.3283811   0.1666667), wk =   0.0740741
        k(   24) = (   0.1666667   0.3283811   0.3333333), wk =   0.1481481
        k(   25) = (   0.1666667   0.3283811  -0.5000000), wk =   0.0740741
        k(   26) = (   0.1666667  -0.4925716   0.1666667), wk =   0.0370370
        k(   27) = (   0.1666667  -0.4925716   0.3333333), wk =   0.0740741
        k(   28) = (   0.1666667  -0.4925716  -0.5000000), wk =   0.0370370
        k(   29) = (   0.3333333   0.0000000   0.3333333), wk =   0.0370370
        k(   30) = (   0.3333333   0.0000000  -0.5000000), wk =   0.0370370
        k(   31) = (   0.3333333   0.1641905   0.3333333), wk =   0.0740741
        k(   32) = (   0.3333333   0.1641905  -0.5000000), wk =   0.0740741
        k(   33) = (   0.3333333   0.3283811   0.3333333), wk =   0.0740741
        k(   34) = (   0.3333333   0.3283811  -0.5000000), wk =   0.0740741
        k(   35) = (   0.3333333  -0.4925716   0.3333333), wk =   0.0370370
        k(   36) = (   0.3333333  -0.4925716  -0.5000000), wk =   0.0370370
        k(   37) = (  -0.5000000   0.0000000  -0.5000000), wk =   0.0092593
        k(   38) = (  -0.5000000   0.1641905  -0.5000000), wk =   0.0185185
        k(   39) = (  -0.5000000   0.3283811  -0.5000000), wk =   0.0185185
        k(   40) = (  -0.5000000  -0.4925716  -0.5000000), wk =   0.0092593

     Dense  grid:   489611 G-vectors     FFT dimensions: ( 100, 100, 100)

     Estimated max dynamical RAM per process >       2.67 GB

     Estimated total dynamical RAM >     106.67 GB

     Initial potential from superposition of free atoms

     starting charge  367.99656, renormalised to  368.20000
     Starting wfc are  232 randomized atomic wfcs

     total cpu time spent up to now is       19.4 secs

     Self-consistent Calculation

     iteration #  1     ecut=   120.00 Ry     beta= 0.70
     Davidson diagonalization with overlap
     ethr =  1.00E-02,  avg # of iterations =  4.7

     total cpu time spent up to now is       82.4 secs

     total energy              =   -6253.80461807 Ry
     Harris-Foulkes estimate   =   -6264.37321899 Ry
     estimated scf accuracy    <      13.36540351 Ry

     iteration #  2     ecut=   120.00 Ry     beta= 0.70
     Davidson diagonalization with overlap
     ethr =  3.63E-03,  avg # of iterations =  3.5

     total cpu time spent up to now is      146.6 secs

     total energy              =   -6250.55165671 Ry
     Harris-Foulkes estimate   =   -6270.48123448 Ry
     estimated scf accuracy    <      53.55741508 Ry

     iteration #  3     ecut=   120.00 Ry     beta= 0.70
     Davidson diagonalization with overlap
     ethr =  3.63E-03,  avg # of iterations =  3.3

     total cpu time spent up to now is      208.8 secs

     total energy              =   -6260.89026894 Ry
     Harris-Foulkes estimate   =   -6261.16817795 Ry
     estimated scf accuracy    <       0.90436410 Ry

     iteration #  4     ecut=   120.00 Ry     beta= 0.70
     Davidson diagonalization with overlap
     ethr =  2.46E-04,  avg # of iterations =  2.6

     total cpu time spent up to now is      259.6 secs

     total energy              =   -6260.88853397 Ry
     Harris-Foulkes estimate   =   -6260.95922345 Ry
     estimated scf accuracy    <       0.21998506 Ry

     iteration #  5     ecut=   120.00 Ry     beta= 0.70
     Davidson diagonalization with overlap
     ethr =  5.97E-05,  avg # of iterations =  5.6

     total cpu time spent up to now is      316.0 secs

     total energy              =   -6260.89161200 Ry
     Harris-Foulkes estimate   =   -6260.92203422 Ry
     estimated scf accuracy    <       0.06665425 Ry

     iteration #  6     ecut=   120.00 Ry     beta= 0.70
     Davidson diagonalization with overlap
     ethr =  1.81E-05,  avg # of iterations =  4.7

     total cpu time spent up to now is      376.2 secs

     total energy              =   -6260.90642778 Ry
     Harris-Foulkes estimate   =   -6260.90886227 Ry
     estimated scf accuracy    <       0.00654356 Ry

     iteration #  7     ecut=   120.00 Ry     beta= 0.70
     Davidson diagonalization with overlap
     ethr =  1.78E-06,  avg # of iterations =  4.2

     total cpu time spent up to now is      428.1 secs

     total energy              =   -6260.90722592 Ry
     Harris-Foulkes estimate   =   -6260.90733045 Ry
     estimated scf accuracy    <       0.00019604 Ry

     iteration #  8     ecut=   120.00 Ry     beta= 0.70
     Davidson diagonalization with overlap
     ethr =  5.32E-08,  avg # of iterations =  3.0

     total cpu time spent up to now is      493.9 secs

     total energy              =   -6260.90729951 Ry
     Harris-Foulkes estimate   =   -6260.90730800 Ry
     estimated scf accuracy    <       0.00003091 Ry

     iteration #  9     ecut=   120.00 Ry     beta= 0.70
     Davidson diagonalization with overlap
     ethr =  8.40E-09,  avg # of iterations =  2.0

     total cpu time spent up to now is      541.9 secs

     total energy              =   -6260.90729874 Ry
     Harris-Foulkes estimate   =   -6260.90730188 Ry
     estimated scf accuracy    <       0.00000910 Ry

     iteration # 10     ecut=   120.00 Ry     beta= 0.70
     Davidson diagonalization with overlap
     ethr =  2.47E-09,  avg # of iterations =  2.6

     total cpu time spent up to now is      590.2 secs

     total energy              =   -6260.90729977 Ry
     Harris-Foulkes estimate   =   -6260.90730019 Ry
     estimated scf accuracy    <       0.00000103 Ry

     iteration # 11     ecut=   120.00 Ry     beta= 0.70
     Davidson diagonalization with overlap
     ethr =  2.79E-10,  avg # of iterations =  2.9

     total cpu time spent up to now is      640.8 secs

     total energy              =   -6260.90729999 Ry
     Harris-Foulkes estimate   =   -6260.90730004 Ry
     estimated scf accuracy    <       0.00000010 Ry

     iteration # 12     ecut=   120.00 Ry     beta= 0.70
     Davidson diagonalization with overlap
     ethr =  2.64E-11,  avg # of iterations =  2.0

     total cpu time spent up to now is      686.6 secs

     total energy              =   -6260.90729999 Ry
     Harris-Foulkes estimate   =   -6260.90730000 Ry
     estimated scf accuracy    <       0.00000001 Ry

     iteration # 13     ecut=   120.00 Ry     beta= 0.70
     Davidson diagonalization with overlap
     ethr =  3.25E-12,  avg # of iterations =  3.0

     total cpu time spent up to now is      745.9 secs

     End of self-consistent calculation

          k = 0.0000 0.0000 0.0000 ( 61221 PWs)   bands (ev):

   -65.8034 -65.8026 -65.8025 -65.8025 -65.8018 -65.8017 -65.8016 -65.8009
   -30.3215 -30.3185 -30.3157 -30.3157 -30.2378 -30.2378 -30.2370 -30.2292
   -30.1635 -30.1562 -30.1561 -30.1491 -30.0843 -30.0808 -30.0807 -30.0775
   -30.0766 -30.0755 -30.0683 -30.0683 -29.9955 -29.9955 -29.9912 -29.9895
   -19.9545 -19.9543 -19.9541 -19.9541 -19.9536 -19.9536 -19.9534 -19.9532
   -19.9422 -19.9422 -19.9421 -19.9419 -19.9411 -19.9407 -19.9407 -19.9407
   -19.9363 -19.9362 -19.9360 -19.9360 -19.9318 -19.9318 -19.9318 -19.9314
   -19.9232 -19.9227 -19.9226 -19.9221 -19.9195 -19.9190 -19.9190 -19.9186
   -19.9173 -19.9173 -19.9172 -19.9165 -19.9162 -19.9157 -19.9157 -19.9154
   -19.9129 -19.9126 -19.9119 -19.9118 -19.9086 -19.9086 -19.9082 -19.9078
   -19.9041 -19.9037 -19.9033 -19.9033 -19.9015 -19.9015 -19.9011 -19.9007
    -9.6786  -9.3377  -9.2765  -9.2765  -8.8230  -8.8230  -8.7952  -8.6683
    -8.5244  -8.4425  -8.4425  -8.4317  -7.8041  -7.7396  -7.6432  -7.6432
    -7.4853  -7.4188  -7.4188  -7.3667  -7.3523  -7.3355  -7.2291  -7.2291
     1.6012   1.6515   1.6719   1.6719   1.8349   1.8771   1.8820   1.8820
     2.0600   2.0600   2.1460   2.3271   2.6580   2.7265   2.8214   2.9376
     2.9652   2.9652   4.4922   4.4922   4.7261   4.8536   4.8653   4.8794
     4.8794   5.0244   5.0244   5.0536   5.3944   5.3945   5.4972   5.6325
     5.6815   5.6882   5.7102   5.7102   5.9573   5.9573   5.9929   6.0459
     6.0459   6.0535   6.0640   6.1605   6.1605   6.1967   6.3171   6.3525
     6.4847   6.6337   6.6708   6.6708   6.8476   6.9055   7.1026   7.1026
     7.1518   7.2658   7.2731   7.2731   7.2929   7.4031   7.4031   7.4665
     7.7299   7.7299   8.0125   8.0660   8.1567   8.2545   8.2545   8.4236
    10.2019  10.3422  10.4787  10.4787  10.5141  10.5775  12.4577  12.4710
    12.4710  12.6398  12.6398  12.7849  12.9458  13.1760  13.1760  13.3102
    13.3410  13.4856  13.4856  13.5617  13.9615  13.9615  13.9781  14.2801
    14.9979  15.1627  15.1627  15.1835  15.5125  15.8591  16.1212  16.1583
    16.1583  16.9574  17.1879  17.1879  17.9134

          k = 0.0000 0.0000 0.1667 ( 61231 PWs)   bands (ev):

   -65.8033 -65.8026 -65.8026 -65.8024 -65.8018 -65.8017 -65.8017 -65.8010
   -30.3201 -30.3160 -30.3139 -30.3101 -30.2431 -30.2404 -30.2374 -30.2314
   -30.1631 -30.1568 -30.1558 -30.1498 -30.0842 -30.0810 -30.0808 -30.0770
   -30.0762 -30.0705 -30.0690 -30.0631 -30.0009 -29.9958 -29.9952 -29.9906
   -19.9544 -19.9542 -19.9541 -19.9540 -19.9536 -19.9536 -19.9534 -19.9532
   -19.9422 -19.9421 -19.9421 -19.9418 -19.9411 -19.9408 -19.9407 -19.9407
   -19.9362 -19.9360 -19.9360 -19.9357 -19.9322 -19.9320 -19.9318 -19.9315
   -19.9232 -19.9227 -19.9226 -19.9221 -19.9195 -19.9191 -19.9189 -19.9186
   -19.9174 -19.9173 -19.9172 -19.9166 -19.9161 -19.9157 -19.9157 -19.9154
   -19.9128 -19.9123 -19.9119 -19.9116 -19.9088 -19.9085 -19.9084 -19.9079
   -19.9040 -19.9036 -19.9034 -19.9032 -19.9017 -19.9015 -19.9013 -19.9008
    -9.6361  -9.2929  -9.2880  -9.2155  -8.8391  -8.8068  -8.7702  -8.6516
    -8.4941  -8.4513  -8.4005  -8.3935  -7.8748  -7.7588  -7.7465  -7.6502
    -7.4856  -7.4524  -7.4239  -7.4153  -7.3712  -7.3361  -7.3334  -7.2364
     1.6296   1.6653   1.7999   1.8302   1.8745   1.8753   1.8798   1.9849
     2.0627   2.2451   2.2759   2.4608   2.7185   2.7875   2.9066   2.9557
     2.9900   3.0549   4.3597   4.4829   4.5284   4.6290   4.6596   4.8286
     4.8830   4.9521   4.9922   5.0337   5.1515   5.3698   5.4916   5.5777
     5.6070   5.6948   5.7235   5.7797   5.8609   5.8982   5.9354   5.9795
     6.0358   6.0502   6.0734   6.1079   6.1439   6.1644   6.2791   6.4055
     6.4801   6.6417   6.6715   6.7736   6.9112   6.9780   7.0253   7.0984
     7.1233   7.1719   7.2022   7.2776   7.3015   7.3846   7.4023   7.4771
     7.5868   7.6446   8.0196   8.0626   8.1477   8.2272   8.2714   8.4148
    10.3319  10.4754  10.5069  10.6045  10.7368  10.8314  12.4330  12.4636
    12.5031  12.5921  12.6940  12.8048  12.9740  13.0845  13.1971  13.3245
    13.3430  13.4558  13.5033  13.5800  13.8795  13.9657  14.0399  14.2109
    15.0041  15.1540  15.2186  15.2601  15.5410  15.9198  16.0569  16.1444
    16.3688  17.0012  17.1043  17.3430  17.9828

          k = 0.0000 0.0000 0.3333 ( 61148 PWs)   bands (ev):

   -65.8032 -65.8027 -65.8024 -65.8023 -65.8020 -65.8018 -65.8015 -65.8011
   -30.3190 -30.3168 -30.2989 -30.2948 -30.2577 -30.2539 -30.2365 -30.2337
   -30.1621 -30.1585 -30.1549 -30.1514 -30.0837 -30.0818 -30.0802 -30.0779
   -30.0747 -30.0706 -30.0557 -30.0489 -30.0156 -30.0100 -29.9943 -29.9917
   -19.9544 -19.9542 -19.9541 -19.9539 -19.9537 -19.9535 -19.9535 -19.9533
   -19.9422 -19.9421 -19.9418 -19.9416 -19.9412 -19.9410 -19.9408 -19.9408
   -19.9362 -19.9360 -19.9352 -19.9349 -19.9330 -19.9328 -19.9318 -19.9316
   -19.9231 -19.9228 -19.9225 -19.9222 -19.9194 -19.9191 -19.9186 -19.9184
   -19.9177 -19.9176 -19.9171 -19.9168 -19.9160 -19.9158 -19.9156 -19.9155
   -19.9126 -19.9121 -19.9115 -19.9108 -19.9094 -19.9089 -19.9084 -19.9081
   -19.9038 -19.9035 -19.9033 -19.9029 -19.9022 -19.9017 -19.9013 -19.9010
    -9.5344  -9.3426  -9.1555  -9.0675  -8.8928  -8.8454  -8.6226  -8.5992
    -8.4778  -8.4306  -8.2604  -8.2365  -8.1076  -8.0149  -7.7648  -7.7027
    -7.6686  -7.5917  -7.4730  -7.4379  -7.4135  -7.3832  -7.3137  -7.2566
     1.6387   1.6528   1.8691   1.8727   1.8742   1.8771   2.0483   2.0704
     2.5519   2.7452   2.8026   2.8346   2.9361   3.0003   3.0129   3.1455
     3.1893   3.2953   3.9496   4.0526   4.1940   4.2428   4.2636   4.6087
     4.7272   4.7623   4.9124   4.9134   4.9859   5.0364   5.2576   5.3060
     5.5285   5.5405   5.5727   5.7109   5.7296   5.7646   5.8907   5.9864
     5.9975   6.0873   6.1428   6.1458   6.1816   6.2566   6.2834   6.4735
     6.4950   6.5386   6.6604   6.7505   6.8224   6.8915   7.0011   7.0232
     7.0722   7.2353   7.2674   7.3023   7.3714   7.4367   7.4416   7.4933
     7.6016   7.6783   7.9661   7.9994   8.0870   8.1307   8.3067   8.3805
    10.4070  10.4622  10.9735  11.1379  11.2108  11.4609  12.1480  12.2192
    12.4098  12.5854  12.6737  12.8095  12.8663  13.0501  13.2083  13.2590
    13.4169  13.4567  13.4827  13.5735  13.8157  13.9539  13.9825  14.1015
    15.0495  15.1292  15.3717  15.4970  15.8718  15.8936  16.0457  16.1637
    16.6142  17.0240  17.5492  17.5776  17.8266

          k = 0.0000 0.0000-0.5000 ( 61212 PWs)   bands (ev):

   -65.8029 -65.8029 -65.8022 -65.8022 -65.8021 -65.8021 -65.8013 -65.8013
   -30.3179 -30.3179 -30.2782 -30.2782 -30.2741 -30.2741 -30.2352 -30.2352
   -30.1605 -30.1605 -30.1533 -30.1533 -30.0828 -30.0828 -30.0791 -30.0791
   -30.0727 -30.0727 -30.0356 -30.0356 -30.0295 -30.0295 -29.9930 -29.9930
   -19.9543 -19.9543 -19.9539 -19.9539 -19.9537 -19.9537 -19.9534 -19.9534
   -19.9421 -19.9421 -19.9415 -19.9415 -19.9413 -19.9413 -19.9408 -19.9408
   -19.9361 -19.9361 -19.9341 -19.9341 -19.9339 -19.9339 -19.9317 -19.9317
   -19.9229 -19.9229 -19.9224 -19.9224 -19.9192 -19.9192 -19.9182 -19.9182
   -19.9180 -19.9180 -19.9170 -19.9170 -19.9159 -19.9159 -19.9156 -19.9156
   -19.9124 -19.9124 -19.9104 -19.9104 -19.9098 -19.9098 -19.9083 -19.9083
   -19.9036 -19.9036 -19.9028 -19.9028 -19.9023 -19.9023 -19.9012 -19.9011
    -9.4256  -9.4256  -9.0004  -9.0003  -8.9265  -8.9265  -8.5270  -8.5270
    -8.3841  -8.3841  -8.2940  -8.2940  -8.0084  -8.0084  -7.9677  -7.9677
    -7.6880  -7.6880  -7.4565  -7.4565  -7.3992  -7.3992  -7.2848  -7.2848
     1.6438   1.6438   1.8726   1.8726   1.8770   1.8770   2.0760   2.0760
     2.8575   2.8575   3.2501   3.2501   3.3646   3.3646   3.4571   3.4571
     3.5336   3.5336   3.6207   3.6207   3.8324   3.8324   3.9899   3.9899
     4.2027   4.2027   4.8489   4.8490   4.9241   4.9241   5.3806   5.3806
     5.4427   5.4427   5.5793   5.5793   5.7097   5.7097   5.9622   5.9622
     6.0492   6.0492   6.1586   6.1586   6.2124   6.2124   6.3988   6.3988
     6.5515   6.5515   6.6369   6.6369   6.8116   6.8116   6.9171   6.9171
     7.1984   7.1984   7.2659   7.2659   7.3298   7.3298   7.7642   7.7642
     7.7969   7.7969   7.8945   7.8945   7.9507   7.9507   8.3397   8.3397
    10.4385  10.4385  11.5874  11.5874  11.7595  11.7595  11.8260  11.8260
    12.1650  12.1650  12.6791  12.6791  13.0883  13.0883  13.1971  13.1972
    13.3619  13.3619  13.6372  13.6372  13.7435  13.7435  14.0238  14.0238
    15.0923  15.0923  15.6333  15.6333  15.8142  15.8142  16.2648  16.2648
    16.7987  16.7987  17.9165  17.9165  18.3082

          k = 0.0000 0.1642 0.0000 ( 61193 PWs)   bands (ev):

   -65.8033 -65.8027 -65.8025 -65.8024 -65.8018 -65.8018 -65.8016 -65.8009
   -30.3212 -30.3186 -30.3157 -30.3157 -30.2375 -30.2375 -30.2362 -30.2295
   -30.1582 -30.1514 -30.1514 -30.1446 -30.0896 -30.0859 -30.0859 -30.0819
   -30.0772 -30.0757 -30.0684 -30.0684 -29.9955 -29.9955 -29.9911 -29.9896
   -19.9545 -19.9543 -19.9541 -19.9541 -19.9536 -19.9536 -19.9534 -19.9532
   -19.9422 -19.9422 -19.9421 -19.9419 -19.9410 -19.9408 -19.9407 -19.9407
   -19.9363 -19.9362 -19.9360 -19.9360 -19.9318 -19.9318 -19.9318 -19.9314
   -19.9228 -19.9222 -19.9222 -19.9217 -19.9196 -19.9191 -19.9191 -19.9186
   -19.9173 -19.9173 -19.9172 -19.9165 -19.9165 -19.9160 -19.9160 -19.9158
   -19.9129 -19.9126 -19.9119 -19.9118 -19.9086 -19.9086 -19.9082 -19.9079
   -19.9041 -19.9037 -19.9033 -19.9033 -19.9015 -19.9015 -19.9011 -19.9007
    -9.6442  -9.3517  -9.2452  -9.2452  -8.8049  -8.8049  -8.7164  -8.6355
    -8.5243  -8.4209  -8.4209  -8.4185  -7.8131  -7.7405  -7.6551  -7.6551
    -7.5748  -7.5124  -7.5123  -7.4811  -7.3517  -7.3371  -7.2296  -7.2296
     1.6148   1.6473   1.6808   1.6809   1.9594   1.9594   1.9629   2.0832
     2.1464   2.1958   2.1958   2.4237   2.6836   2.7871   2.8116   3.0378
     3.0499   3.0499   4.3700   4.3700   4.4952   4.5483   4.7309   4.8597
     4.8597   5.0278   5.0278   5.1394   5.2874   5.2874   5.4566   5.6482
     5.6483   5.6563   5.6825   5.7531   5.8264   5.8264   5.8994   5.9658
     6.0268   6.0268   6.0699   6.1557   6.1557   6.2139   6.3517   6.3586
     6.4712   6.6215   6.7876   6.7876   6.8332   6.8702   7.0883   7.0883
     7.1586   7.2496   7.2496   7.2722   7.3155   7.3756   7.3902   7.3902
     7.7266   7.7266   8.0083   8.0611   8.1593   8.2478   8.2478   8.3615
    10.2634  10.3548  10.6420  10.6420  10.6749  10.7213  12.4660  12.4681
    12.4681  12.6257  12.6257  12.7507  12.8464  13.1478  13.1478  13.1707
    13.3315  13.4373  13.4373  13.5934  13.9422  13.9422  14.0309  14.2098
    15.0382  15.2445  15.2445  15.3722  15.4945  15.8340  16.1640  16.1640
    16.4840  16.7763  17.3320  17.3320  17.9244

          k = 0.0000 0.1642 0.1667 ( 61208 PWs)   bands (ev):

   -65.8033 -65.8026 -65.8025 -65.8024 -65.8019 -65.8017 -65.8016 -65.8010
   -30.3200 -30.3160 -30.3140 -30.3101 -30.2428 -30.2398 -30.2371 -30.2316
   -30.1579 -30.1520 -30.1511 -30.1452 -30.0895 -30.0862 -30.0859 -30.0822
   -30.0761 -30.0706 -30.0691 -30.0632 -30.0009 -29.9957 -29.9952 -29.9906
   -19.9544 -19.9542 -19.9541 -19.9540 -19.9536 -19.9536 -19.9534 -19.9532
   -19.9422 -19.9421 -19.9421 -19.9419 -19.9411 -19.9408 -19.9407 -19.9407
   -19.9362 -19.9360 -19.9360 -19.9357 -19.9322 -19.9320 -19.9318 -19.9315
   -19.9228 -19.9223 -19.9222 -19.9217 -19.9195 -19.9191 -19.9189 -19.9186
   -19.9175 -19.9173 -19.9173 -19.9166 -19.9165 -19.9160 -19.9160 -19.9158
   -19.9127 -19.9124 -19.9119 -19.9116 -19.9088 -19.9085 -19.9083 -19.9080
   -19.9040 -19.9036 -19.9034 -19.9032 -19.9017 -19.9015 -19.9012 -19.9008
    -9.6009  -9.3018  -9.2611  -9.1797  -8.8227  -8.7520  -8.7278  -8.6175
    -8.4935  -8.4286  -8.3894  -8.3782  -7.8785  -7.7633  -7.7508  -7.6616
    -7.5769  -7.5279  -7.5189  -7.4858  -7.4410  -7.3362  -7.3324  -7.2369
     1.6408   1.6747   1.8331   1.8790   1.9632   1.9960   2.0897   2.0977
     2.1985   2.2744   2.3030   2.5132   2.7615   2.8344   2.8964   3.0392
     3.0910   3.1370   4.2950   4.3697   4.4827   4.4972   4.6224   4.6473
     4.7145   4.8958   4.9796   5.0134   5.1025   5.2902   5.4489   5.4590
     5.5713   5.6429   5.7062   5.7748   5.7922   5.8360   5.8956   5.9136
     5.9430   5.9879   6.0397   6.0587   6.1550   6.1678   6.2903   6.3558
     6.5434   6.6529   6.7681   6.8282   6.9125   6.9671   7.0156   7.0998
     7.1220   7.1845   7.2273   7.2681   7.3181   7.3663   7.4012   7.4530
     7.5733   7.6512   8.0138   8.0589   8.1541   8.2208   8.2552   8.3562
    10.4378  10.5441  10.6418  10.7463  10.8319  10.9426  12.4412  12.4496
    12.5170  12.5981  12.6784  12.7883  12.8673  13.0765  13.1519  13.2079
    13.2678  13.4202  13.4511  13.5908  13.8645  13.9457  14.0473  14.1560
    15.0698  15.2357  15.3397  15.4268  15.5307  15.9066  16.1221  16.3700
    16.4592  16.9203  17.1383  17.4562  17.9850

          k = 0.0000 0.1642 0.3333 ( 61196 PWs)   bands (ev):

   -65.8031 -65.8027 -65.8025 -65.8022 -65.8020 -65.8018 -65.8016 -65.8012
   -30.3190 -30.3168 -30.2989 -30.2948 -30.2576 -30.2536 -30.2362 -30.2336
   -30.1569 -30.1536 -30.1501 -30.1468 -30.0890 -30.0870 -30.0853 -30.0831
   -30.0747 -30.0707 -30.0558 -30.0489 -30.0156 -30.0100 -29.9943 -29.9917
   -19.9544 -19.9542 -19.9541 -19.9539 -19.9537 -19.9535 -19.9535 -19.9533
   -19.9422 -19.9421 -19.9418 -19.9416 -19.9412 -19.9410 -19.9408 -19.9408
   -19.9362 -19.9360 -19.9352 -19.9349 -19.9330 -19.9328 -19.9318 -19.9316
   -19.9227 -19.9224 -19.9221 -19.9218 -19.9194 -19.9191 -19.9186 -19.9184
   -19.9178 -19.9176 -19.9172 -19.9168 -19.9164 -19.9161 -19.9160 -19.9159
   -19.9126 -19.9121 -19.9115 -19.9108 -19.9094 -19.9089 -19.9084 -19.9081
   -19.9038 -19.9035 -19.9033 -19.9029 -19.9022 -19.9017 -19.9013 -19.9010
    -9.4983  -9.3098  -9.1656  -9.0163  -8.8823  -8.7684  -8.6081  -8.5632
    -8.4529  -8.4280  -8.2580  -8.2321  -8.1077  -8.0158  -7.7735  -7.7113
    -7.6738  -7.6007  -7.5649  -7.5293  -7.5166  -7.4846  -7.3143  -7.2571
     1.6513   1.6635   1.9688   1.9834   2.0585   2.0762   2.1621   2.1950
     2.5544   2.7557   2.8351   2.8839   2.9741   3.0194   3.0485   3.1399
     3.2846   3.3684   3.9543   4.0720   4.1815   4.2280   4.2608   4.5725
     4.6057   4.6819   4.7159   4.7729   4.9489   4.9729   5.1518   5.2515
     5.3559   5.4057   5.5087   5.6546   5.6926   5.7454   5.7964   5.9231
     5.9375   5.9638   6.0491   6.0791   6.1711   6.1834   6.2915   6.3297
     6.6012   6.6626   6.6758   6.8042   6.9155   6.9792   7.0443   7.0779
     7.1288   7.1779   7.2352   7.3112   7.3701   7.4344   7.4518   7.5087
     7.6097   7.6968   7.9615   8.0004   8.1006   8.1272   8.2756   8.3294
    10.5794  10.6300  11.0153  11.2023  11.2809  11.5112  12.1606  12.2502
    12.4380  12.5988  12.6798  12.8256  12.8439  12.9260  13.0891  13.2018
    13.3366  13.4018  13.4533  13.5195  13.7443  13.9013  13.9631  14.0830
    15.1224  15.2070  15.5128  15.6909  15.8684  16.0251  16.1842  16.3627
    16.7054  17.0203  17.3659  17.6485  17.8624

          k = 0.0000 0.1642-0.5000 ( 61180 PWs)   bands (ev):

   -65.8029 -65.8029 -65.8022 -65.8022 -65.8020 -65.8020 -65.8014 -65.8014
   -30.3179 -30.3179 -30.2781 -30.2781 -30.2740 -30.2740 -30.2349 -30.2349
   -30.1554 -30.1554 -30.1486 -30.1486 -30.0880 -30.0880 -30.0842 -30.0842
   -30.0728 -30.0728 -30.0357 -30.0357 -30.0295 -30.0295 -29.9930 -29.9930
   -19.9543 -19.9543 -19.9539 -19.9539 -19.9537 -19.9537 -19.9534 -19.9534
   -19.9421 -19.9421 -19.9415 -19.9415 -19.9413 -19.9413 -19.9408 -19.9408
   -19.9361 -19.9361 -19.9341 -19.9341 -19.9339 -19.9339 -19.9317 -19.9317
   -19.9225 -19.9225 -19.9220 -19.9220 -19.9192 -19.9192 -19.9182 -19.9182
   -19.9181 -19.9180 -19.9170 -19.9170 -19.9162 -19.9162 -19.9159 -19.9159
   -19.9124 -19.9124 -19.9104 -19.9104 -19.9098 -19.9098 -19.9083 -19.9083
   -19.9036 -19.9036 -19.9028 -19.9028 -19.9023 -19.9023 -19.9012 -19.9012
    -9.3908  -9.3908  -9.0006  -9.0006  -8.8566  -8.8566  -8.4947  -8.4947
    -8.3815  -8.3814  -8.2935  -8.2935  -8.0100  -8.0100  -7.9710  -7.9710
    -7.6946  -7.6946  -7.5487  -7.5486  -7.5046  -7.5046  -7.2853  -7.2853
     1.6560   1.6560   1.9797   1.9797   2.0752   2.0752   2.1962   2.1962
     2.9357   2.9357   3.2590   3.2590   3.3603   3.3603   3.5026   3.5026
     3.5381   3.5381   3.6258   3.6259   3.8575   3.8575   4.0291   4.0291
     4.2068   4.2068   4.6308   4.6308   4.8412   4.8412   5.1407   5.1407
     5.3834   5.3834   5.5219   5.5219   5.6396   5.6396   5.8835   5.8835
     5.9493   5.9493   6.0551   6.0551   6.1972   6.1972   6.2910   6.2910
     6.6088   6.6089   6.7794   6.7794   6.8910   6.8910   7.0289   7.0289
     7.1804   7.1804   7.2192   7.2192   7.3681   7.3681   7.7646   7.7646
     7.7928   7.7928   7.9105   7.9105   7.9623   7.9623   8.2983   8.2983
    10.6135  10.6135  11.6143  11.6143  11.8096  11.8096  11.8673  11.8673
    12.1900  12.1900  12.6966  12.6966  12.9725  12.9725  13.1707  13.1707
    13.3109  13.3109  13.5230  13.5230  13.6920  13.6921  14.0027  14.0028
    15.1634  15.1634  15.7284  15.7284  16.1082  16.1082  16.3407  16.3407
    16.8327  16.8327  17.8706  17.8706  18.1719

          k = 0.0000 0.3284 0.0000 ( 61170 PWs)   bands (ev):

   -65.8032 -65.8028 -65.8023 -65.8023 -65.8019 -65.8019 -65.8014 -65.8011
   -30.3206 -30.3191 -30.3156 -30.3156 -30.2369 -30.2369 -30.2343 -30.2305
   -30.1439 -30.1381 -30.1381 -30.1320 -30.1043 -30.0999 -30.0999 -30.0957
   -30.0769 -30.0760 -30.0685 -30.0685 -29.9955 -29.9955 -29.9908 -29.9899
   -19.9544 -19.9543 -19.9541 -19.9541 -19.9536 -19.9536 -19.9533 -19.9532
   -19.9421 -19.9421 -19.9421 -19.9420 -19.9410 -19.9408 -19.9407 -19.9407
   -19.9363 -19.9362 -19.9360 -19.9360 -19.9319 -19.9319 -19.9317 -19.9315
   -19.9218 -19.9211 -19.9211 -19.9205 -19.9198 -19.9192 -19.9191 -19.9185
   -19.9177 -19.9177 -19.9176 -19.9173 -19.9167 -19.9167 -19.9166 -19.9166
   -19.9128 -19.9127 -19.9118 -19.9118 -19.9086 -19.9086 -19.9081 -19.9079
   -19.9040 -19.9038 -19.9033 -19.9033 -19.9015 -19.9015 -19.9010 -19.9008
    -9.5600  -9.3945  -9.1861  -9.1861  -8.7596  -8.7596  -8.5669  -8.5251
    -8.4950  -8.3419  -8.3293  -8.3292  -7.9163  -7.8213  -7.8213  -7.7732
    -7.7427  -7.7176  -7.6090  -7.6090  -7.3496  -7.3412  -7.2305  -7.2305
     1.6244   1.6385   1.6846   1.6846   1.9864   1.9864   2.1076   2.1462
     2.5924   2.7146   2.7288   2.7288   2.7865   2.9039   2.9866   3.3164
     3.3164   3.3746   3.9851   4.0270   4.0270   4.0601   4.3573   4.7941
     4.7941   4.8910   4.8910   5.0513   5.0513   5.1048   5.3004   5.4118
     5.4251   5.4251   5.6138   5.6939   5.7144   5.7144   5.7809   5.9563
     6.0127   6.0400   6.0400   6.1474   6.1474   6.2251   6.3260   6.3509
     6.6096   6.6593   6.7457   6.7946   6.7946   6.9022   7.1724   7.1724
     7.2215   7.2721   7.2721   7.2726   7.3909   7.4090   7.4458   7.4458
     7.7327   7.7327   7.9775   8.0468   8.1197   8.1634   8.1634   8.1871
    10.3330  10.3600  11.0544  11.0863  11.0863  11.2425  12.3298  12.3298
    12.3631  12.4581  12.5639  12.5639  12.8372  12.8448  13.1037  13.1037
    13.3443  13.4231  13.4231  13.5842  13.7857  13.7857  14.0078  14.0642
    15.1805  15.4420  15.4420  15.4477  15.7935  16.0775  16.1732  16.1732
    16.3822  17.3470  17.6019  17.8143  17.8143

          k = 0.0000 0.3284 0.1667 ( 61191 PWs)   bands (ev):

   -65.8031 -65.8028 -65.8024 -65.8023 -65.8020 -65.8019 -65.8015 -65.8011
   -30.3197 -30.3159 -30.3141 -30.3100 -30.2423 -30.2384 -30.2366 -30.2321
   -30.1436 -30.1386 -30.1378 -30.1326 -30.1041 -30.1003 -30.0998 -30.0960
   -30.0760 -30.0708 -30.0692 -30.0633 -30.0009 -29.9956 -29.9952 -29.9907
   -19.9544 -19.9543 -19.9541 -19.9540 -19.9536 -19.9536 -19.9534 -19.9533
   -19.9421 -19.9421 -19.9420 -19.9419 -19.9410 -19.9408 -19.9408 -19.9407
   -19.9362 -19.9360 -19.9360 -19.9357 -19.9322 -19.9320 -19.9318 -19.9316
   -19.9217 -19.9212 -19.9211 -19.9205 -19.9197 -19.9192 -19.9190 -19.9185
   -19.9178 -19.9177 -19.9176 -19.9173 -19.9167 -19.9167 -19.9167 -19.9166
   -19.9127 -19.9124 -19.9119 -19.9116 -19.9088 -19.9085 -19.9083 -19.9080
   -19.9039 -19.9037 -19.9034 -19.9032 -19.9017 -19.9015 -19.9012 -19.9009
    -9.5152  -9.3435  -9.2008  -9.1114  -8.7817  -8.7000  -8.5427  -8.5068
    -8.4907  -8.3351  -8.3257  -8.3042  -7.9351  -7.8385  -7.8317  -7.8006
    -7.7852  -7.7208  -7.6958  -7.6163  -7.4439  -7.3372  -7.3332  -7.2378
     1.6446   1.6786   1.8352   1.8968   1.9909   2.1704   2.2007   2.3343
     2.6056   2.7161   2.7363   2.8034   2.8705   2.9023   3.0391   3.2996
     3.3886   3.4246   3.9996   4.0121   4.0408   4.1248   4.3230   4.5929
     4.6333   4.7783   4.8548   4.8699   5.0063   5.1194   5.1691   5.2047
     5.3888   5.4013   5.4639   5.5600   5.6506   5.7282   5.8622   5.8677
     5.9625   5.9765   5.9890   6.0204   6.0484   6.1551   6.2341   6.3313
     6.6539   6.7170   6.7690   6.8407   6.9360   7.0003   7.0134   7.1832
     7.2444   7.2952   7.3073   7.3471   7.4045   7.4177   7.4472   7.4697
     7.5941   7.6665   7.9811   8.0463   8.1154   8.1471   8.1616   8.1881
    10.5412  10.5999  11.0839  11.1138  11.2166  11.3556  12.3111  12.3699
    12.4071  12.4753  12.5646  12.6272  12.8633  12.8948  13.0371  13.1191
    13.2078  13.3790  13.4343  13.5565  13.6910  13.7888  13.9599  14.0495
    15.2179  15.4214  15.4855  15.6318  15.8775  16.1330  16.1516  16.3807
    16.5301  17.3142  17.5577  17.6750  17.8875

          k = 0.0000 0.3284 0.3333 ( 61181 PWs)   bands (ev):

   -65.8030 -65.8026 -65.8025 -65.8022 -65.8021 -65.8017 -65.8017 -65.8013
   -30.3188 -30.3167 -30.2988 -30.2946 -30.2572 -30.2530 -30.2357 -30.2333
   -30.1428 -30.1399 -30.1369 -30.1339 -30.1035 -30.1012 -30.0992 -30.0970
   -30.0747 -30.0708 -30.0559 -30.0490 -30.0156 -30.0100 -29.9943 -29.9917
   -19.9543 -19.9542 -19.9541 -19.9539 -19.9537 -19.9535 -19.9535 -19.9534
   -19.9421 -19.9421 -19.9418 -19.9416 -19.9412 -19.9410 -19.9409 -19.9408
   -19.9362 -19.9360 -19.9352 -19.9350 -19.9330 -19.9328 -19.9318 -19.9317
   -19.9216 -19.9213 -19.9210 -19.9207 -19.9196 -19.9193 -19.9188 -19.9184
   -19.9181 -19.9178 -19.9176 -19.9172 -19.9170 -19.9169 -19.9166 -19.9166
   -19.9126 -19.9121 -19.9115 -19.9108 -19.9095 -19.9089 -19.9085 -19.9082
   -19.9038 -19.9035 -19.9034 -19.9029 -19.9023 -19.9017 -19.9014 -19.9010
    -9.4159  -9.2461  -9.1944  -8.9100  -8.8562  -8.5647  -8.5395  -8.4722
    -8.4139  -8.3505  -8.2387  -8.2059  -8.1137  -8.0280  -7.8758  -7.8421
    -7.7933  -7.7736  -7.7050  -7.6814  -7.6337  -7.5747  -7.3153  -7.2580
     1.6564   1.6681   2.0019   2.0092   2.4533   2.5345   2.6137   2.6974
     2.7706   2.8215   2.8747   3.0159   3.0356   3.1087   3.1598   3.2796
     3.5649   3.5760   3.9192   3.9917   4.0134   4.0952   4.1582   4.2922
     4.3116   4.4725   4.5292   4.7133   4.7693   4.8698   4.9351   4.9477
     5.1637   5.2511   5.2659   5.3794   5.4285   5.5692   5.5931   5.6372
     5.7481   5.7992   5.8703   5.9546   6.1644   6.1869   6.1975   6.3289
     6.7260   6.7580   6.8019   6.8229   6.9809   7.0925   7.1748   7.1888
     7.2712   7.2992   7.3440   7.3875   7.3958   7.4547   7.4841   7.5344
     7.6873   7.7474   7.9386   7.9997   8.0739   8.0833   8.1585   8.1753
    10.9560  11.0527  11.1376  11.3056  11.5783  11.7423  12.1697  12.2840
    12.4325  12.5019  12.5787  12.7034  12.7703  12.8105  12.9459  12.9983
    13.1803  13.2277  13.3984  13.4858  13.5121  13.8035  13.8227  13.9660
    15.2262  15.3654  15.7324  16.0182  16.1639  16.3183  16.3663  16.9438
    16.9786  17.1635  17.2116  17.8003  17.8224

          k = 0.0000 0.3284-0.5000 ( 61168 PWs)   bands (ev):

   -65.8028 -65.8028 -65.8024 -65.8024 -65.8019 -65.8019 -65.8015 -65.8015
   -30.3178 -30.3178 -30.2779 -30.2779 -30.2737 -30.2737 -30.2345 -30.2345
   -30.1414 -30.1414 -30.1355 -30.1355 -30.1024 -30.1024 -30.0982 -30.0982
   -30.0728 -30.0728 -30.0357 -30.0357 -30.0295 -30.0295 -29.9930 -29.9930
   -19.9543 -19.9543 -19.9539 -19.9539 -19.9537 -19.9537 -19.9534 -19.9534
   -19.9421 -19.9421 -19.9415 -19.9415 -19.9413 -19.9413 -19.9408 -19.9408
   -19.9361 -19.9361 -19.9342 -19.9342 -19.9339 -19.9339 -19.9317 -19.9317
   -19.9214 -19.9214 -19.9208 -19.9208 -19.9194 -19.9194 -19.9184 -19.9184
   -19.9181 -19.9181 -19.9174 -19.9173 -19.9171 -19.9170 -19.9166 -19.9166
   -19.9124 -19.9124 -19.9104 -19.9104 -19.9098 -19.9098 -19.9083 -19.9083
   -19.9036 -19.9036 -19.9029 -19.9029 -19.9023 -19.9023 -19.9012 -19.9012
    -9.3184  -9.3184  -9.0021  -9.0021  -8.6773  -8.6773  -8.3881  -8.3881
    -8.3650  -8.3649  -8.2900  -8.2899  -8.0216  -8.0216  -7.9932  -7.9932
    -7.8145  -7.8145  -7.7507  -7.7507  -7.6597  -7.6597  -7.2863  -7.2863
     1.6612   1.6612   2.0144   2.0144   2.6011   2.6011   2.7536   2.7536
     3.1524   3.1524   3.2848   3.2848   3.3533   3.3533   3.5280   3.5280
     3.6056   3.6057   3.6395   3.6395   3.9158   3.9158   4.0299   4.0299
     4.1900   4.1900   4.3241   4.3241   4.5848   4.5848   4.6967   4.6967
     5.2032   5.2032   5.2901   5.2901   5.4393   5.4393   5.5135   5.5135
     5.6671   5.6671   5.9439   5.9439   6.1867   6.1867   6.2633   6.2633
     6.7392   6.7392   6.8429   6.8429   7.0202   7.0203   7.1250   7.1250
     7.3465   7.3465   7.3725   7.3725   7.4072   7.4072   7.7510   7.7510
     7.7942   7.7942   7.9319   7.9319   7.9688   7.9688   8.1607   8.1607
    11.0662  11.0662  11.6717  11.6717  11.8752  11.8752  12.0622  12.0622
    12.3015  12.3015  12.5227  12.5227  12.8358  12.8358  12.9772  12.9772
    13.1889  13.1889  13.2797  13.2797  13.6419  13.6419  13.8547  13.8547
    15.2818  15.2818  15.9191  15.9191  16.6642  16.6642  16.8641  16.8641
    16.9683  16.9683  17.6771  17.6771  17.9887

          k = 0.0000-0.4926 0.0000 ( 61138 PWs)   bands (ev):

   -65.8030 -65.8030 -65.8022 -65.8022 -65.8021 -65.8021 -65.8013 -65.8013
   -30.3198 -30.3198 -30.3156 -30.3156 -30.2367 -30.2367 -30.2322 -30.2322
   -30.1242 -30.1242 -30.1218 -30.1218 -30.1166 -30.1166 -30.1141 -30.1141
   -30.0765 -30.0765 -30.0686 -30.0686 -29.9955 -29.9955 -29.9903 -29.9903
   -19.9544 -19.9544 -19.9541 -19.9541 -19.9536 -19.9536 -19.9533 -19.9533
   -19.9421 -19.9421 -19.9420 -19.9420 -19.9409 -19.9409 -19.9407 -19.9407
   -19.9363 -19.9363 -19.9360 -19.9360 -19.9319 -19.9319 -19.9316 -19.9316
   -19.9205 -19.9205 -19.9198 -19.9198 -19.9198 -19.9198 -19.9189 -19.9189
   -19.9182 -19.9182 -19.9182 -19.9182 -19.9169 -19.9169 -19.9167 -19.9167
   -19.9127 -19.9127 -19.9118 -19.9118 -19.9086 -19.9086 -19.9080 -19.9080
   -19.9039 -19.9039 -19.9033 -19.9033 -19.9015 -19.9015 -19.9009 -19.9009
    -9.4668  -9.4668  -9.1594  -9.1594  -8.7332  -8.7332  -8.5326  -8.5326
    -8.1913  -8.1913  -8.1396  -8.1396  -8.1153  -8.1153  -8.0894  -8.0894
    -7.7431  -7.7431  -7.6161  -7.6161  -7.3459  -7.3459  -7.2310  -7.2310
     1.6305   1.6305   1.6848   1.6848   1.9898   1.9898   2.1400   2.1400
     2.7485   2.7485   3.0884   3.0884   3.1465   3.1465   3.5945   3.5945
     3.6575   3.6575   3.7030   3.7030   3.8577   3.8577   4.1546   4.1546
     4.1678   4.1678   4.8629   4.8629   5.0042   5.0042   5.4884   5.4884
     5.5369   5.5369   5.5512   5.5512   5.6170   5.6170   5.8244   5.8244
     6.0486   6.0486   6.1207   6.1207   6.1434   6.1434   6.3341   6.3341
     6.6190   6.6190   6.7457   6.7457   6.8052   6.8052   7.1904   7.1904
     7.2308   7.2308   7.2395   7.2395   7.6098   7.6098   7.6467   7.6467
     7.7806   7.7806   7.9280   7.9280   8.0225   8.0225   8.0840   8.0840
    10.3557  10.3557  11.4905  11.4905  11.5472  11.5472  12.0144  12.0144
    12.1236  12.1236  12.5646  12.5646  12.7754  12.7754  13.1093  13.1093
    13.4664  13.4664  13.5273  13.5273  13.5781  13.5781  13.9725  13.9725
    15.3547  15.3547  15.5407  15.5407  16.0041  16.0041  16.1763  16.1763
    16.8942  16.8942  18.2728  18.2728  18.4579

          k = 0.0000-0.4926 0.1667 ( 61140 PWs)   bands (ev):

   -65.8029 -65.8029 -65.8023 -65.8021 -65.8021 -65.8020 -65.8013 -65.8013
   -30.3195 -30.3159 -30.3142 -30.3099 -30.2421 -30.2377 -30.2363 -30.2324
   -30.1242 -30.1237 -30.1220 -30.1213 -30.1172 -30.1166 -30.1148 -30.1144
   -30.0760 -30.0709 -30.0692 -30.0633 -30.0009 -29.9956 -29.9952 -29.9907
   -19.9544 -19.9543 -19.9541 -19.9540 -19.9536 -19.9536 -19.9533 -19.9533
   -19.9421 -19.9420 -19.9420 -19.9419 -19.9410 -19.9409 -19.9408 -19.9407
   -19.9362 -19.9360 -19.9360 -19.9357 -19.9322 -19.9319 -19.9319 -19.9317
   -19.9205 -19.9205 -19.9199 -19.9198 -19.9198 -19.9197 -19.9190 -19.9190
   -19.9182 -19.9182 -19.9182 -19.9181 -19.9170 -19.9168 -19.9168 -19.9167
   -19.9127 -19.9124 -19.9119 -19.9116 -19.9088 -19.9086 -19.9083 -19.9081
   -19.9039 -19.9038 -19.9034 -19.9032 -19.9018 -19.9015 -19.9011 -19.9009
    -9.4365  -9.3999  -9.1733  -9.0806  -8.7577  -8.6669  -8.5134  -8.4869
    -8.2001  -8.1996  -8.1493  -8.1326  -8.1204  -8.1100  -8.0924  -8.0768
    -7.8360  -7.7360  -7.7194  -7.6234  -7.4444  -7.3378  -7.3337  -7.2383
     1.6444   1.6788   1.8342   1.8985   1.9943   2.1940   2.2084   2.3501
     2.8286   2.8353   3.0856   3.0877   3.1808   3.2053   3.5578   3.5917
     3.5976   3.6521   3.7113   3.8007   3.8797   3.9389   4.1332   4.1813
     4.1839   4.2026   4.6204   4.6254   4.8725   4.9342   5.2848   5.3100
     5.3775   5.3913   5.4985   5.5297   5.5366   5.6659   5.7817   5.8304
     5.9098   5.9788   5.9879   5.9951   6.0417   6.1276   6.2100   6.3353
     6.6699   6.6980   6.7259   6.8354   6.9297   6.9734   7.0172   7.2125
     7.2190   7.2901   7.3438   7.4127   7.4994   7.5735   7.6190   7.6243
     7.7241   7.7615   7.9355   7.9424   8.0124   8.0172   8.0857   8.0891
    10.5570  10.6176  11.4919  11.5494  11.5858  11.6669  12.0131  12.0934
    12.1249  12.2086  12.5134  12.6218  12.8417  12.8653  12.9890  13.1290
    13.3170  13.4363  13.4506  13.4753  13.5368  13.5830  13.9059  13.9836
    15.3124  15.4614  15.5156  15.7729  16.0809  16.1229  16.2153  16.3750
    16.9404  16.9582  18.0667  18.2467  18.3104

          k = 0.0000-0.4926 0.3333 ( 61160 PWs)   bands (ev):

   -65.8028 -65.8028 -65.8024 -65.8023 -65.8020 -65.8019 -65.8015 -65.8015
   -30.3188 -30.3166 -30.2988 -30.2946 -30.2571 -30.2528 -30.2354 -30.2332
   -30.1239 -30.1227 -30.1224 -30.1201 -30.1187 -30.1165 -30.1162 -30.1150
   -30.0747 -30.0708 -30.0559 -30.0490 -30.0156 -30.0100 -29.9943 -29.9917
   -19.9543 -19.9542 -19.9541 -19.9539 -19.9538 -19.9535 -19.9535 -19.9534
   -19.9421 -19.9421 -19.9418 -19.9416 -19.9412 -19.9410 -19.9409 -19.9408
   -19.9362 -19.9360 -19.9352 -19.9350 -19.9330 -19.9328 -19.9318 -19.9317
   -19.9204 -19.9203 -19.9200 -19.9200 -19.9196 -19.9195 -19.9192 -19.9191
   -19.9182 -19.9182 -19.9180 -19.9179 -19.9172 -19.9172 -19.9168 -19.9167
   -19.9126 -19.9121 -19.9115 -19.9108 -19.9095 -19.9089 -19.9085 -19.9082
   -19.9037 -19.9035 -19.9034 -19.9029 -19.9023 -19.9017 -19.9014 -19.9010
    -9.3630  -9.2270  -9.2090  -8.8598  -8.8405  -8.4959  -8.4484  -8.3606
    -8.2820  -8.2288  -8.1735  -8.1312  -8.1153  -8.1031  -8.0992  -8.0410
    -8.0132  -7.9327  -7.7258  -7.6872  -7.6434  -7.5790  -7.3159  -7.2585
     1.6565   1.6684   2.0059   2.0112   2.4929   2.6798   2.7626   2.9170
     3.0539   3.0645   3.1060   3.1067   3.2860   3.3442   3.4586   3.5605
     3.5931   3.6314   3.7386   3.7882   3.9559   4.0779   4.1037   4.1509
     4.1523   4.2368   4.2459   4.2776   4.5680   4.6752   4.7928   4.9244
     4.9642   5.1305   5.2114   5.2407   5.3955   5.5178   5.5373   5.5791
     5.6367   5.7790   5.8374   5.8446   6.1632   6.1939   6.2058   6.3397
     6.7421   6.7493   6.7766   6.8289   6.9799   7.1116   7.1583   7.2300
     7.3406   7.3646   7.3767   7.4606   7.5421   7.5918   7.6100   7.6419
     7.7693   7.8045   7.9089   7.9565   7.9872   8.0052   8.0481   8.0631
    11.0408  11.1932  11.5023  11.5664  11.8691  11.9735  12.0058  12.1476
    12.2635  12.3140  12.4309  12.5849  12.7876  12.8207  12.9111  12.9455
    13.1846  13.1909  13.2203  13.3515  13.5783  13.6063  13.8010  13.8795
    15.2690  15.4335  15.7568  16.0796  16.3432  16.5665  16.7216  16.9584
    17.0815  17.1558  17.7018  17.7912  18.0816

          k = 0.0000-0.4926-0.5000 ( 61196 PWs)   bands (ev):

   -65.8026 -65.8026 -65.8025 -65.8025 -65.8017 -65.8017 -65.8017 -65.8017
   -30.3177 -30.3177 -30.2778 -30.2778 -30.2736 -30.2736 -30.2343 -30.2343
   -30.1234 -30.1234 -30.1207 -30.1207 -30.1184 -30.1184 -30.1158 -30.1158
   -30.0728 -30.0728 -30.0357 -30.0357 -30.0295 -30.0295 -29.9930 -29.9930
   -19.9543 -19.9542 -19.9539 -19.9539 -19.9536 -19.9536 -19.9535 -19.9535
   -19.9421 -19.9421 -19.9415 -19.9415 -19.9413 -19.9413 -19.9408 -19.9408
   -19.9361 -19.9361 -19.9342 -19.9342 -19.9339 -19.9339 -19.9318 -19.9317
   -19.9202 -19.9202 -19.9202 -19.9201 -19.9194 -19.9194 -19.9193 -19.9193
   -19.9182 -19.9182 -19.9176 -19.9176 -19.9176 -19.9176 -19.9168 -19.9167
   -19.9124 -19.9124 -19.9105 -19.9104 -19.9098 -19.9098 -19.9083 -19.9083
   -19.9036 -19.9036 -19.9029 -19.9029 -19.9023 -19.9023 -19.9012 -19.9012
    -9.2810  -9.2810  -9.0034  -9.0034  -8.5529  -8.5529  -8.3227  -8.3226
    -8.3067  -8.3067  -8.2185  -8.2185  -8.0986  -8.0986  -8.0714  -8.0714
    -7.9479  -7.9479  -7.8753  -7.8753  -7.6674  -7.6674  -7.2868  -7.2868
     1.6615   1.6615   2.0182   2.0182   3.0040   3.0040   3.2581   3.2581
     3.3202   3.3202   3.3482   3.3482   3.3900   3.3900   3.5058   3.5058
     3.5984   3.5984   3.6906   3.6906   3.7751   3.7751   3.8499   3.8499
     4.1094   4.1095   4.2269   4.2269   4.5830   4.5830   4.6507   4.6507
     4.7277   4.7277   4.8185   4.8185   5.4319   5.4319   5.5442   5.5442
     5.6185   5.6185   5.8550   5.8550   6.2121   6.2121   6.2579   6.2579
     6.7433   6.7433   6.8341   6.8341   7.0352   7.0352   7.1312   7.1312
     7.4423   7.4423   7.4928   7.4928   7.6265   7.6265   7.7161   7.7161
     7.8019   7.8019   7.9262   7.9262   7.9548   7.9548   8.0261   8.0261
    11.4215  11.4215  11.7716  11.7716  11.8385  11.8385  12.1321  12.1321
    12.3456  12.3456  12.4757  12.4757  12.7092  12.7093  12.8179  12.8180
    13.0166  13.0166  13.2543  13.2543  13.6786  13.6786  13.6961  13.6961
    15.3285  15.3285  15.9642  15.9642  16.9997  16.9997  17.2838  17.2838
    17.3919  17.3920  17.5994  17.5994  17.7280

          k = 0.1667 0.0000 0.1667 ( 61187 PWs)   bands (ev):

   -65.8033 -65.8025 -65.8025 -65.8025 -65.8018 -65.8017 -65.8017 -65.8010
   -30.3156 -30.3125 -30.3104 -30.3104 -30.2430 -30.2427 -30.2421 -30.2352
   -30.1628 -30.1565 -30.1565 -30.1504 -30.0842 -30.0812 -30.0809 -30.0773
   -30.0711 -30.0694 -30.0639 -30.0636 -30.0006 -30.0006 -29.9969 -29.9951
   -19.9544 -19.9542 -19.9541 -19.9541 -19.9536 -19.9536 -19.9535 -19.9533
   -19.9421 -19.9421 -19.9420 -19.9418 -19.9411 -19.9408 -19.9408 -19.9408
   -19.9360 -19.9359 -19.9357 -19.9357 -19.9322 -19.9321 -19.9321 -19.9317
   -19.9231 -19.9227 -19.9226 -19.9222 -19.9194 -19.9190 -19.9189 -19.9185
   -19.9175 -19.9173 -19.9173 -19.9167 -19.9161 -19.9157 -19.9157 -19.9154
   -19.9125 -19.9122 -19.9116 -19.9116 -19.9088 -19.9088 -19.9085 -19.9081
   -19.9039 -19.9035 -19.9033 -19.9033 -19.9017 -19.9017 -19.9014 -19.9009
    -9.5913  -9.2388  -9.2325  -9.2304  -8.8191  -8.7876  -8.7823  -8.6367
    -8.4563  -8.4079  -8.4047  -8.3736  -7.8876  -7.8344  -7.7554  -7.7525
    -7.4872  -7.4539  -7.4414  -7.4179  -7.4152  -7.3757  -7.3441  -7.3358
     1.7633   1.8033   1.8072   1.8733   1.9028   1.9533   1.9838   1.9839
     2.2545   2.2615   2.3810   2.5238   2.7778   2.8606   2.9940   3.0133
     3.0502   3.0637   4.3224   4.3945   4.5011   4.5211   4.6409   4.6842
     4.7463   4.8796   4.8986   4.9637   5.1165   5.1839   5.4106   5.4320
     5.6056   5.6401   5.7014   5.7562   5.7593   5.8531   5.8979   5.9658
     5.9763   6.0233   6.0319   6.0714   6.1229   6.1543   6.2008   6.4743
     6.4954   6.6807   6.7450   6.7828   6.9545   6.9576   7.0870   7.1033
     7.1125   7.1296   7.1864   7.2030   7.2673   7.3487   7.4294   7.4676
     7.5750   7.5872   8.0191   8.0518   8.1377   8.2267   8.2663   8.4031
    10.5000  10.5391  10.6888  10.7045  10.9137  10.9578  12.4538  12.4793
    12.4879  12.5701  12.6816  12.8085  13.0039  13.1099  13.1251  13.3379
    13.3607  13.4109  13.5517  13.5793  13.8724  13.9074  14.0724  14.1291
    15.0269  15.2203  15.2214  15.3307  15.5662  16.0021  16.0493  16.3138
    16.3250  17.1216  17.1577  17.2670  18.0425

          k = 0.1667 0.0000 0.3333 ( 61166 PWs)   bands (ev):

   -65.8031 -65.8027 -65.8024 -65.8023 -65.8019 -65.8019 -65.8016 -65.8012
   -30.3135 -30.3112 -30.2986 -30.2951 -30.2574 -30.2543 -30.2418 -30.2389
   -30.1618 -30.1582 -30.1555 -30.1521 -30.0837 -30.0818 -30.0804 -30.0782
   -30.0690 -30.0653 -30.0553 -30.0494 -30.0153 -30.0104 -29.9997 -29.9970
   -19.9543 -19.9541 -19.9541 -19.9539 -19.9537 -19.9536 -19.9535 -19.9533
   -19.9421 -19.9420 -19.9418 -19.9416 -19.9412 -19.9410 -19.9409 -19.9408
   -19.9359 -19.9358 -19.9352 -19.9350 -19.9330 -19.9328 -19.9321 -19.9319
   -19.9230 -19.9228 -19.9226 -19.9223 -19.9193 -19.9190 -19.9186 -19.9183
   -19.9178 -19.9176 -19.9172 -19.9169 -19.9160 -19.9158 -19.9156 -19.9155
   -19.9123 -19.9118 -19.9115 -19.9109 -19.9094 -19.9090 -19.9087 -19.9083
   -19.9037 -19.9034 -19.9032 -19.9029 -19.9022 -19.9018 -19.9015 -19.9011
    -9.4836  -9.2831  -9.1024  -9.0836  -8.8596  -8.8352  -8.6338  -8.5871
    -8.4387  -8.3869  -8.2571  -8.2458  -8.1017  -8.0184  -7.8536  -7.7733
    -7.6951  -7.5995  -7.4745  -7.4460  -7.4185  -7.4087  -7.3878  -7.3578
     1.7869   1.7984   1.8651   1.8704   1.9831   1.9840   2.2239   2.2714
     2.5548   2.7454   2.8373   2.8733   2.9688   3.0255   3.1086   3.2051
     3.2561   3.3017   3.9701   4.0692   4.2107   4.2228   4.2637   4.5353
     4.6321   4.7237   4.7456   4.8547   4.9440   4.9997   5.0735   5.1898
     5.3360   5.4187   5.5090   5.5482   5.5895   5.7282   5.7959   5.9277
     5.9469   5.9771   6.0005   6.0366   6.1842   6.1882   6.2856   6.4771
     6.5682   6.6588   6.7267   6.7946   6.8383   6.8940   7.0277   7.0782
     7.1050   7.1817   7.2409   7.3006   7.3658   7.4428   7.4831   7.5380
     7.6146   7.6818   7.9723   7.9854   8.0800   8.1433   8.2876   8.3627
    10.6117  10.6390  11.0645  11.1607  11.3321  11.5305  12.1942  12.2441
    12.4356  12.5559  12.6290  12.8130  12.8463  13.0841  13.1876  13.2538
    13.4216  13.4389  13.4757  13.5797  13.8226  13.8434  13.9856  14.0399
    15.1113  15.2059  15.4327  15.5389  15.9021  15.9419  16.1474  16.2802
    16.7742  16.9468  17.5833  17.6050  17.7180

          k = 0.1667 0.0000-0.5000 ( 61200 PWs)   bands (ev):

   -65.8029 -65.8029 -65.8021 -65.8021 -65.8021 -65.8021 -65.8014 -65.8014
   -30.3123 -30.3123 -30.2779 -30.2779 -30.2744 -30.2744 -30.2405 -30.2405
   -30.1601 -30.1601 -30.1540 -30.1540 -30.0828 -30.0828 -30.0793 -30.0793
   -30.0672 -30.0672 -30.0353 -30.0353 -30.0299 -30.0299 -29.9984 -29.9984
   -19.9542 -19.9542 -19.9539 -19.9539 -19.9537 -19.9537 -19.9535 -19.9535
   -19.9420 -19.9420 -19.9415 -19.9415 -19.9413 -19.9413 -19.9409 -19.9409
   -19.9358 -19.9358 -19.9341 -19.9341 -19.9339 -19.9339 -19.9320 -19.9320
   -19.9229 -19.9229 -19.9224 -19.9224 -19.9191 -19.9191 -19.9182 -19.9182
   -19.9180 -19.9180 -19.9171 -19.9171 -19.9159 -19.9159 -19.9156 -19.9156
   -19.9121 -19.9121 -19.9104 -19.9104 -19.9099 -19.9098 -19.9085 -19.9085
   -19.9035 -19.9035 -19.9028 -19.9028 -19.9024 -19.9024 -19.9013 -19.9013
    -9.3690  -9.3690  -8.9474  -8.9474  -8.9371  -8.9371  -8.5044  -8.5044
    -8.3899  -8.3898  -8.2697  -8.2696  -8.0228  -8.0227  -7.9768  -7.9768
    -7.7658  -7.7658  -7.4604  -7.4604  -7.4042  -7.4042  -7.3837  -7.3837
     1.7907   1.7907   1.8695   1.8695   1.9874   1.9874   2.2742   2.2742
     2.9295   2.9295   3.2721   3.2721   3.3695   3.3695   3.4726   3.4726
     3.5600   3.5600   3.6547   3.6547   3.8665   3.8665   3.9787   3.9787
     4.2269   4.2269   4.6531   4.6531   4.9001   4.9001   5.2133   5.2133
     5.2663   5.2663   5.4414   5.4414   5.6262   5.6262   5.8083   5.8083
     5.9624   5.9624   6.0002   6.0002   6.2068   6.2068   6.4212   6.4212
     6.6000   6.6000   6.7325   6.7325   6.7960   6.7960   7.0394   7.0394
     7.1827   7.1827   7.2814   7.2814   7.3563   7.3563   7.7721   7.7721
     7.8057   7.8058   7.9003   7.9004   7.9587   7.9587   8.3177   8.3178
    10.6388  10.6389  11.6442  11.6442  11.7721  11.7721  11.8967  11.8967
    12.2151  12.2151  12.6273  12.6273  13.0787  13.0787  13.2014  13.2014
    13.3683  13.3683  13.6316  13.6316  13.6749  13.6749  13.9802  13.9802
    15.1726  15.1726  15.7124  15.7124  15.8509  15.8509  16.4074  16.4074
    16.8603  16.8603  17.8198  17.8198  18.2562

          k = 0.1667 0.1642 0.1667 ( 61195 PWs)   bands (ev):

   -65.8032 -65.8026 -65.8025 -65.8024 -65.8018 -65.8018 -65.8017 -65.8011
   -30.3154 -30.3127 -30.3104 -30.3103 -30.2426 -30.2424 -30.2415 -30.2355
   -30.1576 -30.1517 -30.1517 -30.1459 -30.0894 -30.0862 -30.0860 -30.0825
   -30.0711 -30.0696 -30.0639 -30.0637 -30.0006 -30.0006 -29.9967 -29.9953
   -19.9544 -19.9542 -19.9541 -19.9541 -19.9536 -19.9536 -19.9534 -19.9533
   -19.9421 -19.9421 -19.9420 -19.9418 -19.9411 -19.9408 -19.9408 -19.9408
   -19.9360 -19.9359 -19.9357 -19.9357 -19.9322 -19.9321 -19.9321 -19.9318
   -19.9227 -19.9222 -19.9222 -19.9217 -19.9195 -19.9190 -19.9190 -19.9185
   -19.9175 -19.9174 -19.9174 -19.9167 -19.9164 -19.9161 -19.9160 -19.9158
   -19.9125 -19.9122 -19.9116 -19.9116 -19.9088 -19.9088 -19.9084 -19.9081
   -19.9039 -19.9035 -19.9033 -19.9033 -19.9017 -19.9017 -19.9013 -19.9009
    -9.5546  -9.2515  -9.1976  -9.1943  -8.7718  -8.7654  -8.7396  -8.6020
    -8.4566  -8.3905  -8.3874  -8.3647  -7.8918  -7.8354  -7.7611  -7.7549
    -7.5820  -7.5337  -7.5334  -7.4897  -7.4392  -7.4269  -7.3410  -7.3365
     1.8309   1.8656   1.8745   1.9024   2.0519   2.0941   2.0983   2.1066
     2.2915   2.3007   2.3815   2.5676   2.8376   2.8946   2.9852   3.1045
     3.1394   3.1449   4.2743   4.3185   4.4514   4.4835   4.5702   4.6729
     4.6804   4.7351   4.7396   4.9890   5.0187   5.0665   5.3712   5.3724
     5.4325   5.6164   5.6670   5.7038   5.7231   5.7799   5.7990   5.8697
     5.9275   5.9715   5.9952   6.0516   6.0700   6.1604   6.2018   6.3377
     6.6242   6.6955   6.7993   6.8801   6.9500   6.9509   7.0667   7.0806
     7.1180   7.1452   7.2391   7.2484   7.3068   7.3386   7.4526   7.4605
     7.5750   7.5839   8.0135   8.0499   8.1469   8.2138   8.2481   8.3473
    10.5987  10.6439  10.8334  10.8368  10.9574  11.0427  12.4597  12.4648
    12.5171  12.5739  12.6843  12.8084  12.8850  13.0964  13.1128  13.2266
    13.2530  13.3221  13.5146  13.5781  13.8650  13.8670  14.0651  14.0762
    15.1299  15.3331  15.3464  15.4815  15.5563  15.9984  16.2926  16.3342
    16.4506  17.0387  17.2661  17.2667  18.0375

          k = 0.1667 0.1642 0.3333 ( 61165 PWs)   bands (ev):

   -65.8030 -65.8026 -65.8024 -65.8023 -65.8020 -65.8019 -65.8016 -65.8012
   -30.3134 -30.3112 -30.2985 -30.2951 -30.2572 -30.2540 -30.2415 -30.2388
   -30.1566 -30.1533 -30.1507 -30.1474 -30.0889 -30.0869 -30.0855 -30.0834
   -30.0691 -30.0653 -30.0553 -30.0495 -30.0153 -30.0104 -29.9997 -29.9970
   -19.9543 -19.9541 -19.9541 -19.9539 -19.9537 -19.9536 -19.9535 -19.9534
   -19.9421 -19.9420 -19.9418 -19.9416 -19.9412 -19.9410 -19.9409 -19.9408
   -19.9359 -19.9358 -19.9352 -19.9350 -19.9330 -19.9328 -19.9321 -19.9319
   -19.9226 -19.9223 -19.9221 -19.9218 -19.9193 -19.9190 -19.9187 -19.9183
   -19.9178 -19.9176 -19.9173 -19.9169 -19.9163 -19.9161 -19.9160 -19.9159
   -19.9123 -19.9118 -19.9115 -19.9109 -19.9094 -19.9089 -19.9087 -19.9083
   -19.9037 -19.9034 -19.9033 -19.9029 -19.9022 -19.9018 -19.9015 -19.9012
    -9.4448  -9.2460  -9.1132  -9.0330  -8.8260  -8.7816  -8.6206  -8.5521
    -8.4181  -8.3851  -8.2530  -8.2421  -8.1022  -8.0193  -7.8577  -7.7769
    -7.7000  -7.6129  -7.5665  -7.5386  -7.5211  -7.4903  -7.4121  -7.3573
     1.8600   1.8738   2.0632   2.0774   2.1009   2.1135   2.2418   2.3036
     2.5577   2.7538   2.8373   2.9479   2.9831   3.0830   3.1457   3.2386
     3.3095   3.3692   3.9749   4.0903   4.1832   4.2363   4.2576   4.5334
     4.5903   4.6450   4.6893   4.7495   4.8104   4.9060   5.0256   5.0949
     5.2549   5.2908   5.3655   5.4197   5.5685   5.5991   5.7019   5.7714
     5.8973   5.9284   5.9664   5.9993   6.0502   6.1213   6.2173   6.3078
     6.6677   6.7115   6.8436   6.8724   6.9168   6.9824   7.0687   7.1130
     7.1450   7.1707   7.2662   7.3333   7.3870   7.4465   7.4928   7.5368
     7.6307   7.7016   7.9683   7.9877   8.0949   8.1328   8.2588   8.3142
    10.7570  10.7812  11.1265  11.2683  11.3538  11.5690  12.2122  12.2779
    12.4595  12.5773  12.6476  12.8190  12.8443  12.9518  13.0998  13.1915
    13.3248  13.3335  13.4346  13.5454  13.7497  13.7828  13.9480  14.0148
    15.2434  15.3323  15.5685  15.7177  15.9095  16.1591  16.2898  16.3609
    16.8328  16.9643  17.4291  17.6761  17.7093

          k = 0.1667 0.1642-0.5000 ( 61174 PWs)   bands (ev):

   -65.8028 -65.8028 -65.8022 -65.8022 -65.8021 -65.8021 -65.8014 -65.8014
   -30.3123 -30.3123 -30.2778 -30.2778 -30.2743 -30.2743 -30.2403 -30.2403
   -30.1551 -30.1551 -30.1492 -30.1492 -30.0880 -30.0880 -30.0845 -30.0845
   -30.0673 -30.0673 -30.0353 -30.0353 -30.0299 -30.0299 -29.9984 -29.9984
   -19.9542 -19.9542 -19.9539 -19.9539 -19.9537 -19.9537 -19.9535 -19.9535
   -19.9420 -19.9420 -19.9415 -19.9415 -19.9413 -19.9413 -19.9409 -19.9409
   -19.9358 -19.9358 -19.9341 -19.9341 -19.9339 -19.9339 -19.9320 -19.9320
   -19.9225 -19.9225 -19.9220 -19.9220 -19.9192 -19.9191 -19.9182 -19.9182
   -19.9180 -19.9180 -19.9171 -19.9171 -19.9162 -19.9162 -19.9160 -19.9160
   -19.9121 -19.9121 -19.9104 -19.9104 -19.9098 -19.9098 -19.9085 -19.9085
   -19.9035 -19.9035 -19.9028 -19.9028 -19.9024 -19.9024 -19.9014 -19.9014
    -9.3305  -9.3305  -8.9444  -8.9444  -8.8721  -8.8721  -8.4748  -8.4748
    -8.3875  -8.3875  -8.2694  -8.2694  -8.0246  -8.0245  -7.9793  -7.9793
    -7.7674  -7.7674  -7.5566  -7.5566  -7.5098  -7.5098  -7.3842  -7.3842
     1.8657   1.8657   2.0796   2.0796   2.1072   2.1072   2.3048   2.3048
     3.0052   3.0052   3.2823   3.2823   3.3718   3.3718   3.5008   3.5008
     3.5745   3.5746   3.6666   3.6666   3.8880   3.8880   4.0178   4.0178
     4.2294   4.2294   4.6200   4.6200   4.7238   4.7238   5.0861   5.0861
     5.1881   5.1881   5.3326   5.3326   5.4358   5.4358   5.7667   5.7667
     5.8611   5.8611   5.9506   5.9506   6.0679   6.0679   6.2581   6.2581
     6.7101   6.7101   6.8580   6.8580   6.9538   6.9538   7.0715   7.0715
     7.1693   7.1693   7.2868   7.2868   7.4054   7.4054   7.7734   7.7734
     7.8024   7.8025   7.9171   7.9171   7.9652   7.9652   8.2795   8.2795
    10.7886  10.7886  11.6786  11.6786  11.8411  11.8411  11.9162  11.9162
    12.2360  12.2360  12.6573  12.6573  12.9883  12.9883  13.1407  13.1407
    13.3234  13.3234  13.5126  13.5126  13.6109  13.6109  13.9465  13.9465
    15.2999  15.2999  15.8254  15.8254  16.1218  16.1218  16.4586  16.4586
    16.8897  16.8897  17.7988  17.7988  18.1551

          k = 0.1667 0.3284 0.1667 ( 61199 PWs)   bands (ev):

   -65.8031 -65.8027 -65.8023 -65.8023 -65.8019 -65.8019 -65.8016 -65.8012
   -30.3147 -30.3132 -30.3103 -30.3102 -30.2420 -30.2420 -30.2398 -30.2364
   -30.1433 -30.1383 -30.1383 -30.1331 -30.1040 -30.1002 -30.1001 -30.0964
   -30.0709 -30.0700 -30.0639 -30.0638 -30.0006 -30.0006 -29.9964 -29.9956
   -19.9543 -19.9542 -19.9541 -19.9540 -19.9536 -19.9536 -19.9534 -19.9533
   -19.9421 -19.9420 -19.9420 -19.9419 -19.9410 -19.9409 -19.9408 -19.9408
   -19.9360 -19.9359 -19.9357 -19.9357 -19.9322 -19.9322 -19.9321 -19.9319
   -19.9217 -19.9211 -19.9211 -19.9206 -19.9197 -19.9191 -19.9191 -19.9184
   -19.9179 -19.9177 -19.9177 -19.9173 -19.9168 -19.9167 -19.9167 -19.9167
   -19.9124 -19.9123 -19.9116 -19.9116 -19.9088 -19.9088 -19.9084 -19.9082
   -19.9039 -19.9036 -19.9033 -19.9033 -19.9017 -19.9017 -19.9013 -19.9010
    -9.4653  -9.2942  -9.1276  -9.1252  -8.7243  -8.7196  -8.5220  -8.5160
    -8.4585  -8.3132  -8.3130  -8.3060  -7.9474  -7.8543  -7.8433  -7.8142
    -7.7992  -7.7722  -7.7126  -7.6936  -7.4395  -7.4319  -7.3407  -7.3383
     1.8601   1.8756   1.8993   1.9039   2.2057   2.2070   2.3064   2.3785
     2.6169   2.7167   2.7377   2.8883   2.8930   2.9680   3.0918   3.3706
     3.3750   3.4693   4.0185   4.0209   4.0567   4.1514   4.2979   4.5764
     4.6336   4.6744   4.6788   4.8125   4.8659   5.0959   5.0971   5.1769
     5.1933   5.2567   5.3790   5.4238   5.5431   5.6330   5.7638   5.7640
     5.9148   5.9188   5.9526   5.9613   6.0416   6.0472   6.0917   6.2036
     6.7063   6.8124   6.8179   6.9163   6.9984   7.0086   7.0889   7.1169
     7.3020   7.3298   7.3430   7.3663   7.4071   7.4159   7.4664   7.4876
     7.5995   7.6098   7.9831   8.0398   8.1078   8.1344   8.1598   8.1843
    10.7451  10.7571  11.1918  11.2259  11.2383  11.4225  12.3542  12.3757
    12.4282  12.5193  12.5697  12.6461  12.8806  12.9219  13.0629  13.0713
    13.1767  13.2479  13.4366  13.5327  13.6745  13.6999  13.9497  13.9854
    15.3083  15.4972  15.6087  15.6452  15.9517  16.1957  16.3457  16.3661
    16.6514  17.2837  17.5916  17.6544  17.7641

          k = 0.1667 0.3284 0.3333 ( 61172 PWs)   bands (ev):

   -65.8029 -65.8025 -65.8025 -65.8022 -65.8021 -65.8018 -65.8017 -65.8014
   -30.3132 -30.3111 -30.2985 -30.2949 -30.2569 -30.2533 -30.2411 -30.2387
   -30.1425 -30.1396 -30.1374 -30.1344 -30.1033 -30.1011 -30.0996 -30.0974
   -30.0692 -30.0654 -30.0555 -30.0495 -30.0153 -30.0104 -29.9997 -29.9970
   -19.9543 -19.9541 -19.9541 -19.9539 -19.9537 -19.9536 -19.9535 -19.9534
   -19.9420 -19.9420 -19.9418 -19.9416 -19.9412 -19.9410 -19.9409 -19.9408
   -19.9359 -19.9358 -19.9352 -19.9350 -19.9330 -19.9328 -19.9321 -19.9320
   -19.9216 -19.9212 -19.9210 -19.9207 -19.9195 -19.9192 -19.9188 -19.9183
   -19.9181 -19.9178 -19.9176 -19.9172 -19.9171 -19.9169 -19.9167 -19.9167
   -19.9122 -19.9118 -19.9115 -19.9108 -19.9094 -19.9089 -19.9087 -19.9084
   -19.9037 -19.9034 -19.9033 -19.9029 -19.9022 -19.9017 -19.9016 -19.9012
    -9.3542  -9.1741  -9.1457  -8.9260  -8.7974  -8.5813  -8.5561  -8.4561
    -8.3800  -8.3286  -8.2306  -8.2152  -8.1119  -8.0307  -7.9042  -7.8468
    -7.8062  -7.7900  -7.7636  -7.7210  -7.6683  -7.5803  -7.4140  -7.3583
     1.8846   1.9010   2.2008   2.2242   2.4571   2.5358   2.6245   2.6912
     2.7632   2.8147   2.8761   3.0120   3.1257   3.1998   3.2305   3.3551
     3.5531   3.6069   3.9324   4.0278   4.0391   4.0848   4.2136   4.2938
     4.3341   4.4672   4.5335   4.6299   4.7623   4.8400   4.8540   4.9289
     5.0243   5.1430   5.1670   5.2501   5.2787   5.3347   5.4360   5.5322
     5.5898   5.6705   5.6985   5.8734   5.9715   6.0232   6.0638   6.1136
     6.8100   6.8306   6.9315   6.9712   7.0625   7.1808   7.1978   7.2511
     7.2993   7.3355   7.3681   7.4031   7.4470   7.4699   7.5396   7.5468
     7.6924   7.7477   7.9475   7.9885   8.0683   8.0769   8.1525   8.1675
    11.0833  11.1474  11.2881  11.4277  11.5909  11.7719  12.2331  12.3267
    12.4762  12.5140  12.5967  12.6807  12.7921  12.8359  12.9286  12.9975
    13.1418  13.1932  13.2950  13.4443  13.5478  13.6407  13.8177  13.8780
    15.4014  15.5812  15.8118  16.1128  16.2341  16.3545  16.4639  16.9171
    17.0332  17.1713  17.2509  17.7795  17.8741

          k = 0.1667 0.3284-0.5000 ( 61172 PWs)   bands (ev):

   -65.8027 -65.8027 -65.8023 -65.8023 -65.8019 -65.8019 -65.8016 -65.8016
   -30.3121 -30.3121 -30.2776 -30.2776 -30.2740 -30.2740 -30.2399 -30.2399
   -30.1411 -30.1411 -30.1360 -30.1360 -30.1023 -30.1023 -30.0985 -30.0985
   -30.0674 -30.0674 -30.0353 -30.0353 -30.0300 -30.0300 -29.9984 -29.9984
   -19.9542 -19.9542 -19.9539 -19.9539 -19.9537 -19.9537 -19.9535 -19.9535
   -19.9420 -19.9420 -19.9415 -19.9415 -19.9413 -19.9413 -19.9409 -19.9409
   -19.9358 -19.9358 -19.9341 -19.9341 -19.9339 -19.9339 -19.9320 -19.9320
   -19.9214 -19.9214 -19.9209 -19.9209 -19.9193 -19.9193 -19.9184 -19.9184
   -19.9181 -19.9181 -19.9174 -19.9174 -19.9171 -19.9171 -19.9167 -19.9167
   -19.9121 -19.9120 -19.9104 -19.9104 -19.9098 -19.9098 -19.9085 -19.9085
   -19.9035 -19.9035 -19.9028 -19.9028 -19.9024 -19.9024 -19.9014 -19.9014
    -9.2486  -9.2486  -8.9491  -8.9491  -8.6939  -8.6938  -8.3805  -8.3805
    -8.3682  -8.3682  -8.2672  -8.2672  -8.0367  -8.0367  -7.9964  -7.9964
    -7.8176  -7.8176  -7.7614  -7.7614  -7.7305  -7.7305  -7.3856  -7.3856
     1.8927   1.8927   2.2294   2.2294   2.6118   2.6118   2.7437   2.7438
     3.1977   3.1977   3.3156   3.3157   3.3689   3.3690   3.5380   3.5380
     3.6272   3.6272   3.6976   3.6976   3.9375   3.9375   4.0453   4.0453
     4.2101   4.2101   4.3450   4.3451   4.5617   4.5617   4.6959   4.6959
     5.0492   5.0492   5.1738   5.1739   5.3003   5.3003   5.3660   5.3660
     5.4457   5.4457   5.7301   5.7301   5.9864   5.9865   6.0769   6.0770
     6.8372   6.8372   7.0177   7.0177   7.1263   7.1263   7.2075   7.2075
     7.3403   7.3403   7.3992   7.3992   7.4748   7.4748   7.7635   7.7635
     7.7990   7.7990   7.9312   7.9312   7.9671   7.9671   8.1522   8.1522
    11.1902  11.1902  11.7565  11.7565  11.9401  11.9401  12.0778  12.0778
    12.3322  12.3322  12.5639  12.5639  12.8096  12.8096  12.9861  12.9861
    13.1678  13.1678  13.2339  13.2339  13.5483  13.5483  13.7734  13.7734
    15.4955  15.4955  16.0649  16.0649  16.7144  16.7144  16.8790  16.8790
    16.9995  16.9995  17.6772  17.6772  17.9648

          k = 0.1667-0.4926 0.1667 ( 61172 PWs)   bands (ev):

   -65.8029 -65.8029 -65.8022 -65.8022 -65.8021 -65.8021 -65.8014 -65.8014
   -30.3139 -30.3139 -30.3102 -30.3102 -30.2418 -30.2418 -30.2379 -30.2379
   -30.1237 -30.1237 -30.1216 -30.1216 -30.1172 -30.1172 -30.1150 -30.1150
   -30.0704 -30.0704 -30.0639 -30.0639 -30.0006 -30.0006 -29.9960 -29.9960
   -19.9543 -19.9543 -19.9540 -19.9540 -19.9536 -19.9536 -19.9534 -19.9533
   -19.9420 -19.9420 -19.9419 -19.9419 -19.9410 -19.9410 -19.9408 -19.9408
   -19.9360 -19.9360 -19.9357 -19.9357 -19.9322 -19.9322 -19.9320 -19.9320
   -19.9204 -19.9204 -19.9198 -19.9198 -19.9198 -19.9197 -19.9191 -19.9190
   -19.9182 -19.9182 -19.9181 -19.9181 -19.9169 -19.9169 -19.9168 -19.9168
   -19.9124 -19.9124 -19.9116 -19.9116 -19.9088 -19.9088 -19.9083 -19.9083
   -19.9038 -19.9037 -19.9033 -19.9033 -19.9017 -19.9017 -19.9012 -19.9011
    -9.3679  -9.3679  -9.0947  -9.0946  -8.6921  -8.6921  -8.4698  -8.4698
    -8.2110  -8.2110  -8.1423  -8.1423  -8.1124  -8.1124  -8.0801  -8.0801
    -7.8289  -7.8289  -7.7264  -7.7264  -7.4363  -7.4363  -7.3399  -7.3399
     1.8688   1.8688   1.9029   1.9029   2.2141   2.2141   2.3676   2.3676
     2.9168   2.9168   3.0988   3.0988   3.2249   3.2249   3.5578   3.5579
     3.5913   3.5913   3.8306   3.8306   3.9422   3.9423   4.1607   4.1607
     4.2137   4.2137   4.6023   4.6023   4.7048   4.7048   5.2112   5.2112
     5.2797   5.2797   5.3534   5.3534   5.4463   5.4463   5.7884   5.7884
     5.8125   5.8125   5.9443   5.9443   5.9803   5.9803   6.1165   6.1165
     6.7563   6.7563   6.8835   6.8835   6.9999   6.9999   7.1216   7.1216
     7.3737   7.3737   7.4040   7.4040   7.4886   7.4886   7.6199   7.6199
     7.7365   7.7365   7.9473   7.9473   8.0097   8.0097   8.0835   8.0835
    10.7781  10.7781  11.5878  11.5878  11.6684  11.6685  12.0925  12.0925
    12.2091  12.2091  12.5761  12.5761  12.9060  12.9060  13.0264  13.0264
    13.3031  13.3031  13.4399  13.4399  13.4843  13.4843  13.9102  13.9102
    15.4392  15.4392  15.7555  15.7555  16.2341  16.2341  16.3655  16.3655
    17.0018  17.0018  18.0771  18.0771  18.2637

          k = 0.1667-0.4926 0.3333 ( 61182 PWs)   bands (ev):

   -65.8027 -65.8027 -65.8023 -65.8022 -65.8020 -65.8019 -65.8015 -65.8015
   -30.3131 -30.3110 -30.2985 -30.2948 -30.2568 -30.2531 -30.2409 -30.2387
   -30.1235 -30.1226 -30.1221 -30.1204 -30.1187 -30.1170 -30.1166 -30.1156
   -30.0692 -30.0655 -30.0555 -30.0495 -30.0153 -30.0104 -29.9997 -29.9970
   -19.9543 -19.9541 -19.9541 -19.9539 -19.9537 -19.9536 -19.9535 -19.9534
   -19.9420 -19.9420 -19.9418 -19.9417 -19.9412 -19.9410 -19.9409 -19.9408
   -19.9359 -19.9358 -19.9352 -19.9350 -19.9330 -19.9328 -19.9321 -19.9320
   -19.9203 -19.9203 -19.9199 -19.9199 -19.9197 -19.9196 -19.9192 -19.9192
   -19.9182 -19.9181 -19.9180 -19.9179 -19.9172 -19.9172 -19.9169 -19.9169
   -19.9122 -19.9118 -19.9115 -19.9108 -19.9094 -19.9089 -19.9087 -19.9084
   -19.9036 -19.9034 -19.9033 -19.9029 -19.9022 -19.9017 -19.9016 -19.9013
    -9.2903  -9.1848  -9.1349  -8.8747  -8.7786  -8.5228  -8.4125  -8.3486
    -8.2954  -8.2462  -8.1669  -8.1199  -8.1132  -8.1020  -8.0933  -8.0433
    -8.0096  -7.9383  -7.8124  -7.7468  -7.6797  -7.5847  -7.4146  -7.3588
     1.8867   1.9035   2.2043   2.2314   2.4963   2.6756   2.7720   2.9038
     3.1111   3.1270   3.1423   3.1631   3.3210   3.3543   3.4616   3.5368
     3.5709   3.5945   3.8399   3.8782   3.9960   4.1009   4.1162   4.1456
     4.1819   4.2409   4.2764   4.3098   4.5490   4.5950   4.7946   4.8661
     4.9313   5.0047   5.1479   5.2184   5.2224   5.3129   5.3349   5.3847
     5.4388   5.5184   5.6355   5.7517   5.9602   5.9834   6.0487   6.0495
     6.8243   6.8511   6.9552   6.9880   7.0871   7.2232   7.2683   7.3116
     7.3544   7.4139   7.4363   7.4891   7.5488   7.5762   7.6094   7.6618
     7.7659   7.8002   7.9199   7.9553   7.9937   8.0047   8.0367   8.0593
    11.1832  11.2905  11.5939  11.6899  11.8745  11.9708  12.1006  12.2099
    12.3266  12.3349  12.4337  12.6131  12.7553  12.8405  12.9303  12.9881
    13.0887  13.1730  13.2264  13.2348  13.4767  13.5062  13.7659  13.7866
    15.4532  15.6802  15.8358  16.2649  16.4257  16.5717  16.7598  16.9406
    17.1370  17.1902  17.7403  17.8319  18.0206

          k = 0.1667-0.4926-0.5000 ( 61184 PWs)   bands (ev):

   -65.8025 -65.8025 -65.8025 -65.8025 -65.8018 -65.8018 -65.8017 -65.8017
   -30.3121 -30.3121 -30.2776 -30.2776 -30.2739 -30.2739 -30.2398 -30.2398
   -30.1229 -30.1229 -30.1207 -30.1207 -30.1186 -30.1186 -30.1164 -30.1164
   -30.0674 -30.0674 -30.0354 -30.0354 -30.0300 -30.0300 -29.9984 -29.9984
   -19.9542 -19.9542 -19.9539 -19.9539 -19.9537 -19.9537 -19.9535 -19.9535
   -19.9420 -19.9420 -19.9415 -19.9415 -19.9413 -19.9413 -19.9409 -19.9409
   -19.9358 -19.9358 -19.9341 -19.9341 -19.9339 -19.9339 -19.9321 -19.9321
   -19.9201 -19.9201 -19.9201 -19.9201 -19.9195 -19.9195 -19.9194 -19.9193
   -19.9182 -19.9182 -19.9177 -19.9176 -19.9176 -19.9176 -19.9169 -19.9169
   -19.9120 -19.9120 -19.9104 -19.9104 -19.9098 -19.9098 -19.9086 -19.9085
   -19.9035 -19.9035 -19.9029 -19.9029 -19.9024 -19.9023 -19.9014 -19.9014
    -9.2049  -9.2049  -8.9531  -8.9530  -8.5677  -8.5677  -8.3390  -8.3390
    -8.2932  -8.2932  -8.2074  -8.2074  -8.0927  -8.0927  -8.0750  -8.0750
    -7.9470  -7.9470  -7.8838  -7.8837  -7.7516  -7.7516  -7.3861  -7.3861
     1.8952   1.8952   2.2367   2.2368   3.0299   3.0299   3.2590   3.2590
     3.3366   3.3366   3.3530   3.3530   3.3895   3.3895   3.4980   3.4980
     3.6530   3.6530   3.7112   3.7112   3.7926   3.7926   3.9449   3.9449
     4.1341   4.1341   4.2470   4.2470   4.5705   4.5705   4.6359   4.6359
     4.7328   4.7329   4.8052   4.8052   5.1626   5.1626   5.2984   5.2984
     5.3971   5.3972   5.6131   5.6131   5.9874   5.9874   6.0074   6.0074
     6.8516   6.8516   7.0408   7.0408   7.1628   7.1628   7.2738   7.2738
     7.4551   7.4551   7.5227   7.5227   7.6289   7.6289   7.7340   7.7340
     7.7919   7.7919   7.9310   7.9311   7.9583   7.9583   8.0235   8.0235
    11.5161  11.5161  11.8554  11.8554  11.9171  11.9171  12.1977  12.1977
    12.3456  12.3456  12.5042  12.5042  12.7229  12.7229  12.8141  12.8142
    13.0184  13.0184  13.1516  13.1516  13.5729  13.5729  13.6137  13.6137
    15.5601  15.5601  16.1343  16.1343  17.0452  17.0452  17.2854  17.2854
    17.4279  17.4279  17.6054  17.6055  17.7224

          k = 0.3333 0.0000 0.3333 ( 61150 PWs)   bands (ev):

   -65.8029 -65.8025 -65.8025 -65.8022 -65.8021 -65.8018 -65.8017 -65.8013
   -30.2998 -30.2965 -30.2959 -30.2956 -30.2576 -30.2564 -30.2562 -30.2515
   -30.1608 -30.1573 -30.1571 -30.1538 -30.0832 -30.0814 -30.0810 -30.0790
   -30.0550 -30.0533 -30.0511 -30.0506 -30.0144 -30.0142 -30.0123 -30.0106
   -19.9542 -19.9540 -19.9540 -19.9540 -19.9537 -19.9537 -19.9536 -19.9535
   -19.9418 -19.9418 -19.9418 -19.9416 -19.9413 -19.9410 -19.9410 -19.9410
   -19.9352 -19.9351 -19.9350 -19.9350 -19.9330 -19.9329 -19.9329 -19.9326
   -19.9229 -19.9227 -19.9227 -19.9224 -19.9191 -19.9188 -19.9187 -19.9182
   -19.9179 -19.9176 -19.9175 -19.9171 -19.9159 -19.9158 -19.9157 -19.9156
   -19.9115 -19.9112 -19.9110 -19.9110 -19.9093 -19.9093 -19.9092 -19.9088
   -19.9035 -19.9031 -19.9030 -19.9030 -19.9021 -19.9020 -19.9020 -19.9015
    -9.3602  -9.1438  -9.1306  -8.9545  -8.9032  -8.6869  -8.6638  -8.5459
    -8.3256  -8.3041  -8.2649  -8.2003  -8.1257  -8.0702  -8.0174  -7.9968
    -7.6810  -7.6651  -7.6388  -7.5993  -7.4614  -7.4311  -7.4297  -7.3999
     1.8429   1.8511   1.8631   1.8673   2.5166   2.5287   2.5622   2.5685
     2.8335   2.8481   2.9426   3.0290   3.0422   3.2148   3.2358   3.3070
     3.4533   3.5147   3.9122   4.0482   4.0793   4.0885   4.2184   4.3764
     4.3836   4.4634   4.5493   4.5783   4.7246   4.8162   4.9070   4.9330
     4.9797   5.1236   5.3143   5.3709   5.3951   5.4725   5.5025   5.5717
     5.6243   5.7998   5.8701   5.9716   6.2605   6.3018   6.3201   6.4837
     6.6513   6.7131   6.7563   6.7878   6.8200   6.8855   6.9089   6.9177
     7.2813   7.3324   7.4249   7.4394   7.4860   7.5482   7.6111   7.6163
     7.6840   7.7288   7.9367   7.9392   8.0344   8.1221   8.2385   8.3036
    11.0135  11.0469  11.2445  11.2544  11.7218  11.8212  12.2157  12.2293
    12.3407  12.3868  12.5917  12.6174  12.9197  12.9274  13.1793  13.2359
    13.2941  13.4217  13.4883  13.4976  13.7150  13.8070  13.8629  13.9599
    15.2650  15.4356  15.4553  15.8698  15.9057  16.1600  16.5901  16.6259
    16.7896  17.2128  17.3595  17.7279  17.7442

          k = 0.3333 0.0000-0.5000 ( 61224 PWs)   bands (ev):

   -65.8027 -65.8027 -65.8023 -65.8023 -65.8020 -65.8020 -65.8015 -65.8015
   -30.2971 -30.2971 -30.2770 -30.2770 -30.2753 -30.2753 -30.2552 -30.2552
   -30.1592 -30.1592 -30.1557 -30.1556 -30.0822 -30.0822 -30.0801 -30.0801
   -30.0526 -30.0526 -30.0342 -30.0342 -30.0312 -30.0312 -30.0129 -30.0129
   -19.9541 -19.9541 -19.9538 -19.9538 -19.9538 -19.9538 -19.9536 -19.9536
   -19.9418 -19.9418 -19.9415 -19.9415 -19.9413 -19.9413 -19.9411 -19.9410
   -19.9351 -19.9351 -19.9341 -19.9341 -19.9339 -19.9339 -19.9328 -19.9328
   -19.9228 -19.9228 -19.9225 -19.9225 -19.9189 -19.9189 -19.9183 -19.9183
   -19.9179 -19.9179 -19.9174 -19.9174 -19.9159 -19.9158 -19.9156 -19.9156
   -19.9112 -19.9112 -19.9103 -19.9103 -19.9100 -19.9100 -19.9091 -19.9091
   -19.9032 -19.9032 -19.9026 -19.9026 -19.9025 -19.9025 -19.9018 -19.9018
    -9.2306  -9.2306  -8.9922  -8.9922  -8.7791  -8.7791  -8.4563  -8.4563
    -8.4091  -8.4091  -8.1721  -8.1720  -8.1579  -8.1579  -7.9821  -7.9821
    -7.8789  -7.8789  -7.6441  -7.6441  -7.4471  -7.4471  -7.4161  -7.4161
     1.8482   1.8482   1.8663   1.8663   2.5658   2.5658   2.8272   2.8272
     3.1049   3.1049   3.3155   3.3156   3.4095   3.4095   3.5116   3.5116
     3.5884   3.5885   3.7638   3.7638   3.9148   3.9148   3.9944   3.9945
     4.2374   4.2374   4.3334   4.3335   4.5294   4.5294   4.7567   4.7567
     4.9960   4.9960   5.1937   5.1937   5.4065   5.4065   5.4426   5.4426
     5.6422   5.6422   5.8879   5.8879   6.3175   6.3175   6.4482   6.4482
     6.6650   6.6650   6.7493   6.7493   6.7835   6.7835   6.8898   6.8898
     7.4112   7.4112   7.4885   7.4885   7.5667   7.5667   7.7757   7.7757
     7.8125   7.8125   7.8995   7.8995   7.9592   7.9592   8.2415   8.2415
    11.1244  11.1244  11.7355  11.7355  11.7785  11.7786  12.1684  12.1684
    12.3344  12.3344  12.3922  12.3922  12.9177  12.9177  13.1565  13.1565
    13.2821  13.2821  13.5594  13.5594  13.6352  13.6352  13.8735  13.8735
    15.3847  15.3847  15.7045  15.7045  16.2980  16.2980  16.8035  16.8035
    17.1057  17.1057  17.5364  17.5364  18.0798

          k = 0.3333 0.1642 0.3333 ( 61172 PWs)   bands (ev):

   -65.8029 -65.8025 -65.8024 -65.8022 -65.8020 -65.8018 -65.8018 -65.8014
   -30.2994 -30.2966 -30.2959 -30.2956 -30.2571 -30.2563 -30.2560 -30.2518
   -30.1557 -30.1524 -30.1522 -30.1490 -30.0884 -30.0865 -30.0862 -30.0842
   -30.0550 -30.0535 -30.0510 -30.0507 -30.0144 -30.0142 -30.0122 -30.0107
   -19.9542 -19.9540 -19.9540 -19.9540 -19.9537 -19.9537 -19.9536 -19.9535
   -19.9418 -19.9418 -19.9418 -19.9416 -19.9413 -19.9411 -19.9410 -19.9410
   -19.9352 -19.9351 -19.9350 -19.9350 -19.9330 -19.9329 -19.9329 -19.9327
   -19.9225 -19.9222 -19.9222 -19.9220 -19.9191 -19.9188 -19.9187 -19.9182
   -19.9180 -19.9176 -19.9175 -19.9172 -19.9163 -19.9162 -19.9160 -19.9159
   -19.9115 -19.9112 -19.9110 -19.9110 -19.9093 -19.9093 -19.9092 -19.9089
   -19.9035 -19.9031 -19.9030 -19.9030 -19.9021 -19.9021 -19.9020 -19.9016
    -9.3150  -9.0937  -9.0791  -8.9674  -8.8284  -8.6803  -8.6556  -8.5138
    -8.3180  -8.2929  -8.2652  -8.1976  -8.1321  -8.0669  -8.0178  -7.9961
    -7.6874  -7.6721  -7.6544  -7.6004  -7.5557  -7.5280  -7.5260  -7.4954
     2.0352   2.0604   2.0702   2.1002   2.5147   2.5340   2.5651   2.5703
     2.8347   2.8506   2.9421   3.0364   3.1132   3.2867   3.3067   3.3947
[...]
    11.2273  11.2273  11.7842  11.7842  11.8564  11.8564  12.1738  12.1738
    12.3663  12.3663  12.4220  12.4220  12.9057  12.9057  13.1152  13.1152
    13.1804  13.1804  13.4307  13.4307  13.5295  13.5295  13.7999  13.7999
    15.6372  15.6372  15.9812  15.9812  16.3706  16.3706  16.8165  16.8166
    17.1176  17.1176  17.5561  17.5561  18.0549

          k = 0.3333 0.3284 0.3333 ( 61171 PWs)   bands (ev):

   -65.8028 -65.8024 -65.8023 -65.8023 -65.8019 -65.8019 -65.8019 -65.8015
   -30.2987 -30.2970 -30.2957 -30.2956 -30.2563 -30.2561 -30.2552 -30.2526
   -30.1416 -30.1388 -30.1386 -30.1358 -30.1027 -30.1007 -30.1004 -30.0983
   -30.0548 -30.0539 -30.0510 -30.0508 -30.0143 -30.0143 -30.0119 -30.0111
   -19.9541 -19.9540 -19.9540 -19.9539 -19.9537 -19.9537 -19.9536 -19.9535
   -19.9418 -19.9418 -19.9418 -19.9416 -19.9412 -19.9411 -19.9411 -19.9410
   -19.9352 -19.9351 -19.9350 -19.9350 -19.9330 -19.9330 -19.9329 -19.9327
   -19.9215 -19.9212 -19.9211 -19.9208 -19.9193 -19.9190 -19.9189 -19.9183
   -19.9182 -19.9178 -19.9177 -19.9172 -19.9172 -19.9170 -19.9168 -19.9168
   -19.9115 -19.9113 -19.9110 -19.9110 -19.9093 -19.9093 -19.9091 -19.9089
   -19.9034 -19.9032 -19.9030 -19.9030 -19.9021 -19.9021 -19.9019 -19.9017
    -9.2056  -9.0159  -8.9776  -8.9687  -8.6628  -8.6310  -8.6120  -8.4151
    -8.2890  -8.2581  -8.2425  -8.1794  -8.1669  -8.0567  -8.0215  -7.9935
    -7.8286  -7.8098  -7.8017  -7.7740  -7.6512  -7.6495  -7.6025  -7.5957
     2.4255   2.4599   2.4655   2.5168   2.6385   2.6672   2.6762   2.7081
     2.8696   2.9034   2.9407   3.0680   3.3004   3.3911   3.4664   3.5384
     3.5600   3.7020   3.9023   3.9768   4.0556   4.1572   4.2033   4.2739
     4.3638   4.4180   4.4437   4.4967   4.5450   4.6233   4.6863   4.7379
     4.8494   4.8513   4.9809   5.0474   5.0721   5.1295   5.1486   5.1945
     5.2901   5.3713   5.4563   5.4766   5.6008   5.7028   5.7029   5.8002
     6.9771   7.0160   7.0948   7.1433   7.2338   7.2627   7.2932   7.3136
     7.3657   7.3939   7.4927   7.4958   7.5082   7.5877   7.6583   7.6672
     7.7402   7.7745   7.9242   7.9482   8.0333   8.0471   8.1295   8.1409
    11.3952  11.4003  11.5746  11.6649  11.7747  11.9515  12.3317  12.3952
    12.4513  12.5291  12.5815  12.6406  12.7433  12.8505  12.8727  12.9021
    13.0008  13.0623  13.2049  13.2988  13.4151  13.5442  13.5502  13.7140
    15.9251  16.0939  16.1397  16.2169  16.3702  16.7225  16.7797  16.8416
    17.0945  17.2546  17.4388  17.5370  17.8874

          k = 0.3333 0.3284-0.5000 ( 61186 PWs)   bands (ev):

   -65.8025 -65.8025 -65.8022 -65.8022 -65.8021 -65.8021 -65.8017 -65.8017
   -30.2968 -30.2968 -30.2768 -30.2768 -30.2748 -30.2748 -30.2549 -30.2549
   -30.1403 -30.1403 -30.1373 -30.1373 -30.1017 -30.1017 -30.0995 -30.0995
   -30.0527 -30.0527 -30.0343 -30.0343 -30.0312 -30.0312 -30.0129 -30.0129
   -19.9540 -19.9540 -19.9539 -19.9539 -19.9538 -19.9537 -19.9536 -19.9536
   -19.9418 -19.9418 -19.9415 -19.9415 -19.9413 -19.9413 -19.9411 -19.9411
   -19.9351 -19.9351 -19.9341 -19.9341 -19.9339 -19.9339 -19.9329 -19.9329
   -19.9213 -19.9213 -19.9210 -19.9210 -19.9191 -19.9191 -19.9186 -19.9186
   -19.9180 -19.9179 -19.9175 -19.9175 -19.9171 -19.9171 -19.9169 -19.9168
   -19.9112 -19.9112 -19.9103 -19.9103 -19.9100 -19.9100 -19.9092 -19.9092
   -19.9032 -19.9032 -19.9027 -19.9027 -19.9025 -19.9025 -19.9019 -19.9019
    -9.0663  -9.0662  -8.8100  -8.8100  -8.7465  -8.7465  -8.4289  -8.4289
    -8.3409  -8.3409  -8.1759  -8.1759  -8.1355  -8.1355  -7.9907  -7.9907
    -7.8949  -7.8949  -7.7901  -7.7901  -7.7661  -7.7661  -7.6241  -7.6241
     2.4663   2.4663   2.6397   2.6397   2.6893   2.6893   2.8588   2.8588
     3.2630   3.2630   3.3763   3.3763   3.4361   3.4361   3.5605   3.5605
     3.7043   3.7043   3.8392   3.8392   3.9819   3.9819   4.0761   4.0761
     4.2652   4.2652   4.3841   4.3841   4.4300   4.4300   4.5706   4.5706
     4.7158   4.7158   4.8809   4.8809   4.9391   4.9391   5.1467   5.1467
     5.2280   5.2280   5.3098   5.3098   5.4510   5.4510   5.7061   5.7061
     7.0374   7.0375   7.2089   7.2089   7.2306   7.2306   7.3377   7.3378
     7.4529   7.4529   7.5168   7.5168   7.6388   7.6388   7.7807   7.7807
     7.8055   7.8055   7.9305   7.9305   7.9535   7.9535   8.1170   8.1170
    11.5233  11.5233  11.9234  11.9234  12.0754  12.0754  12.1990  12.1990
    12.4268  12.4268  12.5611  12.5611  12.7324  12.7324  12.9019  12.9019
    13.0499  13.0499  13.1792  13.1792  13.2789  13.2789  13.5560  13.5560
    16.1341  16.1341  16.4709  16.4709  16.8012  16.8012  16.9482  16.9482
    17.1763  17.1763  17.5814  17.5814  17.9357

          k = 0.3333-0.4926 0.3333 ( 61222 PWs)   bands (ev):

   -65.8026 -65.8026 -65.8022 -65.8022 -65.8021 -65.8021 -65.8017 -65.8017
   -30.2977 -30.2977 -30.2956 -30.2956 -30.2560 -30.2560 -30.2538 -30.2538
   -30.1223 -30.1223 -30.1210 -30.1210 -30.1186 -30.1186 -30.1172 -30.1172
   -30.0544 -30.0544 -30.0509 -30.0509 -30.0143 -30.0143 -30.0115 -30.0115
   -19.9541 -19.9541 -19.9539 -19.9539 -19.9537 -19.9537 -19.9536 -19.9535
   -19.9418 -19.9418 -19.9417 -19.9417 -19.9412 -19.9411 -19.9411 -19.9410
   -19.9352 -19.9352 -19.9350 -19.9350 -19.9330 -19.9330 -19.9328 -19.9328
   -19.9202 -19.9201 -19.9198 -19.9198 -19.9197 -19.9197 -19.9193 -19.9193
   -19.9180 -19.9180 -19.9179 -19.9179 -19.9172 -19.9172 -19.9172 -19.9172
   -19.9114 -19.9114 -19.9110 -19.9110 -19.9093 -19.9093 -19.9090 -19.9090
   -19.9033 -19.9033 -19.9030 -19.9030 -19.9021 -19.9021 -19.9018 -19.9018
    -9.0916  -9.0916  -8.9180  -8.9180  -8.6214  -8.6214  -8.3505  -8.3505
    -8.3014  -8.3014  -8.1403  -8.1403  -8.0845  -8.0845  -8.0542  -8.0542
    -7.9998  -7.9998  -7.9462  -7.9461  -7.6584  -7.6584  -7.6039  -7.6039
     2.4873   2.4873   2.5148   2.5148   2.7934   2.7934   2.9086   2.9086
     3.1754   3.1754   3.2933   3.2933   3.4411   3.4411   3.5068   3.5068
     3.5668   3.5668   3.9438   3.9438   4.1319   4.1319   4.1561   4.1561
     4.1884   4.1884   4.3650   4.3650   4.4582   4.4582   4.5925   4.5925
     4.8318   4.8318   4.8909   4.8909   5.0043   5.0043   5.1514   5.1514
     5.2332   5.2332   5.2962   5.2962   5.3956   5.3956   5.5984   5.5984
     7.0555   7.0555   7.2001   7.2001   7.3169   7.3169   7.4045   7.4045
     7.4817   7.4818   7.5319   7.5319   7.6029   7.6029   7.7167   7.7167
     7.7944   7.7944   7.9178   7.9178   7.9953   7.9953   8.0280   8.0280
    11.5497  11.5497  11.8701  11.8701  12.0159  12.0159  12.3129  12.3129
    12.4294  12.4294  12.5655  12.5655  12.7075  12.7075  12.8227  12.8227
    13.0018  13.0018  13.1590  13.1590  13.2411  13.2411  13.5693  13.5693
    16.0540  16.0540  16.4083  16.4083  16.8068  16.8068  16.9427  16.9427
    17.3008  17.3008  17.7963  17.7963  17.9261

          k = 0.3333-0.4926-0.5000 ( 61176 PWs)   bands (ev):

   -65.8024 -65.8024 -65.8023 -65.8023 -65.8019 -65.8019 -65.8019 -65.8019
   -30.2967 -30.2967 -30.2768 -30.2768 -30.2746 -30.2746 -30.2549 -30.2549
   -30.1217 -30.1217 -30.1205 -30.1205 -30.1192 -30.1192 -30.1179 -30.1179
   -30.0527 -30.0527 -30.0343 -30.0343 -30.0312 -30.0312 -30.0129 -30.0129
   -19.9540 -19.9540 -19.9539 -19.9539 -19.9537 -19.9537 -19.9536 -19.9536
   -19.9418 -19.9418 -19.9415 -19.9415 -19.9413 -19.9413 -19.9411 -19.9411
   -19.9351 -19.9351 -19.9341 -19.9341 -19.9339 -19.9339 -19.9329 -19.9329
   -19.9200 -19.9200 -19.9200 -19.9199 -19.9196 -19.9196 -19.9195 -19.9195
   -19.9180 -19.9179 -19.9177 -19.9177 -19.9176 -19.9175 -19.9172 -19.9172
   -19.9112 -19.9112 -19.9103 -19.9103 -19.9100 -19.9100 -19.9092 -19.9092
   -19.9031 -19.9031 -19.9028 -19.9027 -19.9024 -19.9024 -19.9019 -19.9019
    -8.9940  -8.9940  -8.8303  -8.8303  -8.6131  -8.6130  -8.4475  -8.4475
    -8.2393  -8.2393  -8.1609  -8.1609  -8.0917  -8.0917  -8.0644  -8.0643
    -7.9778  -7.9778  -7.9344  -7.9344  -7.8518  -7.8517  -7.6304  -7.6304
     2.5150   2.5150   2.7921   2.7921   3.0919   3.0919   3.2271   3.2271
     3.3357   3.3357   3.3989   3.3989   3.4483   3.4483   3.4885   3.4885
     3.7129   3.7129   3.7619   3.7619   3.8893   3.8893   4.1592   4.1592
     4.2041   4.2041   4.3093   4.3093   4.4105   4.4105   4.5944   4.5944
     4.7151   4.7151   4.7573   4.7573   4.8269   4.8269   4.8711   4.8711
     5.0106   5.0106   5.1656   5.1656   5.3408   5.3408   5.3735   5.3735
     7.1109   7.1109   7.3259   7.3259   7.3697   7.3697   7.4098   7.4098
     7.5140   7.5140   7.5865   7.5865   7.6914   7.6914   7.7541   7.7542
     7.8114   7.8114   7.9263   7.9263   7.9534   7.9534   8.0156   8.0156
    11.7876  11.7876  12.0224  12.0224  12.1690  12.1691  12.3330  12.3330
    12.3893  12.3893  12.5973  12.5973  12.7103  12.7103  12.7499  12.7499
    12.8663  12.8663  12.9487  12.9487  13.2809  13.2809  13.3504  13.3504
    16.2699  16.2699  16.6438  16.6438  17.1711  17.1711  17.2780  17.2780
    17.5063  17.5063  17.6302  17.6305  17.7089

          k =-0.5000 0.0000-0.5000 ( 61260 PWs)   bands (ev):

   -65.8025 -65.8025 -65.8025 -65.8025 -65.8018 -65.8018 -65.8018 -65.8017
   -30.2787 -30.2787 -30.2781 -30.2780 -30.2740 -30.2740 -30.2735 -30.2735
   -30.1577 -30.1577 -30.1574 -30.1574 -30.0815 -30.0815 -30.0810 -30.0810
   -30.0338 -30.0337 -30.0335 -30.0334 -30.0321 -30.0321 -30.0317 -30.0317
   -19.9539 -19.9539 -19.9539 -19.9539 -19.9537 -19.9537 -19.9537 -19.9537
   -19.9416 -19.9416 -19.9415 -19.9415 -19.9413 -19.9413 -19.9412 -19.9412
   -19.9342 -19.9341 -19.9341 -19.9341 -19.9339 -19.9339 -19.9338 -19.9338
   -19.9227 -19.9227 -19.9227 -19.9226 -19.9186 -19.9186 -19.9185 -19.9185
   -19.9177 -19.9177 -19.9177 -19.9177 -19.9158 -19.9158 -19.9157 -19.9157
   -19.9104 -19.9104 -19.9103 -19.9102 -19.9100 -19.9100 -19.9099 -19.9099
   -19.9029 -19.9028 -19.9028 -19.9028 -19.9024 -19.9024 -19.9023 -19.9023
    -9.0969  -9.0969  -9.0783  -9.0782  -8.5792  -8.5792  -8.5121  -8.5121
    -8.3997  -8.3997  -8.3252  -8.3252  -8.0098  -8.0098  -7.9611  -7.9610
    -7.9290  -7.9290  -7.8744  -7.8744  -7.4338  -7.4338  -7.4317  -7.4317
     1.8505   1.8505   1.8668   1.8668   3.1485   3.1485   3.1729   3.1729
     3.3104   3.3104   3.3127   3.3127   3.5273   3.5273   3.6233   3.6233
     3.6817   3.6817   3.7154   3.7154   3.7998   3.7998   3.9076   3.9076
     3.9512   3.9512   4.1870   4.1870   4.4981   4.4981   4.5528   4.5528
     4.6281   4.6281   4.7721   4.7721   5.3454   5.3454   5.3927   5.3927
     5.6949   5.6949   5.7647   5.7647   6.4166   6.4167   6.4371   6.4371
     6.6692   6.6692   6.7330   6.7330   6.7730   6.7730   6.7761   6.7761
     7.5987   7.5987   7.6210   7.6210   7.6648   7.6648   7.7714   7.7715
     7.8395   7.8395   7.8928   7.8928   7.9300   7.9300   8.1681   8.1681
    11.5639  11.5639  11.7505  11.7505  11.7945  11.7945  11.9712  11.9713
    12.5451  12.5452  12.5997  12.5998  12.6953  12.6953  12.7650  12.7650
    13.3769  13.3770  13.5127  13.5127  13.6464  13.6464  13.7663  13.7663
    15.5585  15.5585  15.6090  15.6090  16.7767  16.7768  17.1919  17.1919
    17.3293  17.3293  17.4043  17.4043  17.6375

          k =-0.5000 0.1642-0.5000 ( 61176 PWs)   bands (ev):

   -65.8025 -65.8025 -65.8024 -65.8024 -65.8018 -65.8018 -65.8018 -65.8018
   -30.2783 -30.2783 -30.2776 -30.2776 -30.2743 -30.2742 -30.2738 -30.2737
   -30.1528 -30.1527 -30.1525 -30.1525 -30.0867 -30.0867 -30.0862 -30.0862
   -30.0336 -30.0336 -30.0334 -30.0334 -30.0322 -30.0322 -30.0318 -30.0318
   -19.9539 -19.9539 -19.9539 -19.9539 -19.9538 -19.9537 -19.9537 -19.9537
   -19.9416 -19.9416 -19.9415 -19.9415 -19.9414 -19.9413 -19.9412 -19.9412
   -19.9342 -19.9341 -19.9341 -19.9340 -19.9340 -19.9339 -19.9338 -19.9338
   -19.9223 -19.9223 -19.9222 -19.9222 -19.9187 -19.9187 -19.9185 -19.9185
   -19.9178 -19.9177 -19.9177 -19.9177 -19.9162 -19.9162 -19.9160 -19.9160
   -19.9104 -19.9104 -19.9102 -19.9102 -19.9100 -19.9100 -19.9099 -19.9099
   -19.9028 -19.9028 -19.9027 -19.9027 -19.9024 -19.9024 -19.9023 -19.9023
    -9.0365  -9.0364  -9.0148  -9.0148  -8.5905  -8.5905  -8.5247  -8.5247
    -8.3808  -8.3808  -8.3087  -8.3087  -8.0111  -8.0111  -7.9613  -7.9613
    -7.9325  -7.9325  -7.8747  -7.8747  -7.5342  -7.5342  -7.5307  -7.5306
     2.0675   2.0675   2.0840   2.0840   3.1603   3.1603   3.1931   3.1931
     3.3129   3.3129   3.3148   3.3148   3.5411   3.5411   3.6614   3.6614
     3.6849   3.6849   3.7170   3.7170   3.8489   3.8489   3.9409   3.9410
     4.0002   4.0002   4.2354   4.2354   4.4806   4.4806   4.5490   4.5490
     4.6121   4.6122   4.7686   4.7686   5.1080   5.1080   5.1472   5.1472
     5.4593   5.4593   5.4963   5.4963   6.1611   6.1611   6.1637   6.1637
     6.8325   6.8325   6.9102   6.9102   6.9663   6.9663   7.0025   7.0025
     7.6014   7.6014   7.6265   7.6265   7.6781   7.6781   7.7769   7.7769
     7.8450   7.8450   7.9112   7.9112   7.9280   7.9280   8.1463   8.1463
    11.6360  11.6360  11.8324  11.8324  11.8403  11.8403  12.0410  12.0410
    12.5506  12.5506  12.5915  12.5915  12.7037  12.7037  12.7685  12.7686
    13.2406  13.2406  13.3747  13.3747  13.5478  13.5478  13.6645  13.6645
    15.8606  15.8606  15.9005  15.9005  16.8333  16.8333  17.1960  17.1960
    17.3004  17.3004  17.4219  17.4219  17.6668

          k =-0.5000 0.3284-0.5000 ( 61196 PWs)   bands (ev):

   -65.8023 -65.8023 -65.8023 -65.8023 -65.8020 -65.8019 -65.8019 -65.8019
   -30.2773 -30.2773 -30.2766 -30.2766 -30.2749 -30.2749 -30.2744 -30.2744
   -30.1391 -30.1391 -30.1388 -30.1388 -30.1009 -30.1008 -30.1005 -30.1005
   -30.0333 -30.0333 -30.0332 -30.0332 -30.0325 -30.0325 -30.0322 -30.0322
   -19.9539 -19.9539 -19.9539 -19.9538 -19.9538 -19.9538 -19.9538 -19.9537
   -19.9416 -19.9416 -19.9414 -19.9414 -19.9414 -19.9414 -19.9413 -19.9413
   -19.9341 -19.9341 -19.9340 -19.9340 -19.9340 -19.9340 -19.9339 -19.9339
   -19.9212 -19.9212 -19.9211 -19.9211 -19.9189 -19.9189 -19.9187 -19.9187
   -19.9178 -19.9178 -19.9177 -19.9177 -19.9171 -19.9171 -19.9169 -19.9169
   -19.9103 -19.9103 -19.9102 -19.9102 -19.9101 -19.9101 -19.9100 -19.9100
   -19.9028 -19.9027 -19.9027 -19.9027 -19.9025 -19.9025 -19.9024 -19.9024
    -8.8857  -8.8857  -8.8517  -8.8516  -8.6288  -8.6288  -8.5702  -8.5702
    -8.3121  -8.3121  -8.2475  -8.2475  -8.0230  -8.0230  -7.9598  -7.9597
    -7.9597  -7.9597  -7.8748  -7.8748  -7.7701  -7.7701  -7.7517  -7.7517
     2.6272   2.6272   2.6424   2.6425   3.1808   3.1808   3.2252   3.2252
     3.3216   3.3216   3.3222   3.3222   3.5835   3.5835   3.6682   3.6682
     3.7073   3.7073   3.7301   3.7301   3.9622   3.9622   3.9863   3.9863
     4.1985   4.1985   4.2857   4.2857   4.4872   4.4872   4.5101   4.5101
     4.5284   4.5284   4.7543   4.7543   4.7723   4.7723   4.8107   4.8108
     5.0453   5.0453   5.0555   5.0555   5.4781   5.4781   5.5078   5.5078
     7.1186   7.1186   7.2341   7.2341   7.2442   7.2442   7.3596   7.3596
     7.5991   7.5991   7.6351   7.6351   7.6793   7.6793   7.7781   7.7781
     7.8737   7.8737   7.9198   7.9198   7.9234   7.9234   8.0749   8.0749
    11.8663  11.8663  11.9861  11.9862  12.0691  12.0691  12.2304  12.2304
    12.5528  12.5528  12.5564  12.5564  12.7296  12.7296  12.7846  12.7846
    12.9277  12.9277  13.0523  13.0523  13.2545  13.2545  13.3483  13.3483
    16.6151  16.6151  16.6220  16.6220  17.0232  17.0232  17.2100  17.2100
    17.2122  17.2122  17.4591  17.4591  17.7487

          k =-0.5000-0.4926-0.5000 ( 61176 PWs)   bands (ev):

   -65.8021 -65.8021 -65.8021 -65.8021 -65.8021 -65.8021 -65.8021 -65.8021
   -30.2765 -30.2765 -30.2755 -30.2755 -30.2754 -30.2754 -30.2754 -30.2754
   -30.1202 -30.1202 -30.1201 -30.1201 -30.1201 -30.1201 -30.1194 -30.1194
   -30.0329 -30.0329 -30.0329 -30.0329 -30.0328 -30.0328 -30.0326 -30.0326
   -19.9538 -19.9538 -19.9538 -19.9538 -19.9538 -19.9538 -19.9538 -19.9538
   -19.9415 -19.9415 -19.9415 -19.9415 -19.9414 -19.9414 -19.9413 -19.9413
   -19.9341 -19.9341 -19.9341 -19.9341 -19.9340 -19.9340 -19.9339 -19.9339
   -19.9198 -19.9198 -19.9198 -19.9198 -19.9197 -19.9197 -19.9197 -19.9197
   -19.9177 -19.9177 -19.9177 -19.9176 -19.9175 -19.9175 -19.9175 -19.9175
   -19.9102 -19.9102 -19.9102 -19.9102 -19.9101 -19.9101 -19.9101 -19.9101
   -19.9026 -19.9026 -19.9026 -19.9026 -19.9026 -19.9026 -19.9025 -19.9025
    -8.7595  -8.7594  -8.6895  -8.6895  -8.6757  -8.6757  -8.6757  -8.6757
    -8.2079  -8.2079  -8.1151  -8.1151  -8.1151  -8.1151  -8.0634  -8.0634
    -7.9367  -7.9367  -7.9366  -7.9366  -7.8724  -7.8724  -7.8530  -7.8530
     3.1358   3.1358   3.1358   3.1358   3.1436   3.1436   3.1965   3.1965
     3.3150   3.3150   3.4784   3.4784   3.4784   3.4784   3.6233   3.6233
     3.7085   3.7085   3.7943   3.7943   3.8130   3.8131   3.8131   3.8131
     4.3871   4.3871   4.3905   4.3906   4.4943   4.4943   4.4943   4.4943
     4.6698   4.6698   4.6834   4.6834   4.6834   4.6834   4.7797   4.7797
     4.8416   4.8416   4.9293   4.9293   4.9293   4.9293   4.9375   4.9375
     7.2410   7.2411   7.3705   7.3705   7.3705   7.3705   7.5327   7.5327
     7.6165   7.6165   7.6165   7.6165   7.6719   7.6719   7.7651   7.7651
     7.9156   7.9156   7.9156   7.9156   7.9345   7.9345   7.9820   7.9820
    12.1305  12.1305  12.1922  12.1922  12.1922  12.1922  12.2624  12.2624
    12.5786  12.5786  12.5786  12.5786  12.6112  12.6112  12.7755  12.7755
    12.8313  12.8313  12.9789  12.9789  12.9789  12.9789  13.0235  13.0235
    17.0477  17.0477  17.0477  17.0477  17.1782  17.1782  17.2402  17.2403
    17.6099  17.6099  17.6743  17.6744  17.6744

     the Fermi energy is    10.4301 ev

!    total energy              =   -6260.90730000 Ry
     Harris-Foulkes estimate   =   -6260.90730000 Ry
     estimated scf accuracy    <          1.0E-09 Ry

     The total energy is the sum of the following terms:

     one-electron contribution =   -4626.06885377 Ry
     hartree contribution      =    2554.46875340 Ry
     xc contribution           =    -965.84097541 Ry
     ewald contribution        =   -3223.46621174 Ry
     smearing contrib. (-TS)   =      -0.00001247 Ry

     convergence has been achieved in  13 iterations

     Writing output data file Landau_18.save
 
     init_run     :     13.98s CPU     15.01s WALL (       1 calls)
     electrons    :    710.35s CPU    726.71s WALL (       1 calls)

     Called by init_run:
     wfcinit      :     12.34s CPU     13.24s WALL (       1 calls)
     potinit      :      0.44s CPU      0.47s WALL (       1 calls)

     Called by electrons:
     c_bands      :    621.31s CPU    635.94s WALL (      13 calls)
     sum_band     :     81.72s CPU     82.70s WALL (      13 calls)
     v_of_rho     :      1.08s CPU      1.10s WALL (      14 calls)
     mix_rho      :      1.88s CPU      2.26s WALL (      13 calls)

     Called by c_bands:
     init_us_2    :      3.63s CPU      4.38s WALL (      27 calls)
     cegterg      :    370.43s CPU    384.29s WALL (      13 calls)

     Called by sum_band:

     Called by *egterg:
     h_psi        :    299.33s CPU    301.40s WALL (      53 calls)
     g_psi        :      0.67s CPU      0.68s WALL (      39 calls)
     cdiaghg      :      5.08s CPU      5.11s WALL (      52 calls)

     Called by h_psi:
     h_psi:pot    :    297.29s CPU    299.22s WALL (      53 calls)
     h_psi:calbec :     29.77s CPU     30.59s WALL (      53 calls)
     vloc_psi     :    234.79s CPU    235.70s WALL (      53 calls)
     add_vuspsi   :     32.74s CPU     32.93s WALL (      53 calls)

     General routines
     calbec       :     29.77s CPU     30.59s WALL (      53 calls)
     fft          :      0.78s CPU      0.78s WALL (      56 calls)
     fftw         :    244.23s CPU    244.93s WALL (   16959 calls)
 
     Parallel routines
 
     PWSCF        : 12m 7.97s CPU    12m30.65s WALL

 
   This run was terminated on:   0:12:42  25Mar2020            

=------------------------------------------------------------------------------=
   JOB DONE.
=------------------------------------------------------------------------------=
