
     Program PWSCF v.6.2 (svn rev. 14038) starts on 22Mar2020 at  1: 0:16 

     This program is part of the open-source Quantum ESPRESSO suite
     for quantum simulation of materials; please cite
         "P. Giannozzi et al., J. Phys.:Condens. Matter 21 395502 (2009);
         "P. Giannozzi et al., J. Phys.:Condens. Matter 29 465901 (2017);
          URL http://www.quantum-espresso.org", 
     in publications or presentations arising from this work. More details at
     http://www.quantum-espresso.org/quote

     Parallel version (MPI), running on    40 processors

     MPI processes distributed on     6 nodes
     K-points division:     npool     =      40
     Reading input from scf.in

     Current dimensions of program PWSCF are:
     Max number of different atomic species (ntypx) = 10
     Max number of k-points (npk) =  40000
     Max angular momentum in pseudopotentials (lmaxx) =  3

     Subspace diagonalization in iterative solution of the eigenvalue problem:
     a serial algorithm will be used

 
     G-vector sticks info
     --------------------
     sticks:   dense  smooth     PW     G-vecs:    dense   smooth      PW
     Sum        7753    7753   2083               502657   502657   69705
 


     bravais-lattice index     =            0
     lattice parameter (alat)  =      13.9575  a.u.
     unit-cell volume          =    2830.0891 (a.u.)^3
     number of atoms/cell      =           32
     number of atomic types    =            2
     number of electrons       =       369.00
     number of Kohn-Sham states=          222
     kinetic-energy cutoff     =     120.0000  Ry
     charge density cutoff     =     480.0000  Ry
     convergence threshold     =      1.0E-08
     mixing beta               =       0.7000
     number of iterations used =            8  plain     mixing
     Exchange-correlation      = SLA PW NOGX NOGC ( 1  4  0  0 0 0)

     celldm(1)=  13.957510  celldm(2)=   0.000000  celldm(3)=   0.000000
     celldm(4)=   0.000000  celldm(5)=   0.000000  celldm(6)=   0.000000

     crystal axes: (cart. coord. in units of alat)
               a(1) = (   1.000000   0.000000   0.000000 )  
               a(2) = (   0.000000   1.039656   0.000000 )  
               a(3) = (   0.000000   0.000000   1.001121 )  

     reciprocal axes: (cart. coord. in units 2 pi/alat)
               b(1) = (  1.000000  0.000000  0.000000 )  
               b(2) = (  0.000000  0.961856  0.000000 )  
               b(3) = (  0.000000  0.000000  0.998880 )  


     PseudoPot. # 1 for W  read from file:
     /cluster/scratch/mnoe/QE/pps/W_ONCV_LDA-4.0.upf
     MD5 check sum: ba0307d5d4cd419d6f1d13dc49d7c13a
     Pseudo is Norm-conserving + core correction, Zval = 28.0
     Generated using ONCVPSP code by D. R. Hamann
     Using radial grid of 1380 points,  8 beta functions with: 
                l(1) =   0
                l(2) =   0
                l(3) =   1
                l(4) =   1
                l(5) =   2
                l(6) =   2
                l(7) =   3
                l(8) =   3

     PseudoPot. # 2 for O  read from file:
     /cluster/scratch/mnoe/QE/pps/O_ONCV_LDA-3.0.upf
     MD5 check sum: a1bd6164e7280c17a38c229939bfbd54
     Pseudo is Norm-conserving + core correction, Zval =  6.0
     Generated using ONCVPSP code by D. R. Hamann
     Using radial grid of  926 points,  5 beta functions with: 
                l(1) =   0
                l(2) =   0
                l(3) =   1
                l(4) =   1
                l(5) =   2

     atomic species   valence    mass     pseudopotential
        W             28.00   183.84000     W ( 1.00)
        O              6.00    15.99940     O ( 1.00)

      8 Sym. Ops., with inversion, found ( 6 have fractional translation)



   Cartesian axes

     site n.     atom                  positions (alat units)
         1           W   tau(   1) = (   0.2426000   0.2889185   0.0069978  )
         2           W   tau(   2) = (   0.7574000   0.7507377   0.9941229  )
         3           W   tau(   3) = (   0.2574000   0.2309096   0.5075582  )
         4           W   tau(   4) = (   0.7425999   0.8087466   0.4935626  )
         5           W   tau(   5) = (   0.7574000   0.2889185   0.4935626  )
         6           W   tau(   6) = (   0.2426000   0.7507377   0.5075582  )
         7           W   tau(   7) = (   0.7425999   0.2309096   0.9941229  )
         8           W   tau(   8) = (   0.2574000   0.8087466   0.0069978  )
         9           O   tau(   9) = (   0.2363500   0.0075278   0.0021724  )
        10           O   tau(  10) = (   0.7636500   1.0321284   0.9989483  )
        11           O   tau(  11) = (   0.2636500   0.5123003   0.5027328  )
        12           O   tau(  12) = (   0.7363500   0.5273559   0.4983880  )
        13           O   tau(  13) = (   0.7636500   0.0075278   0.4983880  )
        14           O   tau(  14) = (   0.2363500   1.0321284   0.5027328  )
        15           O   tau(  15) = (   0.7363500   0.5123003   0.9989483  )
        16           O   tau(  16) = (   0.2636500   0.5273559   0.0021724  )
        17           O   tau(  17) = (   0.5020200   0.2453589   0.4597423  )
        18           O   tau(  18) = (   0.4979800   0.7942974   0.5413785  )
        19           O   tau(  19) = (   0.9979800   0.2744692   0.9603027  )
        20           O   tau(  20) = (   0.0020200   0.7651870   0.0408180  )
        21           O   tau(  21) = (   0.4979800   0.2453589   0.0408180  )
        22           O   tau(  22) = (   0.5020200   0.7942974   0.9603027  )
        23           O   tau(  23) = (   0.0020200   0.2744692   0.5413785  )
        24           O   tau(  24) = (   0.9979800   0.7651870   0.4597423  )
        25           O   tau(  25) = (   0.7092276   0.2567327   0.7477671  )
        26           O   tau(  26) = (   0.2907723   0.7829235   0.2533536  )
        27           O   tau(  27) = (   0.7907724   0.2630954   0.2472068  )
        28           O   tau(  28) = (   0.2092276   0.7765609   0.7539140  )
        29           O   tau(  29) = (   0.2907723   0.2567327   0.7539140  )
        30           O   tau(  30) = (   0.7092276   0.7829235   0.2472068  )
        31           O   tau(  31) = (   0.2092276   0.2630954   0.2533536  )
        32           O   tau(  32) = (   0.7907724   0.7765609   0.7477671  )

     number of k points=    64  gaussian smearing, width (Ry)=  0.0007
                       cart. coord. in units 2pi/alat
        k(    1) = (   0.0000000   0.0000000   0.0000000), wk =   0.0092593
        k(    2) = (   0.0000000   0.0000000   0.1664801), wk =   0.0185185
        k(    3) = (   0.0000000   0.0000000   0.3329602), wk =   0.0185185
        k(    4) = (   0.0000000   0.0000000  -0.4994402), wk =   0.0092593
        k(    5) = (   0.0000000   0.1603094   0.0000000), wk =   0.0185185
        k(    6) = (   0.0000000   0.1603094   0.1664801), wk =   0.0370370
        k(    7) = (   0.0000000   0.1603094   0.3329602), wk =   0.0370370
        k(    8) = (   0.0000000   0.1603094  -0.4994402), wk =   0.0185185
        k(    9) = (   0.0000000   0.3206188   0.0000000), wk =   0.0185185
        k(   10) = (   0.0000000   0.3206188   0.1664801), wk =   0.0370370
        k(   11) = (   0.0000000   0.3206188   0.3329602), wk =   0.0370370
        k(   12) = (   0.0000000   0.3206188  -0.4994402), wk =   0.0185185
        k(   13) = (   0.0000000  -0.4809282   0.0000000), wk =   0.0092593
        k(   14) = (   0.0000000  -0.4809282   0.1664801), wk =   0.0185185
        k(   15) = (   0.0000000  -0.4809282   0.3329602), wk =   0.0185185
        k(   16) = (   0.0000000  -0.4809282  -0.4994402), wk =   0.0092593
        k(   17) = (   0.1666667   0.0000000   0.0000000), wk =   0.0185185
        k(   18) = (   0.1666667   0.0000000   0.1664801), wk =   0.0370370
        k(   19) = (   0.1666667   0.0000000   0.3329602), wk =   0.0370370
        k(   20) = (   0.1666667   0.0000000  -0.4994402), wk =   0.0185185
        k(   21) = (   0.1666667   0.1603094   0.0000000), wk =   0.0370370
        k(   22) = (   0.1666667   0.1603094   0.1664801), wk =   0.0740741
        k(   23) = (   0.1666667   0.1603094   0.3329602), wk =   0.0740741
        k(   24) = (   0.1666667   0.1603094  -0.4994402), wk =   0.0370370
        k(   25) = (   0.1666667   0.3206188   0.0000000), wk =   0.0370370
        k(   26) = (   0.1666667   0.3206188   0.1664801), wk =   0.0740741
        k(   27) = (   0.1666667   0.3206188   0.3329602), wk =   0.0740741
        k(   28) = (   0.1666667   0.3206188  -0.4994402), wk =   0.0370370
        k(   29) = (   0.1666667  -0.4809282   0.0000000), wk =   0.0185185
        k(   30) = (   0.1666667  -0.4809282   0.1664801), wk =   0.0370370
        k(   31) = (   0.1666667  -0.4809282   0.3329602), wk =   0.0370370
        k(   32) = (   0.1666667  -0.4809282  -0.4994402), wk =   0.0185185
        k(   33) = (   0.3333333   0.0000000   0.0000000), wk =   0.0185185
        k(   34) = (   0.3333333   0.0000000   0.1664801), wk =   0.0370370
        k(   35) = (   0.3333333   0.0000000   0.3329602), wk =   0.0370370
        k(   36) = (   0.3333333   0.0000000  -0.4994402), wk =   0.0185185
        k(   37) = (   0.3333333   0.1603094   0.0000000), wk =   0.0370370
        k(   38) = (   0.3333333   0.1603094   0.1664801), wk =   0.0740741
        k(   39) = (   0.3333333   0.1603094   0.3329602), wk =   0.0740741
        k(   40) = (   0.3333333   0.1603094  -0.4994402), wk =   0.0370370
        k(   41) = (   0.3333333   0.3206188   0.0000000), wk =   0.0370370
        k(   42) = (   0.3333333   0.3206188   0.1664801), wk =   0.0740741
        k(   43) = (   0.3333333   0.3206188   0.3329602), wk =   0.0740741
        k(   44) = (   0.3333333   0.3206188  -0.4994402), wk =   0.0370370
        k(   45) = (   0.3333333  -0.4809282   0.0000000), wk =   0.0185185
        k(   46) = (   0.3333333  -0.4809282   0.1664801), wk =   0.0370370
        k(   47) = (   0.3333333  -0.4809282   0.3329602), wk =   0.0370370
        k(   48) = (   0.3333333  -0.4809282  -0.4994402), wk =   0.0185185
        k(   49) = (  -0.5000000   0.0000000   0.0000000), wk =   0.0092593
        k(   50) = (  -0.5000000   0.0000000   0.1664801), wk =   0.0185185
        k(   51) = (  -0.5000000   0.0000000   0.3329602), wk =   0.0185185
        k(   52) = (  -0.5000000   0.0000000  -0.4994402), wk =   0.0092593
        k(   53) = (  -0.5000000   0.1603094   0.0000000), wk =   0.0185185
        k(   54) = (  -0.5000000   0.1603094   0.1664801), wk =   0.0370370
        k(   55) = (  -0.5000000   0.1603094   0.3329602), wk =   0.0370370
        k(   56) = (  -0.5000000   0.1603094  -0.4994402), wk =   0.0185185
        k(   57) = (  -0.5000000   0.3206188   0.0000000), wk =   0.0185185
        k(   58) = (  -0.5000000   0.3206188   0.1664801), wk =   0.0370370
        k(   59) = (  -0.5000000   0.3206188   0.3329602), wk =   0.0370370
        k(   60) = (  -0.5000000   0.3206188  -0.4994402), wk =   0.0185185
        k(   61) = (  -0.5000000  -0.4809282   0.0000000), wk =   0.0092593
        k(   62) = (  -0.5000000  -0.4809282   0.1664801), wk =   0.0185185
        k(   63) = (  -0.5000000  -0.4809282   0.3329602), wk =   0.0185185
        k(   64) = (  -0.5000000  -0.4809282  -0.4994402), wk =   0.0092593

     Dense  grid:   502657 G-vectors     FFT dimensions: ( 100, 108, 100)

     Estimated max dynamical RAM per process >       3.16 GB

     Estimated total dynamical RAM >     126.59 GB

     Initial potential from superposition of free atoms

     starting charge  367.99656, renormalised to  369.00000
     Starting wfc are  232 randomized atomic wfcs

     total cpu time spent up to now is       46.4 secs

     Self-consistent Calculation

     iteration #  1     ecut=   120.00 Ry     beta= 0.70
     Davidson diagonalization with overlap
     ethr =  1.00E-02,  avg # of iterations =  5.4

     total cpu time spent up to now is      204.1 secs

     total energy              =   -6253.08201487 Ry
     Harris-Foulkes estimate   =   -6264.08269535 Ry
     estimated scf accuracy    <      13.81070118 Ry

     iteration #  2     ecut=   120.00 Ry     beta= 0.70
     Davidson diagonalization with overlap
     ethr =  3.74E-03,  avg # of iterations =  3.7

     total cpu time spent up to now is      360.4 secs

     total energy              =   -6250.15945313 Ry
     Harris-Foulkes estimate   =   -6269.94258046 Ry
     estimated scf accuracy    <      52.19566672 Ry

     iteration #  3     ecut=   120.00 Ry     beta= 0.70
     Davidson diagonalization with overlap
     ethr =  3.74E-03,  avg # of iterations =  3.5

     total cpu time spent up to now is      508.5 secs

     total energy              =   -6260.40079402 Ry
     Harris-Foulkes estimate   =   -6260.65860424 Ry
     estimated scf accuracy    <       0.88184927 Ry

     iteration #  4     ecut=   120.00 Ry     beta= 0.70
     Davidson diagonalization with overlap
     ethr =  2.39E-04,  avg # of iterations =  3.8

     total cpu time spent up to now is      628.2 secs

     total energy              =   -6260.37311817 Ry
     Harris-Foulkes estimate   =   -6260.45786479 Ry
     estimated scf accuracy    <       0.22694197 Ry

     iteration #  5     ecut=   120.00 Ry     beta= 0.70
     Davidson diagonalization with overlap
     ethr =  6.15E-05,  avg # of iterations =  4.7

     total cpu time spent up to now is      758.1 secs

     total energy              =   -6260.39267461 Ry
     Harris-Foulkes estimate   =   -6260.41511324 Ry
     estimated scf accuracy    <       0.05326677 Ry

     iteration #  6     ecut=   120.00 Ry     beta= 0.70
     Davidson diagonalization with overlap
     ethr =  1.44E-05,  avg # of iterations =  6.0

     total cpu time spent up to now is      894.4 secs

     total energy              =   -6260.40264358 Ry
     Harris-Foulkes estimate   =   -6260.40607980 Ry
     estimated scf accuracy    <       0.00866815 Ry

     iteration #  7     ecut=   120.00 Ry     beta= 0.70
     Davidson diagonalization with overlap
     ethr =  2.35E-06,  avg # of iterations =  4.8

     total cpu time spent up to now is     1018.3 secs

     total energy              =   -6260.40390240 Ry
     Harris-Foulkes estimate   =   -6260.40396260 Ry
     estimated scf accuracy    <       0.00009337 Ry

     iteration #  8     ecut=   120.00 Ry     beta= 0.70
     Davidson diagonalization with overlap
     ethr =  2.53E-08,  avg # of iterations =  3.7

     total cpu time spent up to now is     1180.8 secs

     total energy              =   -6260.40396322 Ry
     Harris-Foulkes estimate   =   -6260.40398431 Ry
     estimated scf accuracy    <       0.00009116 Ry

     iteration #  9     ecut=   120.00 Ry     beta= 0.70
     Davidson diagonalization with overlap
     ethr =  2.47E-08,  avg # of iterations =  1.0

     total cpu time spent up to now is     1286.9 secs

     total energy              =   -6260.40395663 Ry
     Harris-Foulkes estimate   =   -6260.40396791 Ry
     estimated scf accuracy    <       0.00002906 Ry

     iteration # 10     ecut=   120.00 Ry     beta= 0.70
     Davidson diagonalization with overlap
     ethr =  7.87E-09,  avg # of iterations =  2.9

     total cpu time spent up to now is     1400.6 secs

     total energy              =   -6260.40396149 Ry
     Harris-Foulkes estimate   =   -6260.40396174 Ry
     estimated scf accuracy    <       0.00000052 Ry

     iteration # 11     ecut=   120.00 Ry     beta= 0.70
     Davidson diagonalization with overlap
     ethr =  1.41E-10,  avg # of iterations =  3.0

     total cpu time spent up to now is     1543.1 secs

     total energy              =   -6260.40396163 Ry
     Harris-Foulkes estimate   =   -6260.40396167 Ry
     estimated scf accuracy    <       0.00000013 Ry

     iteration # 12     ecut=   120.00 Ry     beta= 0.70
     Davidson diagonalization with overlap
     ethr =  3.61E-11,  avg # of iterations =  2.0

     total cpu time spent up to now is     1652.8 secs

     total energy              =   -6260.40396161 Ry
     Harris-Foulkes estimate   =   -6260.40396164 Ry
     estimated scf accuracy    <       0.00000006 Ry

     iteration # 13     ecut=   120.00 Ry     beta= 0.70
     Davidson diagonalization with overlap
     ethr =  1.59E-11,  avg # of iterations =  2.0

     total cpu time spent up to now is     1786.5 secs

     End of self-consistent calculation

          k = 0.0000 0.0000 0.0000 ( 62811 PWs)   bands (ev):

   -66.1059 -66.1054 -66.1050 -66.1050 -66.1045 -66.1045 -66.1041 -66.1036
   -30.5467 -30.5424 -30.5419 -30.5377 -30.4860 -30.4802 -30.4788 -30.4726
   -30.4553 -30.4540 -30.4467 -30.4461 -30.4460 -30.4451 -30.4389 -30.4386
   -30.3580 -30.3557 -30.3556 -30.3554 -30.3542 -30.3518 -30.3488 -30.3463
   -20.2549 -20.2546 -20.2544 -20.2541 -20.2509 -20.2508 -20.2503 -20.2502
   -20.2486 -20.2485 -20.2483 -20.2481 -20.2472 -20.2471 -20.2465 -20.2463
   -20.2441 -20.2434 -20.2434 -20.2433 -20.2429 -20.2416 -20.2415 -20.2415
   -20.2409 -20.2404 -20.2402 -20.2395 -20.2389 -20.2387 -20.2384 -20.2382
   -20.2292 -20.2290 -20.2286 -20.2285 -20.2283 -20.2282 -20.2278 -20.2276
   -20.1996 -20.1995 -20.1980 -20.1979 -20.1977 -20.1977 -20.1964 -20.1964
   -20.1939 -20.1939 -20.1926 -20.1926 -20.1925 -20.1925 -20.1910 -20.1910
   -10.0204  -9.7104  -9.6218  -9.6209  -9.3214  -9.3125  -9.2374  -9.0968
    -9.0792  -9.0130  -8.9829  -8.9807  -7.9412  -7.8802  -7.8731  -7.8234
    -7.8225  -7.8181  -7.7890  -7.7887  -7.7133  -7.7100  -7.6848  -7.6831
     1.1337   1.1382   1.1954   1.2042   1.2308   1.2361   1.2513   1.4365
     1.4765   1.4920   1.5172   1.7247   2.3850   2.4660   2.4772   2.4776
     2.6013   2.6176   4.1315   4.1566   4.3255   4.3692   4.6539   4.6843
     4.7014   4.7016   4.7282   4.7293   4.8656   4.8696   5.0385   5.3461
     5.3753   5.3854   5.4020   5.4728   5.4863   5.5102   5.5359   5.7243
     5.7290   5.7573   5.7793   5.8126   5.8997   6.0218   6.0418   6.0516
     6.0562   6.2329   6.2394   6.3791   6.3813   6.7261   6.7494   6.7833
     6.8060   6.8285   6.9162   6.9526   6.9771   6.9967   7.2137   7.2294
     7.2372   7.2501   7.8800   7.8942   7.9723   8.0167   8.0352   8.0781
     9.2627   9.2819   9.7779   9.7825   9.7920   9.7925  12.2683  12.2957
    12.3820  12.3912  12.4004  12.4265  12.4960  12.5203  12.8170  12.9894
    13.1696  13.1920  13.2230  13.2915  13.7612  13.9166  14.0812  14.0927
    14.2593  14.3768  14.5242  14.6749  15.2408  15.2564  15.5364  15.9619
    15.9926  16.8312  16.9925  17.0266  17.0979  17.3296

          k = 0.0000 0.0000 0.1665 ( 62861 PWs)   bands (ev):

   -66.1058 -66.1053 -66.1051 -66.1049 -66.1046 -66.1044 -66.1042 -66.1037
   -30.5465 -30.5427 -30.5416 -30.5380 -30.4855 -30.4805 -30.4782 -30.4730
   -30.4521 -30.4510 -30.4465 -30.4422 -30.4405 -30.4389 -30.4387 -30.4365
   -30.3644 -30.3619 -30.3613 -30.3587 -30.3553 -30.3515 -30.3507 -30.3472
   -20.2549 -20.2545 -20.2545 -20.2541 -20.2509 -20.2508 -20.2504 -20.2503
   -20.2486 -20.2485 -20.2483 -20.2482 -20.2472 -20.2471 -20.2465 -20.2464
   -20.2440 -20.2434 -20.2432 -20.2431 -20.2427 -20.2416 -20.2415 -20.2413
   -20.2410 -20.2406 -20.2403 -20.2394 -20.2391 -20.2386 -20.2384 -20.2384
   -20.2291 -20.2290 -20.2286 -20.2285 -20.2283 -20.2281 -20.2278 -20.2277
   -20.1992 -20.1992 -20.1977 -20.1977 -20.1975 -20.1975 -20.1965 -20.1965
   -20.1943 -20.1943 -20.1930 -20.1930 -20.1924 -20.1924 -20.1911 -20.1911
    -9.9764  -9.6573  -9.6363  -9.5647  -9.3241  -9.2454  -9.2320  -9.0611
    -9.0388  -8.9974  -8.9841  -8.9479  -7.9527  -7.9462  -7.9148  -7.8838
    -7.8679  -7.8443  -7.8257  -7.8153  -7.8071  -7.7808  -7.7170  -7.6900
     1.1984   1.2040   1.2262   1.2552   1.3179   1.3346   1.4314   1.4887
     1.4937   1.6027   1.6922   1.8519   2.4705   2.4751   2.5632   2.5650
     2.5929   2.7034   4.0643   4.1367   4.2871   4.3539   4.3551   4.3803
     4.4866   4.6461   4.6480   4.7652   4.7673   4.8739   5.0277   5.1884
     5.2492   5.3525   5.3714   5.4829   5.4888   5.5066   5.5332   5.5498
     5.6451   5.7268   5.7827   5.8007   5.9107   5.9500   6.0572   6.0938
     6.2069   6.3707   6.3798   6.4385   6.6136   6.6569   6.6683   6.7377
     6.7443   6.8218   6.8683   6.8732   6.9440   7.0021   7.0171   7.0182
     7.0648   7.1003   7.8652   7.8706   7.9718   7.9938   8.0303   8.0371
     9.5981   9.6109   9.7768   9.8001  10.0589  10.0865  12.2209  12.2835
    12.3292  12.3298  12.4321  12.4550  12.5217  12.5872  12.8323  12.8464
    12.9861  13.1959  13.2477  13.3032  13.8420  13.9155  13.9369  13.9639
    14.2935  14.5202  14.5214  14.7858  15.2943  15.3320  15.5041  15.9652
    16.3003  16.7007  17.0063  17.1819  17.1866  17.3773

          k = 0.0000 0.0000 0.3330 ( 62783 PWs)   bands (ev):

   -66.1056 -66.1052 -66.1052 -66.1048 -66.1047 -66.1043 -66.1043 -66.1038
   -30.5458 -30.5436 -30.5410 -30.5388 -30.4842 -30.4814 -30.4768 -30.4739
   -30.4503 -30.4474 -30.4446 -30.4400 -30.4265 -30.4259 -30.4231 -30.4216
   -30.3816 -30.3792 -30.3779 -30.3752 -30.3545 -30.3522 -30.3507 -30.3484
   -20.2548 -20.2546 -20.2545 -20.2542 -20.2508 -20.2507 -20.2505 -20.2504
   -20.2486 -20.2485 -20.2483 -20.2482 -20.2472 -20.2471 -20.2465 -20.2464
   -20.2438 -20.2435 -20.2427 -20.2426 -20.2423 -20.2418 -20.2413 -20.2413
   -20.2411 -20.2409 -20.2407 -20.2396 -20.2393 -20.2387 -20.2386 -20.2385
   -20.2290 -20.2289 -20.2287 -20.2286 -20.2282 -20.2280 -20.2279 -20.2278
   -20.1984 -20.1984 -20.1973 -20.1973 -20.1968 -20.1968 -20.1966 -20.1966
   -20.1953 -20.1953 -20.1940 -20.1940 -20.1921 -20.1921 -20.1914 -20.1913
    -9.8709  -9.6812  -9.5366  -9.4379  -9.3602  -9.2725  -9.0227  -8.9936
    -8.9773  -8.8933  -8.8705  -8.8147  -8.2501  -8.2447  -8.1784  -8.1675
    -7.9170  -7.8934  -7.8569  -7.8344  -7.7890  -7.7615  -7.7362  -7.7089
     1.2041   1.2062   1.2654   1.2782   1.3943   1.4202   1.4432   1.4822
     2.1999   2.2475   2.3554   2.4367   2.4981   2.5790   2.7175   2.8027
     2.8224   2.9389   3.6816   3.7664   3.7964   3.9576   3.9976   4.2353
     4.3126   4.4518   4.4766   4.6160   4.6387   4.7168   4.8531   4.9750
     5.0172   5.0403   5.0782   5.2683   5.3012   5.4054   5.5918   5.6052
     5.6717   5.6804   5.7716   5.8293   5.9427   6.0902   6.1472   6.2002
     6.2122   6.2951   6.3355   6.4437   6.4683   6.4706   6.4858   6.7010
     6.7439   6.8156   6.8186   6.8788   6.9620   6.9870   6.9987   7.0661
     7.1768   7.2211   7.7416   7.7656   7.8344   7.8798   8.0242   8.0386
     9.7631   9.7734  10.3213  10.3786  10.7054  10.7687  11.8207  11.8666
    12.0725  12.3186  12.4986  12.5277  12.5938  12.6008  12.6713  12.8292
    12.8394  13.1453  13.1769  13.2195  13.5940  13.6359  13.9135  13.9137
    14.4069  14.5070  14.8723  15.0876  15.3991  15.4955  15.7895  15.8796
    16.1157  17.1995  17.2920  17.4372  17.5119  17.5631

          k = 0.0000 0.0000-0.4994 ( 62864 PWs)   bands (ev):

   -66.1054 -66.1054 -66.1050 -66.1050 -66.1045 -66.1045 -66.1041 -66.1041
   -30.5447 -30.5447 -30.5399 -30.5399 -30.4827 -30.4827 -30.4753 -30.4753
   -30.4488 -30.4488 -30.4417 -30.4417 -30.4047 -30.4047 -30.4027 -30.4027
   -30.4007 -30.4007 -30.3984 -30.3984 -30.3534 -30.3534 -30.3496 -30.3496
   -20.2547 -20.2547 -20.2544 -20.2544 -20.2507 -20.2507 -20.2505 -20.2505
   -20.2485 -20.2485 -20.2482 -20.2482 -20.2472 -20.2472 -20.2465 -20.2465
   -20.2436 -20.2436 -20.2422 -20.2422 -20.2419 -20.2419 -20.2417 -20.2417
   -20.2411 -20.2411 -20.2403 -20.2403 -20.2390 -20.2390 -20.2385 -20.2385
   -20.2288 -20.2288 -20.2287 -20.2287 -20.2280 -20.2280 -20.2279 -20.2279
   -20.1974 -20.1974 -20.1974 -20.1974 -20.1965 -20.1965 -20.1965 -20.1965
   -20.1953 -20.1953 -20.1953 -20.1953 -20.1918 -20.1917 -20.1917 -20.1917
    -9.7608  -9.7607  -9.4277  -9.4277  -9.3305  -9.3305  -9.0067  -9.0067
    -8.6139  -8.6138  -8.5983  -8.5983  -8.5961  -8.5960  -8.5375  -8.5375
    -7.9063  -7.9063  -7.8460  -7.8460  -7.7625  -7.7625  -7.7351  -7.7351
     1.2052   1.2052   1.2772   1.2772   1.4086   1.4086   1.4734   1.4734
     2.5282   2.5282   2.9640   2.9640   3.0552   3.0552   3.1063   3.1063
     3.2119   3.2119   3.2446   3.2446   3.4154   3.4155   3.6820   3.6820
     3.7308   3.7308   4.4037   4.4037   4.5749   4.5749   4.8704   4.8705
     5.1217   5.1217   5.1851   5.1851   5.2347   5.2347   5.6408   5.6408
     5.7001   5.7001   5.8742   5.8742   6.0112   6.0112   6.1406   6.1406
     6.2123   6.2123   6.2702   6.2702   6.3900   6.3900   6.4777   6.4777
     6.7221   6.7221   6.8141   6.8141   6.9831   6.9831   7.4367   7.4368
     7.4982   7.4982   7.5733   7.5733   7.6102   7.6102   8.0366   8.0366
     9.7690   9.7690  11.1211  11.1211  11.1813  11.1813  11.4565  11.4565
    11.5765  11.5765  12.5546  12.5546  12.7072  12.7073  12.8636  12.8636
    12.8874  12.8875  13.1977  13.1977  13.3238  13.3238  13.9142  13.9142
    14.4780  14.4780  15.1964  15.1964  15.5448  15.5448  15.7243  15.7243
    16.5850  16.5850  17.6936  17.6937  17.7914  17.7914

          k = 0.0000 0.1603 0.0000 ( 62819 PWs)   bands (ev):

   -66.1058 -66.1054 -66.1050 -66.1049 -66.1046 -66.1045 -66.1041 -66.1037
   -30.5425 -30.5381 -30.5375 -30.5333 -30.4896 -30.4841 -30.4827 -30.4770
   -30.4551 -30.4540 -30.4465 -30.4462 -30.4458 -30.4453 -30.4400 -30.4394
   -30.3579 -30.3556 -30.3556 -30.3553 -30.3542 -30.3521 -30.3487 -30.3466
   -20.2546 -20.2542 -20.2541 -20.2538 -20.2511 -20.2509 -20.2505 -20.2504
   -20.2486 -20.2484 -20.2483 -20.2481 -20.2474 -20.2473 -20.2467 -20.2466
   -20.2440 -20.2434 -20.2433 -20.2433 -20.2429 -20.2417 -20.2416 -20.2415
   -20.2408 -20.2404 -20.2401 -20.2394 -20.2390 -20.2387 -20.2385 -20.2383
   -20.2291 -20.2290 -20.2286 -20.2285 -20.2283 -20.2282 -20.2277 -20.2277
   -20.1996 -20.1995 -20.1980 -20.1980 -20.1977 -20.1977 -20.1964 -20.1964
   -20.1939 -20.1939 -20.1926 -20.1926 -20.1925 -20.1925 -20.1910 -20.1909
    -9.9875  -9.7222  -9.5800  -9.5795  -9.3290  -9.3204  -9.1595  -9.0956
    -9.0803  -8.9664  -8.9449  -8.9433  -8.0398  -7.9863  -7.9802  -7.9372
    -7.8215  -7.8201  -7.7913  -7.7908  -7.7115  -7.7096  -7.6873  -7.6851
     1.1339   1.1378   1.2173   1.2310   1.2314   1.2514   1.3709   1.5168
     1.6420   1.7029   1.7151   1.8813   2.3912   2.4702   2.5416   2.5531
     2.6727   2.6912   3.9808   4.0114   4.0440   4.0793   4.6257   4.6781
     4.7060   4.7113   4.7298   4.7639   4.8258   4.8258   4.8982   5.1909
     5.2104   5.3368   5.3374   5.5221   5.5547   5.5665   5.5928   5.6327
     5.6637   5.6755   5.8022   5.8772   5.8973   6.0192   6.0272   6.0550
     6.0646   6.2162   6.2406   6.4018   6.4175   6.7417   6.7436   6.7488
     6.7749   6.8351   6.8373   6.8919   6.9015   6.9139   7.2195   7.2282
     7.2440   7.2496   7.8801   7.8928   7.9367   7.9706   7.9733   8.0005
     9.2677   9.2818   9.9817   9.9841  10.0046  10.0048  12.1428  12.1963
    12.3267  12.3505  12.3724  12.3953  12.4013  12.4193  12.8456  13.0099
    13.1799  13.1957  13.2241  13.3054  13.8745  13.8915  13.9746  13.9898
    14.3571  14.6466  14.7173  14.8555  15.2406  15.2534  15.9325  15.9448
    15.9597  16.4860  17.1381  17.1646  17.1719  17.4034

          k = 0.0000 0.1603 0.1665 ( 62827 PWs)   bands (ev):

   -66.1058 -66.1054 -66.1050 -66.1049 -66.1046 -66.1045 -66.1041 -66.1037
   -30.5422 -30.5384 -30.5373 -30.5337 -30.4891 -30.4844 -30.4822 -30.4773
   -30.4519 -30.4509 -30.4461 -30.4422 -30.4408 -30.4397 -30.4389 -30.4374
   -30.3643 -30.3621 -30.3611 -30.3589 -30.3551 -30.3518 -30.3505 -30.3475
   -20.2545 -20.2542 -20.2541 -20.2538 -20.2511 -20.2509 -20.2505 -20.2504
   -20.2486 -20.2484 -20.2482 -20.2481 -20.2474 -20.2473 -20.2467 -20.2466
   -20.2439 -20.2433 -20.2432 -20.2431 -20.2428 -20.2418 -20.2415 -20.2414
   -20.2409 -20.2406 -20.2403 -20.2394 -20.2392 -20.2387 -20.2385 -20.2384
   -20.2291 -20.2290 -20.2286 -20.2285 -20.2283 -20.2281 -20.2278 -20.2277
   -20.1992 -20.1992 -20.1977 -20.1977 -20.1975 -20.1975 -20.1965 -20.1965
   -20.1943 -20.1943 -20.1930 -20.1930 -20.1924 -20.1924 -20.1911 -20.1911
    -9.9421  -9.6691  -9.5943  -9.5184  -9.3322  -9.2397  -9.1675  -9.0579
    -9.0400  -8.9542  -8.9467  -8.9149  -8.0410  -7.9960  -7.9804  -7.9448
    -7.9443  -7.9125  -7.8426  -7.8185  -7.8067  -7.7830  -7.7166  -7.6920
     1.2209   1.2263   1.2339   1.2553   1.4374   1.4731   1.4938   1.6473
     1.6918   1.7117   1.7425   1.9532   2.4775   2.5479   2.5593   2.6407
     2.6654   2.7766   3.9697   3.9996   4.0664   4.0888   4.3158   4.3765
     4.5315   4.5720   4.6100   4.7610   4.7613   4.8374   4.8929   5.1098
     5.1572   5.2489   5.2556   5.3441   5.4318   5.5154   5.5636   5.6283
     5.6717   5.7039   5.7598   5.8248   5.8502   5.9924   6.0498   6.0967
     6.1458   6.3422   6.4018   6.4207   6.6159   6.6829   6.7098   6.7136
     6.7546   6.8323   6.8553   6.8788   6.8886   6.9060   7.0170   7.0207
     7.0772   7.1009   7.8642   7.8705   7.9303   7.9443   7.9588   7.9726
     9.6140   9.6162   9.9857  10.0100  10.2244  10.2500  12.1650  12.2116
    12.2769  12.2863  12.3528  12.3715  12.4449  12.4944  12.8680  12.8779
    12.9813  13.1966  13.2452  13.3092  13.8269  13.8620  13.8907  13.8999
    14.4517  14.7087  14.8223  14.9488  15.2929  15.3327  15.9125  15.9325
    16.2691  16.6368  16.8273  17.2476  17.3067  17.4787

          k = 0.0000 0.1603 0.3330 ( 62837 PWs)   bands (ev):

   -66.1056 -66.1052 -66.1052 -66.1048 -66.1047 -66.1043 -66.1043 -66.1039
   -30.5415 -30.5393 -30.5366 -30.5345 -30.4880 -30.4853 -30.4810 -30.4783
   -30.4500 -30.4471 -30.4451 -30.4408 -30.4267 -30.4261 -30.4232 -30.4218
   -30.3815 -30.3794 -30.3777 -30.3754 -30.3543 -30.3519 -30.3510 -30.3487
   -20.2545 -20.2542 -20.2541 -20.2539 -20.2510 -20.2508 -20.2507 -20.2505
   -20.2485 -20.2485 -20.2482 -20.2481 -20.2474 -20.2473 -20.2467 -20.2466
   -20.2437 -20.2434 -20.2428 -20.2426 -20.2423 -20.2419 -20.2414 -20.2412
   -20.2411 -20.2410 -20.2407 -20.2397 -20.2393 -20.2387 -20.2387 -20.2385
   -20.2290 -20.2289 -20.2287 -20.2286 -20.2281 -20.2280 -20.2279 -20.2278
   -20.1984 -20.1984 -20.1973 -20.1973 -20.1968 -20.1968 -20.1966 -20.1966
   -20.1953 -20.1953 -20.1940 -20.1940 -20.1921 -20.1921 -20.1914 -20.1913
    -9.8334  -9.6397  -9.5480  -9.3771  -9.3689  -9.1951  -8.9938  -8.9854
    -8.9562  -8.8953  -8.8561  -8.7962  -8.2523  -8.2479  -8.1943  -8.1652
    -8.0134  -7.9933  -7.9634  -7.9386  -7.7893  -7.7637  -7.7359  -7.7110
     1.2405   1.2527   1.2655   1.2782   1.6065   1.6169   1.6841   1.7080
     2.1990   2.2554   2.3566   2.4517   2.5719   2.6463   2.7277   2.8180
     2.8822   3.0069   3.6861   3.7830   3.7900   3.8996   4.0523   4.0946
     4.0971   4.2499   4.4935   4.5627   4.6208   4.6875   4.7222   4.8316
     4.8794   5.0346   5.0368   5.0598   5.2666   5.2921   5.4264   5.5674
     5.6283   5.7088   5.7259   5.8206   5.8585   6.0420   6.1149   6.1688
     6.2178   6.3695   6.4404   6.4512   6.4880   6.5754   6.6538   6.7032
     6.7587   6.7621   6.8382   6.8573   6.8949   6.9280   7.0342   7.0568
     7.1754   7.2194   7.7447   7.7628   7.8000   7.8276   7.9618   7.9733
     9.9801   9.9890  10.3310  10.3835  10.8206  10.8677  11.8220  11.8652
    12.0576  12.3552  12.3699  12.4280  12.5194  12.5713  12.6152  12.7219
    12.8678  13.1527  13.1570  13.2089  13.4787  13.5470  13.8891  13.9033
    14.6117  14.6980  15.2185  15.2321  15.4841  15.8030  15.8201  15.8486
    16.2425  17.0628  17.1607  17.3577  17.4864  17.7539

          k = 0.0000 0.1603-0.4994 ( 62806 PWs)   bands (ev):

   -66.1054 -66.1054 -66.1050 -66.1050 -66.1045 -66.1045 -66.1041 -66.1041
   -30.5404 -30.5404 -30.5356 -30.5356 -30.4866 -30.4866 -30.4796 -30.4796
   -30.4484 -30.4484 -30.4425 -30.4425 -30.4046 -30.4046 -30.4029 -30.4029
   -30.4006 -30.4006 -30.3986 -30.3986 -30.3531 -30.3531 -30.3499 -30.3499
   -20.2544 -20.2544 -20.2540 -20.2540 -20.2508 -20.2508 -20.2507 -20.2507
   -20.2485 -20.2485 -20.2482 -20.2482 -20.2474 -20.2474 -20.2467 -20.2467
   -20.2435 -20.2435 -20.2423 -20.2423 -20.2418 -20.2418 -20.2417 -20.2417
   -20.2411 -20.2411 -20.2403 -20.2403 -20.2390 -20.2390 -20.2386 -20.2386
   -20.2288 -20.2288 -20.2287 -20.2287 -20.2280 -20.2280 -20.2279 -20.2279
   -20.1974 -20.1974 -20.1974 -20.1974 -20.1965 -20.1965 -20.1965 -20.1965
   -20.1953 -20.1953 -20.1953 -20.1953 -20.1918 -20.1917 -20.1917 -20.1917
    -9.7204  -9.7204  -9.4377  -9.4377  -9.2570  -9.2569  -8.9704  -8.9704
    -8.6192  -8.6191  -8.6040  -8.6040  -8.5940  -8.5940  -8.5316  -8.5316
    -8.0061  -8.0061  -7.9531  -7.9531  -7.7625  -7.7625  -7.7372  -7.7372
     1.2491   1.2491   1.2772   1.2772   1.6216   1.6216   1.7043   1.7043
     2.5995   2.5995   2.9809   2.9810   3.0976   3.0976   3.0993   3.0993
     3.2277   3.2278   3.2406   3.2406   3.4063   3.4063   3.6978   3.6979
     3.7806   3.7806   4.1740   4.1740   4.4952   4.4952   4.6862   4.6862
     4.9414   4.9414   5.1568   5.1568   5.2311   5.2311   5.4143   5.4143
     5.6402   5.6402   5.7836   5.7836   6.0265   6.0265   6.1974   6.1974
     6.2463   6.2463   6.3069   6.3069   6.4623   6.4624   6.5855   6.5855
     6.7857   6.7857   6.7987   6.7987   6.8824   6.8824   7.4487   7.4487
     7.4932   7.4932   7.5516   7.5516   7.5849   7.5849   7.9711   7.9711
     9.9886   9.9886  11.1276  11.1276  11.1807  11.1807  11.5276  11.5276
    11.6394  11.6394  12.3949  12.3949  12.6969  12.6969  12.8192  12.8192
    12.8758  12.8759  13.0883  13.0883  13.2791  13.2791  13.8913  13.8913
    14.6737  14.6737  15.5664  15.5664  15.6975  15.6975  15.6995  15.6995
    16.6400  16.6401  17.4828  17.4828  17.8134  17.8135

          k = 0.0000 0.3206 0.0000 ( 62922 PWs)   bands (ev):

   -66.1057 -66.1055 -66.1049 -66.1048 -66.1046 -66.1046 -66.1040 -66.1037
   -30.5308 -30.5264 -30.5257 -30.5215 -30.5001 -30.4950 -30.4939 -30.4890
   -30.4548 -30.4540 -30.4465 -30.4459 -30.4458 -30.4448 -30.4423 -30.4412
   -30.3574 -30.3561 -30.3552 -30.3547 -30.3544 -30.3528 -30.3485 -30.3472
   -20.2537 -20.2534 -20.2532 -20.2529 -20.2516 -20.2514 -20.2510 -20.2508
   -20.2485 -20.2483 -20.2481 -20.2480 -20.2479 -20.2477 -20.2473 -20.2472
   -20.2438 -20.2435 -20.2432 -20.2430 -20.2430 -20.2421 -20.2417 -20.2416
   -20.2406 -20.2403 -20.2399 -20.2393 -20.2392 -20.2389 -20.2386 -20.2384
   -20.2291 -20.2291 -20.2286 -20.2285 -20.2283 -20.2282 -20.2277 -20.2277
   -20.1996 -20.1995 -20.1980 -20.1980 -20.1977 -20.1977 -20.1964 -20.1964
   -20.1939 -20.1939 -20.1926 -20.1926 -20.1925 -20.1925 -20.1910 -20.1910
    -9.9082  -9.7590  -9.4872  -9.4846  -9.3539  -9.3464  -9.0923  -9.0836
    -8.9389  -8.8191  -8.8133  -8.8120  -8.2971  -8.2547  -8.2499  -8.2275
    -7.8172  -7.8167  -7.7964  -7.7963  -7.7066  -7.7053  -7.6929  -7.6906
     1.1345   1.1367   1.2295   1.2317   1.2473   1.2516   1.4823   1.5148
     2.2403   2.3654   2.3825   2.4075   2.4531   2.5217   2.7598   2.7848
     2.8806   2.9130   3.5521   3.5880   3.5997   3.6383   4.0644   4.3692
     4.3974   4.6442   4.6802   4.7109   4.7118   4.7409   4.9039   4.9291
     4.9402   4.9654   5.2379   5.2533   5.4764   5.4783   5.6122   5.6265
     5.8483   5.8485   5.8538   5.8619   5.9157   6.0064   6.0078   6.0766
     6.0857   6.1599   6.2037   6.4225   6.4695   6.4866   6.7193   6.7365
     6.7867   6.8843   7.0156   7.0191   7.0261   7.0274   7.2274   7.2285
     7.2500   7.2524   7.7452   7.7647   7.7694   7.7891   7.8941   7.8956
     9.2739   9.2808  10.4862  10.5141  10.5442  10.5597  11.7402  11.7940
    11.8646  11.8897  12.3848  12.4005  12.4123  12.4177  12.9224  13.0374
    13.2483  13.2653  13.2943  13.3576  13.6975  13.7216  13.7278  13.7436
    14.8028  15.1912  15.2118  15.2406  15.2481  15.5331  15.8307  15.8499
    15.9056  16.9589  17.1496  17.3626  17.6332  17.8568

          k = 0.0000 0.3206 0.1665 ( 62865 PWs)   bands (ev):

   -66.1057 -66.1054 -66.1049 -66.1048 -66.1047 -66.1046 -66.1040 -66.1038
   -30.5306 -30.5267 -30.5255 -30.5218 -30.4997 -30.4954 -30.4935 -30.4893
   -30.4514 -30.4509 -30.4451 -30.4422 -30.4416 -30.4411 -30.4392 -30.4389
   -30.3639 -30.3626 -30.3607 -30.3594 -30.3544 -30.3525 -30.3499 -30.3482
   -20.2537 -20.2534 -20.2532 -20.2529 -20.2516 -20.2514 -20.2511 -20.2509
   -20.2485 -20.2484 -20.2481 -20.2480 -20.2479 -20.2478 -20.2473 -20.2472
   -20.2437 -20.2433 -20.2430 -20.2430 -20.2428 -20.2421 -20.2416 -20.2415
   -20.2408 -20.2405 -20.2401 -20.2394 -20.2393 -20.2389 -20.2386 -20.2385
   -20.2291 -20.2290 -20.2286 -20.2285 -20.2282 -20.2282 -20.2278 -20.2277
   -20.1992 -20.1992 -20.1977 -20.1977 -20.1975 -20.1975 -20.1965 -20.1965
   -20.1943 -20.1943 -20.1930 -20.1930 -20.1924 -20.1924 -20.1911 -20.1911
    -9.8595  -9.7062  -9.4990  -9.4131  -9.3588  -9.2654  -9.0530  -9.0433
    -8.9468  -8.8167  -8.8119  -8.7951  -8.2974  -8.2614  -8.2471  -8.2334
    -7.9390  -7.9239  -7.8379  -7.8247  -7.8032  -7.7888  -7.7123  -7.6976
     1.2266   1.2267   1.2508   1.2554   1.4859   1.4940   1.6462   1.6894
     2.2434   2.3556   2.3795   2.4910   2.5232   2.5402   2.7670   2.8738
     2.8791   3.0021   3.5897   3.5936   3.6287   3.6516   4.0531   4.3295
     4.3421   4.3831   4.4132   4.6171   4.6498   4.7149   4.7710   4.7818
     4.9145   4.9753   5.0431   5.2069   5.2701   5.3495   5.4837   5.5882
     5.6215   5.6993   5.7566   5.8303   5.9864   6.0302   6.0511   6.0723
     6.1429   6.3537   6.3668   6.4668   6.4842   6.7078   6.7244   6.8176
     6.8518   6.8878   6.9715   6.9751   6.9973   7.0121   7.0190   7.0742
     7.1159   7.1197   7.7377   7.7482   7.7575   7.7612   7.8746   7.8789
     9.6221   9.6224  10.5186  10.5601  10.6631  10.7158  11.7921  11.8289
    11.8894  11.9454  12.2720  12.2832  12.4617  12.4693  12.9611  12.9613
    13.0531  13.2483  13.2627  13.3255  13.5646  13.6332  13.6949  13.7321
    14.9218  15.1981  15.2869  15.3454  15.4370  15.6029  15.8235  16.0623
    16.1605  16.9238  17.2144  17.2280  17.4318  17.7419

          k = 0.0000 0.3206 0.3330 ( 62792 PWs)   bands (ev):

   -66.1055 -66.1053 -66.1051 -66.1049 -66.1046 -66.1044 -66.1042 -66.1040
   -30.5298 -30.5276 -30.5248 -30.5226 -30.4987 -30.4962 -30.4926 -30.4902
   -30.4491 -30.4463 -30.4461 -30.4426 -30.4269 -30.4265 -30.4232 -30.4223
   -30.3811 -30.3799 -30.3773 -30.3759 -30.3536 -30.3517 -30.3513 -30.3494
   -20.2536 -20.2533 -20.2533 -20.2530 -20.2515 -20.2513 -20.2512 -20.2510
   -20.2484 -20.2484 -20.2481 -20.2480 -20.2478 -20.2478 -20.2473 -20.2472
   -20.2435 -20.2431 -20.2429 -20.2425 -20.2423 -20.2422 -20.2414 -20.2411
   -20.2411 -20.2410 -20.2405 -20.2399 -20.2392 -20.2388 -20.2388 -20.2387
   -20.2290 -20.2289 -20.2287 -20.2286 -20.2281 -20.2281 -20.2278 -20.2278
   -20.1984 -20.1984 -20.1973 -20.1973 -20.1968 -20.1968 -20.1966 -20.1966
   -20.1953 -20.1953 -20.1940 -20.1940 -20.1921 -20.1921 -20.1914 -20.1913
    -9.7436  -9.5843  -9.5441  -9.3976  -9.2271  -9.0146  -8.9766  -8.9382
    -8.9012  -8.8281  -8.7716  -8.7210  -8.3406  -8.3217  -8.2544  -8.2414
    -8.2382  -8.1802  -8.1585  -8.1075  -7.7850  -7.7696  -7.7316  -7.7167
     1.2601   1.2655   1.2732   1.2781   2.0957   2.1737   2.1960   2.2595
     2.3538   2.3807   2.4110   2.6199   2.7514   2.7771   2.7921   2.8700
     3.1214   3.2172   3.5679   3.5978   3.6569   3.7256   3.7810   3.7830
     4.0331   4.1438   4.2440   4.2921   4.3584   4.4860   4.5454   4.6650
     4.6918   4.7382   4.8796   4.9428   5.0442   5.0785   5.1352   5.2118
     5.2902   5.4971   5.5452   5.7712   6.0713   6.1155   6.1272   6.1887
     6.3043   6.4213   6.5032   6.5282   6.5608   6.6860   6.6973   6.7197
     6.8233   6.9051   6.9462   6.9662   6.9857   7.0550   7.0949   7.1168
     7.1809   7.2184   7.6490   7.6561   7.7166   7.7596   7.7664   7.8070
    10.3368  10.3462  10.5319  10.5757  11.1427  11.1818  11.7549  11.8528
    11.8601  11.9205  12.1048  12.1908  12.5068  12.5482  12.6300  12.6346
    12.9060  13.0352  13.1536  13.2190  13.2667  13.4277  13.6901  13.7136
    15.0500  15.1734  15.4400  15.7391  15.7463  16.0029  16.0137  16.5388
    16.6388  16.8021  17.0221  17.5034  17.5829  17.5944

          k = 0.0000 0.3206-0.4994 ( 62820 PWs)   bands (ev):

   -66.1053 -66.1053 -66.1051 -66.1051 -66.1044 -66.1044 -66.1042 -66.1042
   -30.5287 -30.5287 -30.5238 -30.5238 -30.4975 -30.4974 -30.4914 -30.4914
   -30.4475 -30.4475 -30.4441 -30.4441 -30.4044 -30.4044 -30.4034 -30.4033
   -30.4003 -30.4003 -30.3991 -30.3991 -30.3525 -30.3525 -30.3506 -30.3506
   -20.2535 -20.2535 -20.2532 -20.2532 -20.2514 -20.2514 -20.2512 -20.2512
   -20.2484 -20.2484 -20.2480 -20.2480 -20.2478 -20.2478 -20.2472 -20.2472
   -20.2433 -20.2433 -20.2425 -20.2425 -20.2418 -20.2417 -20.2417 -20.2417
   -20.2410 -20.2410 -20.2405 -20.2405 -20.2390 -20.2390 -20.2388 -20.2388
   -20.2288 -20.2288 -20.2288 -20.2287 -20.2280 -20.2280 -20.2279 -20.2279
   -20.1974 -20.1974 -20.1974 -20.1974 -20.1965 -20.1965 -20.1965 -20.1965
   -20.1953 -20.1953 -20.1953 -20.1953 -20.1917 -20.1917 -20.1917 -20.1917
    -9.6258  -9.6258  -9.4702  -9.4702  -9.0546  -9.0545  -8.8532  -8.8532
    -8.6529  -8.6529  -8.6277  -8.6277  -8.5761  -8.5760  -8.5087  -8.5087
    -8.2522  -8.2522  -8.2107  -8.2107  -7.7582  -7.7582  -7.7430  -7.7430
     1.2712   1.2712   1.2771   1.2771   2.2454   2.2454   2.3690   2.3690
     2.8034   2.8034   3.0283   3.0283   3.0773   3.0773   3.1691   3.1692
     3.2263   3.2263   3.2958   3.2958   3.3706   3.3706   3.6007   3.6007
     3.9192   3.9192   3.9746   3.9746   4.0023   4.0023   4.2415   4.2415
     4.7313   4.7313   4.8332   4.8332   4.9971   4.9971   5.1301   5.1301
     5.3121   5.3121   5.6531   5.6531   6.1795   6.1795   6.2305   6.2305
     6.3710   6.3711   6.3935   6.3936   6.4533   6.4533   6.6489   6.6489
     6.9593   6.9593   6.9716   6.9716   7.0243   7.0243   7.4382   7.4382
     7.4657   7.4657   7.4747   7.4747   7.5276   7.5276   7.7707   7.7707
    10.5327  10.5327  11.1396  11.1396  11.1805  11.1805  11.6694  11.6694
    11.8402  11.8402  12.0279  12.0279  12.5399  12.5399  12.5652  12.5652
    12.8883  12.8883  12.9197  12.9197  13.2905  13.2905  13.6941  13.6941
    15.1249  15.1249  15.6148  15.6148  16.1268  16.1268  16.5249  16.5249
    16.8672  16.8672  17.0797  17.0797  17.8802  17.8803

          k = 0.0000-0.4809 0.0000 ( 62874 PWs)   bands (ev):

   -66.1056 -66.1056 -66.1048 -66.1048 -66.1047 -66.1047 -66.1039 -66.1039
   -30.5152 -30.5152 -30.5106 -30.5106 -30.5097 -30.5097 -30.5052 -30.5052
   -30.4544 -30.4544 -30.4463 -30.4463 -30.4444 -30.4444 -30.4432 -30.4432
   -30.3568 -30.3568 -30.3547 -30.3547 -30.3538 -30.3538 -30.3479 -30.3479
   -20.2526 -20.2526 -20.2523 -20.2523 -20.2520 -20.2520 -20.2517 -20.2517
   -20.2483 -20.2483 -20.2481 -20.2481 -20.2478 -20.2478 -20.2477 -20.2477
   -20.2436 -20.2436 -20.2431 -20.2431 -20.2425 -20.2425 -20.2417 -20.2417
   -20.2404 -20.2404 -20.2396 -20.2396 -20.2392 -20.2392 -20.2386 -20.2386
   -20.2291 -20.2291 -20.2285 -20.2285 -20.2283 -20.2283 -20.2277 -20.2277
   -20.1996 -20.1996 -20.1980 -20.1980 -20.1977 -20.1977 -20.1964 -20.1964
   -20.1939 -20.1939 -20.1926 -20.1926 -20.1925 -20.1925 -20.1910 -20.1910
    -9.8228  -9.8228  -9.4040  -9.4040  -9.3985  -9.3985  -9.0879  -9.0879
    -8.6216  -8.6216  -8.5679  -8.5678  -8.5646  -8.5645  -8.5641  -8.5641
    -7.8133  -7.8133  -7.8004  -7.8004  -7.6999  -7.6999  -7.6981  -7.6981
     1.1355   1.1355   1.2319   1.2319   1.2511   1.2511   1.5079   1.5079
     2.4299   2.4299   3.0185   3.0185   3.1152   3.1152   3.1439   3.1439
     3.1632   3.1632   3.2158   3.2158   3.4024   3.4024   3.4306   3.4306
     3.5650   3.5651   4.6931   4.6931   4.7223   4.7223   5.0696   5.0696
     5.1110   5.1110   5.1949   5.1949   5.2153   5.2153   5.6998   5.6998
     5.7160   5.7160   5.9424   5.9424   5.9867   5.9867   6.0682   6.0682
     6.1220   6.1220   6.1814   6.1814   6.5763   6.5763   6.5940   6.5940
     6.8373   6.8373   7.2238   7.2238   7.2419   7.2419   7.4015   7.4015
     7.4097   7.4097   7.4409   7.4409   7.4500   7.4500   7.8933   7.8933
     9.2782   9.2782  11.1335  11.1335  11.1797  11.1797  11.2076  11.2076
    11.2593  11.2593  12.3955  12.3955  12.4185  12.4185  13.0055  13.0055
    13.4183  13.4183  13.4463  13.4463  13.4796  13.4796  13.5233  13.5233
    15.2380  15.2380  15.3282  15.3282  15.6091  15.6091  15.6227  15.6227
    16.4522  16.4522  17.6799  17.6799  17.9950  17.9950

          k = 0.0000-0.4809 0.1665 ( 62872 PWs)   bands (ev):

   -66.1056 -66.1056 -66.1048 -66.1048 -66.1047 -66.1047 -66.1039 -66.1039
   -30.5149 -30.5149 -30.5109 -30.5109 -30.5094 -30.5094 -30.5056 -30.5055
   -30.4510 -30.4510 -30.4435 -30.4435 -30.4418 -30.4418 -30.4395 -30.4395
   -30.3632 -30.3632 -30.3600 -30.3600 -30.3535 -30.3535 -30.3491 -30.3491
   -20.2525 -20.2525 -20.2523 -20.2523 -20.2521 -20.2520 -20.2518 -20.2518
   -20.2482 -20.2482 -20.2481 -20.2481 -20.2478 -20.2478 -20.2477 -20.2477
   -20.2435 -20.2435 -20.2429 -20.2429 -20.2426 -20.2426 -20.2416 -20.2416
   -20.2406 -20.2406 -20.2397 -20.2397 -20.2391 -20.2391 -20.2386 -20.2386
   -20.2290 -20.2290 -20.2286 -20.2286 -20.2282 -20.2282 -20.2277 -20.2277
   -20.1992 -20.1992 -20.1977 -20.1977 -20.1975 -20.1975 -20.1965 -20.1965
   -20.1943 -20.1943 -20.1930 -20.1930 -20.1924 -20.1924 -20.1911 -20.1911
    -9.7713  -9.7713  -9.4119  -9.4119  -9.3194  -9.3194  -9.0480  -9.0480
    -8.6274  -8.6273  -8.5728  -8.5727  -8.5628  -8.5627  -8.5578  -8.5578
    -7.9318  -7.9318  -7.8314  -7.8314  -7.7964  -7.7964  -7.7051  -7.7051
     1.2270   1.2270   1.2548   1.2548   1.4931   1.4931   1.6809   1.6809
     2.5170   2.5170   3.0330   3.0330   3.1016   3.1016   3.1607   3.1607
     3.1954   3.1955   3.2261   3.2261   3.4111   3.4111   3.4651   3.4651
     3.5982   3.5982   4.3500   4.3500   4.7489   4.7489   4.8515   4.8515
     4.9836   4.9836   5.0828   5.0828   5.2212   5.2212   5.4202   5.4202
     5.6830   5.6830   5.7174   5.7174   6.0485   6.0485   6.0709   6.0709
     6.2709   6.2709   6.3607   6.3607   6.5692   6.5692   6.7791   6.7791
     6.9035   6.9035   7.0077   7.0077   7.0643   7.0643   7.3948   7.3948
     7.4115   7.4115   7.4322   7.4322   7.4355   7.4355   7.8746   7.8746
     9.6241   9.6241  11.1814  11.1814  11.2387  11.2387  11.2628  11.2629
    11.3377  11.3377  12.2783  12.2783  12.4680  12.4680  13.0261  13.0261
    13.2454  13.2454  13.3197  13.3197  13.4431  13.4431  13.5454  13.5454
    15.2486  15.2486  15.5253  15.5253  15.6043  15.6043  15.9149  15.9149
    16.5252  16.5252  17.6618  17.6618  17.7213  17.7213

          k = 0.0000-0.4809 0.3330 ( 62824 PWs)   bands (ev):

   -66.1054 -66.1054 -66.1050 -66.1050 -66.1045 -66.1045 -66.1041 -66.1041
   -30.5141 -30.5141 -30.5117 -30.5117 -30.5087 -30.5087 -30.5064 -30.5064
   -30.4477 -30.4477 -30.4445 -30.4445 -30.4268 -30.4268 -30.4228 -30.4228
   -30.3805 -30.3805 -30.3766 -30.3766 -30.3527 -30.3527 -30.3504 -30.3504
   -20.2525 -20.2525 -20.2522 -20.2522 -20.2522 -20.2522 -20.2519 -20.2519
   -20.2482 -20.2482 -20.2482 -20.2482 -20.2478 -20.2478 -20.2477 -20.2477
   -20.2432 -20.2432 -20.2427 -20.2427 -20.2424 -20.2424 -20.2413 -20.2413
   -20.2410 -20.2410 -20.2402 -20.2402 -20.2391 -20.2391 -20.2388 -20.2388
   -20.2289 -20.2289 -20.2287 -20.2287 -20.2281 -20.2281 -20.2278 -20.2278
   -20.1984 -20.1984 -20.1973 -20.1973 -20.1968 -20.1968 -20.1966 -20.1966
   -20.1953 -20.1953 -20.1940 -20.1940 -20.1921 -20.1921 -20.1914 -20.1914
    -9.6503  -9.6503  -9.4542  -9.4542  -9.0860  -9.0860  -8.9125  -8.9125
    -8.6593  -8.6593  -8.5928  -8.5928  -8.5523  -8.5523  -8.5308  -8.5308
    -8.2291  -8.2291  -8.1456  -8.1456  -7.7775  -7.7775  -7.7243  -7.7243
     1.2646   1.2646   1.2773   1.2773   2.1863   2.1863   2.3340   2.3340
     2.7688   2.7688   3.0525   3.0525   3.1018   3.1018   3.1709   3.1709
     3.1863   3.1863   3.3135   3.3135   3.3963   3.3963   3.6087   3.6087
     3.6844   3.6844   3.7715   3.7715   4.3346   4.3346   4.4870   4.4870
     4.7083   4.7083   4.7716   4.7716   5.0783   5.0783   5.1048   5.1048
     5.2740   5.2740   5.5912   5.5912   6.1171   6.1171   6.1834   6.1834
     6.4067   6.4067   6.5072   6.5072   6.5722   6.5722   6.7261   6.7261
     6.9507   6.9507   7.0781   7.0782   7.1010   7.1011   7.3646   7.3646
     7.3863   7.3863   7.4185   7.4185   7.4387   7.4387   7.7719   7.7719
    10.3536  10.3536  11.1921  11.1921  11.2332  11.2332  11.6171  11.6171
    11.6819  11.6819  11.8613  11.8613  12.6234  12.6234  12.7316  12.7316
    12.7842  12.7842  13.1375  13.1375  13.4379  13.4379  13.4978  13.4978
    15.3203  15.3203  15.5414  15.5414  16.0958  16.0958  16.6909  16.6909
    16.8063  16.8063  17.1588  17.1588  17.8197  17.8198

          k = 0.0000-0.4809-0.4994 ( 62800 PWs)   bands (ev):

   -66.1052 -66.1052 -66.1052 -66.1052 -66.1043 -66.1043 -66.1043 -66.1043
   -30.5129 -30.5129 -30.5129 -30.5129 -30.5076 -30.5076 -30.5076 -30.5075
   -30.4460 -30.4460 -30.4460 -30.4460 -30.4039 -30.4039 -30.4039 -30.4039
   -30.3997 -30.3997 -30.3997 -30.3997 -30.3516 -30.3516 -30.3516 -30.3516
   -20.2523 -20.2523 -20.2523 -20.2523 -20.2521 -20.2521 -20.2521 -20.2521
   -20.2482 -20.2482 -20.2482 -20.2482 -20.2477 -20.2477 -20.2477 -20.2477
   -20.2429 -20.2429 -20.2429 -20.2429 -20.2417 -20.2417 -20.2417 -20.2417
   -20.2408 -20.2408 -20.2408 -20.2408 -20.2389 -20.2389 -20.2389 -20.2389
   -20.2288 -20.2288 -20.2288 -20.2288 -20.2280 -20.2279 -20.2279 -20.2279
   -20.1974 -20.1974 -20.1974 -20.1974 -20.1965 -20.1965 -20.1965 -20.1965
   -20.1953 -20.1953 -20.1953 -20.1953 -20.1917 -20.1917 -20.1917 -20.1917
    -9.5322  -9.5322  -9.5322  -9.5322  -8.7989  -8.7989  -8.7989  -8.7989
    -8.6914  -8.6914  -8.6914  -8.6914  -8.4940  -8.4940  -8.4939  -8.4939
    -8.4333  -8.4332  -8.4332  -8.4332  -7.7508  -7.7508  -7.7508  -7.7508
     1.2761   1.2761   1.2761   1.2761   2.9528   2.9528   2.9528   2.9528
     3.0659   3.0659   3.0659   3.0659   3.1464   3.1465   3.1465   3.1465
     3.2082   3.2082   3.2082   3.2082   3.3954   3.3954   3.3954   3.3954
     3.5223   3.5223   3.5223   3.5223   4.1882   4.1882   4.1882   4.1882
     4.2862   4.2862   4.2862   4.2862   5.0751   5.0751   5.0751   5.0751
     5.4212   5.4212   5.4212   5.4212   6.2279   6.2279   6.2279   6.2279
     6.4236   6.4236   6.4236   6.4236   6.5136   6.5136   6.5136   6.5136
     7.2183   7.2183   7.2183   7.2183   7.2804   7.2804   7.2804   7.2804
     7.3774   7.3774   7.3774   7.3774   7.5508   7.5509   7.5509   7.5509
    11.1051  11.1051  11.1051  11.1051  11.2685  11.2685  11.2686  11.2686
    12.1622  12.1622  12.1622  12.1622  12.2027  12.2027  12.2027  12.2027
    12.8907  12.8907  12.8907  12.8907  13.4484  13.4484  13.4484  13.4484
    15.4405  15.4405  15.4405  15.4405  16.6553  16.6553  16.6553  16.6553
    17.4167  17.4167  17.4168  17.4168  17.5520  17.5520

          k = 0.1667 0.0000 0.0000 ( 62849 PWs)   bands (ev):

   -66.1058 -66.1053 -66.1050 -66.1049 -66.1046 -66.1045 -66.1042 -66.1037
   -30.5464 -30.5422 -30.5421 -30.5380 -30.4852 -30.4794 -30.4792 -30.4730
   -30.4537 -30.4514 -30.4463 -30.4454 -30.4426 -30.4399 -30.4344 -30.4330
   -30.3622 -30.3592 -30.3579 -30.3578 -30.3577 -30.3551 -30.3507 -30.3506
   -20.2549 -20.2546 -20.2544 -20.2541 -20.2509 -20.2508 -20.2503 -20.2502
   -20.2486 -20.2484 -20.2483 -20.2482 -20.2472 -20.2471 -20.2466 -20.2464
   -20.2439 -20.2435 -20.2433 -20.2431 -20.2430 -20.2415 -20.2413 -20.2413
   -20.2410 -20.2404 -20.2402 -20.2396 -20.2389 -20.2389 -20.2386 -20.2383
   -20.2291 -20.2290 -20.2285 -20.2284 -20.2284 -20.2282 -20.2278 -20.2277
   -20.1995 -20.1994 -20.1981 -20.1981 -20.1974 -20.1974 -20.1961 -20.1961
   -20.1938 -20.1938 -20.1930 -20.1930 -20.1926 -20.1926 -20.1913 -20.1913
    -9.9766  -9.6587  -9.6356  -9.5662  -9.3330  -9.2458  -9.2234  -9.0638
    -9.0375  -8.9941  -8.9866  -8.9449  -7.9676  -7.9218  -7.9121  -7.8821
    -7.8769  -7.8317  -7.8260  -7.8166  -7.8128  -7.7826  -7.7205  -7.6918
     1.1929   1.1957   1.2133   1.2347   1.3148   1.3361   1.4316   1.4732
     1.5112   1.6213   1.7053   1.8599   2.4665   2.4876   2.5520   2.5660
     2.6086   2.6898   4.0525   4.1554   4.2762   4.3211   4.3802   4.3916
     4.4713   4.6233   4.6987   4.7414   4.7717   4.8553   5.0087   5.2372
     5.2708   5.3190   5.4007   5.4692   5.4852   5.5093   5.5304   5.5538
     5.6473   5.7594   5.7745   5.7792   5.9305   5.9464   6.0505   6.0866
     6.2480   6.3660   6.3671   6.4062   6.6444   6.6482   6.6723   6.7053
     6.7821   6.7988   6.8433   6.9018   6.9355   6.9736   7.0327   7.0389
     7.0593   7.0824   7.8670   7.8692   7.9357   7.9921   8.0372   8.0786
     9.6075   9.6215   9.7860   9.7915  10.0541  10.0780  12.2212  12.2713
    12.3139  12.3580  12.4312  12.4444  12.4991  12.6061  12.7329  12.9488
    13.0337  13.2246  13.2378  13.2673  13.7720  13.8626  14.0793  14.0910
    14.2149  14.3729  14.5909  14.7881  15.2938  15.3187  15.5021  15.9352
    16.3263  16.6786  17.0020  17.2170  17.3753  17.6674

          k = 0.1667 0.0000 0.1665 ( 62841 PWs)   bands (ev):

   -66.1057 -66.1053 -66.1050 -66.1050 -66.1045 -66.1045 -66.1042 -66.1037
   -30.5462 -30.5424 -30.5420 -30.5383 -30.4846 -30.4797 -30.4785 -30.4733
   -30.4487 -30.4474 -30.4409 -30.4406 -30.4401 -30.4386 -30.4333 -30.4329
   -30.3643 -30.3629 -30.3621 -30.3610 -30.3605 -30.3577 -30.3552 -30.3527
   -20.2549 -20.2546 -20.2544 -20.2542 -20.2509 -20.2508 -20.2504 -20.2503
   -20.2486 -20.2484 -20.2483 -20.2482 -20.2472 -20.2471 -20.2466 -20.2464
   -20.2439 -20.2433 -20.2431 -20.2431 -20.2428 -20.2415 -20.2413 -20.2412
   -20.2411 -20.2406 -20.2403 -20.2396 -20.2391 -20.2388 -20.2386 -20.2384
   -20.2290 -20.2289 -20.2286 -20.2285 -20.2283 -20.2282 -20.2278 -20.2277
   -20.1991 -20.1991 -20.1978 -20.1978 -20.1973 -20.1972 -20.1962 -20.1962
   -20.1942 -20.1942 -20.1932 -20.1932 -20.1927 -20.1927 -20.1914 -20.1914
    -9.9306  -9.6002  -9.5805  -9.5793  -9.2541  -9.2437  -9.2351  -9.0207
    -9.0025  -8.9880  -8.9517  -8.9486  -7.9717  -7.9398  -7.9165  -7.9161
    -7.9082  -7.8893  -7.8709  -7.8568  -7.8401  -7.8294  -7.8221  -7.7989
     1.2924   1.3298   1.3300   1.3962   1.4009   1.4263   1.4980   1.5156
     1.6048   1.6231   1.7866   1.9391   2.5521   2.5612   2.5718   2.6557
     2.6735   2.7073   4.0519   4.0734   4.2773   4.2773   4.3977   4.4041
     4.4390   4.4442   4.5134   4.5155   4.6118   4.6695   4.9970   5.1408
     5.2022   5.2174   5.2606   5.4215   5.4418   5.4814   5.4980   5.6228
     5.6258   5.6693   5.6787   5.7257   5.7790   5.9375   6.1606   6.3334
     6.3369   6.4244   6.4860   6.5832   6.5883   6.6054   6.6312   6.6649
     6.6704   6.7069   6.7235   6.7734   6.8159   6.8900   6.8905   6.9689
     7.1427   7.1760   7.8511   7.8512   7.9502   7.9940   8.0004   8.0309
     9.8249   9.8694  10.0241  10.0636  10.0655  10.1521  12.2723  12.2808
    12.3182  12.3295  12.3587  12.3886  12.5754  12.5973  12.7462  12.8402
    12.9734  13.0348  13.2442  13.3161  13.8079  13.8462  13.9354  13.9706
    14.2715  14.5153  14.5850  14.9081  15.4019  15.4140  15.4717  16.2681
    16.2942  16.8381  16.8550  17.1441  17.2778  17.4215

          k = 0.1667 0.0000 0.3330 ( 62803 PWs)   bands (ev):

   -66.1056 -66.1052 -66.1051 -66.1048 -66.1047 -66.1044 -66.1043 -66.1039
   -30.5455 -30.5433 -30.5413 -30.5392 -30.4833 -30.4806 -30.4772 -30.4743
   -30.4441 -30.4412 -30.4398 -30.4346 -30.4258 -30.4254 -30.4229 -30.4219
   -30.3814 -30.3790 -30.3783 -30.3756 -30.3608 -30.3584 -30.3569 -30.3545
   -20.2548 -20.2545 -20.2545 -20.2543 -20.2508 -20.2507 -20.2505 -20.2504
   -20.2485 -20.2485 -20.2483 -20.2482 -20.2472 -20.2471 -20.2466 -20.2465
   -20.2437 -20.2433 -20.2427 -20.2426 -20.2424 -20.2417 -20.2414 -20.2412
   -20.2412 -20.2408 -20.2406 -20.2396 -20.2394 -20.2388 -20.2387 -20.2387
   -20.2289 -20.2288 -20.2286 -20.2285 -20.2282 -20.2281 -20.2279 -20.2278
   -20.1983 -20.1982 -20.1971 -20.1971 -20.1967 -20.1967 -20.1965 -20.1965
   -20.1952 -20.1952 -20.1941 -20.1941 -20.1925 -20.1925 -20.1917 -20.1917
    -9.8205  -9.6255  -9.4649  -9.4515  -9.2821  -9.2721  -8.9897  -8.9853
    -8.9586  -8.8715  -8.8628  -8.8199  -8.2429  -8.2378  -8.1922  -8.1777
    -7.9360  -7.9098  -7.8912  -7.8820  -7.8606  -7.8470  -7.8376  -7.8338
     1.3042   1.3204   1.3878   1.4147   1.5265   1.5343   1.5973   1.6282
     2.2048   2.2522   2.3481   2.4341   2.5827   2.6578   2.8007   2.8189
     2.9244   2.9465   3.7146   3.7914   3.8643   3.9270   3.9932   4.2569
     4.2687   4.3898   4.4116   4.4721   4.4734   4.6545   4.6699   4.7994
     4.9082   4.9540   4.9762   5.1389   5.1399   5.2876   5.5100   5.5202
     5.6693   5.6834   5.7035   5.7711   5.7852   5.9298   6.0144   6.0697
     6.3388   6.3412   6.4251   6.4438   6.4555   6.6079   6.6114   6.6383
     6.6513   6.7844   6.7991   6.8080   7.0027   7.0338   7.0997   7.1009
     7.1903   7.2436   7.7465   7.7613   7.8447   7.8806   7.9878   7.9957
    10.0340  10.0394  10.4593  10.5241  10.7104  10.7927  11.8807  11.9239
    12.1047  12.3237  12.4213  12.4794  12.5277  12.5949  12.7174  12.7498
    12.8073  13.0311  13.0956  13.1951  13.5793  13.6020  13.8397  13.8648
    14.4237  14.5654  14.8597  15.2274  15.3700  15.7175  15.8901  16.2019
    16.2512  17.1689  17.2540  17.4100  17.4668  17.6721

          k = 0.1667 0.0000-0.4994 ( 62812 PWs)   bands (ev):

   -66.1054 -66.1054 -66.1049 -66.1049 -66.1046 -66.1046 -66.1041 -66.1041
   -30.5444 -30.5444 -30.5403 -30.5403 -30.4819 -30.4819 -30.4756 -30.4756
   -30.4425 -30.4425 -30.4363 -30.4363 -30.4043 -30.4043 -30.4024 -30.4024
   -30.4010 -30.4010 -30.3987 -30.3987 -30.3597 -30.3597 -30.3558 -30.3558
   -20.2547 -20.2547 -20.2544 -20.2544 -20.2507 -20.2507 -20.2505 -20.2505
   -20.2485 -20.2485 -20.2482 -20.2482 -20.2471 -20.2471 -20.2465 -20.2465
   -20.2435 -20.2434 -20.2421 -20.2421 -20.2419 -20.2419 -20.2418 -20.2418
   -20.2410 -20.2410 -20.2402 -20.2402 -20.2391 -20.2391 -20.2387 -20.2387
   -20.2288 -20.2288 -20.2287 -20.2287 -20.2281 -20.2280 -20.2279 -20.2279
   -20.1972 -20.1972 -20.1972 -20.1972 -20.1963 -20.1963 -20.1963 -20.1963
   -20.1954 -20.1954 -20.1954 -20.1954 -20.1921 -20.1921 -20.1921 -20.1921
    -9.7063  -9.7063  -9.3441  -9.3441  -9.3415  -9.3414  -8.9720  -8.9720
    -8.6247  -8.6247  -8.6052  -8.6052  -8.5785  -8.5785  -8.5395  -8.5395
    -7.9206  -7.9206  -7.8760  -7.8760  -7.8552  -7.8552  -7.8493  -7.8493
     1.3109   1.3109   1.4025   1.4025   1.5394   1.5394   1.6304   1.6304
     2.6093   2.6093   2.9731   2.9731   3.0298   3.0298   3.1430   3.1431
     3.2144   3.2144   3.3282   3.3282   3.4720   3.4720   3.7007   3.7007
     3.7252   3.7253   4.3359   4.3359   4.4139   4.4139   4.8308   4.8308
     4.9218   4.9219   4.9481   4.9482   5.1238   5.1238   5.5915   5.5915
     5.6448   5.6448   5.7423   5.7423   5.8077   5.8077   5.9237   5.9237
     6.2445   6.2445   6.3533   6.3533   6.5394   6.5394   6.6424   6.6424
     6.7457   6.7457   6.8600   6.8600   6.9157   6.9158   7.4726   7.4726
     7.5150   7.5150   7.5837   7.5837   7.6129   7.6129   7.9953   7.9953
    10.0421  10.0422  11.2005  11.2005  11.2640  11.2640  11.4700  11.4700
    11.5909  11.5909  12.5795  12.5795  12.6222  12.6222  12.7629  12.7629
    12.8783  12.8783  13.1769  13.1769  13.2398  13.2398  13.8485  13.8485
    14.5217  14.5217  15.1741  15.1742  15.6856  15.6857  16.0155  16.0155
    16.6969  16.6969  17.6499  17.6499  17.7351  17.7352

          k = 0.1667 0.1603 0.0000 ( 62808 PWs)   bands (ev):

   -66.1058 -66.1054 -66.1050 -66.1049 -66.1046 -66.1045 -66.1041 -66.1037
   -30.5421 -30.5379 -30.5378 -30.5337 -30.4889 -30.4834 -30.4831 -30.4774
   -30.4536 -30.4516 -30.4466 -30.4456 -30.4423 -30.4396 -30.4353 -30.4337
   -30.3619 -30.3592 -30.3581 -30.3577 -30.3576 -30.3553 -30.3508 -30.3507
   -20.2546 -20.2543 -20.2541 -20.2538 -20.2511 -20.2510 -20.2505 -20.2504
   -20.2486 -20.2484 -20.2483 -20.2481 -20.2474 -20.2473 -20.2468 -20.2466
   -20.2439 -20.2434 -20.2433 -20.2430 -20.2430 -20.2416 -20.2414 -20.2413
   -20.2409 -20.2404 -20.2401 -20.2396 -20.2390 -20.2389 -20.2387 -20.2384
   -20.2291 -20.2290 -20.2285 -20.2284 -20.2284 -20.2282 -20.2278 -20.2277
   -20.1995 -20.1994 -20.1981 -20.1981 -20.1974 -20.1974 -20.1961 -20.1961
   -20.1938 -20.1938 -20.1930 -20.1930 -20.1926 -20.1926 -20.1913 -20.1913
    -9.9424  -9.6705  -9.5945  -9.5191  -9.3407  -9.2314  -9.1679  -9.0592
    -9.0388  -8.9523  -8.9485  -8.9126  -8.0425  -7.9931  -7.9839  -7.9453
    -7.9357  -7.9099  -7.8397  -7.8158  -7.8114  -7.7851  -7.7187  -7.6943
     1.2114   1.2132   1.2204   1.2350   1.4451   1.4755   1.5109   1.6491
     1.6928   1.7117   1.7570   1.9576   2.4757   2.5570   2.5616   2.6301
     2.6831   2.7607   3.9452   4.0081   4.0581   4.1182   4.3104   4.3779
     4.4949   4.5475   4.7212   4.7385   4.7885   4.8072   4.8290   5.1620
     5.1648   5.2122   5.2698   5.3571   5.4332   5.5017   5.5511   5.6500
     5.6600   5.7140   5.7731   5.8184   5.8655   5.9844   6.0557   6.0822
     6.1662   6.3674   6.3706   6.3939   6.6174   6.6775   6.6817   6.7286
     6.7530   6.8356   6.8359   6.8893   6.8922   6.9184   7.0367   7.0402
     7.0633   7.0842   7.8637   7.8695   7.9018   7.9347   7.9799   8.0009
     9.6154   9.6229   9.9839   9.9969  10.2389  10.2427  12.1197  12.2652
    12.2765  12.2997  12.3318  12.3800  12.4241  12.4922  12.7726  12.9429
    13.0625  13.2230  13.2402  13.2706  13.7766  13.7986  13.9737  13.9876
    14.4274  14.6452  14.8442  14.9502  15.2957  15.3178  15.8835  15.9329
    16.2917  16.6320  16.8109  17.2487  17.3313  17.4831

          k = 0.1667 0.1603 0.1665 ( 62837 PWs)   bands (ev):

   -66.1057 -66.1053 -66.1050 -66.1049 -66.1046 -66.1045 -66.1042 -66.1038
   -30.5419 -30.5381 -30.5376 -30.5340 -30.4884 -30.4837 -30.4826 -30.4777
   -30.4486 -30.4474 -30.4410 -30.4406 -30.4398 -30.4387 -30.4340 -30.4338
   -30.3641 -30.3627 -30.3622 -30.3608 -30.3607 -30.3580 -30.3551 -30.3530
   -20.2545 -20.2542 -20.2541 -20.2538 -20.2511 -20.2509 -20.2505 -20.2504
   -20.2486 -20.2484 -20.2483 -20.2481 -20.2474 -20.2473 -20.2468 -20.2467
   -20.2438 -20.2433 -20.2431 -20.2430 -20.2428 -20.2416 -20.2414 -20.2412
   -20.2410 -20.2406 -20.2402 -20.2395 -20.2392 -20.2389 -20.2387 -20.2385
   -20.2290 -20.2289 -20.2286 -20.2285 -20.2283 -20.2282 -20.2278 -20.2277
   -20.1991 -20.1991 -20.1978 -20.1978 -20.1973 -20.1973 -20.1962 -20.1962
   -20.1942 -20.1942 -20.1932 -20.1932 -20.1927 -20.1927 -20.1914 -20.1914
    -9.8947  -9.6121  -9.5337  -9.5331  -9.2516  -9.2433  -9.1762  -9.0193
    -9.0037  -8.9446  -8.9186  -8.9161  -8.0451  -7.9952  -7.9903  -7.9539
    -7.9378  -7.9295  -7.9055  -7.9037  -7.8655  -7.8390  -7.8247  -7.8018
     1.3937   1.3997   1.4392   1.4470   1.4868   1.4982   1.5165   1.6481
     1.7406   1.7555   1.7869   2.0155   2.5631   2.6348   2.6480   2.6508
     2.7490   2.7759   3.9622   3.9806   4.0795   4.0975   4.3551   4.3738
     4.4308   4.4472   4.5065   4.5317   4.5467   4.6227   4.8007   5.0631
     5.1218   5.1657   5.2063   5.2625   5.2974   5.4312   5.4345   5.5472
     5.6734   5.6832   5.7468   5.7678   5.7724   5.8491   6.1827   6.2769
     6.3001   6.3556   6.4653   6.5446   6.5917   6.6163   6.6516   6.6677
     6.6958   6.7519   6.7798   6.8041   6.8645   6.8704   6.8936   6.9771
     7.1450   7.1761   7.8476   7.8511   7.9026   7.9357   7.9474   7.9592
     9.8507   9.8763  10.1925  10.2267  10.2468  10.3014  12.1820  12.2365
    12.3107  12.3226  12.3278  12.3324  12.4309  12.4458  12.7874  12.8782
    12.9564  13.0216  13.2425  13.3148  13.7688  13.7841  13.8270  13.8779
    14.5305  14.8130  14.8431  15.0513  15.4040  15.4121  15.8788  16.2389
    16.2614  16.7527  16.9468  16.9603  17.3250  17.5491

          k = 0.1667 0.1603 0.3330 ( 62813 PWs)   bands (ev):

   -66.1056 -66.1051 -66.1051 -66.1048 -66.1047 -66.1044 -66.1043 -66.1039
   -30.5412 -30.5390 -30.5370 -30.5348 -30.4872 -30.4846 -30.4814 -30.4786
   -30.4438 -30.4409 -30.4401 -30.4352 -30.4260 -30.4256 -30.4231 -30.4221
   -30.3813 -30.3792 -30.3781 -30.3758 -30.3606 -30.3581 -30.3572 -30.3548
   -20.2545 -20.2542 -20.2542 -20.2539 -20.2510 -20.2508 -20.2506 -20.2505
   -20.2485 -20.2484 -20.2482 -20.2482 -20.2474 -20.2473 -20.2468 -20.2467
   -20.2436 -20.2432 -20.2427 -20.2426 -20.2423 -20.2418 -20.2413 -20.2412
   -20.2411 -20.2409 -20.2406 -20.2396 -20.2394 -20.2389 -20.2388 -20.2387
   -20.2289 -20.2288 -20.2286 -20.2285 -20.2282 -20.2281 -20.2279 -20.2278
   -20.1983 -20.1982 -20.1971 -20.1971 -20.1967 -20.1967 -20.1965 -20.1965
   -20.1952 -20.1952 -20.1941 -20.1941 -20.1925 -20.1925 -20.1917 -20.1917
    -9.7802  -9.5794  -9.4766  -9.3911  -9.2810  -9.2049  -8.9981  -8.9568
    -8.9258  -8.8732  -8.8506  -8.8011  -8.2458  -8.2408  -8.2085  -8.1754
    -8.0128  -7.9951  -7.9699  -7.9443  -7.9095  -7.8846  -7.8572  -7.8343
     1.4485   1.4589   1.5254   1.5331   1.6141   1.6279   1.7049   1.7541
     2.2040   2.2601   2.3488   2.4475   2.6578   2.7279   2.8262   2.8899
     2.9200   3.0078   3.7223   3.8084   3.8537   3.8799   4.0484   4.0828
     4.1497   4.2670   4.3885   4.4687   4.4880   4.5976   4.6360   4.7254
     4.7444   4.8196   4.8530   5.0448   5.0667   5.1611   5.2556   5.4830
     5.5575   5.5856   5.6943   5.7386   5.7978   5.8061   6.0054   6.0621
     6.2623   6.4071   6.4632   6.5326   6.5928   6.6023   6.6236   6.6791
     6.7161   6.7945   6.8305   6.8696   6.9948   7.0390   7.0947   7.1073
     7.1891   7.2418   7.7451   7.7576   7.8026   7.8270   7.9298   7.9367
    10.2016  10.2216  10.4777  10.5332  10.8256  10.8852  11.8816  11.9219
    12.1005  12.3671  12.3812  12.4315  12.4721  12.4870  12.6123  12.6794
    12.7897  12.9903  13.0835  13.1978  13.4618  13.4976  13.7822  13.8016
    14.7108  14.8263  15.2136  15.3440  15.7097  15.7789  15.9055  16.1721
    16.3577  17.1159  17.1335  17.3158  17.4606  17.5314

          k = 0.1667 0.1603-0.4994 ( 62810 PWs)   bands (ev):

   -66.1053 -66.1053 -66.1049 -66.1049 -66.1046 -66.1046 -66.1042 -66.1042
   -30.5401 -30.5401 -30.5359 -30.5359 -30.4858 -30.4858 -30.4799 -30.4799
   -30.4422 -30.4422 -30.4369 -30.4369 -30.4043 -30.4043 -30.4026 -30.4025
   -30.4009 -30.4009 -30.3989 -30.3989 -30.3595 -30.3594 -30.3561 -30.3561
   -20.2543 -20.2543 -20.2541 -20.2541 -20.2508 -20.2508 -20.2507 -20.2507
   -20.2485 -20.2485 -20.2482 -20.2482 -20.2473 -20.2473 -20.2467 -20.2467
   -20.2434 -20.2434 -20.2422 -20.2422 -20.2419 -20.2418 -20.2418 -20.2418
   -20.2410 -20.2410 -20.2403 -20.2403 -20.2392 -20.2392 -20.2388 -20.2388
   -20.2288 -20.2288 -20.2287 -20.2287 -20.2280 -20.2280 -20.2279 -20.2279
   -20.1972 -20.1972 -20.1972 -20.1972 -20.1963 -20.1963 -20.1963 -20.1963
   -20.1954 -20.1954 -20.1954 -20.1954 -20.1921 -20.1921 -20.1921 -20.1921
    -9.6622  -9.6622  -9.3540  -9.3540  -9.2687  -9.2687  -8.9393  -8.9392
    -8.6316  -8.6316  -8.6076  -8.6075  -8.5778  -8.5777  -8.5342  -8.5342
    -8.0064  -8.0064  -7.9600  -7.9600  -7.8839  -7.8839  -7.8594  -7.8594
     1.4540   1.4540   1.5382   1.5382   1.6274   1.6274   1.7490   1.7490
     2.6810   2.6810   2.9914   2.9914   3.0588   3.0589   3.1475   3.1475
     3.2175   3.2176   3.3388   3.3388   3.4644   3.4644   3.7175   3.7175
     3.7741   3.7741   4.1849   4.1849   4.3797   4.3797   4.6198   4.6198
     4.8174   4.8174   4.9139   4.9139   4.9743   4.9743   5.3709   5.3709
     5.6104   5.6104   5.6349   5.6349   5.8001   5.8001   5.8328   5.8328
     6.3740   6.3741   6.5300   6.5300   6.5455   6.5455   6.6349   6.6349
     6.8158   6.8158   6.8302   6.8302   6.9500   6.9500   7.4708   7.4708
     7.5097   7.5097   7.5602   7.5602   7.5879   7.5880   7.9351   7.9351
    10.2226  10.2226  11.2081  11.2081  11.2651  11.2651  11.5413  11.5413
    11.6524  11.6524  12.4529  12.4529  12.5963  12.5963  12.7404  12.7404
    12.8646  12.8646  13.0600  13.0600  13.1610  13.1610  13.7849  13.7849
    14.7929  14.7929  15.5565  15.5565  15.8054  15.8054  15.9940  15.9940
    16.7387  16.7387  17.4957  17.4957  17.7073  17.7073

          k = 0.1667 0.3206 0.0000 ( 62870 PWs)   bands (ev):

   -66.1057 -66.1054 -66.1049 -66.1048 -66.1047 -66.1046 -66.1040 -66.1038
   -30.5305 -30.5261 -30.5260 -30.5218 -30.4995 -30.4945 -30.4942 -30.4893
   -30.4533 -30.4520 -30.4468 -30.4461 -30.4413 -30.4389 -30.4371 -30.4352
   -30.3613 -30.3595 -30.3582 -30.3578 -30.3571 -30.3558 -30.3510 -30.3509
   -20.2537 -20.2534 -20.2532 -20.2529 -20.2516 -20.2514 -20.2510 -20.2509
   -20.2485 -20.2483 -20.2481 -20.2480 -20.2478 -20.2477 -20.2473 -20.2472
   -20.2437 -20.2434 -20.2432 -20.2430 -20.2428 -20.2419 -20.2415 -20.2415
   -20.2407 -20.2404 -20.2399 -20.2395 -20.2392 -20.2391 -20.2387 -20.2385
   -20.2291 -20.2290 -20.2285 -20.2285 -20.2283 -20.2283 -20.2278 -20.2277
   -20.1995 -20.1994 -20.1981 -20.1981 -20.1974 -20.1974 -20.1961 -20.1961
   -20.1938 -20.1938 -20.1930 -20.1930 -20.1926 -20.1926 -20.1913 -20.1913
    -9.8601  -9.7073  -9.5017  -9.4112  -9.3663  -9.2582  -9.0529  -9.0423
    -8.9471  -8.8165  -8.8113  -8.7949  -8.2972  -8.2576  -8.2509  -8.2338
    -7.9351  -7.9192  -7.8369  -7.8222  -7.8061  -7.7910  -7.7138  -7.6999
     1.2143   1.2156   1.2333   1.2356   1.4999   1.5104   1.6567   1.7016
     2.2434   2.3550   2.3779   2.4937   2.5151   2.5399   2.7930   2.8559
     2.9080   2.9735   3.5504   3.5873   3.6406   3.6882   4.0534   4.3163
     4.3417   4.3976   4.4310   4.6264   4.6369   4.7101   4.7538   4.7816
     4.9084   4.9493   5.0653   5.2096   5.2693   5.3679   5.4842   5.5754
     5.6313   5.7003   5.7575   5.8271   6.0162   6.0175   6.0660   6.0716
     6.1238   6.3154   6.3637   6.4589   6.5029   6.7186   6.7237   6.8077
     6.8596   6.8856   6.9650   6.9878   6.9904   7.0077   7.0660   7.0671
     7.1056   7.1129   7.7210   7.7413   7.7674   7.7822   7.8764   7.8792
     9.6236   9.6254  10.4910  10.5352  10.6972  10.7233  11.7382  11.8543
    11.8920  11.9672  12.2890  12.2971  12.4365  12.4562  12.8835  12.9754
    13.1574  13.2480  13.2910  13.2999  13.5774  13.5842  13.7226  13.7406
    14.9350  15.1865  15.2720  15.3177  15.4516  15.6008  15.8054  16.0559
    16.1741  16.9230  17.1705  17.2666  17.4321  17.7675

          k = 0.1667 0.3206 0.1665 ( 62840 PWs)   bands (ev):

   -66.1056 -66.1054 -66.1049 -66.1048 -66.1046 -66.1046 -66.1041 -66.1039
   -30.5302 -30.5264 -30.5258 -30.5221 -30.4991 -30.4948 -30.4939 -30.4896
   -30.4482 -30.4475 -30.4411 -30.4407 -30.4390 -30.4386 -30.4356 -30.4355
   -30.3637 -30.3626 -30.3622 -30.3610 -30.3602 -30.3586 -30.3549 -30.3536
   -20.2536 -20.2534 -20.2532 -20.2529 -20.2516 -20.2514 -20.2511 -20.2509
   -20.2485 -20.2483 -20.2481 -20.2480 -20.2478 -20.2477 -20.2473 -20.2472
   -20.2436 -20.2433 -20.2430 -20.2428 -20.2428 -20.2420 -20.2415 -20.2414
   -20.2408 -20.2406 -20.2400 -20.2395 -20.2394 -20.2391 -20.2388 -20.2386
   -20.2290 -20.2289 -20.2285 -20.2285 -20.2283 -20.2282 -20.2278 -20.2278
   -20.1991 -20.1991 -20.1978 -20.1978 -20.1973 -20.1973 -20.1962 -20.1962
   -20.1942 -20.1942 -20.1932 -20.1932 -20.1927 -20.1927 -20.1914 -20.1914
    -9.8081  -9.6496  -9.4280  -9.4258  -9.2781  -9.2708  -9.0160  -9.0071
    -8.9553  -8.8050  -8.7993  -8.7982  -8.2989  -8.2579  -8.2541  -8.2392
    -7.9331  -7.9315  -7.9130  -7.9120  -7.8625  -7.8476  -7.8209  -7.8073
     1.3954   1.3984   1.4896   1.4974   1.5050   1.5151   1.7237   1.7826
     2.2461   2.3536   2.3675   2.5069   2.5836   2.6350   2.8642   2.8864
     2.9674   2.9957   3.5895   3.6190   3.6463   3.6941   4.0434   4.3440
     4.3661   4.3767   4.3952   4.4471   4.4800   4.6049   4.6389   4.7051
     4.7325   4.7573   4.9918   5.0337   5.2694   5.2743   5.2890   5.3398
     5.6027   5.6131   5.6799   5.6870   5.7768   5.7803   6.2509   6.2853
     6.3009   6.3782   6.4487   6.5426   6.6296   6.6574   6.7032   6.7251
     6.8109   6.8247   6.9085   6.9163   6.9991   7.0212   7.0313   7.0525
     7.1693   7.1861   7.7197   7.7301   7.7404   7.7616   7.8572   7.8641
     9.8730   9.8802  10.6489  10.6833  10.7257  10.7457  11.8191  11.8811
    11.9491  11.9653  12.3202  12.3340  12.3458  12.3584  12.9034  12.9620
    13.0237  13.0817  13.2359  13.3131  13.5233  13.5623  13.5844  13.6602
    15.0934  15.3644  15.4068  15.4296  15.4663  15.6584  16.1301  16.1471
    16.1811  16.8900  17.2395  17.2863  17.3391  17.4935

          k = 0.1667 0.3206 0.3330 ( 62813 PWs)   bands (ev):

   -66.1055 -66.1052 -66.1050 -66.1048 -66.1047 -66.1045 -66.1043 -66.1040
   -30.5295 -30.5272 -30.5251 -30.5230 -30.4982 -30.4957 -30.4930 -30.4905
   -30.4431 -30.4409 -30.4399 -30.4368 -30.4262 -30.4259 -30.4233 -30.4225
   -30.3809 -30.3796 -30.3777 -30.3764 -30.3599 -30.3580 -30.3575 -30.3555
   -20.2536 -20.2533 -20.2533 -20.2530 -20.2515 -20.2513 -20.2512 -20.2510
   -20.2484 -20.2484 -20.2481 -20.2480 -20.2478 -20.2478 -20.2473 -20.2472
   -20.2433 -20.2429 -20.2428 -20.2425 -20.2423 -20.2421 -20.2413 -20.2412
   -20.2411 -20.2410 -20.2404 -20.2399 -20.2394 -20.2390 -20.2389 -20.2389
   -20.2289 -20.2288 -20.2286 -20.2286 -20.2282 -20.2281 -20.2279 -20.2278
   -20.1983 -20.1983 -20.1971 -20.1971 -20.1967 -20.1967 -20.1965 -20.1965
   -20.1952 -20.1952 -20.1941 -20.1941 -20.1925 -20.1925 -20.1917 -20.1917
    -9.6838  -9.5143  -9.4721  -9.3109  -9.2421  -9.0281  -8.9866  -8.9065
    -8.8779  -8.8093  -8.7678  -8.7252  -8.3512  -8.3170  -8.2541  -8.2447
    -8.2335  -8.1762  -8.1678  -8.1130  -7.9075  -7.8922  -7.8548  -7.8404
     1.5134   1.5240   1.5269   1.5339   2.0992   2.1656   2.2011   2.2583
     2.3461   2.3670   2.4135   2.5988   2.8436   2.8755   2.9061   2.9620
     3.1261   3.2132   3.6016   3.6338   3.6465   3.7352   3.8245   3.8865
     4.0260   4.1499   4.2340   4.3055   4.3414   4.4793   4.4806   4.5883
     4.6001   4.6806   4.6970   4.7537   4.8019   4.8700   4.9964   5.1064
     5.2326   5.2526   5.3181   5.5547   5.7079   5.7848   6.0454   6.0618
     6.4424   6.4986   6.5505   6.6449   6.6844   6.7108   6.8476   6.8623
     6.9028   6.9312   6.9552   6.9781   7.0362   7.0998   7.1096   7.1527
     7.2029   7.2376   7.6439   7.6526   7.7043   7.7388   7.7623   7.7953
    10.4698  10.4877  10.7079  10.7408  11.1512  11.1911  11.8301  11.8913
    11.9198  12.0199  12.1078  12.1863  12.4741  12.5233  12.5505  12.5636
    12.8717  12.9902  13.0050  13.1865  13.2186  13.3015  13.5545  13.5880
    15.2767  15.4024  15.6826  15.8192  15.9949  16.0088  16.0999  16.5982
    16.6955  16.7725  17.0141  17.4524  17.5529  17.5988

          k = 0.1667 0.3206-0.4994 ( 62804 PWs)   bands (ev):

   -66.1053 -66.1052 -66.1050 -66.1050 -66.1045 -66.1045 -66.1042 -66.1042
   -30.5284 -30.5284 -30.5241 -30.5241 -30.4969 -30.4969 -30.4917 -30.4917
   -30.4413 -30.4413 -30.4383 -30.4383 -30.4040 -30.4040 -30.4030 -30.4030
   -30.4006 -30.4006 -30.3994 -30.3994 -30.3588 -30.3588 -30.3569 -30.3569
   -20.2535 -20.2534 -20.2532 -20.2532 -20.2514 -20.2513 -20.2512 -20.2512
   -20.2484 -20.2484 -20.2481 -20.2481 -20.2478 -20.2478 -20.2473 -20.2473
   -20.2431 -20.2431 -20.2424 -20.2424 -20.2418 -20.2418 -20.2417 -20.2417
   -20.2409 -20.2409 -20.2405 -20.2405 -20.2392 -20.2392 -20.2389 -20.2389
   -20.2287 -20.2287 -20.2287 -20.2287 -20.2280 -20.2280 -20.2280 -20.2280
   -20.1972 -20.1972 -20.1972 -20.1972 -20.1963 -20.1963 -20.1963 -20.1963
   -20.1954 -20.1954 -20.1954 -20.1954 -20.1921 -20.1921 -20.1921 -20.1921
    -9.5577  -9.5577  -9.3881  -9.3881  -9.0675  -9.0675  -8.8311  -8.8311
    -8.6691  -8.6690  -8.6196  -8.6196  -8.5666  -8.5665  -8.5125  -8.5124
    -8.2492  -8.2492  -8.2157  -8.2157  -7.8813  -7.8813  -7.8664  -7.8664
     1.5264   1.5264   1.5385   1.5385   2.2479   2.2479   2.3554   2.3554
     2.8839   2.8839   3.0424   3.0424   3.0805   3.0805   3.1821   3.1821
     3.2233   3.2233   3.3795   3.3795   3.4328   3.4329   3.6463   3.6464
     3.9221   3.9221   3.9709   3.9709   3.9995   3.9995   4.2519   4.2519
     4.6263   4.6263   4.7353   4.7353   4.8875   4.8875   4.8925   4.8925
     5.0248   5.0248   5.4133   5.4133   5.7975   5.7975   5.8351   5.8351
     6.5568   6.5568   6.6643   6.6643   6.7233   6.7233   6.7552   6.7552
     6.9389   6.9389   6.9807   6.9807   7.0905   7.0905   7.4343   7.4343
     7.4681   7.4681   7.4961   7.4962   7.5401   7.5401   7.7499   7.7499
    10.6934  10.6934  11.2211  11.2211  11.2691  11.2691  11.7108  11.7108
    11.8515  11.8515  12.0701  12.0701  12.5167  12.5167  12.5542  12.5542
    12.7925  12.7926  12.8664  12.8664  13.1336  13.1336  13.5573  13.5573
    15.3608  15.3608  15.9090  15.9090  16.1980  16.1980  16.5102  16.5102
    16.9184  16.9184  17.1230  17.1230  17.7086  17.7086

          k = 0.1667-0.4809 0.0000 ( 62844 PWs)   bands (ev):

   -66.1056 -66.1056 -66.1048 -66.1048 -66.1047 -66.1047 -66.1039 -66.1039
   -30.5148 -30.5148 -30.5102 -30.5102 -30.5100 -30.5100 -30.5056 -30.5056
   -30.4527 -30.4527 -30.4466 -30.4466 -30.4398 -30.4398 -30.4369 -30.4369
   -30.3604 -30.3604 -30.3579 -30.3579 -30.3565 -30.3565 -30.3511 -30.3511
   -20.2526 -20.2526 -20.2523 -20.2523 -20.2520 -20.2520 -20.2518 -20.2518
   -20.2482 -20.2482 -20.2481 -20.2481 -20.2478 -20.2478 -20.2477 -20.2477
   -20.2435 -20.2435 -20.2431 -20.2431 -20.2424 -20.2424 -20.2416 -20.2416
   -20.2405 -20.2405 -20.2395 -20.2395 -20.2393 -20.2393 -20.2387 -20.2387
   -20.2290 -20.2290 -20.2285 -20.2285 -20.2283 -20.2283 -20.2278 -20.2277
   -20.1994 -20.1994 -20.1981 -20.1981 -20.1974 -20.1974 -20.1961 -20.1961
   -20.1938 -20.1938 -20.1930 -20.1930 -20.1926 -20.1926 -20.1913 -20.1913
    -9.7722  -9.7722  -9.4175  -9.4175  -9.3143  -9.3143  -9.0473  -9.0473
    -8.6279  -8.6279  -8.5726  -8.5726  -8.5616  -8.5615  -8.5586  -8.5586
    -7.9277  -7.9277  -7.8298  -7.8298  -7.7986  -7.7986  -7.7070  -7.7070
     1.2152   1.2152   1.2358   1.2358   1.5087   1.5087   1.6927   1.6927
     2.5166   2.5166   3.0230   3.0230   3.1028   3.1028   3.1561   3.1562
     3.2154   3.2154   3.2229   3.2229   3.4092   3.4092   3.4697   3.4697
     3.5945   3.5945   4.3616   4.3616   4.6947   4.6947   4.8927   4.8927
     4.9902   4.9902   5.0742   5.0742   5.2134   5.2134   5.4348   5.4348
     5.6749   5.6749   5.7184   5.7184   6.0499   6.0499   6.0742   6.0742
     6.2769   6.2769   6.3378   6.3378   6.5812   6.5812   6.7743   6.7743
     6.9076   6.9076   7.0261   7.0261   7.0500   7.0500   7.3905   7.3905
     7.4166   7.4166   7.4257   7.4257   7.4466   7.4466   7.8761   7.8761
     9.6262   9.6262  11.1383  11.1383  11.1999  11.1999  11.3041  11.3041
    11.3703  11.3703  12.2953  12.2953  12.4479  12.4479  12.9996  12.9996
    13.2601  13.2601  13.3913  13.3913  13.4605  13.4605  13.4860  13.4860
    15.2658  15.2658  15.5006  15.5006  15.5931  15.5931  15.9166  15.9166
    16.5243  16.5243  17.6688  17.6689  17.7205  17.7205

          k = 0.1667-0.4809 0.1665 ( 62812 PWs)   bands (ev):

   -66.1055 -66.1055 -66.1048 -66.1048 -66.1047 -66.1047 -66.1040 -66.1040
   -30.5145 -30.5145 -30.5105 -30.5105 -30.5098 -30.5098 -30.5059 -30.5059
   -30.4478 -30.4478 -30.4409 -30.4409 -30.4382 -30.4382 -30.4368 -30.4368
   -30.3632 -30.3631 -30.3616 -30.3615 -30.3595 -30.3594 -30.3543 -30.3543
   -20.2525 -20.2525 -20.2523 -20.2523 -20.2520 -20.2520 -20.2518 -20.2518
   -20.2482 -20.2482 -20.2481 -20.2481 -20.2478 -20.2478 -20.2477 -20.2477
   -20.2434 -20.2434 -20.2429 -20.2429 -20.2424 -20.2424 -20.2415 -20.2415
   -20.2407 -20.2407 -20.2397 -20.2397 -20.2393 -20.2393 -20.2388 -20.2388
   -20.2290 -20.2290 -20.2285 -20.2285 -20.2283 -20.2283 -20.2278 -20.2278
   -20.1991 -20.1991 -20.1978 -20.1978 -20.1973 -20.1973 -20.1962 -20.1962
   -20.1942 -20.1942 -20.1932 -20.1932 -20.1927 -20.1927 -20.1914 -20.1914
    -9.7165  -9.7165  -9.3333  -9.3331  -9.3280  -9.3280  -9.0115  -9.0114
    -8.6349  -8.6348  -8.5680  -8.5674  -8.5640  -8.5637  -8.5570  -8.5566
    -7.9293  -7.9289  -7.9166  -7.9165  -7.8556  -7.8554  -7.8143  -7.8142
     1.3963   1.3973   1.4963   1.4974   1.5132   1.5139   1.7713   1.7718
     2.6054   2.6060   3.0374   3.0385   3.0974   3.1103   3.1599   3.1683
[...]
    11.9878  11.9878  11.9878  11.9878  12.1023  12.1024  12.1024  12.1024
    12.9265  12.9265  12.9265  12.9265  13.1004  13.1004  13.1004  13.1004
    15.3522  15.3522  15.3522  15.3522  16.6103  16.6104  16.6104  16.6104
    17.5966  17.5966  17.5966  17.5966  17.8513  17.8513

          k =-0.5000 0.3206 0.0000 ( 62802 PWs)   bands (ev):

   -66.1053 -66.1053 -66.1051 -66.1051 -66.1044 -66.1044 -66.1042 -66.1042
   -30.5283 -30.5283 -30.5240 -30.5240 -30.4966 -30.4966 -30.4917 -30.4917
   -30.4493 -30.4493 -30.4485 -30.4485 -30.4022 -30.4021 -30.3999 -30.3999
   -30.3978 -30.3978 -30.3959 -30.3959 -30.3551 -30.3551 -30.3539 -30.3539
   -20.2536 -20.2535 -20.2530 -20.2530 -20.2515 -20.2515 -20.2509 -20.2509
   -20.2483 -20.2483 -20.2482 -20.2482 -20.2476 -20.2476 -20.2475 -20.2475
   -20.2433 -20.2433 -20.2432 -20.2432 -20.2416 -20.2416 -20.2410 -20.2410
   -20.2405 -20.2405 -20.2403 -20.2403 -20.2395 -20.2395 -20.2390 -20.2390
   -20.2287 -20.2287 -20.2286 -20.2286 -20.2281 -20.2281 -20.2281 -20.2281
   -20.1988 -20.1988 -20.1988 -20.1988 -20.1953 -20.1953 -20.1953 -20.1953
   -20.1940 -20.1940 -20.1940 -20.1940 -20.1930 -20.1930 -20.1930 -20.1930
    -9.6286  -9.6286  -9.4768  -9.4768  -9.0567  -9.0567  -8.8557  -8.8557
    -8.6473  -8.6472  -8.6247  -8.6247  -8.5687  -8.5687  -8.5049  -8.5048
    -8.2483  -8.2483  -8.2113  -8.2113  -7.7604  -7.7604  -7.7460  -7.7460
     1.2535   1.2535   1.2582   1.2582   2.2432   2.2432   2.3641   2.3641
     2.8336   2.8336   3.0039   3.0039   3.0633   3.0633   3.1817   3.1817
     3.2147   3.2147   3.3277   3.3278   3.3785   3.3786   3.5920   3.5920
     3.8983   3.8984   3.9316   3.9316   4.0810   4.0810   4.2728   4.2728
     4.7262   4.7262   4.7928   4.7928   4.9961   4.9961   5.1365   5.1365
     5.3135   5.3135   5.6533   5.6533   6.1840   6.1840   6.2219   6.2219
     6.3640   6.3640   6.4057   6.4057   6.4579   6.4579   6.6585   6.6585
     6.9490   6.9490   6.9777   6.9777   7.0172   7.0172   7.4296   7.4296
     7.4478   7.4478   7.5043   7.5044   7.5374   7.5374   7.7842   7.7843
    10.5130  10.5130  11.1455  11.1455  11.1804  11.1805  11.6082  11.6082
    11.8473  11.8473  12.0389  12.0389  12.5674  12.5674  12.5857  12.5857
    12.8826  12.8826  12.9590  12.9590  13.2795  13.2795  13.7266  13.7267
    15.1143  15.1143  15.5922  15.5922  16.1246  16.1246  16.5149  16.5149
    16.8122  16.8122  17.0910  17.0910  17.8507  17.8509

          k =-0.5000 0.3206 0.1665 ( 62830 PWs)   bands (ev):

   -66.1052 -66.1052 -66.1050 -66.1050 -66.1045 -66.1045 -66.1043 -66.1042
   -30.5280 -30.5280 -30.5243 -30.5243 -30.4963 -30.4963 -30.4920 -30.4920
   -30.4433 -30.4433 -30.4423 -30.4423 -30.4018 -30.4018 -30.3997 -30.3997
   -30.3981 -30.3981 -30.3963 -30.3963 -30.3613 -30.3613 -30.3601 -30.3601
   -20.2535 -20.2535 -20.2531 -20.2531 -20.2515 -20.2515 -20.2510 -20.2510
   -20.2483 -20.2483 -20.2482 -20.2482 -20.2476 -20.2476 -20.2475 -20.2475
   -20.2431 -20.2431 -20.2431 -20.2431 -20.2417 -20.2417 -20.2411 -20.2411
   -20.2405 -20.2405 -20.2403 -20.2403 -20.2396 -20.2396 -20.2391 -20.2391
   -20.2286 -20.2286 -20.2286 -20.2286 -20.2281 -20.2281 -20.2281 -20.2281
   -20.1984 -20.1984 -20.1984 -20.1984 -20.1953 -20.1952 -20.1952 -20.1952
   -20.1942 -20.1941 -20.1941 -20.1941 -20.1933 -20.1933 -20.1933 -20.1933
    -9.5601  -9.5601  -9.3942  -9.3942  -9.0693  -9.0693  -8.8341  -8.8341
    -8.6640  -8.6640  -8.6159  -8.6159  -8.5600  -8.5599  -8.5085  -8.5085
    -8.2457  -8.2457  -8.2159  -8.2159  -7.8845  -7.8844  -7.8699  -7.8699
     1.5111   1.5111   1.5214   1.5214   2.2465   2.2465   2.3522   2.3522
     2.9126   2.9126   3.0209   3.0210   3.0644   3.0645   3.1918   3.1918
     3.2275   3.2275   3.4026   3.4026   3.4333   3.4333   3.6385   3.6385
     3.8949   3.8950   3.9382   3.9382   4.0777   4.0777   4.2758   4.2758
     4.6114   4.6114   4.7141   4.7141   4.8865   4.8865   4.8979   4.8979
     5.0277   5.0277   5.4128   5.4128   5.7931   5.7931   5.8309   5.8309
     6.5585   6.5585   6.6770   6.6770   6.7299   6.7299   6.7585   6.7585
     6.9276   6.9277   6.9844   6.9844   7.0821   7.0821   7.4265   7.4265
     7.4560   7.4560   7.5159   7.5159   7.5464   7.5464   7.7601   7.7601
    10.6797  10.6797  11.2224  11.2224  11.2674  11.2674  11.6565  11.6565
    11.8595  11.8595  12.0780  12.0780  12.5528  12.5528  12.5685  12.5685
    12.7980  12.7980  12.8937  12.8937  13.1157  13.1157  13.5753  13.5753
    15.3621  15.3621  15.8922  15.8922  16.1951  16.1951  16.5052  16.5052
    16.8698  16.8698  17.1338  17.1338  17.6914  17.6914

          k =-0.5000 0.3206 0.3330 ( 62780 PWs)   bands (ev):

   -66.1051 -66.1051 -66.1048 -66.1048 -66.1046 -66.1046 -66.1044 -66.1044
   -30.5273 -30.5273 -30.5251 -30.5251 -30.4953 -30.4953 -30.4929 -30.4929
   -30.4268 -30.4268 -30.4255 -30.4255 -30.4009 -30.4009 -30.3999 -30.3999
   -30.3979 -30.3979 -30.3975 -30.3975 -30.3779 -30.3779 -30.3770 -30.3770
   -20.2535 -20.2534 -20.2532 -20.2532 -20.2514 -20.2514 -20.2511 -20.2511
   -20.2483 -20.2483 -20.2482 -20.2482 -20.2476 -20.2476 -20.2475 -20.2475
   -20.2427 -20.2427 -20.2426 -20.2426 -20.2418 -20.2418 -20.2414 -20.2414
   -20.2403 -20.2403 -20.2402 -20.2402 -20.2398 -20.2398 -20.2395 -20.2395
   -20.2285 -20.2285 -20.2284 -20.2284 -20.2282 -20.2282 -20.2282 -20.2282
   -20.1975 -20.1975 -20.1975 -20.1975 -20.1953 -20.1953 -20.1952 -20.1952
   -20.1946 -20.1946 -20.1946 -20.1946 -20.1938 -20.1938 -20.1938 -20.1938
    -9.3879  -9.3879  -9.1679  -9.1679  -9.1131  -9.1131  -8.7559  -8.7559
    -8.7183  -8.7183  -8.5871  -8.5871  -8.5389  -8.5389  -8.5162  -8.5161
    -8.2572  -8.2572  -8.2313  -8.2313  -8.1837  -8.1837  -8.1430  -8.1430
     2.1210   2.1210   2.2213   2.2213   2.2574   2.2574   2.4028   2.4028
     3.0172   3.0173   3.0621   3.0621   3.1214   3.1214   3.2014   3.2014
     3.2672   3.2672   3.5782   3.5782   3.6404   3.6404   3.7404   3.7404
     3.8741   3.8742   3.9674   3.9674   4.0683   4.0683   4.1162   4.1162
     4.2360   4.2360   4.3957   4.3957   4.4984   4.4984   4.7330   4.7330
     4.8388   4.8388   4.9188   4.9188   4.9647   4.9647   5.2280   5.2280
     6.7683   6.7683   6.8271   6.8272   6.8918   6.8918   6.9380   6.9380
     7.0624   7.0624   7.1756   7.1756   7.2783   7.2783   7.4099   7.4099
     7.4588   7.4588   7.5336   7.5336   7.5496   7.5496   7.6910   7.6911
    11.1278  11.1278  11.4580  11.4580  11.5404  11.5404  11.7370  11.7370
    11.9110  11.9110  12.2345  12.2345  12.3235  12.3235  12.4063  12.4063
    12.6289  12.6289  12.7188  12.7188  12.7424  12.7424  13.1833  13.1833
    15.9462  15.9462  16.4010  16.4010  16.4420  16.4420  16.7049  16.7049
    17.0939  17.0939  17.2105  17.2105  17.4202  17.4203

          k =-0.5000 0.3206-0.4994 ( 62756 PWs)   bands (ev):

   -66.1049 -66.1049 -66.1049 -66.1049 -66.1046 -66.1046 -66.1046 -66.1046
   -30.5262 -30.5262 -30.5262 -30.5262 -30.4941 -30.4941 -30.4941 -30.4941
   -30.4066 -30.4066 -30.4066 -30.4066 -30.4044 -30.4044 -30.4044 -30.4043
   -30.3968 -30.3968 -30.3968 -30.3968 -30.3941 -30.3941 -30.3941 -30.3941
   -20.2533 -20.2533 -20.2533 -20.2533 -20.2513 -20.2513 -20.2513 -20.2513
   -20.2483 -20.2482 -20.2482 -20.2482 -20.2476 -20.2476 -20.2475 -20.2475
   -20.2423 -20.2423 -20.2423 -20.2423 -20.2419 -20.2419 -20.2419 -20.2419
   -20.2402 -20.2402 -20.2402 -20.2402 -20.2399 -20.2399 -20.2399 -20.2399
   -20.2284 -20.2284 -20.2284 -20.2284 -20.2283 -20.2283 -20.2283 -20.2283
   -20.1964 -20.1964 -20.1964 -20.1964 -20.1962 -20.1962 -20.1962 -20.1962
   -20.1944 -20.1944 -20.1944 -20.1944 -20.1943 -20.1943 -20.1943 -20.1942
    -9.2132  -9.2132  -9.2132  -9.2132  -8.8873  -8.8873  -8.8873  -8.8873
    -8.5983  -8.5983  -8.5983  -8.5982  -8.4714  -8.4714  -8.4714  -8.4714
    -8.4544  -8.4544  -8.4544  -8.4543  -8.2188  -8.2188  -8.2188  -8.2188
     2.2557   2.2557   2.2558   2.2558   2.9676   2.9676   2.9676   2.9676
     3.0562   3.0562   3.0562   3.0562   3.1709   3.1709   3.1709   3.1709
     3.2685   3.2685   3.2685   3.2685   3.8136   3.8136   3.8136   3.8136
     3.8992   3.8992   3.8992   3.8992   3.9764   3.9764   3.9764   3.9764
     4.2139   4.2139   4.2139   4.2139   4.2764   4.2764   4.2764   4.2764
     4.6018   4.6018   4.6018   4.6018   4.9473   4.9473   4.9473   4.9473
     6.8367   6.8367   6.8367   6.8367   6.9246   6.9246   6.9246   6.9246
     7.3055   7.3055   7.3055   7.3055   7.3777   7.3777   7.3777   7.3777
     7.4836   7.4836   7.4836   7.4836   7.5980   7.5980   7.5980   7.5980
    11.6699  11.6699  11.6699  11.6699  11.7385  11.7385  11.7385  11.7385
    12.0046  12.0046  12.0046  12.0046  12.1578  12.1578  12.1578  12.1578
    12.5836  12.5836  12.5836  12.5836  12.7704  12.7704  12.7704  12.7704
    16.3094  16.3094  16.3094  16.3094  16.7907  16.7907  16.7907  16.7907
    17.3438  17.3438  17.3438  17.3438  17.8606  17.8606

          k =-0.5000-0.4809 0.0000 ( 62816 PWs)   bands (ev):

   -66.1052 -66.1052 -66.1052 -66.1052 -66.1043 -66.1043 -66.1043 -66.1043
   -30.5125 -30.5125 -30.5121 -30.5121 -30.5080 -30.5080 -30.5076 -30.5076
   -30.4491 -30.4491 -30.4490 -30.4490 -30.4013 -30.4013 -30.4008 -30.4008
   -30.3972 -30.3972 -30.3967 -30.3967 -30.3545 -30.3545 -30.3545 -30.3545
   -20.2525 -20.2525 -20.2524 -20.2524 -20.2519 -20.2519 -20.2519 -20.2519
   -20.2481 -20.2481 -20.2480 -20.2480 -20.2480 -20.2480 -20.2479 -20.2479
   -20.2432 -20.2432 -20.2432 -20.2432 -20.2413 -20.2413 -20.2413 -20.2413
   -20.2405 -20.2405 -20.2405 -20.2405 -20.2393 -20.2393 -20.2393 -20.2393
   -20.2286 -20.2286 -20.2286 -20.2286 -20.2281 -20.2281 -20.2281 -20.2281
   -20.1988 -20.1988 -20.1988 -20.1988 -20.1953 -20.1953 -20.1953 -20.1953
   -20.1940 -20.1940 -20.1940 -20.1940 -20.1930 -20.1930 -20.1930 -20.1930
    -9.5389  -9.5389  -9.5355  -9.5355  -8.8060  -8.8060  -8.7917  -8.7917
    -8.6961  -8.6961  -8.6844  -8.6844  -8.5015  -8.5015  -8.4760  -8.4760
    -8.4421  -8.4421  -8.4185  -8.4185  -7.7533  -7.7533  -7.7532  -7.7532
     1.2557   1.2557   1.2591   1.2591   2.9063   2.9063   2.9912   2.9912
     3.0561   3.0561   3.0564   3.0564   3.1263   3.1263   3.1425   3.1425
     3.2612   3.2612   3.2784   3.2784   3.3411   3.3411   3.4103   3.4103
     3.4208   3.4208   3.6540   3.6540   4.1506   4.1506   4.2144   4.2144
     4.2323   4.2323   4.3169   4.3169   5.0577   5.0577   5.0885   5.0885
     5.3980   5.3980   5.4413   5.4413   6.2157   6.2157   6.2222   6.2222
     6.4388   6.4388   6.4476   6.4476   6.4937   6.4938   6.5305   6.5305
     7.1936   7.1937   7.2074   7.2074   7.2334   7.2334   7.3489   7.3490
     7.3562   7.3563   7.4311   7.4311   7.5491   7.5491   7.5527   7.5527
    11.1045  11.1045  11.1300  11.1300  11.2021  11.2021  11.2305  11.2305
    12.1330  12.1330  12.1666  12.1666  12.2427  12.2427  12.2514  12.2514
    12.9018  12.9018  12.9073  12.9073  13.4464  13.4464  13.4741  13.4741
    15.4312  15.4312  15.4332  15.4332  16.6166  16.6166  16.6684  16.6684
    17.3798  17.3799  17.4182  17.4182  17.5237  17.5237

          k =-0.5000-0.4809 0.1665 ( 62860 PWs)   bands (ev):

   -66.1051 -66.1051 -66.1051 -66.1051 -66.1044 -66.1044 -66.1044 -66.1044
   -30.5122 -30.5122 -30.5119 -30.5119 -30.5083 -30.5083 -30.5079 -30.5079
   -30.4429 -30.4429 -30.4429 -30.4429 -30.4009 -30.4009 -30.4005 -30.4005
   -30.3975 -30.3975 -30.3971 -30.3971 -30.3608 -30.3608 -30.3608 -30.3608
   -20.2524 -20.2524 -20.2524 -20.2524 -20.2520 -20.2520 -20.2519 -20.2519
   -20.2481 -20.2481 -20.2480 -20.2480 -20.2480 -20.2480 -20.2479 -20.2479
   -20.2431 -20.2431 -20.2430 -20.2430 -20.2414 -20.2414 -20.2413 -20.2413
   -20.2405 -20.2405 -20.2404 -20.2404 -20.2394 -20.2394 -20.2394 -20.2394
   -20.2286 -20.2286 -20.2286 -20.2286 -20.2281 -20.2281 -20.2281 -20.2281
   -20.1984 -20.1984 -20.1984 -20.1984 -20.1952 -20.1952 -20.1952 -20.1952
   -20.1942 -20.1941 -20.1941 -20.1941 -20.1933 -20.1933 -20.1933 -20.1933
    -9.4611  -9.4611  -9.4573  -9.4573  -8.8218  -8.8217  -8.8074  -8.8074
    -8.6811  -8.6811  -8.6686  -8.6686  -8.4988  -8.4988  -8.4746  -8.4746
    -8.4433  -8.4433  -8.4212  -8.4211  -7.8775  -7.8775  -7.8773  -7.8773
     1.5177   1.5177   1.5219   1.5219   2.9149   2.9149   3.0021   3.0021
     3.0387   3.0387   3.0599   3.0600   3.1403   3.1403   3.1675   3.1675
     3.2619   3.2619   3.3627   3.3627   3.3940   3.3940   3.4529   3.4529
     3.4717   3.4717   3.6816   3.6816   4.1558   4.1558   4.2079   4.2079
     4.2302   4.2302   4.3089   4.3089   4.7627   4.7627   4.8865   4.8865
     5.0706   5.0706   5.1857   5.1857   5.7956   5.7956   5.8124   5.8124
     6.6329   6.6329   6.6888   6.6888   6.7502   6.7502   6.7880   6.7880
     7.1840   7.1840   7.2013   7.2013   7.2683   7.2683   7.3328   7.3328
     7.3569   7.3569   7.4355   7.4355   7.5412   7.5412   7.5717   7.5717
    11.1758  11.1758  11.2307  11.2307  11.2882  11.2882  11.3698  11.3698
    12.1390  12.1390  12.1675  12.1675  12.2433  12.2433  12.2546  12.2546
    12.7784  12.7784  12.8519  12.8519  13.2694  13.2694  13.3275  13.3275
    15.7165  15.7165  15.7370  15.7370  16.6835  16.6835  16.7303  16.7303
    17.3700  17.3700  17.4250  17.4250  17.5175  17.5175

          k =-0.5000-0.4809 0.3330 ( 62796 PWs)   bands (ev):

   -66.1050 -66.1050 -66.1050 -66.1050 -66.1045 -66.1045 -66.1045 -66.1045
   -30.5114 -30.5114 -30.5111 -30.5111 -30.5091 -30.5091 -30.5088 -30.5088
   -30.4262 -30.4262 -30.4262 -30.4262 -30.4002 -30.4001 -30.3998 -30.3998
   -30.3985 -30.3985 -30.3980 -30.3980 -30.3775 -30.3775 -30.3775 -30.3775
   -20.2524 -20.2524 -20.2523 -20.2523 -20.2521 -20.2521 -20.2520 -20.2520
   -20.2480 -20.2480 -20.2480 -20.2480 -20.2480 -20.2480 -20.2479 -20.2479
   -20.2426 -20.2426 -20.2426 -20.2426 -20.2416 -20.2416 -20.2416 -20.2416
   -20.2404 -20.2404 -20.2403 -20.2403 -20.2397 -20.2397 -20.2397 -20.2397
   -20.2285 -20.2285 -20.2285 -20.2285 -20.2282 -20.2282 -20.2282 -20.2282
   -20.1975 -20.1975 -20.1975 -20.1975 -20.1953 -20.1953 -20.1952 -20.1952
   -20.1946 -20.1946 -20.1946 -20.1946 -20.1938 -20.1938 -20.1938 -20.1938
    -9.2540  -9.2540  -9.2482  -9.2482  -8.8777  -8.8777  -8.8638  -8.8638
    -8.6252  -8.6252  -8.6129  -8.6129  -8.4917  -8.4917  -8.4739  -8.4739
    -8.4435  -8.4435  -8.4282  -8.4282  -8.1751  -8.1751  -8.1742  -8.1742
     2.2089   2.2089   2.2176   2.2176   2.9347   2.9347   2.9835   2.9836
     3.0454   3.0454   3.0667   3.0667   3.1670   3.1670   3.1837   3.1837
     3.3322   3.3322   3.3733   3.3734   3.5453   3.5454   3.5867   3.5867
     3.7087   3.7087   3.8051   3.8051   4.1458   4.1458   4.1559   4.1559
     4.1961   4.1961   4.2618   4.2619   4.3488   4.3488   4.4334   4.4334
     4.5736   4.5736   4.6904   4.6904   4.9794   4.9794   4.9992   4.9992
     6.9038   6.9038   6.9833   6.9833   7.0721   7.0721   7.0867   7.0867
     7.1783   7.1783   7.2272   7.2272   7.2847   7.2848   7.3089   7.3090
     7.3874   7.3874   7.4624   7.4624   7.5369   7.5369   7.5738   7.5738
    11.4295  11.4295  11.4804  11.4804  11.6200  11.6200  11.7193  11.7193
    12.1264  12.1264  12.1790  12.1790  12.2102  12.2102  12.2696  12.2696
    12.4371  12.4371  12.5770  12.5770  12.8279  12.8279  12.9174  12.9174
    16.4692  16.4692  16.5333  16.5333  16.8970  16.8970  16.9112  16.9112
    17.2848  17.2848  17.4072  17.4072  17.4993  17.4993

          k =-0.5000-0.4809-0.4994 ( 62816 PWs)   bands (ev):

   -66.1048 -66.1048 -66.1048 -66.1047 -66.1047 -66.1047 -66.1047 -66.1047
   -30.5103 -30.5103 -30.5103 -30.5103 -30.5099 -30.5099 -30.5099 -30.5099
   -30.4064 -30.4064 -30.4064 -30.4064 -30.4044 -30.4044 -30.4044 -30.4044
   -30.3966 -30.3966 -30.3966 -30.3966 -30.3946 -30.3946 -30.3946 -30.3946
   -20.2522 -20.2522 -20.2522 -20.2522 -20.2522 -20.2522 -20.2522 -20.2522
   -20.2480 -20.2480 -20.2480 -20.2480 -20.2480 -20.2480 -20.2480 -20.2480
   -20.2422 -20.2422 -20.2422 -20.2421 -20.2419 -20.2419 -20.2419 -20.2419
   -20.2402 -20.2402 -20.2402 -20.2402 -20.2400 -20.2399 -20.2399 -20.2399
   -20.2284 -20.2284 -20.2284 -20.2283 -20.2283 -20.2283 -20.2283 -20.2283
   -20.1964 -20.1964 -20.1964 -20.1964 -20.1962 -20.1962 -20.1962 -20.1962
   -20.1944 -20.1944 -20.1944 -20.1944 -20.1943 -20.1943 -20.1943 -20.1943
    -9.0170  -9.0170  -9.0170  -9.0170  -9.0060  -9.0060  -9.0059  -9.0059
    -8.4977  -8.4977  -8.4977  -8.4977  -8.4758  -8.4758  -8.4758  -8.4758
    -8.4460  -8.4460  -8.4460  -8.4459  -8.4348  -8.4348  -8.4348  -8.4348
     2.9118   2.9118   2.9119   2.9119   2.9688   2.9688   2.9688   2.9688
     3.0766   3.0766   3.0766   3.0766   3.1514   3.1515   3.1515   3.1515
     3.3054   3.3054   3.3054   3.3054   3.4185   3.4185   3.4185   3.4185
     4.0637   4.0637   4.0637   4.0637   4.0819   4.0819   4.0819   4.0819
     4.2241   4.2241   4.2241   4.2241   4.2554   4.2554   4.2554   4.2554
     4.3382   4.3382   4.3382   4.3382   4.3820   4.3820   4.3820   4.3820
     7.0537   7.0537   7.0537   7.0537   7.1690   7.1690   7.1690   7.1690
     7.2411   7.2411   7.2411   7.2411   7.2669   7.2669   7.2669   7.2669
     7.4927   7.4927   7.4927   7.4927   7.5295   7.5295   7.5295   7.5295
    11.8232  11.8232  11.8232  11.8232  11.8434  11.8434  11.8434  11.8434
    12.1057  12.1057  12.1057  12.1057  12.2208  12.2208  12.2208  12.2208
    12.3764  12.3764  12.3764  12.3764  12.4362  12.4362  12.4362  12.4362
    17.0042  17.0042  17.0043  17.0043  17.0718  17.0718  17.0718  17.0718
    17.4301  17.4301  17.4301  17.4302  17.4620  17.4620

     the Fermi energy is     9.8730 ev

!    total energy              =   -6260.40396162 Ry
     Harris-Foulkes estimate   =   -6260.40396162 Ry
     estimated scf accuracy    <          1.3E-09 Ry

     The total energy is the sum of the following terms:

     one-electron contribution =   -4759.97596514 Ry
     hartree contribution      =    2617.64470626 Ry
     xc contribution           =    -966.77009009 Ry
     ewald contribution        =   -3151.30255763 Ry
     smearing contrib. (-TS)   =      -0.00005502 Ry

     convergence has been achieved in  13 iterations

     Writing output data file Landau_8.save
 
     init_run     :     42.96s CPU     44.98s WALL (       1 calls)
     electrons    :   1701.33s CPU   1740.78s WALL (       1 calls)

     Called by init_run:
     wfcinit      :     40.18s CPU     42.04s WALL (       1 calls)
     potinit      :      1.08s CPU      1.11s WALL (       1 calls)

     Called by electrons:
     c_bands      :   1533.10s CPU   1569.98s WALL (      13 calls)
     sum_band     :    161.86s CPU    163.12s WALL (      13 calls)
     v_of_rho     :      1.38s CPU      1.42s WALL (      14 calls)
     mix_rho      :      2.54s CPU      3.13s WALL (      13 calls)

     Called by c_bands:
     init_us_2    :     10.25s CPU     10.84s WALL (      54 calls)
     cegterg      :   1351.62s CPU   1386.48s WALL (      26 calls)

     Called by sum_band:

     Called by *egterg:
     h_psi        :    996.95s CPU   1004.60s WALL (     122 calls)
     g_psi        :      1.80s CPU      1.81s WALL (      94 calls)
     cdiaghg      :     18.61s CPU     18.68s WALL (     120 calls)

     Called by h_psi:
     h_psi:pot    :    992.32s CPU    999.64s WALL (     122 calls)
     h_psi:calbec :    156.59s CPU    160.73s WALL (     122 calls)
     vloc_psi     :    675.52s CPU    677.73s WALL (     122 calls)
     add_vuspsi   :    160.22s CPU    161.18s WALL (     122 calls)

     General routines
     calbec       :    156.58s CPU    160.73s WALL (     122 calls)
     fft          :      1.13s CPU      1.15s WALL (      56 calls)
     fftw         :    717.45s CPU    719.45s WALL (   34204 calls)
 
     Parallel routines
 
     PWSCF        : 29m 6.28s CPU    29m51.02s WALL

 
   This run was terminated on:   1:30: 7  22Mar2020            

=------------------------------------------------------------------------------=
   JOB DONE.
=------------------------------------------------------------------------------=
