
     Program PWSCF v.6.4.1 starts on 29Nov2019 at 17:44:36 

     This program is part of the open-source Quantum ESPRESSO suite
     for quantum simulation of materials; please cite
         "P. Giannozzi et al., J. Phys.:Condens. Matter 21 395502 (2009);
         "P. Giannozzi et al., J. Phys.:Condens. Matter 29 465901 (2017);
          URL http://www.quantum-espresso.org", 
     in publications or presentations arising from this work. More details at
     http://www.quantum-espresso.org/quote

     Parallel version (MPI), running on    40 processors

     MPI processes distributed on     6 nodes
     K-points division:     npool     =      40
     Reading input from scf.in

     Current dimensions of program PWSCF are:
     Max number of different atomic species (ntypx) = 10
     Max number of k-points (npk) =  40000
     Max angular momentum in pseudopotentials (lmaxx) =  3

     Subspace diagonalization in iterative solution of the eigenvalue problem:
     a serial algorithm will be used

     Message from routine setup:
     using ibrav=0 with symmetry is DISCOURAGED, use correct ibrav instead
 
     G-vector sticks info
     --------------------
     sticks:   dense  smooth     PW     G-vecs:    dense   smooth      PW
     Sum        3761    3761   1009               251717   251717   35485
 


     bravais-lattice index     =            0
     lattice parameter (alat)  =       9.9231  a.u.
     unit-cell volume          =    1417.0577 (a.u.)^3
     number of atoms/cell      =           16
     number of atomic types    =            2
     number of electrons       =       184.18
     number of Kohn-Sham states=          111
     kinetic-energy cutoff     =     120.0000  Ry
     charge density cutoff     =     480.0000  Ry
     convergence threshold     =      1.0E-08
     mixing beta               =       0.7000
     number of iterations used =            8  plain     mixing
     Exchange-correlation      = SLA PW NOGX NOGC ( 1  4  0  0 0 0)

     celldm(1)=   9.923108  celldm(2)=   0.000000  celldm(3)=   0.000000
     celldm(4)=   0.000000  celldm(5)=   0.000000  celldm(6)=   0.000000

     crystal axes: (cart. coord. in units of alat)
               a(1) = (   1.000000   0.000000   0.000000 )  
               a(2) = (   0.000000   1.000000   0.000000 )  
               a(3) = (   0.000000   0.000000   1.450255 )  

     reciprocal axes: (cart. coord. in units 2 pi/alat)
               b(1) = (  1.000000  0.000000  0.000000 )  
               b(2) = (  0.000000  1.000000  0.000000 )  
               b(3) = (  0.000000  0.000000  0.689534 )  


     PseudoPot. # 1 for W  read from file:
     /cluster/scratch/mnoe/QE/pps/W_ONCV_LDA-4.0.upf
     MD5 check sum: ba0307d5d4cd419d6f1d13dc49d7c13a
     Pseudo is Norm-conserving + core correction, Zval = 28.0
     Generated using ONCVPSP code by D. R. Hamann
     Using radial grid of 1380 points,  8 beta functions with: 
                l(1) =   0
                l(2) =   0
                l(3) =   1
                l(4) =   1
                l(5) =   2
                l(6) =   2
                l(7) =   3
                l(8) =   3

     PseudoPot. # 2 for O  read from file:
     /cluster/scratch/mnoe/QE/pps/O_ONCV_LDA-3.0.upf
     MD5 check sum: b55cdb4f45ae2203d24ad12cf8d61a31
     Pseudo is Norm-conserving + core correction, Zval =  6.0
     Generated using ONCVPSP code by D. R. Hamann
     Using radial grid of  926 points,  5 beta functions with: 
                l(1) =   0
                l(2) =   0
                l(3) =   1
                l(4) =   1
                l(5) =   2

     atomic species   valence    mass     pseudopotential
        W             28.00   183.84000     W ( 1.00)
        O              6.00    15.99940     O ( 1.00)

     16 Sym. Ops., with inversion, found (14 have fractional translation)



   Cartesian axes

     site n.     atom                  positions (alat units)
         1           W   tau(   1) = (   0.2500000   0.2500000   0.2986048  )
         2           W   tau(   2) = (   0.7500000   0.7500000   1.1516503  )
         3           W   tau(   3) = (   0.7500000   0.7500000   0.4265227  )
         4           W   tau(   4) = (   0.2500000   0.2500000   1.0237323  )
         5           O   tau(   5) = (   0.2500000   0.2500000   0.6795043  )
         6           O   tau(   6) = (   0.7500000   0.7500000   0.7707508  )
         7           O   tau(   7) = (   0.7500000   0.7500000   0.0456233  )
         8           O   tau(   8) = (   0.2500000   0.2500000   1.4046318  )
         9           O   tau(   9) = (   0.5126049   0.4873951   0.3625638  )
        10           O   tau(  10) = (   0.4873951   0.5126049   1.0876913  )
        11           O   tau(  11) = (  -0.0126049   1.0126049   0.3625638  )
        12           O   tau(  12) = (   1.0126048  -0.0126048   1.0876913  )
        13           O   tau(  13) = (   1.0126049   0.5126049   0.3625638  )
        14           O   tau(  14) = (  -0.0126048   0.4873951   1.0876913  )
        15           O   tau(  15) = (   0.4873951  -0.0126049   0.3625638  )
        16           O   tau(  16) = (   0.5126049   1.0126048   1.0876913  )

     number of k points=    60  gaussian smearing, width (Ry)=  0.0007
                       cart. coord. in units 2pi/alat
        k(    1) = (   0.0000000   0.0000000   0.0000000), wk =   0.0041152
        k(    2) = (   0.0000000   0.0000000   0.1149223), wk =   0.0082305
        k(    3) = (   0.0000000   0.0000000   0.2298446), wk =   0.0082305
        k(    4) = (   0.0000000   0.0000000  -0.3447669), wk =   0.0041152
        k(    5) = (   0.0000000   0.1111111   0.0000000), wk =   0.0164609
        k(    6) = (   0.0000000   0.1111111   0.1149223), wk =   0.0329218
        k(    7) = (   0.0000000   0.1111111   0.2298446), wk =   0.0329218
        k(    8) = (   0.0000000   0.1111111  -0.3447669), wk =   0.0164609
        k(    9) = (   0.0000000   0.2222222   0.0000000), wk =   0.0164609
        k(   10) = (   0.0000000   0.2222222   0.1149223), wk =   0.0329218
        k(   11) = (   0.0000000   0.2222222   0.2298446), wk =   0.0329218
        k(   12) = (   0.0000000   0.2222222  -0.3447669), wk =   0.0164609
        k(   13) = (   0.0000000   0.3333333   0.0000000), wk =   0.0164609
        k(   14) = (   0.0000000   0.3333333   0.1149223), wk =   0.0329218
        k(   15) = (   0.0000000   0.3333333   0.2298446), wk =   0.0329218
        k(   16) = (   0.0000000   0.3333333  -0.3447669), wk =   0.0164609
        k(   17) = (   0.0000000   0.4444444   0.0000000), wk =   0.0164609
        k(   18) = (   0.0000000   0.4444444   0.1149223), wk =   0.0329218
        k(   19) = (   0.0000000   0.4444444   0.2298446), wk =   0.0329218
        k(   20) = (   0.0000000   0.4444444  -0.3447669), wk =   0.0164609
        k(   21) = (   0.1111111   0.1111111   0.0000000), wk =   0.0164609
        k(   22) = (   0.1111111   0.1111111   0.1149223), wk =   0.0329218
        k(   23) = (   0.1111111   0.1111111   0.2298446), wk =   0.0329218
        k(   24) = (   0.1111111   0.1111111  -0.3447669), wk =   0.0164609
        k(   25) = (   0.1111111   0.2222222   0.0000000), wk =   0.0329218
        k(   26) = (   0.1111111   0.2222222   0.1149223), wk =   0.0658436
        k(   27) = (   0.1111111   0.2222222   0.2298446), wk =   0.0658436
        k(   28) = (   0.1111111   0.2222222  -0.3447669), wk =   0.0329218
        k(   29) = (   0.1111111   0.3333333   0.0000000), wk =   0.0329218
        k(   30) = (   0.1111111   0.3333333   0.1149223), wk =   0.0658436
        k(   31) = (   0.1111111   0.3333333   0.2298446), wk =   0.0658436
        k(   32) = (   0.1111111   0.3333333  -0.3447669), wk =   0.0329218
        k(   33) = (   0.1111111   0.4444444   0.0000000), wk =   0.0329218
        k(   34) = (   0.1111111   0.4444444   0.1149223), wk =   0.0658436
        k(   35) = (   0.1111111   0.4444444   0.2298446), wk =   0.0658436
        k(   36) = (   0.1111111   0.4444444  -0.3447669), wk =   0.0329218
        k(   37) = (   0.2222222   0.2222222   0.0000000), wk =   0.0164609
        k(   38) = (   0.2222222   0.2222222   0.1149223), wk =   0.0329218
        k(   39) = (   0.2222222   0.2222222   0.2298446), wk =   0.0329218
        k(   40) = (   0.2222222   0.2222222  -0.3447669), wk =   0.0164609
        k(   41) = (   0.2222222   0.3333333   0.0000000), wk =   0.0329218
        k(   42) = (   0.2222222   0.3333333   0.1149223), wk =   0.0658436
        k(   43) = (   0.2222222   0.3333333   0.2298446), wk =   0.0658436
        k(   44) = (   0.2222222   0.3333333  -0.3447669), wk =   0.0329218
        k(   45) = (   0.2222222   0.4444444   0.0000000), wk =   0.0329218
        k(   46) = (   0.2222222   0.4444444   0.1149223), wk =   0.0658436
        k(   47) = (   0.2222222   0.4444444   0.2298446), wk =   0.0658436
        k(   48) = (   0.2222222   0.4444444  -0.3447669), wk =   0.0329218
        k(   49) = (   0.3333333   0.3333333   0.0000000), wk =   0.0164609
        k(   50) = (   0.3333333   0.3333333   0.1149223), wk =   0.0329218
        k(   51) = (   0.3333333   0.3333333   0.2298446), wk =   0.0329218
        k(   52) = (   0.3333333   0.3333333  -0.3447669), wk =   0.0164609
        k(   53) = (   0.3333333   0.4444444   0.0000000), wk =   0.0329218
        k(   54) = (   0.3333333   0.4444444   0.1149223), wk =   0.0658436
        k(   55) = (   0.3333333   0.4444444   0.2298446), wk =   0.0658436
        k(   56) = (   0.3333333   0.4444444  -0.3447669), wk =   0.0329218
        k(   57) = (   0.4444444   0.4444444   0.0000000), wk =   0.0164609
        k(   58) = (   0.4444444   0.4444444   0.1149223), wk =   0.0329218
        k(   59) = (   0.4444444   0.4444444   0.2298446), wk =   0.0329218
        k(   60) = (   0.4444444   0.4444444  -0.3447669), wk =   0.0164609

     Dense  grid:   251717 G-vectors     FFT dimensions: (  72,  72, 108)

     Estimated max dynamical RAM per process >     895.99 MB

     Estimated total dynamical RAM >      35.00 GB

     Initial potential from superposition of free atoms

     starting charge  183.99828, renormalised to  184.18000
     Starting wfcs are  116 randomized atomic wfcs

     total cpu time spent up to now is       11.7 secs

     Self-consistent Calculation

     iteration #  1     ecut=   120.00 Ry     beta= 0.70
     Davidson diagonalization with overlap
     ethr =  1.00E-02,  avg # of iterations =  4.8

     total cpu time spent up to now is       48.5 secs

     total energy              =   -3126.60298433 Ry
     Harris-Foulkes estimate   =   -3132.19609347 Ry
     estimated scf accuracy    <       7.04664848 Ry

     iteration #  2     ecut=   120.00 Ry     beta= 0.70
     Davidson diagonalization with overlap
     ethr =  3.83E-03,  avg # of iterations =  3.4

     total cpu time spent up to now is       84.5 secs

     total energy              =   -3124.90547127 Ry
     Harris-Foulkes estimate   =   -3135.61967593 Ry
     estimated scf accuracy    <      29.00711363 Ry

     iteration #  3     ecut=   120.00 Ry     beta= 0.70
     Davidson diagonalization with overlap
     ethr =  3.83E-03,  avg # of iterations =  3.2

     total cpu time spent up to now is      118.2 secs

     total energy              =   -3130.35899881 Ry
     Harris-Foulkes estimate   =   -3130.49969381 Ry
     estimated scf accuracy    <       0.48747806 Ry

     iteration #  4     ecut=   120.00 Ry     beta= 0.70
     Davidson diagonalization with overlap
     ethr =  2.65E-04,  avg # of iterations =  2.6

     total cpu time spent up to now is      146.4 secs

     total energy              =   -3130.34316303 Ry
     Harris-Foulkes estimate   =   -3130.38948749 Ry
     estimated scf accuracy    <       0.12456633 Ry

     iteration #  5     ecut=   120.00 Ry     beta= 0.70
     Davidson diagonalization with overlap
     ethr =  6.76E-05,  avg # of iterations =  4.2

     total cpu time spent up to now is      176.4 secs

     total energy              =   -3130.35506728 Ry
     Harris-Foulkes estimate   =   -3130.36598456 Ry
     estimated scf accuracy    <       0.02619661 Ry

     iteration #  6     ecut=   120.00 Ry     beta= 0.70
     Davidson diagonalization with overlap
     ethr =  1.42E-05,  avg # of iterations =  4.2

     total cpu time spent up to now is      208.6 secs

     total energy              =   -3130.35997764 Ry
     Harris-Foulkes estimate   =   -3130.36164966 Ry
     estimated scf accuracy    <       0.00465789 Ry

     iteration #  7     ecut=   120.00 Ry     beta= 0.70
     Davidson diagonalization with overlap
     ethr =  2.53E-06,  avg # of iterations =  4.1

     total cpu time spent up to now is      237.7 secs

     total energy              =   -3130.36050224 Ry
     Harris-Foulkes estimate   =   -3130.36058272 Ry
     estimated scf accuracy    <       0.00013876 Ry

     iteration #  8     ecut=   120.00 Ry     beta= 0.70
     Davidson diagonalization with overlap
     ethr =  7.53E-08,  avg # of iterations =  3.1

     total cpu time spent up to now is      274.1 secs

     total energy              =   -3130.36056219 Ry
     Harris-Foulkes estimate   =   -3130.36057158 Ry
     estimated scf accuracy    <       0.00004743 Ry

     iteration #  9     ecut=   120.00 Ry     beta= 0.70
     Davidson diagonalization with overlap
     ethr =  2.58E-08,  avg # of iterations =  1.0

     total cpu time spent up to now is      300.4 secs

     total energy              =   -3130.36055658 Ry
     Harris-Foulkes estimate   =   -3130.36056424 Ry
     estimated scf accuracy    <       0.00002010 Ry

     iteration # 10     ecut=   120.00 Ry     beta= 0.70
     Davidson diagonalization with overlap
     ethr =  1.09E-08,  avg # of iterations =  2.2

     total cpu time spent up to now is      328.0 secs

     total energy              =   -3130.36055991 Ry
     Harris-Foulkes estimate   =   -3130.36055998 Ry
     estimated scf accuracy    <       0.00000014 Ry

     iteration # 11     ecut=   120.00 Ry     beta= 0.70
     Davidson diagonalization with overlap
     ethr =  7.47E-11,  avg # of iterations =  3.0

     total cpu time spent up to now is      363.8 secs

     total energy              =   -3130.36055997 Ry
     Harris-Foulkes estimate   =   -3130.36055998 Ry
     estimated scf accuracy    <       0.00000002 Ry

     iteration # 12     ecut=   120.00 Ry     beta= 0.70
     Davidson diagonalization with overlap
     ethr =  1.12E-11,  avg # of iterations =  2.0

     total cpu time spent up to now is      396.6 secs

     End of self-consistent calculation

          k = 0.0000 0.0000 0.0000 ( 31463 PWs)   bands (ev):

   -66.3049 -66.3044 -66.3036 -66.3031 -30.6570 -30.6537 -30.6260 -30.6260
   -30.6216 -30.6216 -30.5818 -30.5798 -30.5494 -30.5494 -30.5460 -30.5460
   -20.4706 -20.4706 -20.4706 -20.4704 -20.4572 -20.4572 -20.4572 -20.4572
   -20.4547 -20.4547 -20.4547 -20.4547 -20.4520 -20.4519 -20.4517 -20.4515
   -20.4496 -20.4493 -20.4424 -20.4421 -20.4412 -20.4412 -20.4397 -20.4397
   -20.4389 -20.4389 -20.4374 -20.4374 -10.1275  -9.6808  -9.3641  -9.0226
    -8.9973  -8.9329  -7.8833  -7.8295  -7.8295  -7.8062  -7.8062  -7.7425
     1.0395   1.1081   1.1113   1.2224   1.4486   1.5019   2.3667   2.3667
     2.4806   2.5988   3.9149   3.9149   4.7457   4.7457   4.9506   5.5250
     5.5250   5.7922   5.7922   5.8949   5.8949   5.9305   5.9686   6.5204
     6.5204   6.8194   7.1092   7.1389   7.1389   7.1664   7.1664   7.2227
     8.3160   8.3245   8.3283   8.3283   8.8765   8.8803   9.4413   9.4413
    12.4004  12.4004  13.2062  13.2062  13.4047  13.4891  13.5024  14.1071
    14.1071  14.1211  14.1218  14.6718  15.5327  16.2429  17.0940

          k = 0.0000 0.0000 0.1149 ( 31510 PWs)   bands (ev):

   -66.3049 -66.3044 -66.3036 -66.3032 -30.6520 -30.6488 -30.6257 -30.6257
   -30.6219 -30.6219 -30.5869 -30.5848 -30.5492 -30.5492 -30.5462 -30.5462
   -20.4706 -20.4706 -20.4705 -20.4705 -20.4572 -20.4572 -20.4572 -20.4572
   -20.4547 -20.4547 -20.4547 -20.4547 -20.4520 -20.4519 -20.4517 -20.4515
   -20.4491 -20.4488 -20.4429 -20.4426 -20.4411 -20.4411 -20.4397 -20.4397
   -20.4388 -20.4388 -20.4375 -20.4375 -10.0832  -9.6982  -9.2791  -9.0209
    -8.9990  -8.8902  -8.0007  -7.8688  -7.8280  -7.8280  -7.8078  -7.8078
     1.1084   1.1111   1.2677   1.4268   1.4477   1.6138   2.4380   2.4380
     2.4883   2.5906   3.7480   3.7480   4.7022   4.8032   4.8032   5.5207
     5.5207   5.5701   5.5897   5.5897   5.9755   6.1524   6.1524   6.5138
     6.5138   6.8380   7.0185   7.0890   7.1387   7.1387   7.1586   7.1586
     8.2433   8.2433   8.3166   8.3241   8.8771   8.8803   9.6988   9.6988
    12.2263  12.2263  13.2363  13.2363  13.4900  13.5016  13.6684  14.0087
    14.0087  14.1215  14.1221  14.9173  15.9567  15.9597  17.1359

          k = 0.0000 0.0000 0.2298 ( 31502 PWs)   bands (ev):

   -66.3048 -66.3045 -66.3035 -66.3033 -30.6383 -30.6354 -30.6249 -30.6249
   -30.6227 -30.6227 -30.6008 -30.5984 -30.5486 -30.5486 -30.5468 -30.5468
   -20.4706 -20.4706 -20.4705 -20.4705 -20.4572 -20.4572 -20.4572 -20.4572
   -20.4547 -20.4547 -20.4547 -20.4547 -20.4520 -20.4519 -20.4516 -20.4516
   -20.4478 -20.4475 -20.4442 -20.4440 -20.4408 -20.4408 -20.4400 -20.4400
   -20.4386 -20.4386 -20.4378 -20.4378  -9.9727  -9.7529  -9.0376  -9.0163
    -9.0036  -8.7523  -8.3018  -8.1747  -7.8237  -7.8237  -7.8121  -7.8121
     1.1090   1.1106   1.4215   1.4445   2.0427   2.3265   2.5095   2.5686
     2.6462   2.6462   3.3722   3.3722   3.9893   4.5884   4.9771   4.9771
     5.4077   5.4077   5.5826   5.5826   5.9258   5.9258   6.1090   6.6426
     6.8896   6.9797   6.9797   7.0344   7.1388   7.1388   7.1554   7.1554
     7.9758   7.9758   8.3182   8.3227   8.8784   8.8802  10.3180  10.3180
    11.7433  11.7433  13.3381  13.3381  13.4925  13.4992  13.7746  13.7746
    14.1222  14.1225  14.2006  15.3935  15.6014  16.9622  17.0208

          k = 0.0000 0.0000-0.3448 ( 31506 PWs)   bands (ev):

   -66.3046 -66.3046 -66.3034 -66.3034 -30.6238 -30.6238 -30.6238 -30.6238
   -30.6196 -30.6196 -30.6169 -30.6169 -30.5477 -30.5477 -30.5477 -30.5477
   -20.4706 -20.4706 -20.4705 -20.4705 -20.4572 -20.4572 -20.4572 -20.4572
   -20.4547 -20.4547 -20.4547 -20.4547 -20.4520 -20.4520 -20.4516 -20.4516
   -20.4461 -20.4461 -20.4458 -20.4458 -20.4404 -20.4404 -20.4404 -20.4404
   -20.4382 -20.4382 -20.4382 -20.4382  -9.8482  -9.8482  -9.0100  -9.0100
    -8.6839  -8.6839  -8.5053  -8.5053  -7.8179  -7.8179  -7.8179  -7.8179
     1.1098   1.1098   1.4381   1.4382   2.5388   2.5388   2.9722   2.9722
     2.9722   2.9722   3.0056   3.0056   3.4074   3.4074   5.2179   5.2179
     5.2179   5.2179   5.6815   5.6815   5.6815   5.6815   6.3297   6.3297
     6.9613   6.9613   7.1391   7.1391   7.1391   7.1391   7.5393   7.5393
     7.5394   7.5394   8.3205   8.3205   8.8796   8.8796  11.0589  11.0589
    11.0589  11.0589  13.4959  13.4959  13.5241  13.5241  13.5241  13.5241
    14.1227  14.1227  14.7849  14.7849  16.4045  16.4045  18.3123

          k = 0.0000 0.1111 0.0000 ( 31487 PWs)   bands (ev):

   -66.3049 -66.3043 -66.3037 -66.3032 -30.6573 -30.6539 -30.6240 -30.6237
   -30.6193 -30.6190 -30.5814 -30.5804 -30.5518 -30.5513 -30.5483 -30.5482
   -20.4706 -20.4706 -20.4705 -20.4705 -20.4572 -20.4572 -20.4571 -20.4571
   -20.4549 -20.4548 -20.4548 -20.4548 -20.4519 -20.4519 -20.4516 -20.4515
   -20.4496 -20.4493 -20.4424 -20.4422 -20.4411 -20.4410 -20.4396 -20.4396
   -20.4390 -20.4389 -20.4375 -20.4374 -10.0923  -9.6354  -9.3734  -8.9930
    -8.9677  -8.9218  -7.9273  -7.8913  -7.8744  -7.8510  -7.8295  -7.7457
     1.0484   1.2144   1.2168   1.2215   1.5655   1.6114   2.3985   2.4020
     2.5573   2.6732   3.8955   3.9145   4.5684   4.6287   4.9454   5.3885
     5.4082   5.6875   5.7473   5.9028   5.9047   5.9920   6.1376   6.4588
     6.4630   6.7913   6.8172   6.9333   6.9555   7.0923   7.1358   7.1403
     8.2499   8.2688   8.3004   8.3131   9.2090   9.2258   9.5959   9.6432
    12.4249  12.4378  13.0666  13.0847  13.4658  13.4874  13.5486  13.9883
    14.0286  14.3000  14.3444  14.7586  15.5021  16.3957  17.1269

          k = 0.0000 0.1111 0.1149 ( 31471 PWs)   bands (ev):

   -66.3048 -66.3044 -66.3037 -66.3032 -30.6524 -30.6490 -30.6238 -30.6234
   -30.6196 -30.6192 -30.5865 -30.5853 -30.5515 -30.5512 -30.5485 -30.5484
   -20.4706 -20.4706 -20.4705 -20.4705 -20.4572 -20.4572 -20.4571 -20.4571
   -20.4549 -20.4548 -20.4548 -20.4548 -20.4519 -20.4519 -20.4516 -20.4515
   -20.4491 -20.4488 -20.4429 -20.4427 -20.4410 -20.4409 -20.4397 -20.4397
   -20.4389 -20.4389 -20.4376 -20.4376 -10.0468  -9.6529  -9.2886  -8.9913
    -8.9694  -8.8804  -8.0191  -7.8896  -7.8844  -7.8728  -7.8526  -7.8441
     1.2172   1.2212   1.2934   1.4453   1.5644   1.6780   2.4705   2.4719
     2.5656   2.6656   3.7391   3.7578   4.6286   4.6871   4.6952   5.3923
     5.4092   5.4735   5.5244   5.5916   6.1069   6.1278   6.1783   6.4584
     6.4742   6.7893   6.7957   6.9469   6.9929   7.0021   7.1028   7.1460
     8.2076   8.2239   8.2602   8.2726   9.2115   9.2232   9.8236   9.8645
    12.2528  12.2671  13.0947  13.1196  13.4610  13.4902  13.8128  13.9068
    13.9270  14.3008  14.3301  14.9964  15.9286  16.0945  17.1915

          k = 0.0000 0.1111 0.2298 ( 31499 PWs)   bands (ev):

   -66.3047 -66.3045 -66.3036 -66.3033 -30.6391 -30.6356 -30.6233 -30.6226
   -30.6204 -30.6197 -30.6001 -30.5988 -30.5509 -30.5506 -30.5491 -30.5490
   -20.4706 -20.4706 -20.4705 -20.4705 -20.4572 -20.4572 -20.4571 -20.4571
   -20.4549 -20.4548 -20.4548 -20.4548 -20.4519 -20.4519 -20.4516 -20.4515
   -20.4478 -20.4475 -20.4442 -20.4440 -20.4407 -20.4407 -20.4399 -20.4399
   -20.4386 -20.4386 -20.4379 -20.4378  -9.9330  -9.7081  -9.0474  -8.9867
    -8.9741  -8.7459  -8.3121  -8.1775  -7.8848  -7.8687  -7.8686  -7.8569
     1.2181   1.2204   1.5304   1.5607   2.0453   2.3087   2.5825   2.6392
     2.6822   2.6951   3.3760   3.3954   3.9862   4.5877   4.8145   4.8658
     5.3047   5.3256   5.4462   5.4610   5.8032   5.8140   6.2942   6.6908
     6.7953   6.8159   6.9617   6.9643   6.9956   7.0353   7.1064   7.1554
     7.9497   7.9644   8.2614   8.2686   9.2150   9.2204  10.3955  10.4266
    11.7755  11.7936  13.1897  13.2259  13.4384  13.4996  13.6873  13.7063
    14.3024  14.3130  14.3471  15.5286  15.6735  16.9855  17.0355

          k = 0.0000 0.1111-0.3448 ( 31480 PWs)   bands (ev):

   -66.3046 -66.3046 -66.3034 -66.3034 -30.6245 -30.6245 -30.6215 -30.6215
   -30.6173 -30.6173 -30.6166 -30.6166 -30.5500 -30.5500 -30.5498 -30.5498
   -20.4706 -20.4706 -20.4705 -20.4705 -20.4572 -20.4572 -20.4571 -20.4571
   -20.4549 -20.4549 -20.4548 -20.4548 -20.4519 -20.4519 -20.4516 -20.4516
   -20.4461 -20.4461 -20.4458 -20.4458 -20.4403 -20.4403 -20.4403 -20.4403
   -20.4382 -20.4382 -20.4382 -20.4382  -9.8052  -9.8052  -8.9804  -8.9804
    -8.6940  -8.6940  -8.5032  -8.5031  -7.8778  -7.8778  -7.8628  -7.8628
     1.2193   1.2193   1.5529   1.5529   2.6122   2.6122   2.9703   2.9703
     3.0030   3.0030   3.0094   3.0094   3.4238   3.4238   5.0830   5.0830
     5.1208   5.1209   5.5383   5.5383   5.5538   5.5538   6.4749   6.4749
     6.7968   6.7968   7.0231   7.0231   7.1091   7.1091   7.5214   7.5214
     7.5380   7.5380   8.2652   8.2652   9.2180   9.2180  11.1058  11.1058
    11.1296  11.1296  13.3375  13.3375  13.4200  13.4200  13.5530  13.5530
    14.3055  14.3055  14.9263  14.9263  16.4794  16.4794  17.6025

          k = 0.0000 0.2222 0.0000 ( 31477 PWs)   bands (ev):

   -66.3048 -66.3042 -66.3038 -66.3033 -30.6578 -30.6546 -30.6185 -30.6171
   -30.6128 -30.6118 -30.5821 -30.5803 -30.5584 -30.5565 -30.5549 -30.5545
   -20.4706 -20.4706 -20.4705 -20.4705 -20.4571 -20.4570 -20.4569 -20.4569
   -20.4552 -20.4552 -20.4550 -20.4550 -20.4518 -20.4517 -20.4516 -20.4514
   -20.4495 -20.4493 -20.4425 -20.4424 -20.4409 -20.4406 -20.4395 -20.4394
   -20.4391 -20.4390 -20.4377 -20.4376  -9.9930  -9.5023  -9.4035  -8.9061
    -8.8853  -8.8811  -8.1100  -8.0582  -7.9993  -7.9758  -7.8329  -7.7549
     1.0659   1.1931   1.5269   1.5383   1.8908   1.9208   2.4887   2.5046
     2.7872   2.8986   3.8193   3.8705   4.2371   4.3516   4.9308   5.0237
     5.0425   5.4252   5.6000   5.9295   5.9342   6.0109   6.1004   6.1005
     6.3190   6.4051   6.5594   6.5864   6.9025   7.0849   7.1447   7.1926
     8.0952   8.1117   8.2040   8.2583   9.8591   9.9003   9.9937  10.1258
    12.4918  12.5358  12.7879  12.7885  13.1987  13.2139  13.8084  13.8139
    13.8930  14.9268  14.9460  15.0178  15.4087  16.8028  17.2434

          k = 0.0000 0.2222 0.1149 ( 31483 PWs)   bands (ev):

   -66.3047 -66.3043 -66.3038 -66.3033 -30.6530 -30.6497 -30.6185 -30.6168
   -30.6131 -30.6119 -30.5868 -30.5851 -30.5582 -30.5566 -30.5551 -30.5547
   -20.4706 -20.4706 -20.4705 -20.4705 -20.4571 -20.4570 -20.4569 -20.4569
   -20.4552 -20.4552 -20.4550 -20.4550 -20.4518 -20.4517 -20.4516 -20.4514
   -20.4491 -20.4488 -20.4430 -20.4428 -20.4408 -20.4406 -20.4395 -20.4395
   -20.4390 -20.4390 -20.4378 -20.4377  -9.9434  -9.5200  -9.3193  -8.9044
    -8.8828  -8.8480  -8.1494  -8.0557  -7.9977  -7.9774  -7.9254  -7.8676
     1.3250   1.4498   1.5277   1.5376   1.8890   1.9432   2.5625   2.5726
     2.7947   2.8916   3.6967   3.7524   4.2981   4.4112   4.6756   5.0322
     5.0501   5.2121   5.3430   5.6070   5.9228   6.0067   6.1032   6.1246
     6.3851   6.4296   6.5892   6.8221   6.8912   7.0760   7.1614   7.2021
     8.0902   8.1019   8.1335   8.1879   9.8671   9.8904  10.1669  10.2827
    12.3335  12.3842  12.8108  12.8112  13.1955  13.2156  13.7051  13.7100
    14.1806  14.9273  14.9420  15.2286  15.8330  16.4560  17.2662

          k = 0.0000 0.2222 0.2298 ( 31449 PWs)   bands (ev):

   -66.3046 -66.3044 -66.3037 -66.3034 -30.6400 -30.6364 -30.6189 -30.6160
   -30.6139 -30.6120 -30.5999 -30.5978 -30.5576 -30.5565 -30.5558 -30.5553
   -20.4706 -20.4706 -20.4705 -20.4705 -20.4571 -20.4570 -20.4569 -20.4569
   -20.4552 -20.4552 -20.4550 -20.4550 -20.4517 -20.4517 -20.4515 -20.4515
   -20.4478 -20.4476 -20.4443 -20.4441 -20.4405 -20.4405 -20.4398 -20.4397
   -20.4388 -20.4388 -20.4381 -20.4380  -9.8190  -9.5770  -9.0804  -8.8999
    -8.8873  -8.7246  -8.3666  -8.1834  -8.0483  -8.0011  -7.9935  -7.9817
     1.5299   1.5356   1.8148   1.8833   2.0534   2.2926   2.7622   2.7919
     2.8229   2.8768   3.3793   3.4440   3.9786   4.4974   4.5583   4.6031
     5.0491   5.0509   5.1063   5.1314   5.4912   5.5652   6.0810   6.0978
     6.6577   6.8457   6.9173   6.9621   7.0228   7.0618   7.2195   7.2213
     7.8843   7.9240   8.1066   8.1213   9.8757   9.8852  10.6273  10.7254
    11.8784  11.9420  12.9126  12.9183  13.1795  13.2186  13.4515  13.4802
    14.7418  14.9286  14.9354  15.8742  15.8925  16.8758  17.2314

          k = 0.0000 0.2222-0.3448 ( 31442 PWs)   bands (ev):

   -66.3045 -66.3045 -66.3035 -66.3035 -30.6246 -30.6246 -30.6181 -30.6181
   -30.6149 -30.6149 -30.6098 -30.6098 -30.5567 -30.5567 -30.5560 -30.5560
   -20.4706 -20.4706 -20.4705 -20.4705 -20.4571 -20.4570 -20.4569 -20.4569
   -20.4552 -20.4552 -20.4550 -20.4550 -20.4517 -20.4517 -20.4515 -20.4515
   -20.4461 -20.4461 -20.4458 -20.4458 -20.4401 -20.4401 -20.4401 -20.4401
   -20.4384 -20.4384 -20.4384 -20.4384  -9.6801  -9.6801  -8.8936  -8.8936
    -8.7321  -8.7321  -8.4950  -8.4950  -8.0343  -8.0343  -7.9876  -7.9876
     1.5328   1.5328   1.8703   1.8703   2.8240   2.8240   2.9753   2.9753
     3.0212   3.0212   3.0839   3.0839   3.4641   3.4641   4.7947   4.7947
     4.8684   4.8684   5.1905   5.1905   5.2103   5.2103   6.0903   6.0903
     6.7594   6.7594   7.0349   7.0349   7.2130   7.2131   7.4882   7.4882
     7.5333   7.5334   8.1123   8.1123   9.8813   9.8813  11.2534  11.2534
    11.3339  11.3339  13.0564  13.0564  13.1470  13.1470  13.3083  13.3083
    14.9309  14.9309  15.3112  15.3112  16.6849  16.6850  17.6263

          k = 0.0000 0.3333 0.0000 ( 31446 PWs)   bands (ev):

   -66.3046 -66.3041 -66.3040 -66.3034 -30.6579 -30.6556 -30.6102 -30.6069
   -30.6028 -30.6013 -30.5856 -30.5783 -30.5687 -30.5650 -30.5642 -30.5637
   -20.4706 -20.4706 -20.4705 -20.4705 -20.4569 -20.4569 -20.4566 -20.4566
   -20.4557 -20.4557 -20.4554 -20.4553 -20.4516 -20.4515 -20.4515 -20.4514
   -20.4494 -20.4493 -20.4426 -20.4426 -20.4406 -20.4402 -20.4395 -20.4393
   -20.4391 -20.4390 -20.4380 -20.4379  -9.8485  -9.4611  -9.2906  -8.8141
    -8.7680  -8.7432  -8.3875  -8.2836  -8.1797  -8.1559  -7.8212  -7.7689
     1.0859   1.1649   1.9880   2.0228   2.3454   2.3517   2.6203   2.6510
     3.1787   3.2825   3.6377   3.6648   3.9315   4.0358   4.4835   4.5377
     4.9224   5.0796   5.3168   5.3463   5.4562   5.9717   5.9765   6.1062
     6.1802   6.2060   6.3003   6.6648   7.0100   7.1732   7.2456   7.4928
     7.8800   7.8818   8.0328   8.1536  10.5265  10.5611  10.6358  10.7358
    12.2839  12.3203  12.6804  12.7069  12.7309  12.7674  13.5152  13.5647
    14.3159  15.2487  15.4513  15.8401  15.8454  17.2516  17.3519

          k = 0.0000 0.3333 0.1149 ( 31453 PWs)   bands (ev):

   -66.3046 -66.3041 -66.3039 -66.3035 -30.6531 -30.6507 -30.6106 -30.6067
   -30.6031 -30.6014 -30.5896 -30.5827 -30.5684 -30.5652 -30.5645 -30.5644
   -20.4706 -20.4706 -20.4705 -20.4705 -20.4569 -20.4569 -20.4566 -20.4566
   -20.4557 -20.4557 -20.4554 -20.4553 -20.4516 -20.4515 -20.4515 -20.4514
   -20.4490 -20.4488 -20.4431 -20.4430 -20.4405 -20.4402 -20.4395 -20.4393
   -20.4391 -20.4390 -20.4381 -20.4380  -9.7916  -9.3792  -9.3089  -8.7841
    -8.7664  -8.7449  -8.4127  -8.2788  -8.1781  -8.1575  -7.9266  -7.8823
     1.3484   1.4278   1.9906   2.0208   2.3490   2.3552   2.6933   2.7125
     3.1836   3.2760   3.5679   3.6074   3.9954   4.0968   4.4981   4.5528
     4.6516   4.8985   5.1404   5.2909   5.3146   5.6375   5.6483   5.9246
     6.3936   6.4545   6.6617   6.7678   7.0205   7.1664   7.2586   7.4853
     7.8749   7.8794   7.9736   8.0927  10.5821  10.5827  10.6902  10.8322
    12.3205  12.3403  12.5531  12.6157  12.7086  12.7202  13.3944  13.4508
    14.6482  15.6103  15.6691  15.8404  15.8449  16.8982  17.4209

          k = 0.0000 0.3333 0.2298 ( 31451 PWs)   bands (ev):

   -66.3045 -66.3042 -66.3038 -66.3036 -30.6402 -30.6375 -30.6131 -30.6059
   -30.6038 -30.6017 -30.6015 -30.5932 -30.5678 -30.5659 -30.5654 -30.5649
   -20.4706 -20.4706 -20.4706 -20.4705 -20.4569 -20.4569 -20.4566 -20.4566
   -20.4557 -20.4557 -20.4554 -20.4553 -20.4516 -20.4515 -20.4515 -20.4514
   -20.4478 -20.4476 -20.4443 -20.4442 -20.4402 -20.4401 -20.4395 -20.4395
   -20.4391 -20.4390 -20.4384 -20.4383  -9.6471  -9.3694  -9.1490  -8.7619
    -8.7494  -8.6813  -8.5354  -8.2623  -8.1847  -8.1735  -8.1619  -8.1064
     1.9978   2.0152   2.0494   2.0769   2.3382   2.4365   2.8883   2.9205
     3.1878   3.2576   3.3570   3.4237   3.9736   4.1990   4.2793   4.4126
     4.5591   4.6092   4.7958   4.8904   5.1266   5.2860   5.3146   5.3205
     6.9039   6.9320   6.9659   7.0229   7.0462   7.1473   7.3161   7.4523
     7.7722   7.8126   7.8924   7.9470  10.5994  10.6040  11.0043  11.1545
    12.0578  12.1745  12.4746  12.5292  12.7167  12.7344  13.1066  13.1745
    15.2907  15.8411  15.8433  16.1693  16.3853  16.6792  17.3904

          k = 0.0000 0.3333-0.3448 ( 31456 PWs)   bands (ev):

   -66.3043 -66.3043 -66.3037 -66.3037 -30.6239 -30.6239 -30.6194 -30.6194
   -30.6049 -30.6049 -30.6002 -30.6002 -30.5668 -30.5668 -30.5653 -30.5653
   -20.4706 -20.4706 -20.4705 -20.4705 -20.4569 -20.4569 -20.4566 -20.4566
   -20.4557 -20.4557 -20.4553 -20.4553 -20.4516 -20.4516 -20.4514 -20.4514
   -20.4460 -20.4460 -20.4459 -20.4459 -20.4398 -20.4398 -20.4398 -20.4398
   -20.4387 -20.4387 -20.4387 -20.4387  -9.4853  -9.4853  -8.8254  -8.8254
    -8.7554  -8.7554  -8.4765  -8.4765  -8.2221  -8.2221  -8.1678  -8.1678
     2.0069   2.0069   2.3092   2.3092   2.9262   2.9262   3.0476   3.0476
     3.1436   3.1436   3.2517   3.2517   3.4874   3.4875   4.4983   4.4983
     4.5447   4.5447   4.7282   4.7282   4.8168   4.8168   5.3070   5.3070
     7.0165   7.0165   7.1042   7.1042   7.3521   7.3521   7.4375   7.4375
     7.5239   7.5239   7.8999   7.8999  10.6050  10.6050  11.5111  11.5111
    11.6490  11.6490  12.6048  12.6048  12.7806  12.7806  12.9032  12.9032
    15.8350  15.8350  15.8601  15.8601  16.9637  16.9637  17.5036

          k = 0.0000 0.4444 0.0000 ( 31456 PWs)   bands (ev):

   -66.3044 -66.3042 -66.3039 -66.3036 -30.6575 -30.6567 -30.6006 -30.5945
   -30.5918 -30.5905 -30.5890 -30.5812 -30.5774 -30.5761 -30.5752 -30.5705
   -20.4706 -20.4706 -20.4705 -20.4705 -20.4566 -20.4565 -20.4562 -20.4562
   -20.4562 -20.4561 -20.4558 -20.4557 -20.4515 -20.4514 -20.4514 -20.4514
   -20.4494 -20.4493 -20.4427 -20.4427 -20.4402 -20.4398 -20.4398 -20.4395
   -20.4387 -20.4387 -20.4384 -20.4383  -9.6910  -9.5558  -9.0167  -8.7049
    -8.6927  -8.5884  -8.5658  -8.5094  -8.3854  -8.3613  -7.8045  -7.7862
     1.1089   1.1357   2.4817   2.6129   2.6933   2.7127   2.7431   2.8754
     3.2130   3.3136   3.7385   3.8043   3.8104   3.8387   3.9557   4.0620
     4.4373   4.5368   4.9343   5.0188   5.5181   5.7742   6.0408   6.0638
     6.1076   6.1268   6.3136   6.4581   7.3655   7.3892   7.4588   7.6140
     7.6374   7.7726   7.7793   7.9922  11.1141  11.2252  11.3458  11.4072
    11.7575  11.8196  12.0861  12.0877  12.9103  13.0056  13.1957  13.2845
    14.7051  15.0163  16.0420  16.6857  16.8734  16.9307  17.4598

          k = 0.0000 0.4444 0.1149 ( 31451 PWs)   bands (ev):

   -66.3043 -66.3041 -66.3039 -66.3037 -30.6527 -30.6518 -30.6018 -30.5944
   -30.5942 -30.5908 -30.5891 -30.5809 -30.5788 -30.5776 -30.5763 -30.5726
   -20.4706 -20.4706 -20.4705 -20.4705 -20.4566 -20.4565 -20.4562 -20.4562
   -20.4562 -20.4561 -20.4558 -20.4557 -20.4515 -20.4514 -20.4514 -20.4514
   -20.4489 -20.4489 -20.4431 -20.4431 -20.4401 -20.4398 -20.4397 -20.4395
   -20.4388 -20.4388 -20.4385 -20.4384  -9.6242  -9.4796  -9.0358  -8.7258
    -8.6728  -8.5869  -8.5672  -8.4991  -8.3838  -8.3630  -7.9143  -7.8984
     1.3724   1.3994   2.4939   2.6072   2.7149   2.7507   2.8022   2.8699
     3.1927   3.2830   3.7422   3.8255   3.8684   3.8693   3.9904   4.0933
     4.4153   4.5347   4.6804   4.7618   5.1428   5.3457   5.7056   5.7984
     6.4530   6.5331   6.5429   6.6429   7.3583   7.3892   7.4525   7.6047
     7.6391   7.7420   7.7494   7.9480  11.1748  11.2688  11.3614  11.4474
    11.8052  11.8682  12.0953  12.0968  12.7604  12.8622  13.0597  13.1558
    15.0828  15.4209  16.1498  16.7383  16.8725  16.9431  17.2548

          k = 0.0000 0.4444 0.2298 ( 31451 PWs)   bands (ev):

   -66.3043 -66.3040 -66.3040 -66.3038 -30.6397 -30.6387 -30.6080 -30.6043
   -30.5935 -30.5915 -30.5893 -30.5856 -30.5802 -30.5783 -30.5766 -30.5757
   -20.4706 -20.4706 -20.4705 -20.4705 -20.4566 -20.4566 -20.4562 -20.4562
   -20.4562 -20.4561 -20.4558 -20.4557 -20.4515 -20.4514 -20.4514 -20.4514
   -20.4477 -20.4476 -20.4443 -20.4443 -20.4398 -20.4397 -20.4395 -20.4394
   -20.4391 -20.4390 -20.4387 -20.4387  -9.4492  -9.2713  -9.1035  -8.8087
    -8.6008  -8.5827  -8.5712  -8.4609  -8.3795  -8.3674  -8.1744  -8.1524
     2.0769   2.0929   2.5245   2.5892   2.7849   2.8003   2.8975   2.9713
     3.1287   3.1756   3.7459   3.8126   3.9907   4.0429   4.0456   4.1146
     4.1688   4.2061   4.4950   4.5307   4.6688   4.8278   4.9627   5.0915
     6.9593   6.9694   6.9748   7.0053   7.3323   7.3557   7.4622   7.5576
     7.5970   7.6658   7.6803   7.8177  11.2858  11.3127  11.4912  11.6533
    11.9422  11.9550  12.1378  12.1820  12.3868  12.4935  12.7252  12.8336
    15.8754  16.3498  16.5492  16.8451  16.8525  16.9036  17.0486

          k = 0.0000 0.4444-0.3448 ( 31434 PWs)   bands (ev):

   -66.3041 -66.3041 -66.3039 -66.3039 -30.6226 -30.6226 -30.6210 -30.6210
   -30.5925 -30.5925 -30.5888 -30.5888 -30.5793 -30.5793 -30.5767 -30.5767
   -20.4706 -20.4706 -20.4705 -20.4705 -20.4566 -20.4566 -20.4562 -20.4562
   -20.4561 -20.4561 -20.4558 -20.4557 -20.4514 -20.4514 -20.4514 -20.4514
   -20.4460 -20.4460 -20.4460 -20.4459 -20.4395 -20.4395 -20.4394 -20.4394
   -20.4391 -20.4391 -20.4391 -20.4391  -9.2454  -9.2454  -9.0046  -9.0046
    -8.5769  -8.5769  -8.4391  -8.4391  -8.3732  -8.3732  -8.3630  -8.3630
     2.5599   2.5599   2.7140   2.7140   2.8884   2.8884   3.0173   3.0173
     3.1426   3.1426   3.3611   3.3612   3.8016   3.8016   4.2861   4.2861
     4.3431   4.3431   4.3956   4.3956   4.4993   4.4993   4.5661   4.5661
     7.2141   7.2141   7.2521   7.2521   7.3535   7.3536   7.3786   7.3786
     7.5587   7.5587   7.6924   7.6924  11.3157  11.3157  11.8250  11.8250
    12.0309  12.0309  12.0777  12.0777  12.3455  12.3455  12.4678  12.4678
    16.4522  16.4523  16.8552  16.8552  17.0130  17.0130  17.3950

          k = 0.1111 0.1111 0.0000 ( 31457 PWs)   bands (ev):

   -66.3048 -66.3043 -66.3037 -66.3032 -30.6574 -30.6542 -30.6265 -30.6221
   -30.6173 -30.6118 -30.5811 -30.5810 -30.5579 -30.5552 -30.5490 -30.5455
   -20.4706 -20.4706 -20.4705 -20.4705 -20.4574 -20.4574 -20.4568 -20.4568
   -20.4553 -20.4553 -20.4545 -20.4545 -20.4519 -20.4518 -20.4516 -20.4515
   -20.4495 -20.4493 -20.4424 -20.4423 -20.4412 -20.4408 -20.4397 -20.4394
   -20.4391 -20.4389 -20.4376 -20.4374 -10.0622  -9.5986  -9.3834  -8.9779
    -8.9323  -8.8938  -8.0451  -8.0228  -7.8499  -7.8365  -7.8128  -7.7487
     1.0481   1.2079   1.2161   1.2296   1.7830   1.8083   2.3602   2.5001
     2.6328   2.7461   3.8504   3.9074   4.2864   4.7484   4.9401   5.0666
     5.4766   5.5485   5.7412   5.8788   5.9461   6.0118   6.1881   6.3031
     6.5176   6.6854   6.7190   6.7488   6.9144   6.9929   7.0712   7.1902
     8.1719   8.2069   8.2377   8.3290   9.4617   9.4907   9.5145  10.0468
    12.3882  12.5334  12.7557  13.2048  13.3893  13.3926  13.6215  13.8020
    14.1081  14.4588  14.5413  14.8471  15.4681  16.5829  17.1585

          k = 0.1111 0.1111 0.1149 ( 31486 PWs)   bands (ev):

   -66.3048 -66.3043 -66.3037 -66.3032 -30.6525 -30.6493 -30.6262 -30.6224
   -30.6171 -30.6120 -30.5860 -30.5858 -30.5579 -30.5554 -30.5487 -30.5457
   -20.4706 -20.4706 -20.4705 -20.4705 -20.4574 -20.4574 -20.4568 -20.4568
   -20.4553 -20.4553 -20.4545 -20.4545 -20.4519 -20.4518 -20.4516 -20.4515
   -20.4491 -20.4488 -20.4429 -20.4427 -20.4411 -20.4407 -20.4398 -20.4395
   -20.4390 -20.4388 -20.4378 -20.4375 -10.0156  -9.6160  -9.2987  -8.9693
    -8.9341  -8.8604  -8.0853  -8.0208  -7.9361  -7.8672  -7.8349  -7.8144
     1.1955   1.2158   1.3342   1.4696   1.7815   1.8367   2.4313   2.5686
     2.6428   2.7386   3.7251   3.7479   4.3409   4.6876   4.8089   5.0767
     5.3008   5.4879   5.5338   5.5984   5.9806   6.1484   6.2264   6.4132
     6.4829   6.7060   6.7191   6.7909   6.9132   7.0375   7.0576   7.0838
     8.1441   8.1962   8.1975   8.2479   9.4931   9.5059   9.7223  10.2106
    12.2219  12.3658  12.7907  13.2324  13.3809  13.4038  13.7086  13.8548
    14.0103  14.4503  14.5640  15.0811  15.8933  16.2583  17.2577

          k = 0.1111 0.1111 0.2298 ( 31470 PWs)   bands (ev):

   -66.3047 -66.3044 -66.3036 -66.3033 -30.6392 -30.6359 -30.6254 -30.6232
   -30.6171 -30.6124 -30.5993 -30.5990 -30.5575 -30.5560 -30.5481 -30.5464
   -20.4706 -20.4706 -20.4705 -20.4705 -20.4574 -20.4574 -20.4568 -20.4568
   -20.4553 -20.4553 -20.4545 -20.4545 -20.4519 -20.4518 -20.4516 -20.4515
   -20.4478 -20.4476 -20.4443 -20.4440 -20.4408 -20.4405 -20.4400 -20.4398
   -20.4388 -20.4386 -20.4380 -20.4378  -9.8993  -9.6711  -9.0584  -8.9568
    -8.9394  -8.7365  -8.3310  -8.1807  -8.0152  -7.9868  -7.8306  -7.8187
     1.2104   1.2148   1.7331   1.7767   2.0485   2.3085   2.6345   2.6550
     2.7230   2.7927   3.3732   3.4100   3.9833   4.5340   4.5774   4.9825
     5.1088   5.1129   5.3902   5.4999   5.5615   5.9112   6.3348   6.6997
     6.7017   6.7164   6.8630   6.9019   6.9701   7.0042   7.1153   7.1347
     7.9176   7.9583   8.1979   8.2098   9.4976   9.5050  10.3324  10.6651
    11.7458  11.9082  12.9076  13.3008  13.3447  13.4136  13.5224  13.7781
    14.2459  14.4316  14.7031  15.6955  15.7564  16.9431  17.1202

          k = 0.1111 0.1111-0.3448 ( 31456 PWs)   bands (ev):

   -66.3046 -66.3046 -66.3035 -66.3035 -30.6243 -30.6243 -30.6226 -30.6226
   -30.6175 -30.6175 -30.6114 -30.6114 -30.5568 -30.5568 -30.5472 -30.5472
   -20.4706 -20.4706 -20.4705 -20.4705 -20.4574 -20.4574 -20.4568 -20.4568
   -20.4553 -20.4553 -20.4545 -20.4545 -20.4519 -20.4519 -20.4515 -20.4515
   -20.4461 -20.4461 -20.4458 -20.4458 -20.4404 -20.4404 -20.4401 -20.4401
   -20.4384 -20.4384 -20.4382 -20.4382  -9.7692  -9.7692  -8.9472  -8.9472
    -8.7068  -8.7067  -8.5003  -8.5002  -8.0057  -8.0056  -7.8247  -7.8247
     1.2131   1.2131   1.7668   1.7668   2.6835   2.6835   2.9720   2.9720
     2.9971   2.9971   3.0365   3.0365   3.4396   3.4396   4.8321   4.8321
     5.1811   5.1811   5.2581   5.2581   5.6414   5.6414   6.5035   6.5035
     6.7080   6.7080   6.8914   6.8914   7.1294   7.1294   7.5187   7.5187
     7.5245   7.5245   8.2040   8.2040   9.5019   9.5019  11.0668  11.0668
    11.2867  11.2867  13.1073  13.1073  13.4225  13.4225  13.5393  13.5393
    14.3943  14.3943  15.1301  15.1301  16.5661  16.5661  17.6335

          k = 0.1111 0.2222 0.0000 ( 31471 PWs)   bands (ev):

   -66.3047 -66.3042 -66.3038 -66.3033 -30.6576 -30.6548 -30.6249 -30.6202
   -30.6077 -30.6011 -30.5835 -30.5797 -30.5666 -30.5655 -30.5506 -30.5473
   -20.4706 -20.4706 -20.4705 -20.4705 -20.4575 -20.4575 -20.4564 -20.4564
   -20.4559 -20.4558 -20.4545 -20.4545 -20.4518 -20.4517 -20.4515 -20.4514
   -20.4495 -20.4493 -20.4425 -20.4424 -20.4411 -20.4404 -20.4397 -20.4393
   -20.4392 -20.4389 -20.4380 -20.4374  -9.9762  -9.4904  -9.4155  -8.9417
    -8.8287  -8.8015  -8.2720  -8.2239  -7.8940  -7.8861  -7.8296  -7.7572
     1.0642   1.1902   1.3485   1.3632   2.2383   2.2491   2.3920   2.6381
     2.8585   2.9671   3.6599   3.8405   4.0268   4.5555   4.6082   4.9279
     5.2868   5.3315   5.5722   5.8757   5.9987   6.0418   6.1043   6.1748
     6.2949   6.3909   6.4374   6.4679   6.8897   6.9915   7.0775   7.3608
     7.9985   8.0334   8.0991   8.3068   9.6439  10.0873  10.1219  10.6073
    12.2608  12.4844  12.6986  13.0755  13.1350  13.1587  13.5312  13.8089
    14.0256  14.8916  15.1027  15.1841  15.3640  17.0624  17.2523

          k = 0.1111 0.2222 0.1149 ( 31477 PWs)   bands (ev):

   -66.3047 -66.3042 -66.3038 -66.3033 -30.6527 -30.6499 -30.6246 -30.6204
   -30.6079 -30.6013 -30.5877 -30.5844 -30.5671 -30.5657 -30.5504 -30.5476
   -20.4706 -20.4706 -20.4705 -20.4705 -20.4575 -20.4575 -20.4564 -20.4564
   -20.4559 -20.4558 -20.4545 -20.4545 -20.4518 -20.4517 -20.4515 -20.4514
   -20.4490 -20.4488 -20.4430 -20.4428 -20.4410 -20.4403 -20.4397 -20.4392
   -20.4392 -20.4388 -20.4381 -20.4376  -9.9263  -9.5075  -9.3319  -8.9197
    -8.8311  -8.7848  -8.2932  -8.2209  -7.9556  -7.8924  -7.8846  -7.8578
     1.2831   1.3480   1.3817   1.4829   2.2471   2.2492   2.4628   2.7032
     2.8665   2.9601   3.5885   3.7427   4.0303   4.5718   4.6673   4.6732
     5.0569   5.2941   5.3927   5.6233   5.7549   6.0965   6.1555   6.1780
     6.4225   6.4555   6.4780   6.6544   6.8902   6.9965   7.0375   7.3588
     7.9939   8.0267   8.0485   8.2224   9.8564  10.0900  10.1276  10.7211
    12.2185  12.4039  12.5432  13.0842  13.1268  13.1771  13.4223  13.9266
    14.0569  14.8803  15.1953  15.3405  15.7846  16.6582  17.3411

          k = 0.1111 0.2222 0.2298 ( 31457 PWs)   bands (ev):

   -66.3046 -66.3043 -66.3037 -66.3034 -30.6396 -30.6366 -30.6240 -30.6211
   -30.6097 -30.6017 -30.6003 -30.5955 -30.5674 -30.5663 -30.5499 -30.5482
   -20.4706 -20.4706 -20.4705 -20.4705 -20.4575 -20.4575 -20.4564 -20.4564
   -20.4559 -20.4559 -20.4545 -20.4545 -20.4518 -20.4517 -20.4515 -20.4515
   -20.4478 -20.4476 -20.4443 -20.4441 -20.4407 -20.4402 -20.4400 -20.4395
   -20.4391 -20.4386 -20.4383 -20.4378  -9.8018  -9.5627  -9.0957  -8.8767
    -8.8384  -8.7001  -8.4274  -8.2110  -8.1885  -8.1130  -7.8878  -7.8742
     1.3387   1.3465   2.0433   2.0910   2.2384   2.3778   2.6743   2.8635
     2.9233   2.9430   3.3648   3.4058   3.9778   4.2168   4.4884   4.6313
     4.8535   4.8969   5.1904   5.2523   5.3463   5.7737   6.1573   6.1741
     6.5488   6.7613   6.8497   6.8774   6.9531   7.0140   7.1783   7.3426
     7.8306   7.9169   8.0271   8.0612  10.0936  10.0984  10.4415  11.0602
    11.7868  12.1206  12.5113  13.0309  13.1151  13.2107  13.2673  13.6908
    14.4825  14.8416  15.3243  15.9947  16.1203  16.8091  17.3507

          k = 0.1111 0.2222-0.3448 ( 31444 PWs)   bands (ev):

   -66.3045 -66.3045 -66.3036 -66.3036 -30.6248 -30.6248 -30.6196 -30.6196
   -30.6183 -30.6183 -30.6014 -30.6014 -30.5670 -30.5670 -30.5490 -30.5490
   -20.4706 -20.4706 -20.4705 -20.4705 -20.4575 -20.4575 -20.4564 -20.4564
   -20.4559 -20.4559 -20.4545 -20.4545 -20.4517 -20.4517 -20.4515 -20.4515
   -20.4460 -20.4460 -20.4458 -20.4458 -20.4403 -20.4403 -20.4398 -20.4398
   -20.4387 -20.4387 -20.4382 -20.4382  -9.6639  -9.6639  -8.8517  -8.8516
    -8.7554  -8.7551  -8.4893  -8.4891  -8.1888  -8.1886  -7.8815  -7.8814
     1.3437   1.3440   2.2175   2.2177   2.8776   2.8808   2.9768   2.9923
     3.0092   3.0118   3.0834   3.0946   3.4579   3.4595   4.5241   4.5345
     4.7869   4.7919   5.0789   5.1108   5.4389   5.4681   6.1680   6.1696
     6.6668   6.6827   6.8542   6.8656   7.2741   7.2757   7.4829   7.4873
     7.5095   7.5135   8.0368   8.0374  10.0995  10.1002  11.1289  11.1331
    11.5684  11.5723  12.7462  12.7651  13.1215  13.1774  13.4202  13.4577
    14.7374  14.7436  15.6330  15.6408  16.8086  16.8090  17.6706

          k = 0.1111 0.3333 0.0000 ( 31447 PWs)   bands (ev):

   -66.3046 -66.3040 -66.3040 -66.3035 -30.6576 -30.6557 -30.6192 -30.6136
   -30.5968 -30.5895 -30.5885 -30.5780 -30.5772 -30.5746 -30.5562 -30.5535
   -20.4706 -20.4706 -20.4705 -20.4705 -20.4574 -20.4574 -20.4564 -20.4564
   -20.4560 -20.4559 -20.4547 -20.4546 -20.4516 -20.4516 -20.4515 -20.4514
   -20.4494 -20.4493 -20.4426 -20.4426 -20.4408 -20.4400 -20.4397 -20.4393
   -20.4392 -20.4387 -20.4383 -20.4376  -9.8487  -9.4762  -9.3175  -8.8831
    -8.6662  -8.6483  -8.5437  -8.4438  -8.0387  -8.0328  -7.8199  -7.7704
     1.0870   1.1651   1.6723   1.6761   2.4812   2.6575   2.7293   2.8122
     3.2530   3.2544   3.3510   3.7264   3.9193   4.0418   4.3095   4.8480
     4.9305   5.0927   5.2421   5.5036   5.7069   5.8955   5.9918   6.0732
     6.1316   6.1863   6.3713   6.8134   6.8169   7.0129   7.1015   7.6594
     7.7695   7.7824   7.8870   8.2343  10.0702  10.7657  10.8044  11.2127
    11.7784  12.5448  12.6528  12.7034  12.7960  12.9824  13.2306  13.8256
    14.1656  15.1837  15.5255  15.5976  16.0233  17.3748  17.4220

          k = 0.1111 0.3333 0.1149 ( 31445 PWs)   bands (ev):

   -66.3045 -66.3041 -66.3039 -66.3035 -30.6528 -30.6508 -30.6190 -30.6138
   -30.5976 -30.5920 -30.5887 -30.5810 -30.5782 -30.5766 -30.5562 -30.5537
   -20.4706 -20.4706 -20.4705 -20.4705 -20.4574 -20.4574 -20.4564 -20.4564
   -20.4560 -20.4559 -20.4546 -20.4546 -20.4516 -20.4516 -20.4515 -20.4514
   -20.4490 -20.4488 -20.4431 -20.4430 -20.4408 -20.4400 -20.4397 -20.4394
   -20.4391 -20.4387 -20.4384 -20.4377  -9.7929  -9.3958  -9.3342  -8.8578
    -8.6695  -8.6410  -8.5610  -8.4378  -8.0471  -8.0369  -7.9213  -7.8829
     1.3463   1.4224   1.6713   1.6914   2.5516   2.6786   2.7704   2.8122
     3.2273   3.2585   3.3454   3.7033   3.8743   4.0750   4.3758   4.6470
     4.8588   4.9212   5.0358   5.4960   5.5120   5.5798   5.6741   6.0244
     6.3761   6.4843   6.5530   6.8369   6.8766   7.0044   7.1258   7.6375
     7.7672   7.7769   7.8478   8.1582  10.2290  10.7673  10.8056  11.2931
    11.8381  12.3812  12.6423  12.6972  12.7912  12.8847  13.1024  13.7184
    14.4557  15.5781  15.5916  15.6912  16.0660  17.0759  17.4648

          k = 0.1111 0.3333 0.2298 ( 31445 PWs)   bands (ev):

   -66.3044 -66.3042 -66.3038 -66.3036 -30.6399 -30.6375 -30.6189 -30.6143
   -30.6035 -30.6024 -30.5891 -30.5875 -30.5789 -30.5787 -30.5558 -30.5543
   -20.4706 -20.4706 -20.4705 -20.4705 -20.4574 -20.4574 -20.4564 -20.4564
   -20.4560 -20.4559 -20.4546 -20.4546 -20.4516 -20.4516 -20.4514 -20.4514
   -20.4478 -20.4476 -20.4443 -20.4442 -20.4405 -20.4398 -20.4398 -20.4394
   -20.4391 -20.4388 -20.4387 -20.4380  -9.6524  -9.3900  -9.1720  -8.7827
    -8.6808  -8.6422  -8.6041  -8.4158  -8.2020  -8.1697  -8.0315  -8.0063
     1.6487   1.6682   2.0640   2.1614   2.7149   2.7559   2.8076   2.9227
     3.1426   3.2583   3.3301   3.4317   3.9864   4.0229   4.1897   4.3212
     4.5640   4.8435   4.8552   4.9332   4.9875   5.4251   5.5095   5.5930
     6.8025   6.8891   6.9260   6.9335   6.9889   7.0273   7.2392   7.5602
     7.6871   7.7424   7.7945   7.9462  10.6389  10.7706  10.8383  11.5421
    11.8934  12.0631  12.4057  12.6487  12.6767  12.8213  12.9697  13.4604
    14.9804  15.5123  16.0279  16.4062  16.5623  16.6459  17.4803

          k = 0.1111 0.3333-0.3448 ( 31444 PWs)   bands (ev):

   -66.3043 -66.3043 -66.3037 -66.3037 -30.6241 -30.6241 -30.6196 -30.6196
   -30.6133 -30.6133 -30.5893 -30.5893 -30.5792 -30.5792 -30.5551 -30.5551
   -20.4706 -20.4706 -20.4705 -20.4705 -20.4574 -20.4574 -20.4564 -20.4564
   -20.4559 -20.4559 -20.4546 -20.4546 -20.4516 -20.4516 -20.4514 -20.4514
   -20.4460 -20.4460 -20.4459 -20.4459 -20.4402 -20.4401 -20.4394 -20.4394
   -20.4391 -20.4391 -20.4384 -20.4384  -9.4981  -9.4981  -8.8706  -8.8702
    -8.7091  -8.7083  -8.4606  -8.4598  -8.3560  -8.3553  -8.0231  -8.0229
     1.6624   1.6630   2.6995   2.6998   2.9041   2.9049   3.0214   3.0404
     3.0971   3.1168   3.3099   3.3111   3.4115   3.4152   4.3414   4.3570
     4.4376   4.4431   4.7529   4.8243   5.0286   5.0888   5.5187   5.5190
     6.9007   6.9170   6.9558   6.9720   7.3805   7.3855   7.4192   7.4304
     7.4846   7.4944   7.8112   7.8152  10.7665  10.7716  11.3038  11.3208
    11.9395  11.9494  12.3308  12.3643  12.6725  12.7449  13.1601  13.1984
    15.3324  15.3477  16.2669  16.2855  17.1428  17.1624  17.4799

          k = 0.1111 0.4444 0.0000 ( 31467 PWs)   bands (ev):

   -66.3044 -66.3042 -66.3038 -66.3036 -30.6573 -30.6566 -30.6102 -30.6035
   -30.5994 -30.5911 -30.5869 -30.5804 -30.5753 -30.5724 -30.5644 -30.5632
   -20.4706 -20.4706 -20.4705 -20.4705 -20.4573 -20.4572 -20.4569 -20.4569
   -20.4555 -20.4554 -20.4550 -20.4550 -20.4515 -20.4515 -20.4514 -20.4514
   -20.4494 -20.4493 -20.4427 -20.4427 -20.4405 -20.4401 -20.4396 -20.4393
   -20.4391 -20.4387 -20.4383 -20.4379  -9.7043  -9.5732  -9.0909  -8.8262
    -8.7875  -8.6408  -8.4605  -8.4513  -8.2382  -8.2372  -7.8040  -7.7867
     1.1111   1.1375   2.1241   2.1498   2.5650   2.6290   2.7091   2.7596
     3.3018   3.6620   3.8013   3.8068   3.8532   4.0051   4.1173   4.3185
     4.4892   4.7863   4.9698   5.1128   5.5570   5.7354   5.9388   5.9979
     6.1710   6.2373   6.3648   6.5575   7.2090   7.2215   7.3006   7.4940
     7.5096   7.6018   7.9151   8.1058  10.6165  11.1946  11.4463  11.4975
    11.7986  12.0903  12.1514  12.3591  12.7153  12.9474  13.2510  13.5522
    14.5698  14.9196  16.0943  16.4610  16.7831  16.9427  17.3139

          k = 0.1111 0.4444 0.1149 ( 31452 PWs)   bands (ev):

   -66.3043 -66.3041 -66.3039 -66.3037 -30.6525 -30.6517 -30.6103 -30.6037
   -30.6002 -30.5913 -30.5894 -30.5836 -30.5755 -30.5743 -30.5649 -30.5634
   -20.4706 -20.4706 -20.4705 -20.4705 -20.4573 -20.4572 -20.4569 -20.4569
   -20.4555 -20.4554 -20.4550 -20.4550 -20.4515 -20.4515 -20.4514 -20.4514
   -20.4489 -20.4489 -20.4431 -20.4431 -20.4404 -20.4400 -20.4396 -20.4393
   -20.4392 -20.4388 -20.4384 -20.4380  -9.6398  -9.4994  -9.1073  -8.8426
    -8.7674  -8.6287  -8.4653  -8.4475  -8.2453  -8.2348  -7.9131  -7.8984
     1.3741   1.4005   2.1308   2.1473   2.5819   2.6969   2.7032   2.8128
     3.2783   3.5946   3.7976   3.8304   3.8967   4.0651   4.1392   4.3276
     4.4434   4.7153   4.7932   4.8681   5.2187   5.3218   5.7541   5.8778
     6.3812   6.4370   6.6172   6.7414   7.2094   7.2182   7.3083   7.4868
     7.5100   7.5840   7.8732   8.0445  10.7283  11.2701  11.4467  11.5016
    11.8559  12.0887  12.1512  12.4063  12.5583  12.8024  13.1169  13.4324
    14.9128  15.3038  16.2121  16.4359  16.8488  16.9705  17.2389

          k = 0.1111 0.4444 0.2298 ( 31448 PWs)   bands (ev):

   -66.3042 -66.3040 -66.3040 -66.3038 -30.6395 -30.6386 -30.6119 -30.6060
   -30.6041 -30.5980 -30.5918 -30.5899 -30.5764 -30.5761 -30.5651 -30.5640
   -20.4706 -20.4706 -20.4705 -20.4705 -20.4572 -20.4572 -20.4569 -20.4569
   -20.4555 -20.4554 -20.4550 -20.4550 -20.4515 -20.4515 -20.4514 -20.4514
   -20.4477 -20.4476 -20.4443 -20.4442 -20.4402 -20.4398 -20.4395 -20.4394
   -20.4391 -20.4391 -20.4387 -20.4383  -9.4737  -9.3013  -9.1651  -8.9062
    -8.6964  -8.5831  -8.4851  -8.4331  -8.2944  -8.2272  -8.1674  -8.1278
     2.0227   2.0764   2.1394   2.2230   2.6307   2.6787   2.9012   2.9676
     3.1934   3.3759   3.8048   3.8300   4.0577   4.0706   4.1942   4.2344
     4.2538   4.3839   4.4413   4.7785   4.8118   4.9032   5.0484   5.2605
     6.8815   6.9176   6.9893   7.0194   7.1915   7.2117   7.3537   7.4575
     7.4821   7.5544   7.7409   7.8602  11.0526  11.4346  11.4569  11.5728
    12.0194  12.0572  12.1666  12.1716  12.4424  12.5529  12.7827  13.1392
    15.5922  16.1492  16.3306  16.5831  17.0217  17.0702  17.1247

          k = 0.1111 0.4444-0.3448 ( 31470 PWs)   bands (ev):

   -66.3041 -66.3041 -66.3039 -66.3039 -30.6227 -30.6227 -30.6211 -30.6211
   -30.6037 -30.6037 -30.5919 -30.5919 -30.5766 -30.5766 -30.5647 -30.5647
   -20.4706 -20.4706 -20.4705 -20.4705 -20.4572 -20.4572 -20.4569 -20.4569
   -20.4554 -20.4554 -20.4550 -20.4550 -20.4515 -20.4515 -20.4514 -20.4514
   -20.4460 -20.4460 -20.4459 -20.4459 -20.4398 -20.4398 -20.4395 -20.4395
   -20.4391 -20.4391 -20.4387 -20.4387  -9.2883  -9.2882  -9.0629  -9.0627
    -8.5656  -8.5648  -8.4677  -8.4677  -8.3780  -8.3778  -8.2101  -8.2097
     2.1242   2.1249   2.6246   2.6246   2.9298   2.9307   2.9807   2.9855
     3.2568   3.2638   3.3734   3.3749   3.8295   3.8436   4.2662   4.2759
     4.3770   4.4517   4.4666   4.5001   4.6401   4.6885   4.8807   4.8808
     7.1150   7.1155   7.1571   7.1575   7.3085   7.3132   7.3302   7.3504
     7.5208   7.5319   7.6199   7.6294  11.3839  11.4294  11.5911  11.6472
    11.8972  11.9466  12.0954  12.1937  12.3840  12.4087  12.7955  12.8269
    16.0627  16.0912  16.7180  16.7916  16.9417  17.0546  17.3700

          k = 0.2222 0.2222 0.0000 ( 31433 PWs)   bands (ev):

   -66.3046 -66.3041 -66.3039 -66.3034 -30.6572 -30.6552 -30.6279 -30.6235
   -30.5966 -30.5894 -30.5880 -30.5784 -30.5777 -30.5740 -30.5478 -30.5443
   -20.4706 -20.4706 -20.4705 -20.4705 -20.4578 -20.4578 -20.4566 -20.4566
   -20.4558 -20.4558 -20.4541 -20.4540 -20.4518 -20.4517 -20.4515 -20.4514
   -20.4495 -20.4493 -20.4426 -20.4424 -20.4412 -20.4400 -20.4398 -20.4395
   -20.4390 -20.4386 -20.4383 -20.4374  -9.9254  -9.4535  -9.4459  -8.9495
    -8.6861  -8.6554  -8.5208  -8.4354  -7.8540  -7.8377  -7.8293  -7.7641
     1.0651   1.1806   1.2467   1.2772   2.3427   2.6799   2.7325   2.8436
     3.0666   3.1651   3.2646   3.7259   3.9937   4.0534   4.7481   4.9249
     5.2428   5.2799   5.4770   5.8389   5.9483   6.0232   6.1413   6.1695
     6.1764   6.2076   6.3557   6.5323   6.6083   6.8091   7.1938   7.6454
     7.7573   7.8174   7.8995   8.3283   9.5034  10.5834  10.6246  11.2044
    11.7621  12.4218  12.9326  12.9515  12.9543  13.2090  13.2345  13.7589
    14.1107  14.9187  15.2257  15.3534  15.7435  17.3341  17.4980

          k = 0.2222 0.2222 0.1149 ( 31444 PWs)   bands (ev):

   -66.3046 -66.3041 -66.3039 -66.3034 -30.6523 -30.6503 -30.6276 -30.6238
   -30.5977 -30.5917 -30.5882 -30.5814 -30.5786 -30.5764 -30.5475 -30.5446
   -20.4706 -20.4706 -20.4705 -20.4705 -20.4578 -20.4578 -20.4566 -20.4566
   -20.4558 -20.4558 -20.4540 -20.4540 -20.4518 -20.4517 -20.4515 -20.4514
   -20.4490 -20.4488 -20.4430 -20.4429 -20.4411 -20.4400 -20.4398 -20.4395
   -20.4390 -20.4387 -20.4384 -20.4375  -9.8745  -9.4617  -9.3724  -8.9202
    -8.6901  -8.6471  -8.5365  -8.4298  -7.9476  -7.8828  -7.8523  -7.8310
     1.2127   1.2464   1.3718   1.4733   2.4146   2.7015   2.7800   2.8345
     3.0728   3.1558   3.2414   3.7184   3.8812   4.0866   4.6547   4.8023
     4.9522   5.2825   5.3434   5.5530   5.6704   6.0656   6.1619   6.1762
     6.3180   6.3863   6.5123   6.5462   6.6131   6.8930   7.0624   7.6239
     7.7695   7.8113   7.8615   8.2387   9.7490  10.5858  10.6243  11.2837
    11.8233  12.2521  12.7909  12.9308  12.9559  13.1208  13.2355  13.9873
    14.0134  14.8994  15.5296  15.6283  15.8393  17.0128  17.5349

          k = 0.2222 0.2222 0.2298 ( 31449 PWs)   bands (ev):

   -66.3045 -66.3042 -66.3038 -66.3035 -30.6390 -30.6371 -30.6268 -30.6246
   -30.6048 -30.6019 -30.5886 -30.5874 -30.5792 -30.5792 -30.5469 -30.5452
   -20.4706 -20.4706 -20.4705 -20.4705 -20.4578 -20.4578 -20.4566 -20.4566
   -20.4558 -20.4558 -20.4540 -20.4540 -20.4518 -20.4517 -20.4515 -20.4514
   -20.4478 -20.4476 -20.4443 -20.4441 -20.4408 -20.4400 -20.4398 -20.4394
   -20.4391 -20.4387 -20.4386 -20.4378  -9.7481  -9.5135  -9.1463  -8.8330
    -8.7044  -8.6117  -8.6086  -8.4093  -8.1998  -8.1594  -7.8478  -7.8355
     1.2387   1.2452   2.0593   2.1885   2.6233   2.7686   2.8056   2.9137
     3.0866   3.1165   3.1798   3.3864   3.9884   4.0132   4.2010   4.3185
     4.8810   4.9302   4.9974   5.2412   5.3363   5.8372   6.1720   6.1781
     6.4761   6.4888   6.5934   6.8196   6.9377   7.0261   7.1521   7.5472
     7.6994   7.7734   7.8176   7.9921  10.3344  10.5912  10.6338  11.5317
    11.7457  12.0473  12.4085  12.7198  12.9627  12.9937  13.3382  13.7779
    14.3933  14.8309  15.8189  16.3523  16.5423  16.5989  17.6830

          k = 0.2222 0.2222-0.3448 ( 31464 PWs)   bands (ev):

   -66.3044 -66.3044 -66.3036 -66.3036 -30.6257 -30.6257 -30.6210 -30.6210
   -30.6191 -30.6191 -30.5889 -30.5889 -30.5796 -30.5796 -30.5460 -30.5460
   -20.4706 -20.4706 -20.4705 -20.4705 -20.4578 -20.4578 -20.4566 -20.4566
   -20.4558 -20.4558 -20.4540 -20.4540 -20.4517 -20.4517 -20.4515 -20.4514
   -20.4460 -20.4460 -20.4459 -20.4458 -20.4404 -20.4404 -20.4394 -20.4394
   -20.4391 -20.4391 -20.4382 -20.4382  -9.6109  -9.6109  -8.8405  -8.8405
    -8.7413  -8.7413  -8.4644  -8.4644  -8.3513  -8.3513  -7.8417  -7.8417
     1.2431   1.2431   2.7291   2.7291   2.9309   2.9309   2.9465   2.9465
     3.0925   3.0925   3.1525   3.1525   3.3721   3.3721   4.3460   4.3460
     4.4495   4.4495   5.1585   5.1585   5.4962   5.4962   6.1791   6.1791
     6.5491   6.5491   6.6355   6.6355   7.3744   7.3744   7.4480   7.4480
     7.4719   7.4719   7.8425   7.8425  10.5926  10.5927  11.0916  11.0917
    11.9365  11.9365  12.3502  12.3502  12.9715  12.9715  13.5263  13.5263
    14.6790  14.6790  16.1255  16.1255  17.1488  17.1489  17.6113

          k = 0.2222 0.3333 0.0000 ( 31436 PWs)   bands (ev):

   -66.3045 -66.3040 -66.3040 -66.3035 -30.6569 -30.6558 -30.6264 -30.6216
   -30.6000 -30.5920 -30.5876 -30.5777 -30.5744 -30.5725 -30.5493 -30.5460
   -20.4706 -20.4706 -20.4705 -20.4705 -20.4580 -20.4580 -20.4572 -20.4572
   -20.4552 -20.4551 -20.4539 -20.4539 -20.4517 -20.4516 -20.4515 -20.4514
   -20.4494 -20.4493 -20.4426 -20.4425 -20.4411 -20.4401 -20.4396 -20.4396
   -20.4390 -20.4387 -20.4383 -20.4374  -9.8421  -9.5219  -9.3544  -8.9273
    -8.7775  -8.6287  -8.4846  -8.4651  -7.9135  -7.8997  -7.8178  -7.7749
     1.0878   1.1639   1.3588   1.3824   2.3724   2.5636   2.7058   2.7799
     3.3448   3.5009   3.5164   3.8500   3.9286   4.0890   4.6198   4.9486
     5.0010   5.1002   5.2633   5.8218   5.8289   5.8473   5.8500   6.0151
     6.1995   6.2655   6.4758   6.5372   6.6437   6.8412   7.0650   7.4817
     7.5119   7.6233   7.9005   8.3029   9.6817  11.1608  11.1864  11.2191
    11.7968  12.4474  12.6526  12.6695  12.9484  13.0586  13.2663  13.9158
    14.0334  14.9863  15.2385  15.7438  16.4145  17.3161  17.5527

          k = 0.2222 0.3333 0.1149 ( 31440 PWs)   bands (ev):

   -66.3045 -66.3040 -66.3040 -66.3035 -30.6521 -30.6509 -30.6261 -30.6219
   -30.6007 -30.5922 -30.5908 -30.5818 -30.5746 -30.5741 -30.5491 -30.5462
   -20.4706 -20.4706 -20.4705 -20.4705 -20.4580 -20.4580 -20.4572 -20.4572
   -20.4552 -20.4551 -20.4539 -20.4539 -20.4517 -20.4516 -20.4515 -20.4514
   -20.4490 -20.4488 -20.4430 -20.4429 -20.4410 -20.4400 -20.4397 -20.4396
   -20.4389 -20.4388 -20.4384 -20.4376  -9.7883  -9.4463  -9.3690  -8.8969
    -8.7916  -8.6176  -8.4906  -8.4608  -7.9519  -7.9118  -7.8974  -7.8741
     1.2921   1.3584   1.3923   1.4845   2.4453   2.5797   2.6980   2.8381
     3.3318   3.4829   3.5115   3.7859   3.9095   4.0901   4.6779   4.6885
     4.9642   4.9896   5.0344   5.3965   5.7509   5.7984   5.8322   6.1215
     6.2643   6.4307   6.5565   6.6119   6.6465   6.9024   7.0096   7.4873
     7.5054   7.6031   7.8577   8.2157   9.8979  11.1622  11.1979  11.2906
    11.8551  12.2765  12.6491  12.6564  12.8161  13.0560  13.1692  13.9322
    14.1637  15.2126  15.3638  15.9136  16.4982  17.2019  17.5913

          k = 0.2222 0.3333 0.2298 ( 31454 PWs)   bands (ev):

   -66.3044 -66.3041 -66.3039 -66.3036 -30.6389 -30.6378 -30.6254 -30.6225
   -30.6055 -30.6021 -30.5927 -30.5899 -30.5757 -30.5752 -30.5485 -30.5468
   -20.4706 -20.4706 -20.4705 -20.4705 -20.4580 -20.4580 -20.4572 -20.4572
   -20.4552 -20.4551 -20.4539 -20.4539 -20.4517 -20.4517 -20.4515 -20.4514
   -20.4477 -20.4476 -20.4443 -20.4441 -20.4408 -20.4400 -20.4398 -20.4394
   -20.4391 -20.4388 -20.4386 -20.4378  -9.6553  -9.4180  -9.2425  -8.8477
    -8.7946  -8.5749  -8.5169  -8.4443  -8.2082  -8.1658  -7.9071  -7.8928
     1.3479   1.3569   2.0670   2.1839   2.6274   2.6626   2.6752   3.0026
     3.2566   3.3580   3.4962   3.5128   4.0739   4.0854   4.1840   4.2686
     4.7540   4.8348   4.9757   5.0384   5.0570   5.6386   5.8390   5.9102
     6.5039   6.6233   6.6461   6.8676   6.9012   7.0328   7.1451   7.4791
     7.4905   7.5542   7.7188   7.9618  10.4445  11.1643  11.1981  11.5348
    11.8166  12.0430  12.3922  12.6518  12.6934  12.7699  13.2322  13.6895
    14.6134  15.1244  16.1791  16.3272  16.8863  16.9126  17.4121

          k = 0.2222 0.3333-0.3448 ( 31458 PWs)   bands (ev):

   -66.3042 -66.3042 -66.3038 -66.3038 -30.6254 -30.6254 -30.6203 -30.6203
   -30.6188 -30.6188 -30.5927 -30.5927 -30.5757 -30.5757 -30.5477 -30.5477
   -20.4706 -20.4706 -20.4705 -20.4705 -20.4580 -20.4580 -20.4572 -20.4572
   -20.4552 -20.4551 -20.4539 -20.4539 -20.4517 -20.4517 -20.4514 -20.4514
   -20.4460 -20.4460 -20.4459 -20.4459 -20.4404 -20.4404 -20.4395 -20.4395
   -20.4391 -20.4391 -20.4382 -20.4382  -9.5139  -9.5139  -8.9983  -8.9982
    -8.6226  -8.6221  -8.4554  -8.4551  -8.3853  -8.3852  -7.9004  -7.9003
     1.3540   1.3542   2.6174   2.6175   2.9493   2.9559   2.9645   2.9772
     3.2106   3.2165   3.3396   3.3510   3.4959   3.4963   4.3329   4.3355
     4.4768   4.4774   4.9187   4.9621   5.2566   5.3023   5.8528   5.8560
     6.5849   6.5933   6.7510   6.7582   7.3286   7.3308   7.3504   7.3647
     7.4640   7.4711   7.6388   7.6459  11.0703  11.0915  11.2287  11.2563
    11.9392  11.9468  12.3627  12.3641  12.6655  12.6841  13.4200  13.4345
    14.9368  14.9445  16.5782  16.5851  16.9999  17.0192  17.5829

          k = 0.2222 0.4444 0.0000 ( 31438 PWs)   bands (ev):

   -66.3044 -66.3042 -66.3038 -66.3037 -30.6567 -30.6563 -30.6206 -30.6151
   -30.6114 -30.6047 -30.5829 -30.5802 -30.5636 -30.5620 -30.5550 -30.5521
   -20.4706 -20.4706 -20.4705 -20.4705 -20.4579 -20.4579 -20.4577 -20.4577
   -20.4546 -20.4546 -20.4542 -20.4541 -20.4516 -20.4515 -20.4515 -20.4514
   -20.4494 -20.4493 -20.4426 -20.4425 -20.4408 -20.4404 -20.4394 -20.4394
   -20.4391 -20.4391 -20.4379 -20.4376  -9.7345  -9.6203  -9.2093  -9.0133
    -8.8728  -8.7764  -8.2605  -8.2547  -8.0580  -8.0523  -7.8030  -7.7883
     1.1159   1.1415   1.6735   1.6824   2.1231   2.1458   2.4740   2.6303
     3.6944   3.9000   3.9573   3.9950   4.0599   4.3376   4.5020   4.5686
     4.6776   5.1270   5.2991   5.3087   5.6838   5.7087   5.8324   5.8606
     6.2810   6.3670   6.4831   6.7553   6.8774   6.8818   7.0077   7.1772
     7.2152   7.2898   8.0951   8.2271  10.0977  10.6313  11.7271  11.7636
    12.2358  12.2425  12.3630  12.5451  12.7118  12.7812  13.5565  13.8329
    14.2559  14.6486  15.8431  16.2542  16.6303  16.8798  17.1058

          k = 0.2222 0.4444 0.1149 ( 31446 PWs)   bands (ev):

   -66.3043 -66.3042 -66.3039 -66.3037 -30.6519 -30.6515 -30.6205 -30.6153
   -30.6114 -30.6049 -30.5873 -30.5848 -30.5639 -30.5622 -30.5549 -30.5524
   -20.4706 -20.4706 -20.4705 -20.4705 -20.4579 -20.4579 -20.4577 -20.4577
   -20.4546 -20.4546 -20.4542 -20.4541 -20.4516 -20.4515 -20.4515 -20.4514
   -20.4489 -20.4489 -20.4430 -20.4430 -20.4408 -20.4404 -20.4395 -20.4393
   -20.4392 -20.4391 -20.4380 -20.4377  -9.6751  -9.5528  -9.2232  -9.0270
    -8.8463  -8.7574  -8.2689  -8.2520  -8.0664  -8.0561  -7.9089  -7.8981
     1.3730   1.3992   1.6725   1.6996   2.1301   2.1431   2.5480   2.7024
     3.6417   3.7687   3.9465   4.0036   4.0840   4.3916   4.5042   4.5223
     4.6891   4.8960   5.0228   5.2987   5.3197   5.4629   5.8849   6.0294
     6.2736   6.3170   6.7093   6.8479   6.8776   6.9021   7.0325   7.1697
     7.2133   7.2888   8.0325   8.1492  10.2594  10.7469  11.7270  11.7617
    12.2327  12.2452  12.3817  12.4015  12.5580  12.8197  13.4345  13.7231
    14.5430  14.9842  15.8116  16.3931  16.5930  16.9758  17.1739

          k = 0.2222 0.4444 0.2298 ( 31461 PWs)   bands (ev):

   -66.3042 -66.3041 -66.3040 -66.3038 -30.6389 -30.6385 -30.6202 -30.6156
   -30.6125 -30.6053 -30.5997 -30.5964 -30.5640 -30.5628 -30.5545 -30.5530
   -20.4706 -20.4706 -20.4705 -20.4705 -20.4579 -20.4579 -20.4577 -20.4577
   -20.4546 -20.4546 -20.4541 -20.4541 -20.4516 -20.4515 -20.4515 -20.4515
   -20.4477 -20.4476 -20.4442 -20.4442 -20.4405 -20.4402 -20.4398 -20.4395
   -20.4391 -20.4388 -20.4383 -20.4380  -9.5269  -9.3792  -9.2710  -9.0765
    -8.7513  -8.6851  -8.3288  -8.2438  -8.2322  -8.1359  -8.0504  -8.0225
     1.6478   1.6695   2.0094   2.1349   2.1649   2.2262   2.7718   2.9185
     3.4145   3.4297   3.9314   3.9551   4.2440   4.2646   4.2890   4.4488
     4.4990   4.6426   4.7317   4.8985   5.2676   5.2845   5.3333   5.5770
     6.6549   6.7984   6.8443   6.9363   6.9664   7.0207   7.1452   7.1701
     7.2338   7.3020   7.8384   7.9154  10.7028  11.0834  11.7152  11.7549
    11.9454  12.1039  12.2407  12.2880  12.5414  12.9429  13.1362  13.4577
    15.0875  15.6691  15.7062  16.4556  16.7770  17.2488  17.4111

          k = 0.2222 0.4444-0.3448 ( 31484 PWs)   bands (ev):

   -66.3041 -66.3041 -66.3039 -66.3039 -30.6237 -30.6237 -30.6218 -30.6218
   -30.6135 -30.6135 -30.6045 -30.6045 -30.5635 -30.5635 -30.5538 -30.5538
   -20.4706 -20.4706 -20.4705 -20.4705 -20.4579 -20.4579 -20.4577 -20.4577
   -20.4546 -20.4546 -20.4541 -20.4541 -20.4516 -20.4516 -20.4515 -20.4515
   -20.4460 -20.4460 -20.4459 -20.4459 -20.4402 -20.4402 -20.4399 -20.4399
   -20.4387 -20.4387 -20.4384 -20.4384  -9.3710  -9.3709  -9.1909  -9.1908
    -8.5548  -8.5544  -8.5111  -8.5110  -8.2245  -8.2243  -8.0414  -8.0412
     1.6636   1.6640   2.1192   2.1195   2.9701   2.9713   2.9776   2.9829
     3.2887   3.2959   3.3701   3.3713   3.9307   3.9534   4.4017   4.4239
     4.6518   4.6614   4.8417   4.8515   4.9486   4.9779   5.3771   5.3799
     6.7926   6.7952   6.9751   6.9759   7.0751   7.0886   7.1875   7.1918
     7.5109   7.5174   7.5528   7.5608  11.2932  11.3082  11.5708  11.5860
    11.7476  11.7802  12.2403  12.2727  12.7902  12.8050  13.1591  13.1759
    15.4790  15.4932  16.1771  16.1991  17.1111  17.1540  17.4907

          k = 0.3333 0.3333 0.0000 ( 31436 PWs)   bands (ev):

   -66.3044 -66.3041 -66.3039 -66.3036 -30.6562 -30.6559 -30.6294 -30.6250
   -30.6118 -30.6052 -30.5835 -30.5791 -30.5632 -30.5615 -30.5464 -30.5430
   -20.4706 -20.4706 -20.4705 -20.4705 -20.4583 -20.4583 -20.4579 -20.4578
   -20.4545 -20.4544 -20.4535 -20.4535 -20.4518 -20.4517 -20.4515 -20.4514
   -20.4494 -20.4493 -20.4425 -20.4424 -20.4413 -20.4404 -20.4397 -20.4394
   -20.4391 -20.4390 -20.4379 -20.4374  -9.8153  -9.5950  -9.3518  -8.9946
    -8.9375  -8.7721  -8.2675  -8.2610  -7.8736  -7.8479  -7.8192  -7.7820
     1.0910   1.1576   1.2468   1.2844   2.1208   2.1427   2.3290   2.6344
     3.7198   3.8215   3.8811   4.0117   4.0252   4.6560   4.7650   4.9408
     5.0114   5.1376   5.3277   5.6898   5.7226   5.7677   5.9438   6.0614
     6.2916   6.3502   6.3918   6.4152   6.5371   6.7768   7.0973   7.1492
     7.2000   7.2898   8.0919   8.3245   9.5375  10.6311  11.6159  11.6555
    12.3348  12.4123  12.5527  12.5659  12.7194  13.1722  13.5610  13.8141
    14.1140  14.6666  15.1197  16.0779  16.6573  16.8645  17.4703

          k = 0.3333 0.3333 0.1149 ( 31444 PWs)   bands (ev):

   -66.3044 -66.3041 -66.3039 -66.3036 -30.6513 -30.6511 -30.6291 -30.6253
   -30.6118 -30.6054 -30.5880 -30.5839 -30.5635 -30.5617 -30.5462 -30.5432
   -20.4706 -20.4706 -20.4705 -20.4705 -20.4583 -20.4583 -20.4579 -20.4578
   -20.4545 -20.4544 -20.4535 -20.4535 -20.4518 -20.4517 -20.4515 -20.4514
   -20.4490 -20.4489 -20.4430 -20.4428 -20.4411 -20.4404 -20.4398 -20.4393
   -20.4392 -20.4389 -20.4380 -20.4375  -9.7623  -9.5270  -9.3652  -9.0075
    -8.9047  -8.7534  -8.2762  -8.2583  -7.9335  -7.8970  -7.8719  -7.8496
     1.2157   1.2464   1.3907   1.4615   2.1277   2.1400   2.4026   2.7079
     3.7032   3.7750   3.8165   3.8417   4.0940   4.6643   4.8179   4.8846
     4.9557   4.9620   5.0375   5.3112   5.8332   5.8811   5.9484   6.0515
     6.1399   6.3774   6.4451   6.4837   6.6319   6.8632   7.0722   7.1370
     7.1416   7.2883   8.0289   8.2335   9.7817  10.7484  11.6169  11.6536
    12.2408  12.3792  12.5108  12.5566  12.6134  13.2034  13.4408  14.0139
    14.0505  14.9988  15.0923  16.2521  16.6173  16.9566  17.5981

          k = 0.3333 0.3333 0.2298 ( 31451 PWs)   bands (ev):

   -66.3043 -66.3040 -66.3040 -66.3037 -30.6380 -30.6378 -30.6283 -30.6261
   -30.6128 -30.6057 -30.6011 -30.5959 -30.5635 -30.5623 -30.5455 -30.5438
   -20.4706 -20.4706 -20.4705 -20.4705 -20.4583 -20.4583 -20.4579 -20.4578
   -20.4544 -20.4544 -20.4535 -20.4535 -20.4518 -20.4517 -20.4515 -20.4515
   -20.4477 -20.4476 -20.4442 -20.4441 -20.4409 -20.4402 -20.4400 -20.4395
   -20.4391 -20.4386 -20.4383 -20.4378  -9.6326  -9.4099  -9.3522  -9.0544
    -8.7911  -8.6812  -8.3376  -8.2497  -8.2099  -8.1379  -7.8672  -7.8544
     1.2393   1.2455   2.0050   2.1318   2.1905   2.2251   2.6180   2.9292
     3.3794   3.4754   3.7662   3.8019   4.2443   4.2935   4.2967   4.7024
     4.8411   4.9111   4.9267   5.0781   5.2702   5.7052   5.9573   6.0295
     6.2592   6.3731   6.5314   6.8009   6.8454   7.0220   7.0864   7.1213
     7.2263   7.2858   7.8326   7.9659  10.3740  11.0872  11.6057  11.6487
    11.7849  12.1221  12.5249  12.5646  12.5798  13.1209  13.3295  13.7745
    14.4867  15.0000  15.6842  16.4861  16.6601  17.3485  17.3713

          k = 0.3333 0.3333-0.3448 ( 31454 PWs)   bands (ev):

   -66.3042 -66.3042 -66.3039 -66.3039 -30.6272 -30.6272 -30.6215 -30.6215
   -30.6194 -30.6194 -30.6048 -30.6048 -30.5630 -30.5630 -30.5447 -30.5447
   -20.4706 -20.4706 -20.4705 -20.4705 -20.4583 -20.4583 -20.4579 -20.4578
   -20.4544 -20.4544 -20.4535 -20.4535 -20.4517 -20.4517 -20.4515 -20.4515
   -20.4460 -20.4460 -20.4459 -20.4459 -20.4405 -20.4405 -20.4399 -20.4399
   -20.4387 -20.4387 -20.4382 -20.4382  -9.4985  -9.4985  -9.1650  -9.1650
    -8.5731  -8.5731  -8.5032  -8.5032  -8.2299  -8.2299  -7.8608  -7.8608
     1.2435   1.2435   2.1161   2.1161   2.9575   2.9575   2.9876   2.9876
     3.2124   3.2124   3.3871   3.3871   3.7829   3.7829   4.5936   4.5936
     4.8190   4.8190   4.9332   4.9332   5.3710   5.3710   5.9765   5.9765
     6.3371   6.3372   6.6670   6.6670   7.0512   7.0512   7.1978   7.1978
     7.4974   7.4974   7.5672   7.5672  11.0858  11.0858  11.5889  11.5889
    11.6451  11.6451  12.5702  12.5702  12.7880  12.7880  13.5170  13.5170
    14.8128  14.8128  16.2122  16.2122  17.0351  17.0351  17.8531

          k = 0.3333 0.4444 0.0000 ( 31430 PWs)   bands (ev):

   -66.3043 -66.3042 -66.3038 -66.3037 -30.6559 -30.6559 -30.6277 -30.6230
   -30.6216 -30.6160 -30.5816 -30.5803 -30.5541 -30.5513 -30.5481 -30.5448
   -20.4706 -20.4706 -20.4705 -20.4705 -20.4584 -20.4584 -20.4583 -20.4583
   -20.4539 -20.4538 -20.4535 -20.4535 -20.4518 -20.4517 -20.4516 -20.4515
   -20.4494 -20.4494 -20.4424 -20.4424 -20.4411 -20.4408 -20.4396 -20.4394
   -20.4391 -20.4390 -20.4376 -20.4374  -9.7603  -9.6815  -9.2914  -9.1704
    -8.9181  -8.8661  -8.0701  -8.0635  -7.9304  -7.9133  -7.8038  -7.7915
     1.1173   1.1429   1.3558   1.3830   1.6694   1.6798   2.3629   2.4713
     3.9994   4.0380   4.1934   4.2120   4.3242   4.6171   4.6681   4.6807
     5.2658   5.3750   5.3925   5.6712   5.7125   5.7191   5.7445   5.9426
     6.3850   6.4705   6.4724   6.4846   6.5829   6.7357   6.7656   6.9238
     6.9438   7.1259   8.2231   8.2988   9.7053  10.1082  12.0286  12.0618
    12.3474  12.3718  12.4434  12.5442  12.7759  13.0697  13.8365  13.9551
    14.0377  14.2834  15.3609  15.9142  16.4925  16.9665  17.3120

          k = 0.3333 0.4444 0.1149 ( 31440 PWs)   bands (ev):

   -66.3043 -66.3042 -66.3038 -66.3037 -30.6511 -30.6510 -30.6275 -30.6232
   -30.6214 -30.6162 -30.5865 -30.5852 -30.5540 -30.5515 -30.5479 -30.5450
   -20.4706 -20.4706 -20.4705 -20.4705 -20.4584 -20.4584 -20.4583 -20.4583
   -20.4539 -20.4538 -20.4535 -20.4535 -20.4517 -20.4517 -20.4516 -20.4515
   -20.4489 -20.4489 -20.4429 -20.4428 -20.4411 -20.4408 -20.4397 -20.4395
   -20.4391 -20.4389 -20.4377 -20.4375  -9.7054  -9.6213  -9.3041  -9.1829
    -8.8866  -8.8396  -8.0769  -8.0681  -7.9486  -7.9286  -7.9013  -7.8861
     1.2981   1.3553   1.3865   1.4824   1.6684   1.6975   2.4376   2.5469
     3.8319   3.8553   4.1709   4.2103   4.3877   4.6142   4.6619   4.7273
     5.0947   5.1111   5.2724   5.4139   5.6809   5.7308   6.0366   6.0907
     6.1085   6.3263   6.4769   6.5931   6.6837   6.7653   6.8281   6.9399
     6.9574   7.0483   8.1445   8.2106   9.9214  10.2711  12.0283  12.0595
    12.2741  12.3365  12.3560  12.4062  12.8130  13.1041  13.7252  13.9346
    14.2058  14.5686  15.3312  15.8811  16.6644  17.1209  17.3894

          k = 0.3333 0.4444 0.2298 ( 31482 PWs)   bands (ev):

   -66.3042 -66.3041 -66.3039 -66.3038 -30.6381 -30.6378 -30.6268 -30.6237
   -30.6211 -30.6165 -30.5999 -30.5984 -30.5536 -30.5521 -30.5473 -30.5457
   -20.4706 -20.4706 -20.4705 -20.4705 -20.4584 -20.4584 -20.4583 -20.4583
   -20.4538 -20.4538 -20.4535 -20.4535 -20.4517 -20.4517 -20.4516 -20.4516
   -20.4477 -20.4477 -20.4442 -20.4441 -20.4408 -20.4406 -20.4400 -20.4398
   -20.4388 -20.4386 -20.4380 -20.4378  -9.5712  -9.4721  -9.3471  -9.2264
    -8.7748  -8.7419  -8.2427  -8.2177  -8.0623  -8.0328  -7.9237  -7.9088
     1.3455   1.3540   1.6438   1.6654   2.1595   2.1774   2.6599   2.7761
     3.4117   3.4596   4.1706   4.1992   4.2921   4.3122   4.5522   4.6080
     4.6893   4.9181   5.2288   5.2957   5.5438   5.5836   5.7460   5.8845
     6.3258   6.4526   6.5682   6.6724   6.7465   6.9005   6.9589   6.9848
     7.0614   7.1040   7.9063   7.9486  10.4680  10.7163  11.7947  11.9200
    12.0442  12.0585  12.3570  12.3740  12.9363  13.2155  13.4558  13.6864
    14.6776  15.1238  15.2324  15.7707  17.0825  17.5160  17.6666

          k = 0.3333 0.4444-0.3448 ( 31488 PWs)   bands (ev):

   -66.3041 -66.3041 -66.3040 -66.3040 -30.6264 -30.6264 -30.6236 -30.6236
   -30.6178 -30.6178 -30.6135 -30.6135 -30.5529 -30.5529 -30.5465 -30.5465
   -20.4706 -20.4706 -20.4705 -20.4705 -20.4584 -20.4584 -20.4583 -20.4583
   -20.4538 -20.4538 -20.4535 -20.4535 -20.4517 -20.4517 -20.4516 -20.4516
   -20.4459 -20.4459 -20.4459 -20.4459 -20.4404 -20.4404 -20.4402 -20.4402
   -20.4384 -20.4384 -20.4382 -20.4382  -9.4345  -9.4345  -9.3198  -9.3197
    -8.5491  -8.5489  -8.5293  -8.5292  -8.0529  -8.0528  -7.9168  -7.9168
     1.3514   1.3516   1.6597   1.6599   2.9662   2.9679   2.9800   2.9821
     3.2352   3.2361   3.3032   3.3037   4.1817   4.1927   4.5991   4.6157
     4.9331   4.9418   5.2122   5.2333   5.3528   5.3587   5.7744   5.7794
     6.4145   6.4160   6.6945   6.6997   6.7802   6.7820   6.9944   6.9959
     7.5182   7.5203   7.5383   7.5410  11.1495  11.1517  11.3187  11.3211
    12.0451  12.0533  12.3604  12.3697  13.1556  13.1612  13.4154  13.4217
    15.0291  15.0345  15.5392  15.5453  17.4080  17.4235  17.7388

          k = 0.4444 0.4444 0.0000 ( 31402 PWs)   bands (ev):

   -66.3043 -66.3043 -66.3038 -66.3037 -30.6555 -30.6554 -30.6304 -30.6283
   -30.6260 -30.6235 -30.5810 -30.5806 -30.5476 -30.5455 -30.5443 -30.5421
   -20.4706 -20.4706 -20.4705 -20.4705 -20.4587 -20.4587 -20.4586 -20.4586
   -20.4533 -20.4533 -20.4531 -20.4531 -20.4519 -20.4518 -20.4517 -20.4517
   -20.4494 -20.4494 -20.4423 -20.4422 -20.4413 -20.4411 -20.4397 -20.4396
   -20.4390 -20.4390 -20.4374 -20.4374  -9.7630  -9.7349  -9.3150  -9.2741
    -8.9308  -8.9146  -7.9370  -7.9189  -7.8862  -7.8599  -7.8066  -7.7978
     1.1147   1.1330   1.2439   1.2863   1.3538   1.3825   2.3221   2.3602
     4.0967   4.1116   4.4399   4.5083   4.6197   4.6674   4.7089   4.7685
     5.4314   5.4482   5.5364   5.5916   5.7053   5.8760   5.9312   6.0271
     6.2789   6.3962   6.4239   6.4402   6.4863   6.4878   6.5417   6.5989
     7.1110   7.2010   8.2971   8.3216   9.5542   9.7123  12.2541  12.2851
    12.3612  12.3874  12.4091  12.4449  13.0673  13.1730  13.8347  13.9646
    14.0399  14.1170  15.1863  15.3907  16.7302  16.9078  17.5399

          k = 0.4444 0.4444 0.1149 ( 31442 PWs)   bands (ev):

   -66.3043 -66.3042 -66.3038 -66.3038 -30.6506 -30.6505 -30.6301 -30.6280
   -30.6263 -30.6237 -30.5860 -30.5856 -30.5474 -30.5453 -30.5446 -30.5423
   -20.4706 -20.4706 -20.4705 -20.4705 -20.4587 -20.4587 -20.4586 -20.4586
   -20.4533 -20.4533 -20.4531 -20.4531 -20.4519 -20.4518 -20.4517 -20.4517
   -20.4489 -20.4489 -20.4428 -20.4427 -20.4412 -20.4411 -20.4398 -20.4397
   -20.4389 -20.4389 -20.4375 -20.4375  -9.7097  -9.6798  -9.3272  -9.2862
    -8.8975  -8.8830  -7.9494  -7.9352  -7.9249  -7.8892  -7.8845  -7.8617
     1.2167   1.2436   1.2999   1.3534   1.4601   1.4845   2.3968   2.4355
     3.8640   3.8822   4.4516   4.5077   4.6612   4.6863   4.7033   4.8325
     5.1315   5.1445   5.5628   5.6701   5.7110   5.8807   6.0270   6.0932
     6.1932   6.2563   6.3233   6.4177   6.4692   6.6123   6.6430   6.6989
     7.0360   7.0761   8.2086   8.2299   9.7979   9.9284  12.2296  12.2640
    12.2673  12.2836  12.3650  12.3920  13.1012  13.2064  13.9358  14.0152
    14.0737  14.2162  15.1577  15.3608  16.9337  17.1144  17.5927

          k = 0.4444 0.4444 0.2298 ( 31480 PWs)   bands (ev):

   -66.3042 -66.3041 -66.3039 -66.3039 -30.6374 -30.6369 -30.6293 -30.6273
   -30.6271 -30.6242 -30.5997 -30.5993 -30.5468 -30.5452 -30.5447 -30.5430
   -20.4706 -20.4706 -20.4705 -20.4705 -20.4587 -20.4587 -20.4586 -20.4586
   -20.4533 -20.4533 -20.4531 -20.4531 -20.4518 -20.4518 -20.4517 -20.4517
   -20.4477 -20.4477 -20.4441 -20.4441 -20.4409 -20.4408 -20.4401 -20.4400
   -20.4386 -20.4386 -20.4378 -20.4378  -9.5807  -9.5460  -9.3682  -9.3273
    -8.7795  -8.7696  -8.2215  -8.2159  -7.9303  -7.9151  -7.8797  -7.8666
     1.2372   1.2428   1.3440   1.3522   2.1745   2.1852   2.6163   2.6603
     3.4093   3.4301   4.2974   4.3071   4.4690   4.5030   4.6651   4.6937
     4.8819   5.0236   5.4749   5.6047   5.7254   5.8795   5.8971   6.0052
     6.1668   6.2635   6.2931   6.3990   6.5533   6.6859   6.8608   6.9095
     7.0345   7.0484   7.9448   7.9584  10.3883  10.4745  11.7629  11.8030
    12.2651  12.2788  12.3720  12.3860  13.2128  13.3147  13.6854  13.7719
    14.5250  14.6946  15.0620  15.2610  17.4450  17.7540  17.8483

          k = 0.4444 0.4444-0.3448 ( 31486 PWs)   bands (ev):

   -66.3040 -66.3040 -66.3040 -66.3040 -30.6282 -30.6282 -30.6268 -30.6268
   -30.6184 -30.6184 -30.6174 -30.6174 -30.5460 -30.5460 -30.5438 -30.5438
   -20.4706 -20.4706 -20.4705 -20.4705 -20.4587 -20.4587 -20.4586 -20.4586
   -20.4533 -20.4533 -20.4531 -20.4531 -20.4518 -20.4518 -20.4517 -20.4517
   -20.4459 -20.4459 -20.4459 -20.4459 -20.4405 -20.4405 -20.4404 -20.4404
   -20.4382 -20.4382 -20.4382 -20.4382  -9.4510  -9.4509  -9.4117  -9.4117
    -8.5442  -8.5442  -8.5384  -8.5384  -7.9232  -7.9232  -7.8732  -7.8732
     1.2411   1.2411   1.3498   1.3498   2.9652   2.9652   2.9723   2.9723
     3.2145   3.2146   3.2377   3.2377   4.4869   4.4869   4.6781   4.6781
     5.1796   5.1796   5.3156   5.3156   5.7603   5.7603   5.9220   5.9220
     6.2310   6.2310   6.3620   6.3620   6.6853   6.6853   6.7893   6.7893
     7.5269   7.5269   7.5341   7.5341  11.1007  11.1007  11.1569  11.1569
    12.2722  12.2722  12.3794  12.3794  13.4143  13.4143  13.5103  13.5103
    14.8674  14.8674  15.0571  15.0571  17.7355  17.7355  17.8988

     the Fermi energy is     9.2213 ev

!    total energy              =   -3130.36055997 Ry
     Harris-Foulkes estimate   =   -3130.36055997 Ry
     estimated scf accuracy    <          5.2E-10 Ry

     The total energy is the sum of the following terms:

     one-electron contribution =   -2383.03737552 Ry
     hartree contribution      =    1309.31282300 Ry
     xc contribution           =    -482.99973659 Ry
     ewald contribution        =   -1573.63624063 Ry
     smearing contrib. (-TS)   =      -0.00003024 Ry

     convergence has been achieved in  12 iterations

     Writing output data file Landau_36.save/
 
     init_run     :      8.71s CPU      9.22s WALL (       1 calls)
     electrons    :    380.33s CPU    384.89s WALL (       1 calls)

     Called by init_run:
     wfcinit      :      7.72s CPU      8.14s WALL (       1 calls)
     potinit      :      0.38s CPU      0.40s WALL (       1 calls)
     hinit0       :      0.50s CPU      0.54s WALL (       1 calls)

     Called by electrons:
     c_bands      :    320.97s CPU    325.12s WALL (      12 calls)
     sum_band     :     55.06s CPU     55.21s WALL (      12 calls)
     v_of_rho     :      0.90s CPU      0.93s WALL (      13 calls)
     mix_rho      :      1.02s CPU      1.19s WALL (      12 calls)

     Called by c_bands:
     init_us_2    :      2.52s CPU      2.68s WALL (      50 calls)
     cegterg      :    221.79s CPU    225.79s WALL (      24 calls)

     Called by sum_band:

     Called by *egterg:
     h_psi        :    186.69s CPU    188.57s WALL (      90 calls)
     g_psi        :      0.95s CPU      0.96s WALL (      64 calls)
     cdiaghg      :      2.14s CPU      2.15s WALL (      88 calls)

     Called by h_psi:
     h_psi:pot    :    186.05s CPU    186.48s WALL (      90 calls)
     h_psi:calbec :     15.05s CPU     15.22s WALL (      90 calls)
     vloc_psi     :    154.40s CPU    154.62s WALL (      90 calls)
     add_vuspsi   :     16.59s CPU     16.64s WALL (      90 calls)

     General routines
     calbec       :     15.05s CPU     15.22s WALL (      90 calls)
     fft          :      0.39s CPU      0.40s WALL (      39 calls)
     ffts         :      0.12s CPU      0.12s WALL (      12 calls)
     fftw         :    158.51s CPU    158.62s WALL (   15810 calls)
 
     Parallel routines
 
     PWSCF        :   6m32.15s CPU   6m37.52s WALL

 
   This run was terminated on:  17:51:14  29Nov2019            

=------------------------------------------------------------------------------=
   JOB DONE.
=------------------------------------------------------------------------------=
