
     Program PWSCF v.6.2 (svn rev. 14038) starts on 25Mar2020 at 19:14:32 

     This program is part of the open-source Quantum ESPRESSO suite
     for quantum simulation of materials; please cite
         "P. Giannozzi et al., J. Phys.:Condens. Matter 21 395502 (2009);
         "P. Giannozzi et al., J. Phys.:Condens. Matter 29 465901 (2017);
          URL http://www.quantum-espresso.org", 
     in publications or presentations arising from this work. More details at
     http://www.quantum-espresso.org/quote

     Parallel version (MPI), running on    40 processors

     MPI processes distributed on     9 nodes
     K-points division:     npool     =      40
     Reading input from scf.in

     Current dimensions of program PWSCF are:
     Max number of different atomic species (ntypx) = 10
     Max number of k-points (npk) =  40000
     Max angular momentum in pseudopotentials (lmaxx) =  3

     Subspace diagonalization in iterative solution of the eigenvalue problem:
     a serial algorithm will be used

 
     G-vector sticks info
     --------------------
     sticks:   dense  smooth     PW     G-vecs:    dense   smooth      PW
     Sum        7741    7741   2079               498945   498945   69149
 


     bravais-lattice index     =            0
     lattice parameter (alat)  =      13.8732  a.u.
     unit-cell volume          =    2809.3449 (a.u.)^3
     number of atoms/cell      =           32
     number of atomic types    =            2
     number of electrons       =       368.60
     number of Kohn-Sham states=          221
     kinetic-energy cutoff     =     120.0000  Ry
     charge density cutoff     =     480.0000  Ry
     convergence threshold     =      1.0E-08
     mixing beta               =       0.7000
     number of iterations used =            8  plain     mixing
     Exchange-correlation      = SLA PW NOGX NOGC ( 1  4  0  0 0 0)

     celldm(1)=  13.873244  celldm(2)=   0.000000  celldm(3)=   0.000000
     celldm(4)=   0.000000  celldm(5)=   0.000000  celldm(6)=   0.000000

     crystal axes: (cart. coord. in units of alat)
               a(1) = (   1.000000   0.000000   0.000000 )  
               a(2) = (   0.000000   1.051909   0.000000 )  
               a(3) = (   0.000000   0.000000   1.000214 )  

     reciprocal axes: (cart. coord. in units 2 pi/alat)
               b(1) = (  1.000000  0.000000  0.000000 )  
               b(2) = (  0.000000  0.950653  0.000000 )  
               b(3) = (  0.000000  0.000000  0.999786 )  


     PseudoPot. # 1 for W  read from file:
     /cluster/scratch/mnoe/QE/pps/W_ONCV_LDA-4.0.upf
     MD5 check sum: ba0307d5d4cd419d6f1d13dc49d7c13a
     Pseudo is Norm-conserving + core correction, Zval = 28.0
     Generated using ONCVPSP code by D. R. Hamann
     Using radial grid of 1380 points,  8 beta functions with: 
                l(1) =   0
                l(2) =   0
                l(3) =   1
                l(4) =   1
                l(5) =   2
                l(6) =   2
                l(7) =   3
                l(8) =   3

     PseudoPot. # 2 for O  read from file:
     /cluster/scratch/mnoe/QE/pps/O_ONCV_LDA-3.0.upf
     MD5 check sum: a1bd6164e7280c17a38c229939bfbd54
     Pseudo is Norm-conserving + core correction, Zval =  6.0
     Generated using ONCVPSP code by D. R. Hamann
     Using radial grid of  926 points,  5 beta functions with: 
                l(1) =   0
                l(2) =   0
                l(3) =   1
                l(4) =   1
                l(5) =   2

     atomic species   valence    mass     pseudopotential
        W             28.00   183.84000     W ( 1.00)
        O              6.00    15.99940     O ( 1.00)

      4 Sym. Ops. (no inversion) found ( 3 have fractional translation)



   Cartesian axes

     site n.     atom                  positions (alat units)
         1           W   tau(   1) = (   0.2421031   0.2954497   0.0009029  )
         2           W   tau(   2) = (   0.7513531   0.7564590  -0.0078340  )
         3           W   tau(   3) = (   0.2578969   0.2305047   0.5010099  )
         4           W   tau(   4) = (   0.7486469   0.8214040   0.4922730  )
         5           W   tau(   5) = (   0.7578969   0.2954497   0.4992041  )
         6           W   tau(   6) = (   0.2486469   0.7564590   0.5079410  )
         7           W   tau(   7) = (   0.7421031   0.2305047  -0.0009029  )
         8           W   tau(   8) = (   0.2513531   0.8214040   0.0078340  )
         9           O   tau(   9) = (   0.2404505   0.0084682  -0.0050357  )
        10           O   tau(  10) = (   0.7575155  -0.0084682  -0.0077513  )
        11           O   tau(  11) = (   0.2595495   0.5174861   0.4950713  )
        12           O   tau(  12) = (   0.7424845   0.5344225   0.4923557  )
        13           O   tau(  13) = (   0.7595495   0.0084682   0.5051427  )
        14           O   tau(  14) = (   0.2424845  -0.0084682   0.5078583  )
        15           O   tau(  15) = (   0.7404505   0.5174861   0.0050357  )
        16           O   tau(  16) = (   0.2575155   0.5344225   0.0077513  )
        17           O   tau(  17) = (   0.5027015   0.2522652   0.4520573  )
        18           O   tau(  18) = (   0.5001715   0.7966332   0.5481567  )
        19           O   tau(  19) = (  -0.0027015   0.2736891   0.9521643  )
        20           O   tau(  20) = (  -0.0001715   0.7812298   0.0480497  )
        21           O   tau(  21) = (   0.4972985   0.2522652   0.0480497  )
        22           O   tau(  22) = (   0.4998285   0.7966332   0.9521643  )
        23           O   tau(  23) = (   0.0027015   0.2736891   0.5481567  )
        24           O   tau(  24) = (   0.0001715   0.7812298   0.4520573  )
        25           O   tau(  25) = (   0.7019606   0.2678653   0.7491904  )
        26           O   tau(  26) = (   0.2980394   0.7978380   0.2529193  )
        27           O   tau(  27) = (   0.7980394   0.2580890   0.2490835  )
        28           O   tau(  28) = (   0.2019606   0.7800251   0.7530263  )
        29           O   tau(  29) = (   0.2980394   0.2678653   0.7511305  )
        30           O   tau(  30) = (   0.7019606   0.7978380   0.2471877  )
        31           O   tau(  31) = (   0.2019606   0.2580890   0.2510235  )
        32           O   tau(  32) = (   0.7980394   0.7800251   0.7472947  )

     number of k points=    64  gaussian smearing, width (Ry)=  0.0007
                       cart. coord. in units 2pi/alat
        k(    1) = (   0.0000000   0.0000000   0.0000000), wk =   0.0092593
        k(    2) = (   0.0000000   0.0000000   0.1666310), wk =   0.0185185
        k(    3) = (   0.0000000   0.0000000   0.3332620), wk =   0.0185185
        k(    4) = (   0.0000000   0.0000000  -0.4998930), wk =   0.0092593
        k(    5) = (   0.0000000   0.1584421   0.0000000), wk =   0.0185185
        k(    6) = (   0.0000000   0.1584421   0.1666310), wk =   0.0370370
        k(    7) = (   0.0000000   0.1584421   0.3332620), wk =   0.0370370
        k(    8) = (   0.0000000   0.1584421  -0.4998930), wk =   0.0185185
        k(    9) = (   0.0000000   0.3168843   0.0000000), wk =   0.0185185
        k(   10) = (   0.0000000   0.3168843   0.1666310), wk =   0.0370370
        k(   11) = (   0.0000000   0.3168843   0.3332620), wk =   0.0370370
        k(   12) = (   0.0000000   0.3168843  -0.4998930), wk =   0.0185185
        k(   13) = (   0.0000000  -0.4753264   0.0000000), wk =   0.0092593
        k(   14) = (   0.0000000  -0.4753264   0.1666310), wk =   0.0185185
        k(   15) = (   0.0000000  -0.4753264   0.3332620), wk =   0.0185185
        k(   16) = (   0.0000000  -0.4753264  -0.4998930), wk =   0.0092593
        k(   17) = (   0.1666667   0.0000000   0.0000000), wk =   0.0185185
        k(   18) = (   0.1666667   0.0000000   0.1666310), wk =   0.0370370
        k(   19) = (   0.1666667   0.0000000   0.3332620), wk =   0.0370370
        k(   20) = (   0.1666667   0.0000000  -0.4998930), wk =   0.0185185
        k(   21) = (   0.1666667   0.1584421   0.0000000), wk =   0.0370370
        k(   22) = (   0.1666667   0.1584421   0.1666310), wk =   0.0740741
        k(   23) = (   0.1666667   0.1584421   0.3332620), wk =   0.0740741
        k(   24) = (   0.1666667   0.1584421  -0.4998930), wk =   0.0370370
        k(   25) = (   0.1666667   0.3168843   0.0000000), wk =   0.0370370
        k(   26) = (   0.1666667   0.3168843   0.1666310), wk =   0.0740741
        k(   27) = (   0.1666667   0.3168843   0.3332620), wk =   0.0740741
        k(   28) = (   0.1666667   0.3168843  -0.4998930), wk =   0.0370370
        k(   29) = (   0.1666667  -0.4753264   0.0000000), wk =   0.0185185
        k(   30) = (   0.1666667  -0.4753264   0.1666310), wk =   0.0370370
        k(   31) = (   0.1666667  -0.4753264   0.3332620), wk =   0.0370370
        k(   32) = (   0.1666667  -0.4753264  -0.4998930), wk =   0.0185185
        k(   33) = (   0.3333333   0.0000000   0.0000000), wk =   0.0185185
        k(   34) = (   0.3333333   0.0000000   0.1666310), wk =   0.0370370
        k(   35) = (   0.3333333   0.0000000   0.3332620), wk =   0.0370370
        k(   36) = (   0.3333333   0.0000000  -0.4998930), wk =   0.0185185
        k(   37) = (   0.3333333   0.1584421   0.0000000), wk =   0.0370370
        k(   38) = (   0.3333333   0.1584421   0.1666310), wk =   0.0740741
        k(   39) = (   0.3333333   0.1584421   0.3332620), wk =   0.0740741
        k(   40) = (   0.3333333   0.1584421  -0.4998930), wk =   0.0370370
        k(   41) = (   0.3333333   0.3168843   0.0000000), wk =   0.0370370
        k(   42) = (   0.3333333   0.3168843   0.1666310), wk =   0.0740741
        k(   43) = (   0.3333333   0.3168843   0.3332620), wk =   0.0740741
        k(   44) = (   0.3333333   0.3168843  -0.4998930), wk =   0.0370370
        k(   45) = (   0.3333333  -0.4753264   0.0000000), wk =   0.0185185
        k(   46) = (   0.3333333  -0.4753264   0.1666310), wk =   0.0370370
        k(   47) = (   0.3333333  -0.4753264   0.3332620), wk =   0.0370370
        k(   48) = (   0.3333333  -0.4753264  -0.4998930), wk =   0.0185185
        k(   49) = (  -0.5000000   0.0000000   0.0000000), wk =   0.0092593
        k(   50) = (  -0.5000000   0.0000000   0.1666310), wk =   0.0185185
        k(   51) = (  -0.5000000   0.0000000   0.3332620), wk =   0.0185185
        k(   52) = (  -0.5000000   0.0000000  -0.4998930), wk =   0.0092593
        k(   53) = (  -0.5000000   0.1584421   0.0000000), wk =   0.0185185
        k(   54) = (  -0.5000000   0.1584421   0.1666310), wk =   0.0370370
        k(   55) = (  -0.5000000   0.1584421   0.3332620), wk =   0.0370370
        k(   56) = (  -0.5000000   0.1584421  -0.4998930), wk =   0.0185185
        k(   57) = (  -0.5000000   0.3168843   0.0000000), wk =   0.0185185
        k(   58) = (  -0.5000000   0.3168843   0.1666310), wk =   0.0370370
        k(   59) = (  -0.5000000   0.3168843   0.3332620), wk =   0.0370370
        k(   60) = (  -0.5000000   0.3168843  -0.4998930), wk =   0.0185185
        k(   61) = (  -0.5000000  -0.4753264   0.0000000), wk =   0.0092593
        k(   62) = (  -0.5000000  -0.4753264   0.1666310), wk =   0.0185185
        k(   63) = (  -0.5000000  -0.4753264   0.3332620), wk =   0.0185185
        k(   64) = (  -0.5000000  -0.4753264  -0.4998930), wk =   0.0092593

     Dense  grid:   498945 G-vectors     FFT dimensions: ( 100, 108, 100)

     Estimated max dynamical RAM per process >       3.13 GB

     Estimated total dynamical RAM >     125.27 GB

     Initial potential from superposition of free atoms

     starting charge  367.99656, renormalised to  368.60000
     Starting wfc are  232 randomized atomic wfcs

     total cpu time spent up to now is       30.9 secs

     Self-consistent Calculation

     iteration #  1     ecut=   120.00 Ry     beta= 0.70
     Davidson diagonalization with overlap
     ethr =  1.00E-02,  avg # of iterations =  5.2

     total cpu time spent up to now is      134.9 secs

     total energy              =   -6253.44458445 Ry
     Harris-Foulkes estimate   =   -6264.26871255 Ry
     estimated scf accuracy    <      13.63565503 Ry

     iteration #  2     ecut=   120.00 Ry     beta= 0.70
     Davidson diagonalization with overlap
     ethr =  3.70E-03,  avg # of iterations =  3.6

     total cpu time spent up to now is      236.0 secs

     total energy              =   -6250.41265643 Ry
     Harris-Foulkes estimate   =   -6270.28807996 Ry
     estimated scf accuracy    <      52.86550847 Ry

     iteration #  3     ecut=   120.00 Ry     beta= 0.70
     Davidson diagonalization with overlap
     ethr =  3.70E-03,  avg # of iterations =  3.4

     total cpu time spent up to now is      327.0 secs

     total energy              =   -6260.67540294 Ry
     Harris-Foulkes estimate   =   -6260.94455319 Ry
     estimated scf accuracy    <       0.90169815 Ry

     iteration #  4     ecut=   120.00 Ry     beta= 0.70
     Davidson diagonalization with overlap
     ethr =  2.45E-04,  avg # of iterations =  3.3

     total cpu time spent up to now is      404.2 secs

     total energy              =   -6260.66685783 Ry
     Harris-Foulkes estimate   =   -6260.74058843 Ry
     estimated scf accuracy    <       0.22538048 Ry

     iteration #  5     ecut=   120.00 Ry     beta= 0.70
     Davidson diagonalization with overlap
     ethr =  6.11E-05,  avg # of iterations =  5.1

     total cpu time spent up to now is      487.4 secs

     total energy              =   -6260.67181998 Ry
     Harris-Foulkes estimate   =   -6260.70093293 Ry
     estimated scf accuracy    <       0.06532441 Ry

     iteration #  6     ecut=   120.00 Ry     beta= 0.70
     Davidson diagonalization with overlap
     ethr =  1.77E-05,  avg # of iterations =  5.4

     total cpu time spent up to now is      576.6 secs

     total energy              =   -6260.68574499 Ry
     Harris-Foulkes estimate   =   -6260.68849079 Ry
     estimated scf accuracy    <       0.00712786 Ry

     iteration #  7     ecut=   120.00 Ry     beta= 0.70
     Davidson diagonalization with overlap
     ethr =  1.93E-06,  avg # of iterations =  6.8

     total cpu time spent up to now is      666.5 secs

     total energy              =   -6260.68668781 Ry
     Harris-Foulkes estimate   =   -6260.68679920 Ry
     estimated scf accuracy    <       0.00022636 Ry

     iteration #  8     ecut=   120.00 Ry     beta= 0.70
     Davidson diagonalization with overlap
     ethr =  6.14E-08,  avg # of iterations =  3.0

     total cpu time spent up to now is      754.1 secs

     total energy              =   -6260.68674910 Ry
     Harris-Foulkes estimate   =   -6260.68680417 Ry
     estimated scf accuracy    <       0.00021946 Ry

     iteration #  9     ecut=   120.00 Ry     beta= 0.70
     Davidson diagonalization with overlap
     ethr =  5.95E-08,  avg # of iterations =  1.9

     total cpu time spent up to now is      826.7 secs

     total energy              =   -6260.68677280 Ry
     Harris-Foulkes estimate   =   -6260.68678203 Ry
     estimated scf accuracy    <       0.00004087 Ry

     iteration # 10     ecut=   120.00 Ry     beta= 0.70
     Davidson diagonalization with overlap
     ethr =  1.11E-08,  avg # of iterations =  1.2

     total cpu time spent up to now is      897.2 secs

     total energy              =   -6260.68676913 Ry
     Harris-Foulkes estimate   =   -6260.68677497 Ry
     estimated scf accuracy    <       0.00001343 Ry

     iteration # 11     ecut=   120.00 Ry     beta= 0.70
     Davidson diagonalization with overlap
     ethr =  3.64E-09,  avg # of iterations =  2.8

     total cpu time spent up to now is      975.6 secs

     total energy              =   -6260.68677190 Ry
     Harris-Foulkes estimate   =   -6260.68677203 Ry
     estimated scf accuracy    <       0.00000034 Ry

     iteration # 12     ecut=   120.00 Ry     beta= 0.70
     Davidson diagonalization with overlap
     ethr =  9.14E-11,  avg # of iterations =  2.5

     total cpu time spent up to now is     1064.3 secs

     total energy              =   -6260.68677196 Ry
     Harris-Foulkes estimate   =   -6260.68677200 Ry
     estimated scf accuracy    <       0.00000009 Ry

     iteration # 13     ecut=   120.00 Ry     beta= 0.70
     Davidson diagonalization with overlap
     ethr =  2.56E-11,  avg # of iterations =  1.4

     total cpu time spent up to now is     1135.4 secs

     total energy              =   -6260.68677196 Ry
     Harris-Foulkes estimate   =   -6260.68677197 Ry
     estimated scf accuracy    <       0.00000002 Ry

     iteration # 14     ecut=   120.00 Ry     beta= 0.70
     Davidson diagonalization with overlap
     ethr =  6.59E-12,  avg # of iterations =  2.8

     total cpu time spent up to now is     1230.3 secs

     End of self-consistent calculation

          k = 0.0000 0.0000 0.0000 ( 62303 PWs)   bands (ev):

   -66.0617 -66.0613 -66.0608 -66.0608 -66.0603 -66.0603 -66.0598 -66.0594
   -30.5022 -30.4981 -30.4980 -30.4942 -30.4443 -30.4389 -30.4386 -30.4337
   -30.4083 -30.4027 -30.4008 -30.4004 -30.3951 -30.3935 -30.3898 -30.3889
   -30.3088 -30.3081 -30.3056 -30.3038 -30.2960 -30.2954 -30.2917 -30.2904
   -20.2128 -20.2125 -20.2124 -20.2122 -20.2107 -20.2105 -20.2105 -20.2105
   -20.2103 -20.2103 -20.2103 -20.2101 -20.2073 -20.2069 -20.2068 -20.2065
   -20.2014 -20.2012 -20.2011 -20.2010 -20.2001 -20.1999 -20.1999 -20.1997
   -20.1986 -20.1984 -20.1983 -20.1983 -20.1972 -20.1971 -20.1970 -20.1968
   -20.1870 -20.1869 -20.1866 -20.1864 -20.1862 -20.1862 -20.1859 -20.1857
   -20.1598 -20.1597 -20.1592 -20.1590 -20.1584 -20.1581 -20.1579 -20.1575
   -20.1539 -20.1537 -20.1533 -20.1531 -20.1526 -20.1524 -20.1518 -20.1516
    -9.9370  -9.6401  -9.5100  -9.5100  -9.2165  -9.2148  -9.1066  -9.0153
    -9.0021  -8.8921  -8.8587  -8.8584  -7.8714  -7.8066  -7.8053  -7.7575
    -7.7540  -7.7518  -7.7243  -7.7147  -7.6163  -7.6153  -7.5809  -7.5804
     1.2389   1.2407   1.3062   1.3082   1.3390   1.3424   1.3683   1.5999
     1.6126   1.6152   1.6612   1.8630   2.4311   2.5119   2.5615   2.5766
     2.7154   2.7182   4.1658   4.1701   4.3888   4.3965   4.7805   4.8209
     4.8437   4.8473   4.8750   4.8757   5.0183   5.0186   5.0983   5.4363
     5.4418   5.4966   5.5064   5.5488   5.5491   5.5963   5.6043   5.8298
     5.8359   5.8627   5.8658   5.9018   5.9602   6.0593   6.0645   6.1386
     6.1395   6.2719   6.2774   6.5416   6.5428   6.8109   6.8175   6.8508
     6.8519   6.8553   7.0084   7.0205   7.0761   7.0795   7.3627   7.3675
     7.4226   7.4271   7.8416   7.8566   8.0637   8.0710   8.1217   8.1458
     9.3564   9.3592   9.9876   9.9945  10.0149  10.0178  12.3072  12.3126
    12.3435  12.3529  12.4230  12.4277  12.5402  12.5691  12.8875  12.9670
    13.2238  13.3049  13.3868  13.3927  13.8022  14.0963  14.1279  14.1715
    14.2551  14.4610  14.4889  14.8419  15.4464  15.4588  15.5292  16.0846
    16.0893  16.8514  17.0703  17.0763  17.4426

          k = 0.0000 0.0000 0.1666 ( 62377 PWs)   bands (ev):

   -66.0617 -66.0612 -66.0608 -66.0607 -66.0604 -66.0603 -66.0599 -66.0594
   -30.5020 -30.4984 -30.4978 -30.4945 -30.4438 -30.4392 -30.4383 -30.4340
   -30.4062 -30.4007 -30.3984 -30.3948 -30.3935 -30.3893 -30.3879 -30.3831
   -30.3154 -30.3115 -30.3078 -30.3056 -30.3023 -30.2974 -30.2951 -30.2912
   -20.2128 -20.2125 -20.2125 -20.2122 -20.2107 -20.2105 -20.2105 -20.2104
   -20.2104 -20.2103 -20.2103 -20.2102 -20.2072 -20.2069 -20.2068 -20.2065
   -20.2014 -20.2011 -20.2010 -20.2008 -20.2000 -20.2000 -20.1999 -20.1995
   -20.1987 -20.1986 -20.1984 -20.1982 -20.1973 -20.1972 -20.1971 -20.1969
   -20.1870 -20.1868 -20.1866 -20.1864 -20.1863 -20.1862 -20.1859 -20.1858
   -20.1596 -20.1595 -20.1589 -20.1589 -20.1582 -20.1580 -20.1576 -20.1575
   -20.1544 -20.1538 -20.1536 -20.1530 -20.1530 -20.1526 -20.1521 -20.1517
    -9.8913  -9.5865  -9.5263  -9.4520  -9.2287  -9.1274  -9.1150  -8.9778
    -8.9611  -8.8780  -8.8628  -8.8252  -7.8948  -7.8565  -7.8496  -7.8104
    -7.8000  -7.7551  -7.7481  -7.7406  -7.7136  -7.7076  -7.6244  -7.5894
     1.3060   1.3098   1.3318   1.3478   1.4371   1.4706   1.5929   1.5933
     1.6099   1.7108   1.8339   1.9891   2.5172   2.5768   2.6025   2.6586
     2.7068   2.8068   4.0991   4.1671   4.3832   4.3849   4.4112   4.4920
     4.6356   4.7752   4.7907   4.9082   4.9166   5.0120   5.0806   5.3090
     5.3545   5.4245   5.4908   5.5401   5.5665   5.6112   5.6237   5.6291
     5.7476   5.7660   5.8222   5.9119   5.9776   6.0885   6.1237   6.1371
     6.2932   6.4123   6.5061   6.5302   6.6759   6.7077   6.7816   6.8062
     6.8469   6.8558   6.9612   6.9882   7.0308   7.0850   7.1579   7.1793
     7.1943   7.2680   7.8515   7.8563   8.0298   8.0811   8.0912   8.1347
     9.6909   9.7140   9.9953  10.0127  10.2528  10.3004  12.2404  12.2869
    12.3443  12.3771  12.3898  12.4606  12.5575  12.6496  12.9066  12.9598
    13.0835  13.2674  13.3137  13.3880  13.8866  14.0276  14.0657  14.0946
    14.2546  14.4836  14.5585  14.9524  15.4817  15.4950  15.5111  16.0612
    16.3969  16.7927  17.0214  17.2580  17.4886

          k = 0.0000 0.0000 0.3333 ( 62364 PWs)   bands (ev):

   -66.0615 -66.0611 -66.0610 -66.0606 -66.0605 -66.0601 -66.0600 -66.0596
   -30.5013 -30.4993 -30.4973 -30.4953 -30.4427 -30.4401 -30.4373 -30.4348
   -30.4045 -30.4017 -30.3929 -30.3902 -30.3816 -30.3772 -30.3700 -30.3651
   -30.3333 -30.3292 -30.3211 -30.3167 -30.3070 -30.3043 -30.2943 -30.2921
   -20.2127 -20.2126 -20.2125 -20.2123 -20.2106 -20.2105 -20.2105 -20.2104
   -20.2104 -20.2103 -20.2102 -20.2102 -20.2072 -20.2070 -20.2068 -20.2066
   -20.2013 -20.2012 -20.2006 -20.2003 -20.2001 -20.1997 -20.1996 -20.1991
   -20.1990 -20.1989 -20.1988 -20.1981 -20.1978 -20.1974 -20.1972 -20.1970
   -20.1869 -20.1867 -20.1867 -20.1864 -20.1862 -20.1861 -20.1860 -20.1858
   -20.1593 -20.1587 -20.1585 -20.1584 -20.1579 -20.1579 -20.1570 -20.1564
   -20.1555 -20.1550 -20.1541 -20.1535 -20.1533 -20.1527 -20.1526 -20.1520
    -9.7809  -9.5764  -9.4630  -9.3193  -9.2711  -9.1436  -8.9172  -8.8747
    -8.8737  -8.8165  -8.7729  -8.6968  -8.1874  -8.1575  -8.0861  -8.0538
    -7.8444  -7.8205  -7.7882  -7.7643  -7.7185  -7.6833  -7.6492  -7.6141
     1.3139   1.3215   1.3622   1.3838   1.5456   1.5577   1.5779   1.6002
     2.2827   2.3228   2.4767   2.5562   2.6020   2.6962   2.7666   2.8667
     2.8998   3.0454   3.7734   3.8420   3.8781   3.9873   4.1512   4.2985
     4.3434   4.5259   4.5597   4.7554   4.7777   4.8243   4.9629   5.0228
     5.1561   5.1839   5.2323   5.3459   5.4517   5.4943   5.6325   5.6679
     5.7165   5.7482   5.7961   5.9700   6.0029   6.1765   6.2446   6.2751
     6.3390   6.3820   6.4997   6.5356   6.5502   6.5750   6.6394   6.7653
     6.8361   6.8550   6.8598   6.9980   7.0369   7.0571   7.0834   7.1435
     7.3090   7.3442   7.7778   7.7979   7.9042   7.9559   8.1154   8.1340
     9.9840  10.0059  10.3979  10.4753  10.8678  10.9721  11.8663  11.9246
    12.1124  12.4872  12.5175  12.5508  12.5816  12.6362  12.7396  12.9052
    12.9468  13.1417  13.1935  13.3999  13.6931  13.7235  14.0643  14.0904
    14.3407  14.4662  14.8624  15.2446  15.3849  15.6343  15.8983  15.9747
    16.2402  17.2434  17.3798  17.5617  17.8262

          k = 0.0000 0.0000-0.4999 ( 62372 PWs)   bands (ev):

   -66.0613 -66.0613 -66.0608 -66.0608 -66.0603 -66.0603 -66.0599 -66.0598
   -30.5003 -30.5003 -30.4963 -30.4963 -30.4413 -30.4413 -30.4361 -30.4361
   -30.4030 -30.4030 -30.3916 -30.3915 -30.3577 -30.3577 -30.3533 -30.3533
   -30.3455 -30.3455 -30.3408 -30.3407 -30.3058 -30.3058 -30.2932 -30.2932
   -20.2127 -20.2127 -20.2124 -20.2124 -20.2106 -20.2106 -20.2104 -20.2104
   -20.2104 -20.2104 -20.2102 -20.2102 -20.2071 -20.2071 -20.2067 -20.2067
   -20.2013 -20.2013 -20.2003 -20.2003 -20.1997 -20.1997 -20.1994 -20.1994
   -20.1991 -20.1991 -20.1984 -20.1984 -20.1978 -20.1978 -20.1971 -20.1971
   -20.1868 -20.1867 -20.1865 -20.1865 -20.1861 -20.1861 -20.1860 -20.1860
   -20.1589 -20.1589 -20.1583 -20.1583 -20.1570 -20.1570 -20.1565 -20.1565
   -20.1556 -20.1556 -20.1550 -20.1550 -20.1530 -20.1529 -20.1523 -20.1523
    -9.6632  -9.6632  -9.3470  -9.3470  -9.2052  -9.2052  -8.8919  -8.8919
    -8.5415  -8.5415  -8.5086  -8.5086  -8.4971  -8.4971  -8.4245  -8.4245
    -7.8339  -7.8339  -7.7767  -7.7766  -7.6836  -7.6836  -7.6483  -7.6483
     1.3189   1.3189   1.3792   1.3792   1.5626   1.5626   1.5894   1.5894
     2.6346   2.6346   3.0023   3.0023   3.1423   3.1423   3.1552   3.1552
     3.2956   3.2956   3.3576   3.3576   3.4975   3.4975   3.7873   3.7873
     3.8734   3.8734   4.4616   4.4616   4.7095   4.7095   4.9281   4.9281
     5.2331   5.2331   5.3379   5.3379   5.3530   5.3530   5.6767   5.6767
     5.7491   5.7491   5.9356   5.9356   6.1521   6.1521   6.2491   6.2491
     6.3208   6.3208   6.4296   6.4296   6.4752   6.4752   6.5549   6.5549
     6.7956   6.7956   6.8411   6.8411   7.0626   7.0626   7.5013   7.5013
     7.5644   7.5644   7.6776   7.6776   7.7058   7.7058   8.1310   8.1310
     9.9958   9.9958  11.1870  11.1870  11.2656  11.2656  11.5690  11.5690
    11.7665  11.7665  12.5983  12.5983  12.7399  12.7399  12.8502  12.8502
    12.9441  12.9441  13.2904  13.2904  13.4665  13.4665  14.0844  14.0844
    14.4279  14.4279  15.1771  15.1771  15.6818  15.6818  15.8333  15.8333
    16.6544  16.6544  17.8051  17.8051  18.0502

          k = 0.0000 0.1584 0.0000 ( 62323 PWs)   bands (ev):

   -66.0617 -66.0613 -66.0607 -66.0607 -66.0604 -66.0604 -66.0598 -66.0594
   -30.4981 -30.4941 -30.4940 -30.4901 -30.4478 -30.4427 -30.4425 -30.4377
   -30.4081 -30.4034 -30.4010 -30.4005 -30.3951 -30.3937 -30.3899 -30.3890
   -30.3087 -30.3081 -30.3055 -30.3039 -30.2961 -30.2954 -30.2917 -30.2905
   -20.2124 -20.2122 -20.2121 -20.2118 -20.2107 -20.2105 -20.2105 -20.2104
   -20.2103 -20.2103 -20.2103 -20.2101 -20.2076 -20.2073 -20.2072 -20.2069
   -20.2014 -20.2011 -20.2011 -20.2009 -20.2001 -20.2000 -20.2000 -20.1997
   -20.1986 -20.1983 -20.1983 -20.1982 -20.1973 -20.1972 -20.1971 -20.1969
   -20.1870 -20.1869 -20.1866 -20.1864 -20.1862 -20.1862 -20.1859 -20.1857
   -20.1598 -20.1597 -20.1592 -20.1590 -20.1584 -20.1581 -20.1579 -20.1575
   -20.1539 -20.1537 -20.1533 -20.1531 -20.1526 -20.1524 -20.1518 -20.1516
    -9.9064  -9.6518  -9.4712  -9.4710  -9.2239  -9.2223  -9.0317  -9.0144
    -9.0028  -8.8464  -8.8217  -8.8214  -7.9648  -7.9075  -7.9064  -7.8605
    -7.7594  -7.7534  -7.7252  -7.7163  -7.6160  -7.6152  -7.5820  -7.5814
     1.2390   1.2405   1.3176   1.3205   1.3418   1.3450   1.5052   1.6605
     1.7865   1.8414   1.8436   2.0234   2.4365   2.5063   2.6338   2.6503
     2.7847   2.7878   4.0293   4.0344   4.1136   4.1199   4.7421   4.8411
     4.8466   4.8663   4.8694   4.8829   4.9609   4.9669   4.9670   5.2825
     5.2862   5.4622   5.4634   5.5912   5.6410   5.6433   5.6437   5.6712
     5.7953   5.7978   5.8984   5.9017   5.9421   6.0618   6.0674   6.1394
     6.1442   6.2664   6.2718   6.5650   6.5678   6.8074   6.8373   6.8420
     6.8787   6.8834   6.8956   6.9977   6.9990   7.0029   7.3681   7.3728
     7.4245   7.4289   7.8454   7.8557   8.0247   8.0307   8.0482   8.0651
     9.3584   9.3596  10.1914  10.1916  10.1922  10.1931  12.2004  12.2092
    12.3468  12.3512  12.3821  12.4071  12.4168  12.4216  12.8981  12.9675
    13.2582  13.3308  13.3903  13.3954  13.9770  14.0460  14.0624  14.0732
    14.3009  14.7068  14.7192  15.0144  15.4463  15.4564  15.9320  16.0519
    16.0560  16.5330  17.2060  17.2119  17.4948

          k = 0.0000 0.1584 0.1666 ( 62347 PWs)   bands (ev):

   -66.0616 -66.0613 -66.0608 -66.0607 -66.0604 -66.0603 -66.0598 -66.0595
   -30.4979 -30.4944 -30.4938 -30.4904 -30.4474 -30.4430 -30.4421 -30.4380
   -30.4061 -30.4009 -30.3988 -30.3948 -30.3937 -30.3894 -30.3880 -30.3831
   -30.3153 -30.3114 -30.3078 -30.3056 -30.3023 -30.2974 -30.2951 -30.2912
   -20.2124 -20.2122 -20.2121 -20.2118 -20.2106 -20.2105 -20.2105 -20.2104
   -20.2103 -20.2103 -20.2102 -20.2101 -20.2076 -20.2073 -20.2072 -20.2069
   -20.2013 -20.2011 -20.2010 -20.2008 -20.2000 -20.2000 -20.1999 -20.1996
   -20.1986 -20.1985 -20.1984 -20.1982 -20.1974 -20.1973 -20.1972 -20.1970
   -20.1870 -20.1868 -20.1866 -20.1864 -20.1863 -20.1862 -20.1859 -20.1858
   -20.1596 -20.1595 -20.1589 -20.1589 -20.1582 -20.1580 -20.1576 -20.1575
   -20.1544 -20.1538 -20.1536 -20.1530 -20.1530 -20.1526 -20.1521 -20.1517
    -9.8595  -9.5983  -9.4875  -9.4084  -9.2364  -9.1350  -9.0402  -8.9757
    -8.9617  -8.8350  -8.8257  -8.7928  -7.9663  -7.9197  -7.9058  -7.8743
    -7.8675  -7.8385  -7.7491  -7.7423  -7.7130  -7.7079  -7.6242  -7.5904
     1.3177   1.3244   1.3347   1.3505   1.5456   1.5942   1.6007   1.7946
     1.8310   1.8415   1.8698   2.0920   2.5237   2.5963   2.6493   2.7335
     2.7767   2.8760   3.9991   4.0443   4.1116   4.1520   4.4156   4.4890
     4.6608   4.7012   4.7781   4.8982   4.9035   4.9390   4.9805   5.2399
     5.2440   5.3194   5.3398   5.4797   5.5706   5.5868   5.6373   5.7003
     5.7448   5.7586   5.8366   5.8667   5.8711   6.1133   6.1230   6.1458
     6.2386   6.3973   6.4828   6.5559   6.7066   6.7683   6.7972   6.8124
     6.8370   6.8886   6.9484   6.9668   7.0016   7.0198   7.1590   7.1795
     7.2054   7.2703   7.8531   7.8559   7.9916   8.0200   8.0283   8.0578
     9.6970   9.7177  10.1909  10.1952  10.4199  10.4439  12.1826  12.2624
    12.2774  12.3229  12.3776  12.4014  12.4251  12.5319  12.9263  12.9615
    13.1100  13.2814  13.3234  13.3893  13.9101  13.9435  14.0339  14.0445
    14.3850  14.7134  14.8463  15.1099  15.4810  15.5106  15.8971  16.0294
    16.3621  16.6871  16.9192  17.3719  17.5633

          k = 0.0000 0.1584 0.3333 ( 62413 PWs)   bands (ev):

   -66.0615 -66.0611 -66.0610 -66.0606 -66.0605 -66.0601 -66.0600 -66.0596
   -30.4973 -30.4952 -30.4932 -30.4912 -30.4464 -30.4439 -30.4413 -30.4389
   -30.4046 -30.4018 -30.3930 -30.3904 -30.3817 -30.3773 -30.3701 -30.3651
   -30.3333 -30.3291 -30.3211 -30.3168 -30.3069 -30.3042 -30.2943 -30.2921
   -20.2124 -20.2122 -20.2121 -20.2119 -20.2106 -20.2105 -20.2105 -20.2104
   -20.2104 -20.2103 -20.2102 -20.2102 -20.2076 -20.2074 -20.2072 -20.2070
   -20.2013 -20.2011 -20.2006 -20.2003 -20.2001 -20.1998 -20.1996 -20.1991
   -20.1990 -20.1989 -20.1987 -20.1981 -20.1978 -20.1974 -20.1972 -20.1971
   -20.1869 -20.1867 -20.1867 -20.1864 -20.1862 -20.1861 -20.1859 -20.1859
   -20.1593 -20.1587 -20.1585 -20.1584 -20.1579 -20.1579 -20.1570 -20.1564
   -20.1555 -20.1550 -20.1541 -20.1535 -20.1533 -20.1527 -20.1526 -20.1520
    -9.7462  -9.5380  -9.4743  -9.2795  -9.2617  -9.0693  -8.8943  -8.8808
    -8.8377  -8.8174  -8.7549  -8.6785  -8.1902  -8.1600  -8.1002  -8.0560
    -7.9345  -7.9154  -7.8884  -7.8614  -7.7189  -7.6844  -7.6491  -7.6151
     1.3355   1.3548   1.3652   1.3875   1.7317   1.7524   1.8272   1.8374
     2.2819   2.3325   2.4794   2.5724   2.6742   2.7587   2.7770   2.8640
     2.9761   3.1079   3.7738   3.8442   3.8713   3.9333   4.1302   4.1588
     4.2103   4.3517   4.5762   4.7015   4.7456   4.8115   4.8340   4.8841
     5.0166   5.1474   5.1615   5.1978   5.3702   5.4137   5.5098   5.6186
     5.6907   5.7449   5.7934   5.8475   5.9576   6.1370   6.2062   6.2690
     6.3359   6.5119   6.5508   6.5624   6.6267   6.6619   6.7138   6.8019
     6.8190   6.8400   6.9226   6.9582   6.9992   7.0313   7.0906   7.1345
     7.3046   7.3398   7.7815   7.7952   7.8716   7.9014   8.0470   8.0588
    10.1795  10.1913  10.4081  10.4791  10.9828  11.0636  11.8672  11.9232
    12.0826  12.4086  12.4911  12.5154  12.5400  12.5848  12.6792  12.7972
    12.9463  13.1415  13.2058  13.3917  13.5931  13.6366  14.0380  14.0415
    14.5730  14.6968  15.2044  15.3767  15.6257  15.7852  15.9169  15.9479
    16.3664  17.1418  17.2017  17.4356  17.7473

          k = 0.0000 0.1584-0.4999 ( 62330 PWs)   bands (ev):

   -66.0612 -66.0612 -66.0609 -66.0609 -66.0602 -66.0602 -66.0599 -66.0599
   -30.4963 -30.4963 -30.4923 -30.4923 -30.4451 -30.4451 -30.4401 -30.4401
   -30.4032 -30.4032 -30.3917 -30.3917 -30.3577 -30.3577 -30.3533 -30.3533
   -30.3456 -30.3456 -30.3408 -30.3408 -30.3058 -30.3058 -30.2932 -30.2932
   -20.2123 -20.2123 -20.2120 -20.2120 -20.2106 -20.2106 -20.2104 -20.2104
   -20.2104 -20.2104 -20.2102 -20.2102 -20.2075 -20.2075 -20.2071 -20.2071
   -20.2012 -20.2012 -20.2003 -20.2002 -20.1996 -20.1996 -20.1994 -20.1994
   -20.1991 -20.1991 -20.1985 -20.1985 -20.1978 -20.1978 -20.1972 -20.1972
   -20.1867 -20.1867 -20.1865 -20.1865 -20.1861 -20.1861 -20.1860 -20.1860
   -20.1589 -20.1589 -20.1583 -20.1583 -20.1570 -20.1570 -20.1565 -20.1565
   -20.1556 -20.1556 -20.1550 -20.1550 -20.1530 -20.1529 -20.1523 -20.1523
    -9.6261  -9.6261  -9.3568  -9.3568  -9.1348  -9.1348  -8.8564  -8.8564
    -8.5439  -8.5439  -8.5091  -8.5091  -8.5025  -8.5025  -8.4193  -8.4193
    -7.9286  -7.9286  -7.8775  -7.8775  -7.6837  -7.6837  -7.6494  -7.6494
     1.3490   1.3490   1.3824   1.3824   1.7536   1.7536   1.8387   1.8387
     2.7039   2.7039   3.0192   3.0192   3.1404   3.1404   3.1939   3.1940
     3.3038   3.3038   3.3553   3.3553   3.4878   3.4878   3.7913   3.7913
     3.9220   3.9220   4.2543   4.2543   4.6257   4.6257   4.7540   4.7540
     5.0616   5.0616   5.3063   5.3063   5.3274   5.3274   5.4933   5.4933
     5.7003   5.7003   5.8225   5.8225   6.1560   6.1560   6.3112   6.3112
     6.3479   6.3479   6.4553   6.4553   6.5398   6.5398   6.6621   6.6621
     6.8542   6.8542   6.8590   6.8590   6.9812   6.9812   7.5112   7.5112
     7.5580   7.5580   7.6545   7.6545   7.6792   7.6792   8.0575   8.0575
    10.1896  10.1896  11.1932  11.1932  11.2639  11.2639  11.6352  11.6352
    11.8270  11.8270  12.4610  12.4610  12.7176  12.7176  12.8576  12.8576
    12.8876  12.8876  13.1896  13.1896  13.4287  13.4287  14.0384  14.0384
    14.6622  14.6622  15.5434  15.5434  15.7954  15.7954  15.8430  15.8430
    16.6967  16.6967  17.6064  17.6064  18.0657

          k = 0.0000 0.3169 0.0000 ( 62343 PWs)   bands (ev):

   -66.0616 -66.0614 -66.0607 -66.0607 -66.0604 -66.0604 -66.0597 -66.0595
   -30.4872 -30.4831 -30.4830 -30.4791 -30.4580 -30.4533 -30.4531 -30.4488
   -30.4073 -30.4048 -30.4013 -30.4007 -30.3949 -30.3941 -30.3900 -30.3893
   -30.3087 -30.3080 -30.3051 -30.3042 -30.2961 -30.2955 -30.2915 -30.2908
   -20.2115 -20.2113 -20.2112 -20.2109 -20.2106 -20.2105 -20.2104 -20.2104
   -20.2103 -20.2103 -20.2102 -20.2101 -20.2086 -20.2083 -20.2082 -20.2079
   -20.2012 -20.2010 -20.2009 -20.2008 -20.2002 -20.2002 -20.2001 -20.1999
   -20.1984 -20.1982 -20.1982 -20.1982 -20.1974 -20.1974 -20.1972 -20.1970
   -20.1870 -20.1869 -20.1866 -20.1864 -20.1863 -20.1862 -20.1858 -20.1857
   -20.1598 -20.1597 -20.1592 -20.1590 -20.1584 -20.1581 -20.1579 -20.1575
   -20.1539 -20.1537 -20.1533 -20.1531 -20.1526 -20.1524 -20.1518 -20.1516
    -9.8320  -9.6882  -9.3836  -9.3830  -9.2483  -9.2469  -9.0119  -9.0051
    -8.8201  -8.7034  -8.6945  -8.6942  -8.2087  -8.1621  -8.1612  -8.1364
    -7.7576  -7.7522  -7.7265  -7.7205  -7.6144  -7.6137  -7.5842  -7.5837
     1.2392   1.2401   1.3233   1.3267   1.3450   1.3482   1.6223   1.6577
     2.3534   2.4509   2.4911   2.4968   2.4999   2.6616   2.8463   2.8719
     2.9882   2.9938   3.6345   3.6439   3.6800   3.6866   4.1395   4.4611
     4.4661   4.7324   4.8455   4.8529   4.8740   4.8810   5.0341   5.0379
     5.0536   5.0622   5.3693   5.3721   5.5786   5.5823   5.6962   5.6992
     5.8724   5.8737   5.9060   5.9097   6.0464   6.0577   6.0677   6.1531
     6.1642   6.2375   6.2459   6.5181   6.6266   6.6294   6.8535   6.8558
     6.9045   6.9794   7.0878   7.0901   7.1026   7.1040   7.3752   7.3796
     7.4289   7.4331   7.8093   7.8199   7.8541   7.8572   7.8611   7.8624
     9.3604   9.3605  10.6563  10.6604  10.6998  10.7097  11.8244  11.8336
    11.9479  11.9682  12.3620  12.3675  12.4178  12.4226  12.9234  12.9636
    13.3697  13.4205  13.4506  13.4554  13.8226  13.8408  13.8438  13.8512
    14.8132  15.2590  15.2619  15.4464  15.4515  15.6406  15.9407  15.9434
    15.9649  16.9302  17.2400  17.6717  17.6769

          k = 0.0000 0.3169 0.1666 ( 62336 PWs)   bands (ev):

   -66.0616 -66.0614 -66.0607 -66.0606 -66.0605 -66.0604 -66.0597 -66.0595
   -30.4870 -30.4834 -30.4828 -30.4794 -30.4577 -30.4536 -30.4529 -30.4492
   -30.4059 -30.4011 -30.3995 -30.3950 -30.3938 -30.3896 -30.3881 -30.3833
   -30.3153 -30.3113 -30.3077 -30.3057 -30.3024 -30.2974 -30.2952 -30.2913
   -20.2115 -20.2113 -20.2112 -20.2110 -20.2106 -20.2105 -20.2104 -20.2104
   -20.2103 -20.2103 -20.2101 -20.2101 -20.2086 -20.2083 -20.2082 -20.2079
   -20.2012 -20.2009 -20.2008 -20.2006 -20.2001 -20.2001 -20.2000 -20.1998
   -20.1985 -20.1984 -20.1983 -20.1981 -20.1975 -20.1974 -20.1973 -20.1971
   -20.1870 -20.1868 -20.1866 -20.1864 -20.1863 -20.1862 -20.1859 -20.1858
   -20.1596 -20.1595 -20.1589 -20.1589 -20.1582 -20.1580 -20.1576 -20.1575
   -20.1544 -20.1538 -20.1536 -20.1530 -20.1530 -20.1526 -20.1521 -20.1517
    -9.7822  -9.6349  -9.3994  -9.3089  -9.2616  -9.1603  -8.9721  -8.9638
    -8.8283  -8.6989  -8.6964  -8.6773  -8.2089  -8.1695  -8.1580  -8.1424
    -7.8761  -7.8447  -7.7473  -7.7427  -7.7143  -7.7105  -7.6227  -7.5927
     1.3205   1.3314   1.3364   1.3540   1.5765   1.5997   1.7816   1.8308
     2.3563   2.4774   2.4994   2.5397   2.5808   2.6539   2.8637   2.9606
     2.9830   3.0876   3.6430   3.6711   3.6844   3.7274   4.1297   4.4185
     4.4440   4.4775   4.5222   4.7349   4.7519   4.8574   4.8994   4.9257
     5.0347   5.0704   5.1677   5.3080   5.4005   5.4627   5.5865   5.6390
     5.6857   5.7851   5.8008   5.8530   6.0481   6.0967   6.1436   6.1584
     6.2471   6.4002   6.4588   6.5783   6.6189   6.8373   6.8572   6.9242
     6.9585   6.9779   7.0662   7.0710   7.0927   7.0993   7.1680   7.1851
     7.2368   7.2836   7.7937   7.8163   7.8250   7.8410   7.8643   7.8689
     9.7059   9.7193  10.6648  10.7042  10.8384  10.8727  11.8312  11.9170
    11.9615  12.0351  12.2685  12.3177  12.4208  12.4758  12.9643  12.9720
    13.2106  13.3331  13.3960  13.4468  13.6814  13.7282  13.8332  13.8409
    14.9462  15.2526  15.4459  15.4984  15.5145  15.7070  15.9174  16.1260
    16.2427  16.8936  17.2958  17.3357  17.6806

          k = 0.0000 0.3169 0.3333 ( 62335 PWs)   bands (ev):

   -66.0614 -66.0612 -66.0609 -66.0607 -66.0604 -66.0602 -66.0599 -66.0597
   -30.4863 -30.4843 -30.4822 -30.4802 -30.4568 -30.4545 -30.4522 -30.4500
   -30.4047 -30.4021 -30.3933 -30.3906 -30.3818 -30.3774 -30.3702 -30.3653
   -30.3333 -30.3291 -30.3212 -30.3168 -30.3069 -30.3042 -30.2944 -30.2922
   -20.2115 -20.2113 -20.2113 -20.2111 -20.2106 -20.2105 -20.2105 -20.2104
   -20.2104 -20.2103 -20.2101 -20.2101 -20.2085 -20.2084 -20.2082 -20.2080
   -20.2011 -20.2010 -20.2005 -20.2002 -20.2001 -20.1999 -20.1996 -20.1993
   -20.1989 -20.1988 -20.1987 -20.1980 -20.1980 -20.1975 -20.1974 -20.1973
   -20.1869 -20.1867 -20.1866 -20.1864 -20.1862 -20.1861 -20.1859 -20.1859
   -20.1593 -20.1587 -20.1585 -20.1584 -20.1579 -20.1579 -20.1570 -20.1564
   -20.1555 -20.1550 -20.1541 -20.1535 -20.1533 -20.1527 -20.1526 -20.1520
    -9.6627  -9.5099  -9.4498  -9.3070  -9.1199  -8.9113  -8.8608  -8.8504
    -8.8211  -8.7127  -8.6613  -8.6051  -8.2516  -8.2386  -8.1691  -8.1576
    -8.1492  -8.0970  -8.0546  -8.0056  -7.7174  -7.6870  -7.6476  -7.6175
     1.3452   1.3664   1.3694   1.3920   2.1913   2.2757   2.2908   2.3799
     2.4704   2.5059   2.5130   2.7390   2.8050   2.8367   2.8877   2.9688
     3.2063   3.3004   3.6267   3.6456   3.7354   3.7830   3.8614   3.8715
     4.1061   4.2763   4.3872   4.4023   4.4742   4.5682   4.6266   4.7790
     4.8153   4.8285   4.9841   5.0523   5.1756   5.2006   5.2152   5.3550
     5.3800   5.5926   5.6391   5.8080   6.1401   6.1971   6.2071   6.2872
     6.4164   6.5652   6.6030   6.6608   6.7007   6.8018   6.8055   6.8454
     6.9181   6.9709   7.0297   7.0489   7.0710   7.1368   7.1611   7.1985
     7.2861   7.3308   7.7181   7.7353   7.7809   7.7916   7.8324   7.8540
    10.4247  10.4473  10.6790  10.7107  11.2976  11.3429  11.8023  11.8881
    11.9230  11.9911  12.2075  12.2606  12.5878  12.6390  12.6628  12.6941
    12.9156  13.1284  13.1982  13.3709  13.4425  13.5014  13.8276  13.8372
    15.1087  15.2257  15.5708  15.8387  15.9013  15.9985  16.0250  16.6291
    16.7663  16.7776  17.0531  17.5402  17.6325

          k = 0.0000 0.3169-0.4999 ( 62394 PWs)   bands (ev):

   -66.0612 -66.0611 -66.0609 -66.0609 -66.0602 -66.0602 -66.0600 -66.0600
   -30.4853 -30.4853 -30.4813 -30.4813 -30.4556 -30.4556 -30.4511 -30.4511
   -30.4034 -30.4034 -30.3919 -30.3919 -30.3577 -30.3577 -30.3533 -30.3533
   -30.3457 -30.3457 -30.3409 -30.3409 -30.3057 -30.3057 -30.2933 -30.2933
   -20.2114 -20.2114 -20.2112 -20.2112 -20.2105 -20.2105 -20.2104 -20.2104
   -20.2103 -20.2103 -20.2101 -20.2101 -20.2085 -20.2085 -20.2081 -20.2081
   -20.2011 -20.2011 -20.2003 -20.2003 -20.1995 -20.1995 -20.1994 -20.1994
   -20.1991 -20.1991 -20.1986 -20.1986 -20.1978 -20.1978 -20.1973 -20.1973
   -20.1867 -20.1867 -20.1865 -20.1865 -20.1861 -20.1861 -20.1860 -20.1860
   -20.1589 -20.1589 -20.1583 -20.1583 -20.1570 -20.1570 -20.1565 -20.1565
   -20.1556 -20.1556 -20.1550 -20.1550 -20.1530 -20.1530 -20.1523 -20.1523
    -9.5386  -9.5386  -9.3883  -9.3883  -8.9414  -8.9414  -8.7451  -8.7451
    -8.5588  -8.5588  -8.5458  -8.5458  -8.4870  -8.4870  -8.3980  -8.3980
    -8.1609  -8.1609  -8.1193  -8.1193  -7.6822  -7.6822  -7.6519  -7.6519
     1.3613   1.3614   1.3870   1.3870   2.3570   2.3570   2.4918   2.4918
     2.9043   2.9043   3.0664   3.0664   3.1174   3.1174   3.2730   3.2730
     3.3339   3.3339   3.3620   3.3620   3.4520   3.4520   3.6548   3.6548
     4.0504   4.0504   4.0780   4.0780   4.1399   4.1399   4.3534   4.3534
     4.8102   4.8102   4.9127   4.9127   5.1116   5.1116   5.2792   5.2792
     5.4337   5.4337   5.7229   5.7229   6.2780   6.2780   6.3366   6.3366
     6.4699   6.4699   6.5246   6.5246   6.5490   6.5490   6.7584   6.7584
     7.0392   7.0392   7.0536   7.0536   7.0934   7.0934   7.5127   7.5127
     7.5341   7.5341   7.5695   7.5695   7.6049   7.6049   7.8406   7.8406
    10.6824  10.6824  11.2070  11.2070  11.2604  11.2604  11.7267  11.7267
    12.0141  12.0141  12.1635  12.1635  12.5927  12.5927  12.6609  12.6609
    12.8756  12.8756  12.9980  12.9980  13.4429  13.4429  13.8304  13.8304
    15.1790  15.1790  15.7156  15.7156  16.2697  16.2697  16.4921  16.4921
    16.8700  16.8700  17.2265  17.2265  17.9534

          k = 0.0000-0.4753 0.0000 ( 62330 PWs)   bands (ev):

   -66.0615 -66.0615 -66.0606 -66.0606 -66.0605 -66.0605 -66.0596 -66.0596
   -30.4724 -30.4724 -30.4691 -30.4689 -30.4672 -30.4671 -30.4640 -30.4640
   -30.4063 -30.4061 -30.4014 -30.4008 -30.3946 -30.3945 -30.3901 -30.3894
   -30.3087 -30.3080 -30.3048 -30.3045 -30.2962 -30.2956 -30.2913 -30.2910
   -20.2109 -20.2108 -20.2106 -20.2106 -20.2105 -20.2104 -20.2104 -20.2103
   -20.2100 -20.2098 -20.2097 -20.2096 -20.2094 -20.2093 -20.2093 -20.2091
   -20.2011 -20.2009 -20.2008 -20.2007 -20.2003 -20.2002 -20.2002 -20.2001
   -20.1983 -20.1981 -20.1981 -20.1981 -20.1975 -20.1975 -20.1973 -20.1971
   -20.1870 -20.1869 -20.1866 -20.1864 -20.1863 -20.1863 -20.1858 -20.1857
   -20.1598 -20.1597 -20.1592 -20.1590 -20.1584 -20.1581 -20.1579 -20.1575
   -20.1539 -20.1537 -20.1533 -20.1531 -20.1526 -20.1524 -20.1518 -20.1516
    -9.7506  -9.7504  -9.3160  -9.3147  -9.2847  -9.2838  -9.0085  -9.0084
    -8.5174  -8.5174  -8.4610  -8.4604  -8.4583  -8.4577  -8.4577  -8.4576
    -7.7544  -7.7531  -7.7254  -7.7244  -7.6134  -7.6126  -7.5854  -7.5849
     1.2394   1.2398   1.3243   1.3278   1.3459   1.3491   1.6495   1.6497
     2.4707   2.4709   3.1142   3.1158   3.2057   3.2089   3.2223   3.2256
     3.2885   3.2900   3.3068   3.3145   3.4440   3.4537   3.5191   3.5243
     3.6637   3.6637   4.8548   4.8593   4.8620   4.8660   5.1947   5.2039
     5.2094   5.2178   5.3035   5.3046   5.3086   5.3097   5.7603   5.7636
     5.7676   5.7706   5.9928   5.9949   6.0469   6.0477   6.1628   6.1680
     6.1924   6.2011   6.2764   6.2788   6.7029   6.7055   6.7491   6.7520
     6.9432   6.9435   7.3645   7.3678   7.4009   7.4028   7.4526   7.4531
     7.4775   7.4783   7.5340   7.5351   7.5416   7.5425   7.8545   7.8546
     9.3609   9.3610  11.2429  11.2504  11.2753  11.2827  11.3263  11.3325
    11.3641  11.3703  12.3674  12.3728  12.4193  12.4244  12.9487  12.9490
    13.5581  13.5630  13.6005  13.6049  13.6099  13.6136  13.6151  13.6189
    15.3688  15.3725  15.4512  15.4547  15.6811  15.6827  15.7221  15.7236
    16.5384  16.5385  17.9074  17.9075  18.1265

          k = 0.0000-0.4753 0.1666 ( 62358 PWs)   bands (ev):

   -66.0615 -66.0614 -66.0606 -66.0606 -66.0605 -66.0605 -66.0597 -66.0596
   -30.4723 -30.4720 -30.4693 -30.4686 -30.4675 -30.4670 -30.4643 -30.4643
   -30.4057 -30.4012 -30.3999 -30.3951 -30.3939 -30.3897 -30.3882 -30.3833
   -30.3153 -30.3113 -30.3077 -30.3057 -30.3024 -30.2974 -30.2953 -30.2914
   -20.2109 -20.2108 -20.2106 -20.2106 -20.2105 -20.2105 -20.2104 -20.2103
   -20.2100 -20.2098 -20.2096 -20.2096 -20.2095 -20.2094 -20.2093 -20.2091
   -20.2011 -20.2008 -20.2007 -20.2005 -20.2002 -20.2002 -20.2001 -20.1999
   -20.1984 -20.1983 -20.1983 -20.1981 -20.1976 -20.1975 -20.1973 -20.1973
   -20.1869 -20.1869 -20.1866 -20.1864 -20.1863 -20.1862 -20.1859 -20.1858
   -20.1596 -20.1595 -20.1589 -20.1589 -20.1582 -20.1580 -20.1576 -20.1575
   -20.1544 -20.1538 -20.1536 -20.1530 -20.1530 -20.1526 -20.1521 -20.1517
    -9.7000  -9.6966  -9.3301  -9.2997  -9.2311  -9.2006  -8.9693  -8.9662
    -8.5232  -8.5231  -8.4672  -8.4642  -8.4566  -8.4563  -8.4529  -8.4503
    -7.8752  -7.8463  -7.7456  -7.7428  -7.7147  -7.7123  -7.6217  -7.5939
     1.3208   1.3326   1.3366   1.3550   1.5798   1.6015   1.8129   1.8268
     2.5597   2.5603   3.1173   3.1282   3.2125   3.2179   3.2233   3.2506
     3.2819   3.3067   3.3085   3.3551   3.4480   3.5074   3.5190   3.5638
     3.6926   3.6951   4.4666   4.4699   4.8654   4.8996   4.9618   5.0032
     5.1122   5.1141   5.1857   5.1933   5.3160   5.3231   5.4910   5.5075
     5.7358   5.7400   5.7892   5.7969   6.0941   6.1396   6.1399   6.1602
     6.3783   6.3872   6.4027   6.4656   6.6921   6.7383   6.8808   6.9244
     7.0003   7.0091   7.1489   7.1746   7.1841   7.2305   7.4406   7.4585
     7.4705   7.4843   7.4979   7.5169   7.5172   7.5315   7.8588   7.8593
     9.7097   9.7190  11.2548  11.2861  11.3265  11.3472  11.3869  11.4017
    11.4489  11.4845  12.2710  12.3173  12.4249  12.4739  12.9824  12.9827
    13.3874  13.3998  13.4684  13.4882  13.5936  13.6061  13.6064  13.6236
    15.3898  15.4284  15.5911  15.6245  15.6639  15.7075  15.9591  15.9936
    16.6014  16.6033  17.8355  17.8491  17.9502

          k = 0.0000-0.4753 0.3333 ( 62352 PWs)   bands (ev):

   -66.0613 -66.0613 -66.0608 -66.0608 -66.0603 -66.0603 -66.0598 -66.0598
   -30.4719 -30.4711 -30.4701 -30.4685 -30.4677 -30.4667 -30.4652 -30.4650
   -30.4048 -30.4021 -30.3934 -30.3907 -30.3819 -30.3774 -30.3703 -30.3653
   -30.3333 -30.3291 -30.3212 -30.3169 -30.3069 -30.3042 -30.2945 -30.2923
   -20.2108 -20.2107 -20.2106 -20.2106 -20.2105 -20.2105 -20.2105 -20.2104
   -20.2100 -20.2098 -20.2096 -20.2095 -20.2095 -20.2094 -20.2093 -20.2092
   -20.2010 -20.2009 -20.2004 -20.2002 -20.2001 -20.1999 -20.1997 -20.1993
   -20.1988 -20.1987 -20.1987 -20.1981 -20.1980 -20.1975 -20.1975 -20.1974
   -20.1868 -20.1867 -20.1866 -20.1864 -20.1862 -20.1861 -20.1859 -20.1859
   -20.1593 -20.1587 -20.1585 -20.1584 -20.1579 -20.1579 -20.1570 -20.1564
   -20.1555 -20.1550 -20.1541 -20.1535 -20.1533 -20.1527 -20.1526 -20.1520
    -9.5808  -9.5675  -9.3774  -9.3489  -8.9969  -8.9694  -8.8364  -8.8259
    -8.5567  -8.5546  -8.4897  -8.4873  -8.4472  -8.4466  -8.4268  -8.4217
    -8.1655  -8.1386  -8.0547  -8.0282  -7.7162  -7.6884  -7.6466  -7.6188
     1.3467   1.3679   1.3706   1.3932   2.2579   2.2773   2.4466   2.4654
     2.8177   2.8185   3.1185   3.1515   3.2103   3.2282   3.2340   3.2674
     3.2755   3.2913   3.3792   3.4212   3.4459   3.5045   3.6807   3.6983
     3.7631   3.7697   3.8523   3.8629   4.4625   4.4635   4.6262   4.6357
     4.7700   4.7946   4.8586   4.8815   5.2030   5.2237   5.2352   5.2389
     5.3644   5.3813   5.6593   5.6635   6.1950   6.2004   6.2293   6.3041
     6.5121   6.5304   6.6076   6.6807   6.7002   6.7238   6.8265   6.8778
     7.0151   7.0401   7.1605   7.1759   7.1930   7.1965   7.4167   7.4471
     7.4569   7.4792   7.4850   7.4976   7.5070   7.5122   7.7985   7.7987
    10.4340  10.4533  11.2677  11.2955  11.3137  11.3422  11.7486  11.7695
    11.7946  11.8251  11.8910  11.9261  12.5944  12.6346  12.7783  12.7833
    12.9199  12.9338  13.2128  13.2375  13.5899  13.5908  13.6015  13.6151
    15.4187  15.4612  15.6042  15.6459  16.1898  16.2210  16.6865  16.7094
    16.8248  16.8336  17.3338  17.3353  17.9318

          k = 0.0000-0.4753-0.4999 ( 62372 PWs)   bands (ev):

   -66.0611 -66.0611 -66.0610 -66.0610 -66.0601 -66.0601 -66.0600 -66.0600
   -30.4710 -30.4710 -30.4698 -30.4698 -30.4665 -30.4665 -30.4659 -30.4659
   -30.4035 -30.4034 -30.3920 -30.3920 -30.3577 -30.3577 -30.3533 -30.3533
   -30.3457 -30.3457 -30.3410 -30.3410 -30.3057 -30.3057 -30.2934 -30.2934
   -20.2107 -20.2107 -20.2106 -20.2106 -20.2106 -20.2105 -20.2105 -20.2105
   -20.2099 -20.2099 -20.2096 -20.2096 -20.2095 -20.2095 -20.2093 -20.2093
   -20.2010 -20.2010 -20.2003 -20.2003 -20.1994 -20.1994 -20.1993 -20.1993
   -20.1992 -20.1992 -20.1987 -20.1987 -20.1978 -20.1978 -20.1974 -20.1974
   -20.1867 -20.1867 -20.1865 -20.1865 -20.1860 -20.1860 -20.1860 -20.1860
   -20.1589 -20.1589 -20.1583 -20.1583 -20.1570 -20.1570 -20.1565 -20.1565
   -20.1556 -20.1556 -20.1550 -20.1550 -20.1530 -20.1529 -20.1523 -20.1523
    -9.4609  -9.4609  -9.4375  -9.4375  -8.7058  -8.7058  -8.6879  -8.6879
    -8.6098  -8.6098  -8.5979  -8.5979  -8.4054  -8.4054  -8.3880  -8.3880
    -8.3362  -8.3362  -8.3162  -8.3162  -7.6811  -7.6811  -7.6532  -7.6532
     1.3631   1.3631   1.3883   1.3883   2.9918   2.9918   3.0449   3.0449
     3.1474   3.1474   3.1642   3.1642   3.2037   3.2037   3.2182   3.2182
     3.3119   3.3119   3.3280   3.3280   3.4468   3.4468   3.4911   3.4911
     3.5672   3.5672   3.6813   3.6813   4.2845   4.2845   4.3115   4.3115
     4.3841   4.3841   4.4268   4.4268   5.2041   5.2041   5.2197   5.2197
     5.5017   5.5017   5.5265   5.5265   6.3255   6.3255   6.3314   6.3314
     6.5127   6.5127   6.5460   6.5460   6.6188   6.6188   6.6563   6.6563
     7.2757   7.2757   7.2994   7.2994   7.3260   7.3260   7.4091   7.4091
     7.4453   7.4453   7.4873   7.4873   7.5954   7.5954   7.6077   7.6077
    11.1825  11.1825  11.2084  11.2084  11.3340  11.3340  11.3527  11.3527
    12.2700  12.2700  12.2932  12.2932  12.3304  12.3304  12.3499  12.3499
    12.8913  12.8913  12.9214  12.9214  13.5897  13.5897  13.6006  13.6006
    15.5106  15.5106  15.5544  15.5544  16.8061  16.8061  16.8401  16.8401
    17.3615  17.3615  17.3911  17.3912  17.5031

          k = 0.1667 0.0000 0.0000 ( 62373 PWs)   bands (ev):

   -66.0617 -66.0612 -66.0608 -66.0607 -66.0604 -66.0603 -66.0599 -66.0594
   -30.5019 -30.4983 -30.4979 -30.4945 -30.4437 -30.4390 -30.4385 -30.4340
   -30.4064 -30.4011 -30.3988 -30.3941 -30.3937 -30.3902 -30.3874 -30.3823
   -30.3147 -30.3111 -30.3085 -30.3055 -30.3017 -30.2974 -30.2957 -30.2916
   -20.2128 -20.2125 -20.2124 -20.2122 -20.2107 -20.2105 -20.2105 -20.2104
   -20.2103 -20.2103 -20.2103 -20.2102 -20.2072 -20.2069 -20.2069 -20.2065
   -20.2013 -20.2012 -20.2010 -20.2009 -20.2001 -20.1998 -20.1998 -20.1996
   -20.1988 -20.1985 -20.1984 -20.1983 -20.1974 -20.1972 -20.1971 -20.1968
   -20.1870 -20.1868 -20.1865 -20.1864 -20.1863 -20.1862 -20.1859 -20.1857
   -20.1598 -20.1595 -20.1590 -20.1586 -20.1585 -20.1580 -20.1578 -20.1571
   -20.1541 -20.1538 -20.1535 -20.1532 -20.1528 -20.1526 -20.1520 -20.1519
    -9.8914  -9.5868  -9.5263  -9.4521  -9.2303  -9.1258  -9.1151  -8.9781
    -8.9609  -8.8776  -8.8632  -8.8246  -7.8963  -7.8531  -7.8486  -7.8091
    -7.8020  -7.7552  -7.7494  -7.7392  -7.7139  -7.7075  -7.6254  -7.5899
     1.3046   1.3079   1.3299   1.3444   1.4367   1.4708   1.5930   1.5964
     1.6073   1.7142   1.8362   1.9905   2.5168   2.5785   2.6024   2.6572
     2.7094   2.8046   4.0967   4.1704   4.3787   4.3813   4.4179   4.4926
     4.6325   4.7711   4.8018   4.9036   4.9154   5.0076   5.0770   5.3167
     5.3634   5.4218   5.4919   5.5372   5.5696   5.6039   5.6279   5.6288
     5.7469   5.7721   5.8183   5.9108   5.9820   6.0908   6.1192   6.1358
     6.3015   6.4088   6.5007   6.5279   6.6822   6.7102   6.7762   6.8021
     6.8427   6.8633   6.9596   6.9890   7.0296   7.0802   7.1619   7.1838
     7.1924   7.2647   7.8516   7.8564   8.0234   8.0856   8.0882   8.1409
     9.6908   9.7175   9.9943  10.0157  10.2506  10.2991  12.2504  12.2765
    12.3425  12.3673  12.4013  12.4596  12.5534  12.6529  12.8918  12.9649
    13.1087  13.2495  13.3152  13.3937  13.8754  14.0093  14.0969  14.1263
    14.2346  14.4556  14.5717  14.9529  15.4818  15.4946  15.5088  16.0567
    16.4010  16.7885  17.0205  17.2643  17.4893

          k = 0.1667 0.0000 0.1666 ( 62340 PWs)   bands (ev):

   -66.0616 -66.0612 -66.0608 -66.0608 -66.0603 -66.0603 -66.0599 -66.0595
   -30.5017 -30.4982 -30.4982 -30.4948 -30.4433 -30.4388 -30.4386 -30.4343
   -30.4015 -30.3970 -30.3948 -30.3943 -30.3880 -30.3866 -30.3833 -30.3825
   -30.3151 -30.3144 -30.3126 -30.3108 -30.3022 -30.3016 -30.2986 -30.2973
   -20.2128 -20.2125 -20.2125 -20.2122 -20.2106 -20.2105 -20.2105 -20.2104
   -20.2104 -20.2103 -20.2103 -20.2102 -20.2072 -20.2069 -20.2069 -20.2066
   -20.2012 -20.2011 -20.2009 -20.2008 -20.2000 -20.1998 -20.1997 -20.1994
   -20.1988 -20.1986 -20.1984 -20.1983 -20.1974 -20.1973 -20.1972 -20.1970
   -20.1869 -20.1868 -20.1865 -20.1864 -20.1862 -20.1862 -20.1859 -20.1858
   -20.1594 -20.1593 -20.1587 -20.1585 -20.1581 -20.1579 -20.1576 -20.1572
   -20.1543 -20.1540 -20.1537 -20.1535 -20.1530 -20.1529 -20.1523 -20.1521
    -9.8437  -9.5282  -9.4683  -9.4679  -9.1416  -9.1398  -9.1239  -8.9379
    -8.9251  -8.8682  -8.8300  -8.8293  -7.9006  -7.8673  -7.8477  -7.8441
    -7.8358  -7.8063  -7.8017  -7.7651  -7.7587  -7.7524  -7.7194  -7.7009
     1.4228   1.4635   1.4650   1.5000   1.5005   1.5857   1.5993   1.6025
     1.7130   1.7163   1.9213   2.0699   2.6041   2.6579   2.6732   2.6973
     2.7821   2.8161   4.0992   4.1021   4.3454   4.3480   4.4849   4.4861
     4.5489   4.5581   4.6479   4.6761   4.7392   4.8054   5.0598   5.2645
     5.2748   5.3361   5.3580   5.4912   5.5022   5.6151   5.6204   5.6906
     5.6922   5.7489   5.7569   5.7687   5.8038   5.9952   6.3016   6.4074
     6.4540   6.4928   6.5569   6.6505   6.6832   6.6894   6.6919   6.7244
     6.7479   6.8431   6.8497   6.8785   6.8974   6.9821   6.9910   7.0980
     7.2943   7.3481   7.8503   7.8507   8.0274   8.0712   8.0810   8.1043
     9.9115   9.9752  10.2440  10.2481  10.2724  10.3591  12.2955  12.3039
    12.3211  12.3348  12.3832  12.4123  12.6268  12.6548  12.9057  12.9624
    13.0439  13.1784  13.2039  13.3706  13.9138  13.9758  14.0253  14.0531
    14.2220  14.5507  14.5640  15.0722  15.4617  15.5673  15.5794  16.3617
    16.3688  16.9512  16.9587  17.1633  17.5369

          k = 0.1667 0.0000 0.3333 ( 62373 PWs)   bands (ev):

   -66.0614 -66.0610 -66.0609 -66.0606 -66.0605 -66.0602 -66.0601 -66.0597
   -30.5011 -30.4991 -30.4976 -30.4956 -30.4422 -30.4397 -30.4376 -30.4352
   -30.3983 -30.3955 -30.3864 -30.3844 -30.3805 -30.3775 -30.3697 -30.3654
   -30.3330 -30.3295 -30.3210 -30.3174 -30.3135 -30.3102 -30.3009 -30.2986
   -20.2127 -20.2125 -20.2125 -20.2123 -20.2106 -20.2105 -20.2105 -20.2104
   -20.2104 -20.2103 -20.2102 -20.2102 -20.2072 -20.2070 -20.2068 -20.2067
   -20.2012 -20.2010 -20.2006 -20.2003 -20.1999 -20.1997 -20.1995 -20.1991
   -20.1990 -20.1990 -20.1988 -20.1982 -20.1978 -20.1975 -20.1973 -20.1972
   -20.1868 -20.1866 -20.1866 -20.1863 -20.1863 -20.1861 -20.1860 -20.1859
   -20.1589 -20.1585 -20.1582 -20.1582 -20.1578 -20.1575 -20.1571 -20.1565
   -20.1554 -20.1549 -20.1542 -20.1538 -20.1536 -20.1531 -20.1529 -20.1524
    -9.7284  -9.5182  -9.3911  -9.3342  -9.1832  -9.1536  -8.8899  -8.8785
    -8.8420  -8.7946  -8.7653  -8.7037  -8.1778  -8.1475  -8.1004  -8.0675
    -7.8594  -7.8335  -7.8219  -7.8005  -7.7916  -7.7693  -7.7646  -7.7383
     1.4338   1.4529   1.5365   1.5701   1.6175   1.6336   1.6963   1.7235
     2.2891   2.3297   2.4624   2.5461   2.6877   2.7735   2.8693   2.9067
     2.9784   3.0538   3.8100   3.8633   3.9462   3.9594   4.1430   4.3167
     4.3276   4.5059   4.5084   4.5536   4.6045   4.7540   4.7731   4.9172
     5.0128   5.0488   5.1025   5.2202   5.2753   5.3832   5.5552   5.6544
     5.6958   5.7560   5.7719   5.8137   5.8329   6.0025   6.1402   6.1949
     6.4091   6.4514   6.4928   6.5553   6.5788   6.6680   6.6712   6.6931
     6.7760   6.8691   6.8812   6.8961   7.1226   7.1483   7.1709   7.2372
     7.3222   7.3675   7.7856   7.7999   7.9209   7.9581   8.0818   8.0929
    10.2433  10.2489  10.5453  10.6152  10.8759  10.9938  11.9233  11.9762
    12.1564  12.4497  12.4841  12.4995  12.5752  12.6422  12.7907  12.8854
    12.9031  13.0616  13.1126  13.2939  13.6756  13.6941  13.9803  14.0080
    14.3644  14.5383  14.8491  15.3557  15.3844  15.8296  15.9913  16.2683
    16.3827  17.2119  17.3977  17.4929  17.6036

          k = 0.1667 0.0000-0.4999 ( 62380 PWs)   bands (ev):

   -66.0612 -66.0612 -66.0608 -66.0608 -66.0603 -66.0603 -66.0599 -66.0599
   -30.5001 -30.5001 -30.4966 -30.4966 -30.4409 -30.4409 -30.4364 -30.4364
   -30.3968 -30.3968 -30.3850 -30.3850 -30.3573 -30.3573 -30.3536 -30.3536
   -30.3453 -30.3453 -30.3411 -30.3411 -30.3123 -30.3123 -30.2998 -30.2998
   -20.2126 -20.2126 -20.2124 -20.2124 -20.2106 -20.2106 -20.2105 -20.2104
   -20.2104 -20.2104 -20.2102 -20.2102 -20.2071 -20.2071 -20.2068 -20.2068
   -20.2011 -20.2011 -20.2002 -20.2002 -20.1997 -20.1997 -20.1993 -20.1993
   -20.1992 -20.1992 -20.1984 -20.1984 -20.1979 -20.1979 -20.1973 -20.1973
   -20.1867 -20.1867 -20.1865 -20.1865 -20.1861 -20.1861 -20.1860 -20.1860
   -20.1585 -20.1585 -20.1579 -20.1579 -20.1569 -20.1569 -20.1564 -20.1564
   -20.1557 -20.1557 -20.1551 -20.1551 -20.1534 -20.1534 -20.1527 -20.1527
    -9.6065  -9.6065  -9.2633  -9.2633  -9.2173  -9.2173  -8.8592  -8.8592
    -8.5447  -8.5447  -8.5205  -8.5205  -8.4824  -8.4824  -8.4266  -8.4266
    -7.8425  -7.8425  -7.7992  -7.7992  -7.7800  -7.7800  -7.7699  -7.7699
     1.4416   1.4416   1.5541   1.5541   1.6356   1.6356   1.7287   1.7287
     2.7150   2.7150   3.0154   3.0154   3.0979   3.0979   3.2144   3.2144
     3.3148   3.3148   3.4289   3.4289   3.5500   3.5500   3.8065   3.8065
     3.8666   3.8666   4.4227   4.4227   4.5239   4.5239   4.8959   4.8959
     5.0336   5.0336   5.0592   5.0592   5.2502   5.2502   5.6289   5.6289
     5.7798   5.7798   5.7948   5.7948   5.8986   5.8986   5.9755   5.9755
     6.3429   6.3429   6.4357   6.4357   6.6653   6.6653   6.7034   6.7034
     6.8240   6.8240   6.9667   6.9667   7.0254   7.0254   7.5418   7.5418
     7.5869   7.5869   7.6902   7.6902   7.7120   7.7120   8.0916   8.0916
    10.2562  10.2562  11.2641  11.2641  11.3432  11.3432  11.5890  11.5890
    11.7803  11.7803  12.6579  12.6579  12.6790  12.6790  12.7481  12.7481
    12.9330  12.9330  13.2690  13.2690  13.3669  13.3669  13.9918  13.9918
    14.4828  14.4829  15.1551  15.1551  15.8276  15.8276  16.0987  16.0987
    16.7578  16.7578  17.8056  17.8065  17.8592

          k = 0.1667 0.1584 0.0000 ( 62350 PWs)   bands (ev):

   -66.0616 -66.0613 -66.0608 -66.0607 -66.0604 -66.0603 -66.0598 -66.0595
   -30.4979 -30.4943 -30.4939 -30.4904 -30.4474 -30.4428 -30.4423 -30.4381
   -30.4063 -30.4013 -30.3992 -30.3942 -30.3937 -30.3902 -30.3875 -30.3824
   -30.3147 -30.3111 -30.3084 -30.3055 -30.3017 -30.2974 -30.2958 -30.2917
   -20.2124 -20.2122 -20.2121 -20.2118 -20.2106 -20.2105 -20.2104 -20.2104
   -20.2103 -20.2103 -20.2103 -20.2102 -20.2076 -20.2073 -20.2072 -20.2069
   -20.2012 -20.2011 -20.2010 -20.2009 -20.2002 -20.1999 -20.1998 -20.1996
   -20.1987 -20.1985 -20.1983 -20.1983 -20.1975 -20.1972 -20.1972 -20.1969
   -20.1870 -20.1868 -20.1865 -20.1864 -20.1863 -20.1862 -20.1859 -20.1858
   -20.1598 -20.1595 -20.1590 -20.1586 -20.1585 -20.1580 -20.1578 -20.1571
   -20.1541 -20.1538 -20.1535 -20.1532 -20.1528 -20.1526 -20.1520 -20.1519
    -9.8596  -9.5986  -9.4877  -9.4084  -9.2380  -9.1334  -9.0402  -8.9758
    -8.9615  -8.8347  -8.8260  -8.7924  -7.9667  -7.9191  -7.9064  -7.8723
    -7.8676  -7.8377  -7.7504  -7.7413  -7.7137  -7.7073  -7.6251  -7.5910
     1.3157   1.3216   1.3330   1.3473   1.5471   1.5954   1.6027   1.7949
     1.8302   1.8423   1.8724   2.0928   2.5234   2.5962   2.6512   2.7319
     2.7797   2.8735   3.9949   4.0473   4.1082   4.1572   4.4145   4.4899
     4.6525   4.6980   4.8068   4.8895   4.9000   4.9286   4.9764   5.2408
     5.2564   5.3122   5.3446   5.4809   5.5719   5.5842   5.6349   5.6957
     5.7503   5.7617   5.8355   5.8677   5.8736   6.1143   6.1214   6.1422
     6.2427   6.3994   6.4766   6.5539   6.7070   6.7654   6.7977   6.8108
     6.8368   6.8903   6.9470   6.9684   6.9992   7.0225   7.1630   7.1834
     7.2028   7.2671   7.8531   7.8561   7.9864   8.0161   8.0341   8.0622
     9.6971   9.7195  10.1909  10.1940  10.4198  10.4438  12.1764  12.2640
    12.2852  12.3255  12.3745  12.3983  12.4227  12.5321  12.9141  12.9640
    13.1338  13.2653  13.3255  13.3941  13.9001  13.9324  14.0513  14.0606
    14.3780  14.7020  14.8508  15.1104  15.4816  15.5081  15.8959  16.0263
    16.3657  16.6862  16.9158  17.3767  17.5645

          k = 0.1667 0.1584 0.1666 ( 62371 PWs)   bands (ev):

   -66.0616 -66.0612 -66.0607 -66.0607 -66.0604 -66.0604 -66.0599 -66.0595
   -30.4977 -30.4942 -30.4941 -30.4907 -30.4470 -30.4426 -30.4425 -30.4384
   -30.4012 -30.3974 -30.3950 -30.3945 -30.3880 -30.3867 -30.3834 -30.3827
   -30.3150 -30.3144 -30.3125 -30.3109 -30.3023 -30.3016 -30.2985 -30.2974
   -20.2124 -20.2122 -20.2121 -20.2119 -20.2106 -20.2105 -20.2105 -20.2104
   -20.2104 -20.2103 -20.2103 -20.2102 -20.2076 -20.2073 -20.2072 -20.2070
   -20.2012 -20.2010 -20.2009 -20.2008 -20.2000 -20.1999 -20.1998 -20.1995
   -20.1988 -20.1986 -20.1984 -20.1983 -20.1975 -20.1974 -20.1973 -20.1970
   -20.1869 -20.1868 -20.1865 -20.1864 -20.1862 -20.1862 -20.1859 -20.1858
   -20.1594 -20.1593 -20.1587 -20.1585 -20.1581 -20.1579 -20.1576 -20.1572
   -20.1543 -20.1540 -20.1537 -20.1535 -20.1530 -20.1529 -20.1523 -20.1521
    -9.8103  -9.5401  -9.4250  -9.4245  -9.1494  -9.1477  -9.0491  -8.9369
    -8.9253  -8.8259  -8.7974  -8.7969  -7.9691  -7.9178  -7.9169  -7.8758
    -7.8656  -7.8633  -7.8327  -7.8260  -7.7694  -7.7511  -7.7181  -7.7025
     1.4969   1.4993   1.5485   1.5501   1.6003   1.6026   1.6190   1.7944
     1.8672   1.8700   1.9210   2.1484   2.6128   2.6908   2.7317   2.7486
     2.8554   2.8809   4.0031   4.0197   4.1349   4.1427   4.4662   4.4697
     4.5509   4.5587   4.6440   4.6739   4.7120   4.7525   4.8631   5.1860
     5.2172   5.2580   5.2733   5.3632   5.3801   5.5640   5.5670   5.6236
     5.7513   5.7604   5.7807   5.7969   5.8010   5.8664   6.3203   6.3474
     6.4031   6.4597   6.5462   6.6476   6.6852   6.7157   6.7704   6.7776
     6.7974   6.8274   6.8756   6.8859   6.9513   6.9652   6.9868   7.1046
     7.2981   7.3466   7.8501   7.8510   7.9766   8.0132   8.0196   8.0296
     9.9312   9.9764  10.3964  10.4150  10.4341  10.4956  12.2352  12.2682
    12.3060  12.3079  12.3495  12.3595  12.4883  12.5105  12.9319  12.9684
    13.0641  13.1826  13.2069  13.3730  13.8878  13.8933  13.9266  13.9779
    14.4717  14.8393  14.8453  15.2139  15.5684  15.5777  15.8652  16.3298
    16.3347  16.8101  17.0597  17.0631  17.5834

          k = 0.1667 0.1584 0.3333 ( 62377 PWs)   bands (ev):

   -66.0614 -66.0610 -66.0609 -66.0606 -66.0605 -66.0602 -66.0601 -66.0597
   -30.4971 -30.4950 -30.4936 -30.4916 -30.4460 -30.4435 -30.4416 -30.4392
   -30.3983 -30.3955 -30.3866 -30.3844 -30.3806 -30.3776 -30.3697 -30.3654
   -30.3330 -30.3295 -30.3211 -30.3174 -30.3135 -30.3102 -30.3009 -30.2987
   -20.2124 -20.2122 -20.2121 -20.2120 -20.2106 -20.2105 -20.2105 -20.2104
   -20.2104 -20.2103 -20.2102 -20.2102 -20.2076 -20.2074 -20.2072 -20.2070
   -20.2011 -20.2010 -20.2005 -20.2003 -20.1999 -20.1997 -20.1996 -20.1991
   -20.1990 -20.1990 -20.1988 -20.1982 -20.1978 -20.1975 -20.1974 -20.1972
   -20.1868 -20.1866 -20.1866 -20.1863 -20.1863 -20.1861 -20.1860 -20.1859
   -20.1589 -20.1585 -20.1582 -20.1582 -20.1578 -20.1575 -20.1571 -20.1565
   -20.1554 -20.1549 -20.1542 -20.1538 -20.1536 -20.1531 -20.1529 -20.1524
    -9.6912  -9.4756  -9.4026  -9.2772  -9.1919  -9.0794  -8.8975  -8.8559
    -8.8093  -8.7948  -8.7496  -8.6849  -8.1808  -8.1502  -8.1157  -8.0688
    -7.9335  -7.9172  -7.8944  -7.8666  -7.8378  -7.8044  -7.7703  -7.7381
     1.5557   1.5705   1.6190   1.6356   1.7493   1.7559   1.8329   1.8691
     2.2885   2.3392   2.4641   2.5604   2.7611   2.8374   2.8889   2.9722
     2.9850   3.1108   3.8104   3.8669   3.9133   3.9387   4.1315   4.1759
     4.2348   4.3642   4.5144   4.5759   4.6268   4.6892   4.7487   4.7863
     4.8902   4.9295   4.9718   5.1375   5.2098   5.2510   5.3217   5.6000
     5.6216   5.6490   5.7528   5.7971   5.8245   5.8404   6.1399   6.1926
     6.3708   6.5057   6.5402   6.6229   6.6807   6.6975   6.7160   6.7772
     6.8340   6.8732   6.9082   6.9443   7.1168   7.1446   7.1677   7.2410
     7.3162   7.3636   7.7867   7.7964   7.8774   7.9036   8.0181   8.0235
    10.3819  10.4123  10.5696  10.6260  10.9903  11.0816  11.9238  11.9739
    12.1364  12.4330  12.4667  12.4901  12.5130  12.5509  12.7133  12.7666
    12.9189  13.0637  13.0952  13.2918  13.5696  13.5974  13.9060  13.9309
    14.6698  14.8238  15.1950  15.4949  15.7617  15.8263  16.0016  16.2413
    16.4874  17.1737  17.2022  17.4566  17.5386

          k = 0.1667 0.1584-0.4999 ( 62402 PWs)   bands (ev):

   -66.0612 -66.0612 -66.0608 -66.0608 -66.0603 -66.0603 -66.0599 -66.0599
   -30.4961 -30.4961 -30.4926 -30.4926 -30.4447 -30.4447 -30.4404 -30.4404
   -30.3969 -30.3969 -30.3852 -30.3852 -30.3573 -30.3573 -30.3537 -30.3536
   -30.3453 -30.3453 -30.3411 -30.3411 -30.3123 -30.3123 -30.2998 -30.2998
   -20.2123 -20.2123 -20.2121 -20.2121 -20.2106 -20.2105 -20.2104 -20.2104
   -20.2104 -20.2104 -20.2102 -20.2102 -20.2075 -20.2075 -20.2071 -20.2071
   -20.2010 -20.2010 -20.2002 -20.2001 -20.1996 -20.1996 -20.1993 -20.1993
   -20.1992 -20.1992 -20.1984 -20.1984 -20.1979 -20.1979 -20.1973 -20.1973
   -20.1867 -20.1867 -20.1865 -20.1865 -20.1861 -20.1861 -20.1860 -20.1860
   -20.1585 -20.1585 -20.1579 -20.1579 -20.1569 -20.1569 -20.1564 -20.1564
   -20.1557 -20.1557 -20.1551 -20.1551 -20.1534 -20.1534 -20.1527 -20.1527
    -9.5658  -9.5658  -9.2734  -9.2734  -9.1473  -9.1473  -8.8270  -8.8270
    -8.5476  -8.5476  -8.5250  -8.5250  -8.4828  -8.4828  -8.4219  -8.4219
    -7.9283  -7.9282  -7.8840  -7.8840  -7.8044  -7.8044  -7.7712  -7.7712
     1.5646   1.5646   1.6372   1.6372   1.7621   1.7621   1.8672   1.8672
     2.7843   2.7843   3.0338   3.0338   3.1159   3.1159   3.2297   3.2297
     3.3180   3.3180   3.4348   3.4348   3.5419   3.5419   3.8122   3.8122
     3.9150   3.9150   4.2627   4.2627   4.5238   4.5238   4.6816   4.6816
     4.9248   4.9248   5.0290   5.0290   5.1031   5.1031   5.4371   5.4371
     5.6842   5.6842   5.7439   5.7439   5.8638   5.8638   5.8999   5.8999
     6.4687   6.4687   6.6036   6.6036   6.6438   6.6438   6.7577   6.7577
     6.8985   6.8985   6.9330   6.9330   7.0503   7.0503   7.5412   7.5412
     7.5807   7.5807   7.6639   7.6639   7.6849   7.6849   8.0234   8.0234
    10.4178  10.4178  11.2714  11.2714  11.3427  11.3427  11.6567  11.6567
    11.8400  11.8400  12.5236  12.5236  12.6654  12.6654  12.7334  12.7334
    12.9167  12.9167  13.1619  13.1619  13.3018  13.3018  13.9133  13.9133
    14.7779  14.7779  15.5300  15.5300  15.9453  15.9453  16.0806  16.0806
    16.7902  16.7902  17.6227  17.6227  17.8743

          k = 0.1667 0.3169 0.0000 ( 62332 PWs)   bands (ev):

   -66.0616 -66.0614 -66.0607 -66.0606 -66.0605 -66.0604 -66.0597 -66.0595
   -30.4870 -30.4833 -30.4829 -30.4794 -30.4576 -30.4534 -30.4530 -30.4492
   -30.4061 -30.4016 -30.4000 -30.3944 -30.3937 -30.3904 -30.3877 -30.3826
   -30.3146 -30.3110 -30.3084 -30.3056 -30.3018 -30.2974 -30.2958 -30.2918
   -20.2115 -20.2113 -20.2112 -20.2109 -20.2106 -20.2105 -20.2104 -20.2104
   -20.2103 -20.2103 -20.2102 -20.2101 -20.2086 -20.2083 -20.2082 -20.2079
   -20.2011 -20.2010 -20.2008 -20.2007 -20.2002 -20.2000 -20.1999 -20.1998
   -20.1986 -20.1984 -20.1982 -20.1982 -20.1976 -20.1974 -20.1974 -20.1971
   -20.1869 -20.1868 -20.1865 -20.1864 -20.1863 -20.1862 -20.1859 -20.1858
   -20.1597 -20.1595 -20.1590 -20.1586 -20.1585 -20.1580 -20.1578 -20.1571
   -20.1541 -20.1538 -20.1535 -20.1532 -20.1528 -20.1526 -20.1520 -20.1519
    -9.7824  -9.6351  -9.4000  -9.3084  -9.2630  -9.1589  -8.9720  -8.9637
    -8.8284  -8.6988  -8.6964  -8.6773  -8.2089  -8.1688  -8.1587  -8.1425
    -7.8748  -7.8437  -7.7485  -7.7419  -7.7150  -7.7098  -7.6235  -7.5932
     1.3183   1.3282   1.3346   1.3508   1.5792   1.6023   1.7833   1.8329
     2.3563   2.4771   2.4995   2.5394   2.5808   2.6529   2.8679   2.9569
     2.9889   3.0828   3.6359   3.6665   3.6906   3.7334   4.1300   4.4138
     4.4463   4.4801   4.5265   4.7332   4.7526   4.8585   4.8912   4.9225
     5.0362   5.0658   5.1729   5.3112   5.4006   5.4651   5.5865   5.6377
     5.6868   5.7858   5.8006   5.8522   6.0518   6.0946   6.1446   6.1581
     6.2463   6.3953   6.4563   6.5781   6.6209   6.8396   6.8558   6.9223
     6.9592   6.9770   7.0648   7.0733   7.0946   7.0989   7.1726   7.1874
     7.2352   7.2807   7.7910   7.8168   7.8255   7.8446   7.8643   7.8681
     9.7064   9.7202  10.6607  10.7006  10.8439  10.8728  11.8221  11.9237
    11.9604  12.0380  12.2723  12.3214  12.4158  12.4718  12.9587  12.9713
    13.2257  13.3235  13.3995  13.4513  13.6810  13.7202  13.8340  13.8479
    14.9478  15.2506  15.4380  15.5066  15.5110  15.7067  15.9148  16.1246
    16.2449  16.8935  17.2893  17.3403  17.6812

          k = 0.1667 0.3169 0.1666 ( 62344 PWs)   bands (ev):

   -66.0615 -66.0613 -66.0607 -66.0607 -66.0604 -66.0604 -66.0598 -66.0596
   -30.4868 -30.4832 -30.4831 -30.4797 -30.4573 -30.4534 -30.4532 -30.4495
   -30.4006 -30.3984 -30.3952 -30.3947 -30.3879 -30.3871 -30.3836 -30.3829
   -30.3150 -30.3143 -30.3121 -30.3112 -30.3023 -30.3017 -30.2984 -30.2977
   -20.2115 -20.2113 -20.2112 -20.2110 -20.2106 -20.2105 -20.2104 -20.2104
   -20.2103 -20.2103 -20.2102 -20.2101 -20.2086 -20.2083 -20.2082 -20.2080
   -20.2010 -20.2008 -20.2007 -20.2006 -20.2001 -20.2000 -20.1999 -20.1997
   -20.1986 -20.1984 -20.1983 -20.1983 -20.1976 -20.1975 -20.1974 -20.1972
   -20.1869 -20.1868 -20.1865 -20.1864 -20.1862 -20.1862 -20.1859 -20.1858
   -20.1594 -20.1593 -20.1587 -20.1585 -20.1581 -20.1579 -20.1576 -20.1572
   -20.1543 -20.1540 -20.1537 -20.1535 -20.1530 -20.1529 -20.1523 -20.1521
    -9.7295  -9.5772  -9.3256  -9.3248  -9.1754  -9.1739  -8.9343  -8.9277
    -8.8370  -8.6900  -8.6819  -8.6815  -8.2106  -8.1660  -8.1653  -8.1480
    -7.8683  -7.8643  -7.8372  -7.8320  -7.7668  -7.7563  -7.7156  -7.7064
     1.4978   1.4988   1.5820   1.5846   1.6061   1.6087   1.8552   1.9166
     2.3586   2.4779   2.4809   2.6269   2.6316   2.6910   2.9547   2.9783
     3.0755   3.0824   3.6742   3.6800   3.6994   3.7503   4.1214   4.4380
     4.4419   4.4918   4.4990   4.5783   4.5850   4.7275   4.7341   4.8202
     4.8683   4.8798   5.1137   5.1423   5.3739   5.3974   5.3990   5.4237
     5.6393   5.6572   5.7653   5.7686   5.8243   5.8298   6.3652   6.3899
     6.4197   6.4726   6.5284   6.6315   6.7547   6.7628   6.8426   6.8511
     6.9227   6.9278   6.9905   7.0109   7.0871   7.0929   7.1096   7.1452
     7.3193   7.3489   7.7897   7.7949   7.8096   7.8321   7.8559   7.8693
     9.9560   9.9747  10.8119  10.8519  10.8717  10.9015  11.8972  11.9412
    12.0248  12.0449  12.3219  12.3259  12.3763  12.3793  12.9777  12.9851
    13.1802  13.2340  13.2622  13.4106  13.6561  13.6673  13.6924  13.7722
    15.1004  15.4493  15.4619  15.5738  15.5804  15.7706  16.2129  16.2161
    16.2503  16.8590  17.3493  17.4058  17.4255

          k = 0.1667 0.3169 0.3333 ( 62371 PWs)   bands (ev):

   -66.0613 -66.0611 -66.0608 -66.0606 -66.0605 -66.0603 -66.0600 -66.0598
   -30.4861 -30.4841 -30.4825 -30.4805 -30.4565 -30.4542 -30.4525 -30.4503
   -30.3984 -30.3957 -30.3869 -30.3846 -30.3807 -30.3777 -30.3699 -30.3656
   -30.3330 -30.3295 -30.3211 -30.3175 -30.3135 -30.3101 -30.3010 -30.2988
   -20.2115 -20.2113 -20.2113 -20.2111 -20.2106 -20.2105 -20.2105 -20.2104
   -20.2104 -20.2103 -20.2101 -20.2101 -20.2085 -20.2084 -20.2082 -20.2080
   -20.2010 -20.2008 -20.2004 -20.2002 -20.2000 -20.1998 -20.1997 -20.1992
   -20.1989 -20.1988 -20.1987 -20.1982 -20.1980 -20.1976 -20.1975 -20.1974
   -20.1868 -20.1867 -20.1866 -20.1863 -20.1863 -20.1862 -20.1860 -20.1859
   -20.1589 -20.1585 -20.1582 -20.1582 -20.1578 -20.1575 -20.1571 -20.1565
   -20.1554 -20.1549 -20.1542 -20.1538 -20.1536 -20.1531 -20.1529 -20.1524
    -9.6017  -9.4397  -9.3766  -9.2206  -9.1366  -8.9273  -8.8704  -8.8206
    -8.7966  -8.6948  -8.6570  -8.6103  -8.2607  -8.2337  -8.1669  -8.1570
    -8.1487  -8.0918  -8.0652  -8.0129  -7.8384  -7.8084  -7.7699  -7.7404
     1.5987   1.6168   1.6237   1.6418   2.1960   2.2781   2.2863   2.3762
     2.4565   2.4887   2.5145   2.7105   2.9019   2.9624   2.9859   3.0650
     3.2104   3.2979   3.6586   3.6756   3.7304   3.7880   3.9077   3.9788
     4.1007   4.2826   4.3800   4.4077   4.4593   4.5480   4.5936   4.6578
     4.7328   4.7769   4.8220   4.8576   4.9240   4.9917   5.1342   5.1597
     5.3228   5.3397   5.4369   5.6093   5.7931   5.8366   6.1748   6.1933
     6.5416   6.6107   6.6358   6.7328   6.8045   6.8299   6.9229   6.9623
     6.9990   7.0211   7.0432   7.0710   7.1436   7.1738   7.1972   7.2651
     7.3036   7.3552   7.7206   7.7241   7.7767   7.7959   7.8114   7.8455
    10.5489  10.5850  10.8606  10.8800  11.3079  11.3569  11.8830  11.9343
    11.9650  12.0969  12.2097  12.2529  12.4913  12.5787  12.6640  12.6990
    12.9097  13.0657  13.1236  13.3235  13.3391  13.3906  13.6758  13.7162
    15.3083  15.4368  15.7829  15.9728  15.9969  16.0566  16.1466  16.6878
    16.7376  16.8309  17.0522  17.5652  17.6387

          k = 0.1667 0.3169-0.4999 ( 62350 PWs)   bands (ev):

   -66.0611 -66.0611 -66.0609 -66.0609 -66.0602 -66.0602 -66.0600 -66.0600
   -30.4851 -30.4851 -30.4816 -30.4816 -30.4554 -30.4554 -30.4514 -30.4514
   -30.3970 -30.3970 -30.3854 -30.3854 -30.3573 -30.3573 -30.3537 -30.3537
   -30.3454 -30.3454 -30.3412 -30.3412 -30.3122 -30.3122 -30.2999 -30.2999
   -20.2114 -20.2114 -20.2112 -20.2112 -20.2105 -20.2105 -20.2105 -20.2105
   -20.2103 -20.2103 -20.2101 -20.2101 -20.2085 -20.2085 -20.2081 -20.2081
   -20.2009 -20.2009 -20.2001 -20.2001 -20.1995 -20.1995 -20.1993 -20.1993
   -20.1992 -20.1992 -20.1986 -20.1986 -20.1979 -20.1979 -20.1975 -20.1975
   -20.1867 -20.1867 -20.1865 -20.1865 -20.1861 -20.1861 -20.1860 -20.1860
   -20.1585 -20.1585 -20.1579 -20.1579 -20.1569 -20.1569 -20.1564 -20.1564
   -20.1557 -20.1557 -20.1551 -20.1551 -20.1534 -20.1534 -20.1527 -20.1527
    -9.4693  -9.4693  -9.3064  -9.3064  -8.9554  -8.9554  -8.7239  -8.7239
    -8.5741  -8.5741  -8.5415  -8.5415  -8.4743  -8.4743  -8.4019  -8.4019
    -8.1579  -8.1579  -8.1243  -8.1243  -7.8043  -7.8043  -7.7742  -7.7742
     1.6159   1.6159   1.6427   1.6427   2.3597   2.3597   2.4746   2.4746
     2.9784   2.9784   3.0889   3.0889   3.1231   3.1231   3.2833   3.2833
     3.3262   3.3262   3.4570   3.4570   3.5095   3.5095   3.7021   3.7021
     4.0490   4.0490   4.0797   4.0798   4.1355   4.1355   4.3619   4.3619
     4.7287   4.7287   4.8070   4.8070   4.9819   4.9819   5.0304   5.0304
     5.1417   5.1417   5.5116   5.5116   5.8959   5.8959   5.9107   5.9107
     6.6619   6.6619   6.7741   6.7741   6.8334   6.8334   6.8653   6.8653
     7.0173   7.0173   7.0654   7.0654   7.1710   7.1710   7.5177   7.5177
     7.5481   7.5481   7.5848   7.5848   7.6191   7.6191   7.8215   7.8215
    10.8442  10.8442  11.2865  11.2865  11.3431  11.3431  11.7838  11.7838
    12.0256  12.0256  12.2010  12.2010  12.5773  12.5773  12.6300  12.6300
    12.8276  12.8276  12.9492  12.9492  13.2834  13.2834  13.6882  13.6882
    15.3917  15.3917  15.9868  15.9868  16.3388  16.3388  16.4810  16.4810
    16.9275  16.9275  17.2659  17.2659  17.8456

          k = 0.1667-0.4753 0.0000 ( 62346 PWs)   bands (ev):

   -66.0615 -66.0614 -66.0606 -66.0606 -66.0605 -66.0605 -66.0597 -66.0596
   -30.4723 -30.4720 -30.4692 -30.4687 -30.4674 -30.4671 -30.4644 -30.4643
   -30.4060 -30.4017 -30.4003 -30.3945 -30.3936 -30.3904 -30.3878 -30.3827
   -30.3146 -30.3109 -30.3084 -30.3056 -30.3018 -30.2974 -30.2959 -30.2918
   -20.2109 -20.2108 -20.2106 -20.2106 -20.2105 -20.2104 -20.2104 -20.2103
   -20.2100 -20.2097 -20.2096 -20.2096 -20.2094 -20.2094 -20.2093 -20.2092
   -20.2010 -20.2009 -20.2007 -20.2006 -20.2003 -20.2001 -20.2000 -20.1999
   -20.1985 -20.1983 -20.1982 -20.1981 -20.1977 -20.1975 -20.1975 -20.1972
   -20.1869 -20.1869 -20.1865 -20.1864 -20.1863 -20.1862 -20.1859 -20.1858
   -20.1598 -20.1595 -20.1590 -20.1586 -20.1585 -20.1580 -20.1578 -20.1571
   -20.1541 -20.1538 -20.1535 -20.1532 -20.1528 -20.1526 -20.1520 -20.1519
    -9.7004  -9.6966  -9.3314  -9.3007  -9.2299  -9.1997  -8.9690  -8.9661
    -8.5232  -8.5232  -8.4671  -8.4643  -8.4564  -8.4559  -8.4530  -8.4506
    -7.8739  -7.8454  -7.7468  -7.7422  -7.7153  -7.7116  -7.6224  -7.5944
     1.3186   1.3292   1.3349   1.3518   1.5826   1.6041   1.8148   1.8289
     2.5598   2.5601   3.1146   3.1270   3.2070   3.2195   3.2258   3.2563
     3.2823   3.3051   3.3075   3.3615   3.4417   3.5106   3.5172   3.5662
     3.6920   3.6944   4.4691   4.4723   4.8545   4.8785   4.9795   5.0099
     5.1136   5.1152   5.1849   5.1929   5.3150   5.3222   5.4940   5.5103
     5.7343   5.7386   5.7898   5.7970   6.0932   6.1396   6.1400   6.1624
     6.3792   6.3894   6.3959   6.4623   6.6937   6.7404   6.8804   6.9235
     7.0010   7.0092   7.1528   7.1780   7.1812   7.2283   7.4405   7.4579
     7.4708   7.4845   7.4971   7.5163   7.5185   7.5333   7.8588   7.8594
     9.7102   9.7197  11.2477  11.2791  11.3188  11.3422  11.3922  11.4094
    11.4543  11.4900  12.2751  12.3213  12.4202  12.4693  12.9805  12.9806
    13.3905  13.4023  13.4719  13.5005  13.5788  13.6060  13.6115  13.6214
    15.3953  15.4335  15.5847  15.6182  15.6620  15.7055  15.9596  15.9940
    16.6014  16.6033  17.8351  17.8483  17.9504

          k = 0.1667-0.4753 0.1666 ( 62362 PWs)   bands (ev):

   -66.0614 -66.0614 -66.0606 -66.0606 -66.0605 -66.0605 -66.0597 -66.0597
   -30.4719 -30.4719 -30.4690 -30.4689 -30.4674 -30.4674 -30.4646 -30.4646
   -30.3997 -30.3995 -30.3953 -30.3948 -30.3877 -30.3875 -30.3836 -30.3830
   -30.3150 -30.3143 -30.3118 -30.3115 -30.3024 -30.3018 -30.2982 -30.2979
   -20.2109 -20.2108 -20.2106 -20.2106 -20.2105 -20.2105 -20.2104 -20.2104
   -20.2100 -20.2098 -20.2096 -20.2096 -20.2095 -20.2094 -20.2093 -20.2092
   -20.2009 -20.2007 -20.2007 -20.2005 -20.2001 -20.2001 -20.1999 -20.1998
   -20.1986 -20.1983 -20.1983 -20.1982 -20.1977 -20.1976 -20.1975 -20.1973
   -20.1869 -20.1868 -20.1865 -20.1864 -20.1863 -20.1862 -20.1859 -20.1858
   -20.1594 -20.1593 -20.1587 -20.1585 -20.1581 -20.1579 -20.1576 -20.1572
   -20.1543 -20.1540 -20.1537 -20.1535 -20.1530 -20.1529 -20.1523 -20.1521
    -9.6424  -9.6422  -9.2469  -9.2457  -9.2169  -9.2160  -8.9309  -8.9308
    -8.5304  -8.5303  -8.4613  -8.4608  -8.4571  -8.4565  -8.4521  -8.4518
    -7.8662  -7.8648  -7.8368  -7.8357  -7.7620  -7.7614  -7.7114  -7.7111
     1.4980   1.4985   1.5855   1.5882   1.6080   1.6105   1.9042   1.9045
[...]
    11.6056  11.6056  11.6357  11.6357  11.6857  11.6857  11.7112  11.7112
    12.0302  12.0302  12.0384  12.0384  12.2219  12.2219  12.2261  12.2261
    13.0098  13.0098  13.0248  13.0248  13.1878  13.1878  13.2012  13.2012
    15.3231  15.3231  15.3245  15.3245  16.7429  16.7429  16.7634  16.7634
    17.6766  17.6766  17.6916  17.6916  17.9179

          k =-0.5000 0.3169 0.0000 ( 62394 PWs)   bands (ev):

   -66.0611 -66.0611 -66.0609 -66.0609 -66.0602 -66.0602 -66.0600 -66.0600
   -30.4853 -30.4853 -30.4813 -30.4813 -30.4555 -30.4555 -30.4512 -30.4512
   -30.4039 -30.4039 -30.3927 -30.3927 -30.3570 -30.3570 -30.3528 -30.3528
   -30.3451 -30.3451 -30.3402 -30.3402 -30.3064 -30.3064 -30.2939 -30.2939
   -20.2115 -20.2115 -20.2111 -20.2111 -20.2106 -20.2106 -20.2104 -20.2104
   -20.2103 -20.2103 -20.2102 -20.2102 -20.2084 -20.2084 -20.2081 -20.2081
   -20.2009 -20.2009 -20.2004 -20.2004 -20.1996 -20.1996 -20.1993 -20.1993
   -20.1990 -20.1990 -20.1986 -20.1986 -20.1980 -20.1980 -20.1972 -20.1972
   -20.1866 -20.1866 -20.1866 -20.1866 -20.1862 -20.1862 -20.1860 -20.1860
   -20.1591 -20.1591 -20.1586 -20.1586 -20.1567 -20.1567 -20.1562 -20.1562
   -20.1553 -20.1553 -20.1547 -20.1547 -20.1532 -20.1532 -20.1526 -20.1526
    -9.5392  -9.5392  -9.3895  -9.3895  -8.9417  -8.9417  -8.7455  -8.7455
    -8.5570  -8.5570  -8.5456  -8.5456  -8.4855  -8.4855  -8.3972  -8.3972
    -8.1602  -8.1602  -8.1194  -8.1194  -7.6831  -7.6831  -7.6526  -7.6525
     1.3581   1.3581   1.3839   1.3839   2.3562   2.3562   2.4911   2.4911
     2.9095   2.9095   3.0623   3.0623   3.1152   3.1152   3.2754   3.2754
     3.3244   3.3244   3.3737   3.3737   3.4544   3.4544   3.6540   3.6540
     4.0457   4.0457   4.0728   4.0728   4.1523   4.1523   4.3585   4.3585
     4.8093   4.8093   4.9059   4.9059   5.1114   5.1114   5.2804   5.2804
     5.4341   5.4341   5.7230   5.7230   6.2776   6.2776   6.3346   6.3346
     6.4716   6.4716   6.5297   6.5297   6.5461   6.5461   6.7595   6.7595
     7.0365   7.0365   7.0557   7.0557   7.0910   7.0910   7.5107   7.5107
     7.5301   7.5301   7.5756   7.5756   7.6077   7.6077   7.8423   7.8423
    10.6804  10.6804  11.2090  11.2090  11.2607  11.2607  11.7142  11.7142
    12.0155  12.0155  12.1653  12.1653  12.5923  12.5923  12.6689  12.6689
    12.8744  12.8744  13.0028  13.0028  13.4425  13.4425  13.8355  13.8355
    15.1776  15.1776  15.7120  15.7120  16.2695  16.2695  16.4912  16.4912
    16.8614  16.8614  17.2268  17.2268  17.9509

          k =-0.5000 0.3169 0.1666 ( 62354 PWs)   bands (ev):

   -66.0611 -66.0611 -66.0609 -66.0609 -66.0602 -66.0602 -66.0600 -66.0600
   -30.4851 -30.4851 -30.4816 -30.4816 -30.4553 -30.4553 -30.4515 -30.4515
   -30.3975 -30.3975 -30.3862 -30.3862 -30.3566 -30.3566 -30.3532 -30.3532
   -30.3448 -30.3448 -30.3405 -30.3405 -30.3130 -30.3130 -30.3005 -30.3005
   -20.2115 -20.2114 -20.2111 -20.2111 -20.2106 -20.2106 -20.2104 -20.2104
   -20.2103 -20.2103 -20.2102 -20.2102 -20.2084 -20.2084 -20.2082 -20.2082
   -20.2007 -20.2007 -20.2003 -20.2003 -20.1996 -20.1996 -20.1992 -20.1992
   -20.1990 -20.1990 -20.1986 -20.1986 -20.1981 -20.1981 -20.1974 -20.1974
   -20.1866 -20.1866 -20.1865 -20.1865 -20.1862 -20.1862 -20.1860 -20.1860
   -20.1588 -20.1588 -20.1583 -20.1583 -20.1566 -20.1566 -20.1561 -20.1561
   -20.1555 -20.1555 -20.1548 -20.1548 -20.1536 -20.1536 -20.1530 -20.1530
    -9.4699  -9.4699  -9.3076  -9.3076  -8.9556  -8.9556  -8.7244  -8.7244
    -8.5729  -8.5729  -8.5407  -8.5407  -8.4731  -8.4731  -8.4012  -8.4012
    -8.1572  -8.1572  -8.1243  -8.1243  -7.8053  -7.8053  -7.7750  -7.7750
     1.6131   1.6131   1.6399   1.6399   2.3591   2.3591   2.4743   2.4743
     2.9830   2.9830   3.0861   3.0861   3.1201   3.1201   3.2846   3.2846
     3.3262   3.3262   3.4609   3.4609   3.5107   3.5107   3.7014   3.7014
     4.0427   4.0427   4.0764   4.0764   4.1483   4.1483   4.3657   4.3657
     4.7266   4.7266   4.8032   4.8032   4.9818   4.9818   5.0310   5.0310
     5.1428   5.1428   5.5114   5.5114   5.8946   5.8946   5.9100   5.9100
     6.6620   6.6620   6.7767   6.7767   6.8349   6.8349   6.8658   6.8658
     7.0146   7.0146   7.0667   7.0667   7.1690   7.1690   7.5156   7.5156
     7.5445   7.5445   7.5896   7.5896   7.6215   7.6215   7.8226   7.8226
    10.8435  10.8435  11.2877  11.2877  11.3426  11.3426  11.7721  11.7721
    12.0271  12.0271  12.2028  12.2028  12.5770  12.5770  12.6379  12.6379
    12.8281  12.8281  12.9534  12.9534  13.2816  13.2816  13.6911  13.6911
    15.3920  15.3920  15.9836  15.9836  16.3384  16.3384  16.4811  16.4811
    16.9201  16.9201  17.2664  17.2664  17.8427

          k =-0.5000 0.3169 0.3333 ( 62358 PWs)   bands (ev):

   -66.0609 -66.0609 -66.0607 -66.0607 -66.0604 -66.0604 -66.0602 -66.0602
   -30.4845 -30.4845 -30.4824 -30.4824 -30.4545 -30.4545 -30.4523 -30.4523
   -30.3800 -30.3800 -30.3688 -30.3688 -30.3551 -30.3551 -30.3542 -30.3542
   -30.3443 -30.3443 -30.3414 -30.3414 -30.3305 -30.3305 -30.3183 -30.3183
   -20.2114 -20.2114 -20.2112 -20.2112 -20.2105 -20.2105 -20.2104 -20.2104
   -20.2103 -20.2103 -20.2102 -20.2102 -20.2084 -20.2084 -20.2083 -20.2083
   -20.2003 -20.2003 -20.2001 -20.2001 -20.1997 -20.1997 -20.1992 -20.1992
   -20.1989 -20.1989 -20.1986 -20.1986 -20.1983 -20.1983 -20.1978 -20.1978
   -20.1865 -20.1865 -20.1864 -20.1864 -20.1863 -20.1862 -20.1861 -20.1861
   -20.1578 -20.1578 -20.1573 -20.1573 -20.1563 -20.1563 -20.1559 -20.1559
   -20.1558 -20.1558 -20.1551 -20.1550 -20.1546 -20.1546 -20.1541 -20.1541
    -9.2942  -9.2942  -9.0835  -9.0835  -9.0038  -9.0038  -8.6577  -8.6577
    -8.6238  -8.6238  -8.5088  -8.5088  -8.4487  -8.4487  -8.4092  -8.4092
    -8.1669  -8.1669  -8.1434  -8.1434  -8.0922  -8.0922  -8.0498  -8.0498
     2.2269   2.2269   2.3146   2.3146   2.3730   2.3730   2.5063   2.5063
     3.0671   3.0671   3.1212   3.1212   3.2008   3.2008   3.2876   3.2876
     3.3682   3.3682   3.6272   3.6272   3.7282   3.7282   3.8231   3.8231
     4.0189   4.0189   4.0913   4.0913   4.1415   4.1415   4.2448   4.2448
     4.3352   4.3352   4.4775   4.4775   4.6154   4.6154   4.8399   4.8399
     4.9551   4.9551   5.0186   5.0186   5.0812   5.0812   5.2993   5.2993
     6.8431   6.8431   6.9022   6.9022   6.9664   6.9664   7.0272   7.0272
     7.1697   7.1697   7.2878   7.2878   7.3943   7.3943   7.5041   7.5041
     7.5499   7.5499   7.6184   7.6184   7.6426   7.6426   7.7690   7.7690
    11.2674  11.2674  11.5308  11.5308  11.6157  11.6157  11.8667  11.8667
    12.0740  12.0740  12.3367  12.3367  12.3870  12.3870  12.4338  12.4338
    12.7282  12.7282  12.8244  12.8244  12.8963  12.8963  13.3101  13.3101
    15.9119  15.9119  16.3983  16.3983  16.5759  16.5759  16.7426  16.7426
    17.1452  17.1452  17.3346  17.3346  17.6031

          k =-0.5000 0.3169-0.4999 ( 62400 PWs)   bands (ev):

   -66.0607 -66.0607 -66.0607 -66.0607 -66.0604 -66.0604 -66.0604 -66.0604
   -30.4835 -30.4835 -30.4835 -30.4835 -30.4535 -30.4535 -30.4534 -30.4534
   -30.3569 -30.3569 -30.3568 -30.3568 -30.3556 -30.3556 -30.3553 -30.3553
   -30.3425 -30.3425 -30.3424 -30.3424 -30.3417 -30.3417 -30.3416 -30.3416
   -20.2113 -20.2113 -20.2113 -20.2113 -20.2105 -20.2105 -20.2105 -20.2105
   -20.2103 -20.2102 -20.2102 -20.2102 -20.2084 -20.2084 -20.2083 -20.2083
   -20.2000 -20.2000 -20.1999 -20.1999 -20.1997 -20.1997 -20.1996 -20.1995
   -20.1987 -20.1987 -20.1985 -20.1985 -20.1984 -20.1984 -20.1983 -20.1983
   -20.1864 -20.1863 -20.1863 -20.1863 -20.1863 -20.1863 -20.1862 -20.1862
   -20.1564 -20.1564 -20.1564 -20.1564 -20.1564 -20.1564 -20.1563 -20.1563
   -20.1555 -20.1555 -20.1554 -20.1554 -20.1553 -20.1553 -20.1553 -20.1553
    -9.1129  -9.1129  -9.1103  -9.1103  -8.8100  -8.8099  -8.8021  -8.8021
    -8.5089  -8.5089  -8.4943  -8.4943  -8.3816  -8.3816  -8.3735  -8.3735
    -8.3666  -8.3665  -8.3501  -8.3501  -8.1288  -8.1288  -8.1275  -8.1275
     2.3699   2.3699   2.3707   2.3707   3.0181   3.0181   3.0297   3.0297
     3.1205   3.1205   3.1221   3.1221   3.2513   3.2513   3.2749   3.2749
     3.3305   3.3305   3.3381   3.3381   3.9298   3.9298   3.9685   3.9685
     3.9843   3.9843   4.0073   4.0073   4.0721   4.0721   4.0955   4.0955
     4.3205   4.3205   4.3451   4.3451   4.3701   4.3701   4.3727   4.3727
     4.7140   4.7140   4.7142   4.7142   5.0299   5.0299   5.0324   5.0324
     6.8983   6.8983   6.9134   6.9134   6.9988   6.9988   7.0119   7.0119
     7.3955   7.3955   7.4005   7.4005   7.4729   7.4729   7.4907   7.4907
     7.5918   7.5918   7.5922   7.5922   7.6893   7.6893   7.6983   7.6983
    11.7591  11.7591  11.7733  11.7733  11.8359  11.8359  11.8488  11.8488
    12.0654  12.0654  12.0710  12.0710  12.3053  12.3053  12.3085  12.3085
    12.6891  12.6891  12.7013  12.7013  12.8868  12.8868  12.8958  12.8958
    16.2672  16.2672  16.2682  16.2682  16.9271  16.9271  16.9420  16.9420
    17.4439  17.4439  17.4716  17.4716  17.9171

          k =-0.5000-0.4753 0.0000 ( 62372 PWs)   bands (ev):

   -66.0611 -66.0611 -66.0610 -66.0610 -66.0601 -66.0601 -66.0600 -66.0600
   -30.4709 -30.4709 -30.4697 -30.4697 -30.4666 -30.4666 -30.4659 -30.4659
   -30.4040 -30.4040 -30.3928 -30.3928 -30.3570 -30.3570 -30.3528 -30.3528
   -30.3452 -30.3452 -30.3402 -30.3402 -30.3064 -30.3064 -30.2939 -30.2939
   -20.2108 -20.2108 -20.2106 -20.2106 -20.2105 -20.2105 -20.2104 -20.2104
   -20.2098 -20.2098 -20.2096 -20.2096 -20.2095 -20.2095 -20.2093 -20.2093
   -20.2008 -20.2008 -20.2004 -20.2004 -20.1995 -20.1995 -20.1993 -20.1993
   -20.1990 -20.1990 -20.1987 -20.1987 -20.1979 -20.1979 -20.1973 -20.1973
   -20.1866 -20.1866 -20.1866 -20.1866 -20.1862 -20.1862 -20.1860 -20.1860
   -20.1591 -20.1591 -20.1586 -20.1586 -20.1567 -20.1567 -20.1562 -20.1562
   -20.1553 -20.1553 -20.1547 -20.1547 -20.1532 -20.1532 -20.1526 -20.1526
    -9.4621  -9.4621  -9.4383  -9.4383  -8.7062  -8.7062  -8.6873  -8.6873
    -8.6099  -8.6098  -8.5969  -8.5969  -8.4066  -8.4066  -8.3850  -8.3850
    -8.3372  -8.3372  -8.3141  -8.3141  -7.6820  -7.6820  -7.6539  -7.6539
     1.3597   1.3597   1.3852   1.3852   2.9847   2.9847   3.0489   3.0489
     3.1500   3.1500   3.1683   3.1683   3.1981   3.1981   3.2053   3.2053
     3.3269   3.3269   3.3421   3.3421   3.4375   3.4375   3.4935   3.4935
     3.5488   3.5488   3.7036   3.7036   4.2795   4.2795   4.3148   4.3148
     4.3751   4.3752   4.4314   4.4314   5.2014   5.2014   5.2218   5.2218
     5.4994   5.4994   5.5286   5.5286   6.3225   6.3225   6.3303   6.3303
     6.5170   6.5170   6.5499   6.5499   6.6159   6.6159   6.6581   6.6581
     7.2723   7.2723   7.3005   7.3005   7.3138   7.3138   7.4217   7.4217
     7.4409   7.4409   7.4969   7.4969   7.5946   7.5946   7.6077   7.6077
    11.1883  11.1883  11.2140  11.2140  11.3239  11.3239  11.3396  11.3396
    12.2633  12.2633  12.2914  12.2914  12.3373  12.3373  12.3607  12.3607
    12.8929  12.8929  12.9233  12.9233  13.5896  13.5896  13.6051  13.6051
    15.5097  15.5097  15.5535  15.5535  16.7989  16.7989  16.8421  16.8421
    17.3541  17.3541  17.3924  17.3925  17.4977

          k =-0.5000-0.4753 0.1666 ( 62340 PWs)   bands (ev):

   -66.0610 -66.0610 -66.0610 -66.0610 -66.0601 -66.0601 -66.0601 -66.0601
   -30.4706 -30.4706 -30.4696 -30.4696 -30.4669 -30.4669 -30.4662 -30.4662
   -30.3976 -30.3975 -30.3863 -30.3863 -30.3566 -30.3566 -30.3532 -30.3532
   -30.3449 -30.3449 -30.3406 -30.3406 -30.3129 -30.3129 -30.3005 -30.3005
   -20.2108 -20.2108 -20.2106 -20.2106 -20.2105 -20.2105 -20.2104 -20.2104
   -20.2098 -20.2098 -20.2096 -20.2096 -20.2095 -20.2095 -20.2094 -20.2093
   -20.2007 -20.2006 -20.2003 -20.2003 -20.1995 -20.1995 -20.1992 -20.1992
   -20.1991 -20.1991 -20.1987 -20.1987 -20.1980 -20.1980 -20.1975 -20.1975
   -20.1866 -20.1866 -20.1865 -20.1865 -20.1862 -20.1862 -20.1860 -20.1860
   -20.1588 -20.1588 -20.1583 -20.1583 -20.1566 -20.1566 -20.1561 -20.1561
   -20.1555 -20.1555 -20.1548 -20.1548 -20.1536 -20.1536 -20.1530 -20.1530
    -9.3835  -9.3835  -9.3614  -9.3614  -8.7248  -8.7248  -8.7060  -8.7060
    -8.5923  -8.5922  -8.5791  -8.5791  -8.4038  -8.4038  -8.3827  -8.3827
    -8.3392  -8.3392  -8.3166  -8.3166  -7.8044  -7.8043  -7.7764  -7.7764
     1.6174   1.6174   1.6421   1.6421   2.9908   2.9908   3.0521   3.0521
     3.1370   3.1370   3.1545   3.1545   3.2112   3.2112   3.2677   3.2677
     3.3196   3.3196   3.4275   3.4275   3.4866   3.4866   3.5470   3.5470
     3.5873   3.5873   3.7323   3.7323   4.2831   4.2831   4.3135   4.3135
     4.3687   4.3687   4.4239   4.4239   4.8765   4.8765   5.0396   5.0396
     5.1498   5.1498   5.2978   5.2978   5.8953   5.8953   5.9103   5.9103
     6.7346   6.7346   6.7896   6.7896   6.8672   6.8672   6.9072   6.9072
     7.2668   7.2668   7.2908   7.2908   7.3478   7.3478   7.4105   7.4105
     7.4429   7.4429   7.5032   7.5032   7.6029   7.6029   7.6309   7.6309
    11.2524  11.2524  11.2959  11.2959  11.4229  11.4229  11.4916  11.4916
    12.2633  12.2633  12.2968  12.2968  12.3365  12.3365  12.3689  12.3689
    12.8011  12.8011  12.8753  12.8753  13.4162  13.4162  13.4660  13.4660
    15.7765  15.7765  15.8201  15.8201  16.8572  16.8572  16.8981  16.8981
    17.3595  17.3595  17.4032  17.4032  17.4887

          k =-0.5000-0.4753 0.3333 ( 62320 PWs)   bands (ev):

   -66.0608 -66.0608 -66.0608 -66.0608 -66.0603 -66.0603 -66.0603 -66.0603
   -30.4697 -30.4697 -30.4692 -30.4692 -30.4676 -30.4676 -30.4671 -30.4671
   -30.3800 -30.3800 -30.3689 -30.3689 -30.3551 -30.3551 -30.3542 -30.3542
   -30.3444 -30.3444 -30.3415 -30.3415 -30.3305 -30.3305 -30.3184 -30.3184
   -20.2108 -20.2108 -20.2106 -20.2106 -20.2106 -20.2106 -20.2104 -20.2104
   -20.2098 -20.2098 -20.2097 -20.2097 -20.2095 -20.2095 -20.2094 -20.2094
   -20.2002 -20.2002 -20.2001 -20.2001 -20.1996 -20.1996 -20.1992 -20.1992
   -20.1989 -20.1989 -20.1987 -20.1987 -20.1983 -20.1983 -20.1979 -20.1979
   -20.1864 -20.1864 -20.1864 -20.1864 -20.1862 -20.1862 -20.1861 -20.1861
   -20.1578 -20.1578 -20.1573 -20.1573 -20.1563 -20.1563 -20.1559 -20.1559
   -20.1558 -20.1558 -20.1551 -20.1550 -20.1546 -20.1546 -20.1541 -20.1541
    -9.1729  -9.1729  -9.1569  -9.1569  -8.7852  -8.7852  -8.7691  -8.7691
    -8.5325  -8.5324  -8.5214  -8.5214  -8.3968  -8.3968  -8.3791  -8.3791
    -8.3428  -8.3428  -8.3226  -8.3226  -8.0956  -8.0956  -8.0700  -8.0700
     2.2974   2.2974   2.3197   2.3197   3.0042   3.0042   3.0431   3.0431
     3.1284   3.1284   3.1488   3.1488   3.2627   3.2627   3.2863   3.2863
     3.3993   3.3993   3.4383   3.4383   3.6375   3.6375   3.6778   3.6778
     3.7976   3.7976   3.8693   3.8693   4.2495   4.2495   4.2765   4.2765
     4.3295   4.3295   4.3867   4.3868   4.4626   4.4627   4.5713   4.5713
     4.6590   4.6590   4.8093   4.8093   5.0878   5.0878   5.1071   5.1071
     6.9994   6.9994   7.0648   7.0649   7.1771   7.1771   7.1946   7.1946
     7.2728   7.2728   7.3093   7.3093   7.3523   7.3523   7.4028   7.4028
     7.4818   7.4818   7.5493   7.5493   7.6224   7.6224   7.6500   7.6500
    11.4893  11.4893  11.5307  11.5307  11.7662  11.7662  11.8503  11.8503
    12.2216  12.2216  12.2756  12.2756  12.3319  12.3319  12.3723  12.3723
    12.5326  12.5326  12.6471  12.6471  12.9858  12.9858  13.0673  13.0673
    16.5034  16.5034  16.5624  16.5624  17.0305  17.0305  17.0538  17.0538
    17.3375  17.3375  17.4163  17.4166  17.4670

          k =-0.5000-0.4753-0.4999 ( 62376 PWs)   bands (ev):

   -66.0606 -66.0606 -66.0606 -66.0606 -66.0605 -66.0605 -66.0605 -66.0605
   -30.4687 -30.4687 -30.4685 -30.4685 -30.4684 -30.4684 -30.4683 -30.4683
   -30.3564 -30.3564 -30.3563 -30.3563 -30.3560 -30.3560 -30.3559 -30.3559
   -30.3423 -30.3423 -30.3422 -30.3422 -30.3420 -30.3420 -30.3418 -30.3418
   -20.2107 -20.2107 -20.2107 -20.2107 -20.2105 -20.2105 -20.2105 -20.2105
   -20.2098 -20.2097 -20.2097 -20.2097 -20.2095 -20.2095 -20.2094 -20.2094
   -20.1998 -20.1998 -20.1998 -20.1998 -20.1997 -20.1997 -20.1996 -20.1996
   -20.1987 -20.1987 -20.1985 -20.1985 -20.1985 -20.1985 -20.1984 -20.1984
   -20.1863 -20.1863 -20.1863 -20.1863 -20.1863 -20.1863 -20.1862 -20.1862
   -20.1564 -20.1564 -20.1564 -20.1564 -20.1564 -20.1564 -20.1563 -20.1563
   -20.1555 -20.1555 -20.1554 -20.1554 -20.1553 -20.1553 -20.1553 -20.1553
    -8.9333  -8.9332  -8.9221  -8.9221  -8.9202  -8.9202  -8.9192  -8.9191
    -8.4177  -8.4177  -8.3936  -8.3936  -8.3915  -8.3915  -8.3904  -8.3904
    -8.3456  -8.3456  -8.3430  -8.3430  -8.3311  -8.3311  -8.3215  -8.3215
     3.0002   3.0002   3.0020   3.0020   3.0130   3.0130   3.0216   3.0216
     3.1758   3.1758   3.1785   3.1785   3.1925   3.1925   3.2060   3.2060
     3.3866   3.3867   3.4543   3.4543   3.4726   3.4726   3.5106   3.5106
     4.1539   4.1539   4.1687   4.1687   4.1691   4.1691   4.1719   4.1719
     4.3573   4.3573   4.3627   4.3627   4.3768   4.3768   4.3834   4.3834
     4.4545   4.4545   4.4780   4.4780   4.4803   4.4803   4.4849   4.4849
     7.1222   7.1222   7.1802   7.1802   7.2001   7.2001   7.2763   7.2763
     7.3322   7.3322   7.3407   7.3407   7.3454   7.3454   7.3460   7.3460
     7.5941   7.5941   7.6054   7.6054   7.6118   7.6118   7.6324   7.6324
    11.8769  11.8769  11.8784  11.8784  11.8809  11.8809  11.8875  11.8875
    12.2305  12.2305  12.2788  12.2788  12.2982  12.2982  12.3692  12.3692
    12.5209  12.5209  12.5548  12.5548  12.5642  12.5642  12.5816  12.5816
    17.1169  17.1169  17.1451  17.1451  17.1568  17.1568  17.1866  17.1867
    17.3987  17.3987  17.4048  17.4049  17.4214

     the Fermi energy is     9.9231 ev

!    total energy              =   -6260.68677196 Ry
     Harris-Foulkes estimate   =   -6260.68677196 Ry
     estimated scf accuracy    <          6.4E-09 Ry

     The total energy is the sum of the following terms:

     one-electron contribution =   -4728.35448798 Ry
     hartree contribution      =    2602.34239485 Ry
     xc contribution           =    -966.33189799 Ry
     ewald contribution        =   -3168.34277092 Ry
     smearing contrib. (-TS)   =      -0.00000993 Ry

     convergence has been achieved in  14 iterations

     Writing output data file Landau_5.save
 
     init_run     :     28.40s CPU     30.15s WALL (       1 calls)
     electrons    :   1165.41s CPU   1199.45s WALL (       1 calls)

     Called by init_run:
     wfcinit      :     25.84s CPU     27.45s WALL (       1 calls)
     potinit      :      1.01s CPU      1.04s WALL (       1 calls)

     Called by electrons:
     c_bands      :   1019.98s CPU   1052.16s WALL (      14 calls)
     sum_band     :    139.21s CPU    140.31s WALL (      14 calls)
     v_of_rho     :      1.27s CPU      1.30s WALL (      15 calls)
     mix_rho      :      2.12s CPU      2.65s WALL (      14 calls)

     Called by c_bands:
     init_us_2    :      7.70s CPU      8.34s WALL (      58 calls)
     cegterg      :    855.40s CPU    886.18s WALL (      28 calls)

     Called by sum_band:

     Called by *egterg:
     h_psi        :    690.12s CPU    694.38s WALL (     123 calls)
     g_psi        :      1.43s CPU      1.43s WALL (      93 calls)
     cdiaghg      :     12.51s CPU     12.56s WALL (     121 calls)

     Called by h_psi:
     h_psi:pot    :    685.67s CPU    689.62s WALL (     123 calls)
     h_psi:calbec :     69.02s CPU     70.90s WALL (     123 calls)
     vloc_psi     :    540.65s CPU    542.37s WALL (     123 calls)
     add_vuspsi   :     76.01s CPU     76.35s WALL (     123 calls)

     General routines
     calbec       :     69.01s CPU     70.90s WALL (     123 calls)
     fft          :      0.94s CPU      0.95s WALL (      60 calls)
     fftw         :    565.95s CPU    567.52s WALL (   35900 calls)
 
     Parallel routines
 
     PWSCF        : 19m57.34s CPU    20m36.32s WALL

 
   This run was terminated on:  19:35: 8  25Mar2020            

=------------------------------------------------------------------------------=
   JOB DONE.
=------------------------------------------------------------------------------=
