
     Program PWSCF v.6.2 (svn rev. 14038) starts on 17Sep2019 at 12:36: 9 

     This program is part of the open-source Quantum ESPRESSO suite
     for quantum simulation of materials; please cite
         "P. Giannozzi et al., J. Phys.:Condens. Matter 21 395502 (2009);
         "P. Giannozzi et al., J. Phys.:Condens. Matter 29 465901 (2017);
          URL http://www.quantum-espresso.org", 
     in publications or presentations arising from this work. More details at
     http://www.quantum-espresso.org/quote

     Parallel version (MPI), running on    40 processors

     MPI processes distributed on     2 nodes
     K-points division:     npool     =      40
     Reading input from scf.in

     Current dimensions of program PWSCF are:
     Max number of different atomic species (ntypx) = 10
     Max number of k-points (npk) =  40000
     Max angular momentum in pseudopotentials (lmaxx) =  3

     Subspace diagonalization in iterative solution of the eigenvalue problem:
     a serial algorithm will be used

 
     G-vector sticks info
     --------------------
     sticks:   dense  smooth     PW     G-vecs:    dense   smooth      PW
     Sum        7701    7701   2071               495445   495445   68765
 


     bravais-lattice index     =            0
     lattice parameter (alat)  =      13.8521  a.u.
     unit-cell volume          =    2790.4208 (a.u.)^3
     number of atoms/cell      =           32
     number of atomic types    =            2
     number of electrons       =       368.52
     number of Kohn-Sham states=          221
     kinetic-energy cutoff     =     120.0000  Ry
     charge density cutoff     =     480.0000  Ry
     convergence threshold     =      1.0E-08
     mixing beta               =       0.7000
     number of iterations used =            8  plain     mixing
     Exchange-correlation      = SLA PW NOGX NOGC ( 1  4  0  0 0 0)

     celldm(1)=  13.852081  celldm(2)=   0.000000  celldm(3)=   0.000000
     celldm(4)=   0.000000  celldm(5)=   0.000000  celldm(6)=   0.000000

     crystal axes: (cart. coord. in units of alat)
               a(1) = (   1.000000   0.000000   0.000000 )  
               a(2) = (   0.000000   1.049844   0.000000 )  
               a(3) = (   0.000000   0.000000   1.000000 )  

     reciprocal axes: (cart. coord. in units 2 pi/alat)
               b(1) = (  1.000000  0.000000  0.000000 )  
               b(2) = (  0.000000  0.952523  0.000000 )  
               b(3) = (  0.000000  0.000000  1.000000 )  


     PseudoPot. # 1 for W  read from file:
     /cluster/scratch/mnoe/QE/pps/W_ONCV_LDA-4.0.upf
     MD5 check sum: ba0307d5d4cd419d6f1d13dc49d7c13a
     Pseudo is Norm-conserving + core correction, Zval = 28.0
     Generated using ONCVPSP code by D. R. Hamann
     Using radial grid of 1380 points,  8 beta functions with: 
                l(1) =   0
                l(2) =   0
                l(3) =   1
                l(4) =   1
                l(5) =   2
                l(6) =   2
                l(7) =   3
                l(8) =   3

     PseudoPot. # 2 for O  read from file:
     /cluster/scratch/mnoe/QE/pps/O_ONCV_LDA-3.0.upf
     MD5 check sum: ca1549d10c4e927e51167f6fca52ae32
     Pseudo is Norm-conserving + core correction, Zval =  6.0
     Generated using ONCVPSP code by D. R. Hamann
     Using radial grid of  926 points,  5 beta functions with: 
                l(1) =   0
                l(2) =   0
                l(3) =   1
                l(4) =   1
                l(5) =   2

     atomic species   valence    mass     pseudopotential
        W             28.00   183.84000     W ( 1.00)
        O              6.00    15.99940     O ( 1.00)

      8 Sym. Ops. (no inversion) found ( 4 have fractional translation)



   Cartesian axes

     site n.     atom                  positions (alat units)
         1           W   tau(   1) = (   0.2652900   0.2959090   0.2504300  )
         2           W   tau(   2) = (  -0.2504299   0.7539348  -0.7347100  )
         3           W   tau(   3) = (   0.2347100   0.2290129   0.7504300  )
         4           W   tau(   4) = (   0.7504300   0.8208308   0.7652900  )
         5           W   tau(   5) = (   0.7347100   0.2959090   0.7495700  )
         6           W   tau(   6) = (   0.2504300   0.7539348   0.7347100  )
         7           W   tau(   7) = (  -0.2347100   0.2290129  -0.7504299  )
         8           W   tau(   8) = (   0.2495700   0.8208308   0.2347100  )
         9           O   tau(   9) = (   0.2668100   0.0087347   0.2621900  )
        10           O   tau(  10) = (  -0.2621901   1.0411090  -0.7331900  )
        11           O   tau(  11) = (   0.2331900   0.5161871   0.7621901  )
        12           O   tau(  12) = (   0.7621900   0.5336565   0.7668100  )
        13           O   tau(  13) = (   0.7331900   0.0087347   0.7378100  )
        14           O   tau(  14) = (   0.2621900   1.0411090   0.7331900  )
        15           O   tau(  15) = (  -0.2331900   0.5161871  -0.7621901  )
        16           O   tau(  16) = (   0.2378100   0.5336565   0.2331900  )
        17           O   tau(  17) = (   0.4945900   0.2814946   0.6995400  )
        18           O   tau(  18) = (   0.4988900   0.7751731   0.8004600  )
        19           O   tau(  19) = (  -0.9945900   0.2434273   1.1995400  )
        20           O   tau(  20) = (   0.0011100   0.7995924   0.3004600  )
        21           O   tau(  21) = (   0.5054100   0.2814946   0.3004600  )
        22           O   tau(  22) = (   0.5011100   0.7751731   1.1995400  )
        23           O   tau(  23) = (  -0.0054101   0.2434273   0.8004600  )
        24           O   tau(  24) = (  -1.0011100   0.7995924   0.6995400  )
        25           O   tau(  25) = (   0.6995400   0.2502513   2.0011100  )
        26           O   tau(  26) = (   0.3004600   0.7683491   0.4945900  )
        27           O   tau(  27) = (   0.8004600   0.2746706   0.5011100  )
        28           O   tau(  28) = (   0.1995400   0.8064165   1.9945900  )
        29           O   tau(  29) = (   0.3004600   0.2502513   0.9988900  )
        30           O   tau(  30) = (   0.6995400   0.7683491   0.5054100  )
        31           O   tau(  31) = (   0.1995400   0.2746706   0.4988900  )
        32           O   tau(  32) = (   0.8004600   0.8064165   1.0054101  )

     number of k points=    40  gaussian smearing, width (Ry)=  0.0007
                       cart. coord. in units 2pi/alat
        k(    1) = (   0.0000000   0.0000000   0.0000000), wk =   0.0092593
        k(    2) = (   0.0000000   0.0000000   0.1666667), wk =   0.0370370
        k(    3) = (   0.0000000   0.0000000   0.3333333), wk =   0.0370370
        k(    4) = (   0.0000000   0.0000000  -0.5000000), wk =   0.0185185
        k(    5) = (   0.0000000   0.1587538   0.0000000), wk =   0.0185185
        k(    6) = (   0.0000000   0.1587538   0.1666667), wk =   0.0740741
        k(    7) = (   0.0000000   0.1587538   0.3333333), wk =   0.0740741
        k(    8) = (   0.0000000   0.1587538  -0.5000000), wk =   0.0370370
        k(    9) = (   0.0000000   0.3175076   0.0000000), wk =   0.0185185
        k(   10) = (   0.0000000   0.3175076   0.1666667), wk =   0.0740741
        k(   11) = (   0.0000000   0.3175076   0.3333333), wk =   0.0740741
        k(   12) = (   0.0000000   0.3175076  -0.5000000), wk =   0.0370370
        k(   13) = (   0.0000000  -0.4762614   0.0000000), wk =   0.0092593
        k(   14) = (   0.0000000  -0.4762614   0.1666667), wk =   0.0370370
        k(   15) = (   0.0000000  -0.4762614   0.3333333), wk =   0.0370370
        k(   16) = (   0.0000000  -0.4762614  -0.5000000), wk =   0.0185185
        k(   17) = (   0.1666667   0.0000000   0.1666667), wk =   0.0370370
        k(   18) = (   0.1666667   0.0000000   0.3333333), wk =   0.0740741
        k(   19) = (   0.1666667   0.0000000  -0.5000000), wk =   0.0370370
        k(   20) = (   0.1666667   0.1587538   0.1666667), wk =   0.0740741
        k(   21) = (   0.1666667   0.1587538   0.3333333), wk =   0.1481481
        k(   22) = (   0.1666667   0.1587538  -0.5000000), wk =   0.0740741
        k(   23) = (   0.1666667   0.3175076   0.1666667), wk =   0.0740741
        k(   24) = (   0.1666667   0.3175076   0.3333333), wk =   0.1481481
        k(   25) = (   0.1666667   0.3175076  -0.5000000), wk =   0.0740741
        k(   26) = (   0.1666667  -0.4762614   0.1666667), wk =   0.0370370
        k(   27) = (   0.1666667  -0.4762614   0.3333333), wk =   0.0740741
        k(   28) = (   0.1666667  -0.4762614  -0.5000000), wk =   0.0370370
        k(   29) = (   0.3333333   0.0000000   0.3333333), wk =   0.0370370
        k(   30) = (   0.3333333   0.0000000  -0.5000000), wk =   0.0370370
        k(   31) = (   0.3333333   0.1587538   0.3333333), wk =   0.0740741
        k(   32) = (   0.3333333   0.1587538  -0.5000000), wk =   0.0740741
        k(   33) = (   0.3333333   0.3175076   0.3333333), wk =   0.0740741
        k(   34) = (   0.3333333   0.3175076  -0.5000000), wk =   0.0740741
        k(   35) = (   0.3333333  -0.4762614   0.3333333), wk =   0.0370370
        k(   36) = (   0.3333333  -0.4762614  -0.5000000), wk =   0.0370370
        k(   37) = (  -0.5000000   0.0000000  -0.5000000), wk =   0.0092593
        k(   38) = (  -0.5000000   0.1587538  -0.5000000), wk =   0.0185185
        k(   39) = (  -0.5000000   0.3175076  -0.5000000), wk =   0.0185185
        k(   40) = (  -0.5000000  -0.4762614  -0.5000000), wk =   0.0092593

     Dense  grid:   495445 G-vectors     FFT dimensions: ( 100, 108, 100)

     Estimated max dynamical RAM per process >       2.70 GB

     Estimated total dynamical RAM >     108.14 GB

     Initial potential from superposition of free atoms

     starting charge  367.99656, renormalised to  368.52000
     Starting wfc are  232 randomized atomic wfcs

     total cpu time spent up to now is       26.3 secs

     Self-consistent Calculation

     iteration #  1     ecut=   120.00 Ry     beta= 0.70
     Davidson diagonalization with overlap
     ethr =  1.00E-02,  avg # of iterations =  5.2

     total cpu time spent up to now is      114.1 secs

     total energy              =   -6253.53225174 Ry
     Harris-Foulkes estimate   =   -6264.28079465 Ry
     estimated scf accuracy    <      13.55144498 Ry

     iteration #  2     ecut=   120.00 Ry     beta= 0.70
     Davidson diagonalization with overlap
     ethr =  3.68E-03,  avg # of iterations =  3.6

     total cpu time spent up to now is      199.6 secs

     total energy              =   -6250.48801161 Ry
     Harris-Foulkes estimate   =   -6270.30627458 Ry
     estimated scf accuracy    <      52.79262307 Ry

     iteration #  3     ecut=   120.00 Ry     beta= 0.70
     Davidson diagonalization with overlap
     ethr =  3.68E-03,  avg # of iterations =  3.5

     total cpu time spent up to now is      281.3 secs

     total energy              =   -6260.71794119 Ry
     Harris-Foulkes estimate   =   -6260.99173072 Ry
     estimated scf accuracy    <       0.90637046 Ry

     iteration #  4     ecut=   120.00 Ry     beta= 0.70
     Davidson diagonalization with overlap
     ethr =  2.46E-04,  avg # of iterations =  2.8

     total cpu time spent up to now is      347.7 secs

     total energy              =   -6260.71725289 Ry
     Harris-Foulkes estimate   =   -6260.78823873 Ry
     estimated scf accuracy    <       0.22763332 Ry

     iteration #  5     ecut=   120.00 Ry     beta= 0.70
     Davidson diagonalization with overlap
     ethr =  6.18E-05,  avg # of iterations =  5.5

     total cpu time spent up to now is      419.6 secs

     total energy              =   -6260.71734654 Ry
     Harris-Foulkes estimate   =   -6260.74869202 Ry
     estimated scf accuracy    <       0.06880312 Ry

     iteration #  6     ecut=   120.00 Ry     beta= 0.70
     Davidson diagonalization with overlap
     ethr =  1.87E-05,  avg # of iterations =  5.2

     total cpu time spent up to now is      494.9 secs

     total energy              =   -6260.73251162 Ry
     Harris-Foulkes estimate   =   -6260.73491386 Ry
     estimated scf accuracy    <       0.00631218 Ry

     iteration #  7     ecut=   120.00 Ry     beta= 0.70
     Davidson diagonalization with overlap
     ethr =  1.71E-06,  avg # of iterations =  5.9

     total cpu time spent up to now is      567.4 secs

     total energy              =   -6260.73333725 Ry
     Harris-Foulkes estimate   =   -6260.73341941 Ry
     estimated scf accuracy    <       0.00015097 Ry

     iteration #  8     ecut=   120.00 Ry     beta= 0.70
     Davidson diagonalization with overlap
     ethr =  4.10E-08,  avg # of iterations =  3.1

     total cpu time spent up to now is      655.5 secs

     total energy              =   -6260.73340149 Ry
     Harris-Foulkes estimate   =   -6260.73340992 Ry
     estimated scf accuracy    <       0.00003650 Ry

     iteration #  9     ecut=   120.00 Ry     beta= 0.70
     Davidson diagonalization with overlap
     ethr =  9.90E-09,  avg # of iterations =  1.0

     total cpu time spent up to now is      717.9 secs

     total energy              =   -6260.73339905 Ry
     Harris-Foulkes estimate   =   -6260.73340373 Ry
     estimated scf accuracy    <       0.00001431 Ry

     iteration # 10     ecut=   120.00 Ry     beta= 0.70
     Davidson diagonalization with overlap
     ethr =  3.88E-09,  avg # of iterations =  2.0

     total cpu time spent up to now is      782.5 secs

     total energy              =   -6260.73340023 Ry
     Harris-Foulkes estimate   =   -6260.73340095 Ry
     estimated scf accuracy    <       0.00000172 Ry

     iteration # 11     ecut=   120.00 Ry     beta= 0.70
     Davidson diagonalization with overlap
     ethr =  4.66E-10,  avg # of iterations =  3.0

     total cpu time spent up to now is      854.9 secs

     total energy              =   -6260.73340063 Ry
     Harris-Foulkes estimate   =   -6260.73340068 Ry
     estimated scf accuracy    <       0.00000014 Ry

     iteration # 12     ecut=   120.00 Ry     beta= 0.70
     Davidson diagonalization with overlap
     ethr =  3.70E-11,  avg # of iterations =  2.0

     total cpu time spent up to now is      925.1 secs

     total energy              =   -6260.73340062 Ry
     Harris-Foulkes estimate   =   -6260.73340064 Ry
     estimated scf accuracy    <       0.00000003 Ry

     iteration # 13     ecut=   120.00 Ry     beta= 0.70
     Davidson diagonalization with overlap
     ethr =  8.73E-12,  avg # of iterations =  2.9

     total cpu time spent up to now is     1003.8 secs

     End of self-consistent calculation

          k = 0.0000 0.0000 0.0000 ( 61855 PWs)   bands (ev):

   -65.9518 -65.9513 -65.9508 -65.9508 -65.9503 -65.9503 -65.9498 -65.9493
   -30.3941 -30.3868 -30.3868 -30.3794 -30.3547 -30.3397 -30.3397 -30.3204
   -30.3200 -30.3001 -30.3001 -30.2939 -30.2754 -30.2737 -30.2713 -30.2713
   -30.2246 -30.2228 -30.2228 -30.2199 -30.1780 -30.1779 -30.1734 -30.1720
   -20.0995 -20.0993 -20.0992 -20.0992 -20.0990 -20.0990 -20.0989 -20.0988
   -20.0972 -20.0968 -20.0968 -20.0965 -20.0927 -20.0922 -20.0922 -20.0915
   -20.0881 -20.0875 -20.0873 -20.0873 -20.0867 -20.0867 -20.0861 -20.0857
   -20.0850 -20.0845 -20.0838 -20.0838 -20.0829 -20.0829 -20.0825 -20.0821
   -20.0737 -20.0735 -20.0730 -20.0730 -20.0722 -20.0722 -20.0717 -20.0715
   -20.0525 -20.0525 -20.0512 -20.0512 -20.0506 -20.0506 -20.0495 -20.0495
   -20.0470 -20.0470 -20.0461 -20.0461 -20.0448 -20.0448 -20.0433 -20.0433
    -9.8401  -9.5378  -9.4005  -9.4005  -9.0873  -9.0873  -8.9800  -8.8873
    -8.8813  -8.7634  -8.7262  -8.7262  -7.7994  -7.7174  -7.6991  -7.6991
    -7.6877  -7.6325  -7.6217  -7.6081  -7.5608  -7.5608  -7.4652  -7.4651
     1.3842   1.3927   1.4378   1.4378   1.5134   1.5134   1.5190   1.7339
     1.7539   1.7539   1.8131   2.0130   2.5066   2.5940   2.6395   2.6978
     2.8227   2.8227   4.2552   4.2552   4.5114   4.5151   4.8110   4.9231
     4.9231   4.9322   4.9631   4.9631   5.1701   5.1701   5.2684   5.5236
     5.5260   5.6050   5.6050   5.6730   5.6730   5.7747   5.7747   5.9347
     5.9347   5.9474   5.9567   5.9685   6.0421   6.0655   6.0771   6.2269
     6.2349   6.3812   6.4031   6.6275   6.6275   6.8528   6.9251   6.9251
     6.9562   6.9625   7.0519   7.1272   7.1498   7.1498   7.3700   7.3700
     7.5463   7.5463   7.8584   7.8765   8.1391   8.1391   8.1566   8.2412
     9.6262   9.6403  10.1937  10.2106  10.2273  10.2273  12.3946  12.3946
    12.4229  12.4229  12.6211  12.6211  12.6690  12.7696  12.7796  12.9285
    13.3040  13.4720  13.4775  13.4775  13.8330  14.0972  14.0972  14.2401
    14.4856  14.7064  14.7064  14.9757  15.5916  15.5918  15.6597  16.1619
    16.1619  16.8910  17.1286  17.1286  17.5685

          k = 0.0000 0.0000 0.1667 ( 61898 PWs)   bands (ev):

   -65.9517 -65.9512 -65.9508 -65.9507 -65.9504 -65.9502 -65.9498 -65.9494
   -30.3934 -30.3872 -30.3861 -30.3798 -30.3526 -30.3402 -30.3370 -30.3209
   -30.3171 -30.3006 -30.2968 -30.2924 -30.2741 -30.2717 -30.2684 -30.2646
   -30.2293 -30.2288 -30.2222 -30.2219 -30.1844 -30.1790 -30.1776 -30.1731
   -20.0994 -20.0992 -20.0992 -20.0992 -20.0990 -20.0990 -20.0989 -20.0988
   -20.0972 -20.0969 -20.0968 -20.0965 -20.0927 -20.0922 -20.0921 -20.0916
   -20.0880 -20.0874 -20.0874 -20.0872 -20.0867 -20.0866 -20.0862 -20.0858
   -20.0849 -20.0844 -20.0839 -20.0837 -20.0830 -20.0829 -20.0826 -20.0821
   -20.0737 -20.0734 -20.0730 -20.0729 -20.0723 -20.0721 -20.0717 -20.0715
   -20.0525 -20.0522 -20.0513 -20.0509 -20.0504 -20.0503 -20.0496 -20.0491
   -20.0474 -20.0469 -20.0465 -20.0463 -20.0452 -20.0447 -20.0437 -20.0434
    -9.7943  -9.4847  -9.4180  -9.3419  -9.1027  -9.0031  -8.9891  -8.8507
    -8.8439  -8.7471  -8.7313  -8.6923  -7.8602  -7.7649  -7.7396  -7.7227
    -7.7035  -7.6874  -7.6545  -7.6362  -7.6043  -7.5891  -7.5701  -7.4747
     1.4352   1.4390   1.5002   1.5176   1.5801   1.6108   1.7271   1.7354
     1.7490   1.8579   1.9796   2.1384   2.5920   2.6687   2.6848   2.7667
     2.8136   2.9130   4.1801   4.2506   4.4673   4.5059   4.5363   4.5782
     4.7033   4.8895   4.9153   4.9683   4.9829   5.1587   5.2474   5.4002
     5.5235   5.5405   5.5892   5.6236   5.6905   5.7170   5.7680   5.7777
     5.8280   5.8680   5.9166   6.0097   6.1022   6.1029   6.1565   6.2283
     6.3562   6.4424   6.6084   6.6088   6.7978   6.8209   6.8352   6.8574
     6.9501   6.9624   6.9958   7.0716   7.1354   7.1544   7.2208   7.2401
     7.3303   7.3967   7.8780   7.8870   8.1003   8.1346   8.1536   8.2278
     9.9250   9.9476  10.2156  10.2246  10.4419  10.5057  12.3251  12.3688
    12.4403  12.4818  12.5386  12.6494  12.7035  12.8169  12.8412  12.9576
    13.1929  13.3747  13.4437  13.4809  13.8848  14.0383  14.0960  14.1643
    14.4806  14.7008  14.7633  15.0836  15.6191  15.6245  15.6285  16.1319
    16.4495  16.8731  17.0536  17.3096  17.6394

          k = 0.0000 0.0000 0.3333 ( 61946 PWs)   bands (ev):

   -65.9515 -65.9511 -65.9510 -65.9506 -65.9505 -65.9501 -65.9500 -65.9496
   -30.3918 -30.3883 -30.3845 -30.3809 -30.3484 -30.3418 -30.3312 -30.3228
   -30.3104 -30.3022 -30.2868 -30.2846 -30.2732 -30.2719 -30.2519 -30.2473
   -30.2450 -30.2447 -30.2246 -30.2203 -30.2017 -30.1954 -30.1768 -30.1742
   -20.0994 -20.0993 -20.0992 -20.0991 -20.0991 -20.0990 -20.0990 -20.0989
   -20.0971 -20.0969 -20.0968 -20.0966 -20.0926 -20.0923 -20.0920 -20.0917
   -20.0879 -20.0875 -20.0873 -20.0869 -20.0868 -20.0865 -20.0864 -20.0860
   -20.0847 -20.0841 -20.0841 -20.0834 -20.0833 -20.0828 -20.0827 -20.0823
   -20.0735 -20.0732 -20.0731 -20.0726 -20.0725 -20.0720 -20.0719 -20.0717
   -20.0522 -20.0516 -20.0514 -20.0502 -20.0499 -20.0499 -20.0494 -20.0483
   -20.0482 -20.0474 -20.0469 -20.0465 -20.0460 -20.0447 -20.0444 -20.0437
    -9.6828  -9.4712  -9.3584  -9.2062  -9.1497  -9.0201  -8.7938  -8.7643
    -8.7451  -8.7136  -8.6364  -8.5632  -8.1391  -8.0329  -8.0239  -7.9244
    -7.7438  -7.7155  -7.6706  -7.6639  -7.6460  -7.5955  -7.5757  -7.5011
     1.4430   1.4517   1.5290   1.5472   1.6840   1.7029   1.7129   1.7407
     2.3861   2.4593   2.5974   2.6955   2.6988   2.8037   2.8412   2.9473
     3.0022   3.1545   3.8513   3.9341   3.9820   4.0651   4.2480   4.4138
     4.4741   4.6216   4.6593   4.8312   4.8350   4.9219   5.0789   5.1802
     5.2516   5.3159   5.4299   5.4499   5.5743   5.6037   5.7300   5.7991
     5.8227   5.8657   5.9054   6.0612   6.1247   6.2154   6.2541   6.3458
     6.4718   6.4800   6.5108   6.6059   6.6483   6.6637   6.7402   6.8857
     6.8863   6.9457   6.9524   7.0924   7.1155   7.1547   7.1747   7.2544
     7.4102   7.4505   7.8302   7.8471   7.9782   8.0256   8.1868   8.2133
    10.1771  10.2154  10.5788  10.7005  11.0161  11.1547  11.9735  12.0798
    12.2227  12.5673  12.5700  12.6698  12.7382  12.7857  12.8614  12.9666
    13.0685  13.2283  13.3072  13.5013  13.7688  13.8246  14.0941  14.0961
    14.5591  14.6826  15.0054  15.3600  15.5118  15.7565  15.9767  16.0336
    16.3599  17.2491  17.4499  17.5762  17.8560

          k = 0.0000 0.0000-0.5000 ( 61888 PWs)   bands (ev):

   -65.9513 -65.9513 -65.9508 -65.9508 -65.9503 -65.9503 -65.9498 -65.9498
   -30.3900 -30.3900 -30.3826 -30.3826 -30.3446 -30.3445 -30.3261 -30.3261
   -30.3051 -30.3051 -30.2768 -30.2767 -30.2660 -30.2660 -30.2634 -30.2634
   -30.2326 -30.2326 -30.2246 -30.2246 -30.2134 -30.2134 -30.1755 -30.1755
   -20.0993 -20.0993 -20.0991 -20.0991 -20.0991 -20.0990 -20.0989 -20.0989
   -20.0970 -20.0970 -20.0967 -20.0967 -20.0925 -20.0925 -20.0919 -20.0919
   -20.0877 -20.0877 -20.0871 -20.0870 -20.0866 -20.0866 -20.0862 -20.0862
   -20.0844 -20.0844 -20.0837 -20.0837 -20.0831 -20.0831 -20.0825 -20.0825
   -20.0733 -20.0733 -20.0728 -20.0728 -20.0723 -20.0723 -20.0718 -20.0718
   -20.0519 -20.0519 -20.0505 -20.0505 -20.0495 -20.0495 -20.0487 -20.0487
   -20.0481 -20.0481 -20.0470 -20.0470 -20.0458 -20.0458 -20.0441 -20.0441
    -9.5621  -9.5621  -9.2337  -9.2337  -9.0862  -9.0862  -8.7645  -8.7645
    -8.4711  -8.4711  -8.4106  -8.4106  -8.3723  -8.3722  -8.2894  -8.2893
    -7.7317  -7.7317  -7.6591  -7.6591  -7.6300  -7.6300  -7.5379  -7.5379
     1.4487   1.4487   1.5429   1.5429   1.6992   1.6992   1.7325   1.7325
     2.7340   2.7340   3.0833   3.0834   3.2175   3.2175   3.2550   3.2551
     3.3866   3.3866   3.4503   3.4503   3.6430   3.6431   3.9093   3.9094
     3.9664   3.9664   4.5873   4.5873   4.7819   4.7819   5.0669   5.0670
     5.3401   5.3401   5.4518   5.4519   5.5014   5.5015   5.7702   5.7702
     5.8761   5.8761   6.0565   6.0565   6.1960   6.1960   6.3330   6.3330
     6.3770   6.3771   6.5098   6.5098   6.5783   6.5783   6.6806   6.6806
     6.8912   6.8912   6.9411   6.9411   7.1248   7.1249   7.5824   7.5824
     7.6333   7.6333   7.7572   7.7572   7.7971   7.7971   8.2047   8.2047
    10.1996  10.1996  11.3268  11.3268  11.4584  11.4584  11.6771  11.6771
    11.9153  11.9154  12.7304  12.7304  12.8074  12.8074  12.9699  12.9700
    13.0398  13.0398  13.4220  13.4220  13.5864  13.5864  14.0947  14.0947
    14.6435  14.6435  15.3030  15.3030  15.7531  15.7531  15.9639  15.9639
    16.7160  16.7161  17.9360  17.9360  18.2148

          k = 0.0000 0.1588 0.0000 ( 61943 PWs)   bands (ev):

   -65.9517 -65.9513 -65.9507 -65.9507 -65.9503 -65.9503 -65.9497 -65.9493
   -30.3907 -30.3832 -30.3832 -30.3754 -30.3564 -30.3414 -30.3414 -30.3242
   -30.3191 -30.3018 -30.3018 -30.2966 -30.2753 -30.2738 -30.2714 -30.2714
   -30.2244 -30.2229 -30.2229 -30.2203 -30.1780 -30.1780 -30.1733 -30.1721
   -20.0995 -20.0993 -20.0992 -20.0992 -20.0990 -20.0990 -20.0989 -20.0988
   -20.0969 -20.0965 -20.0965 -20.0962 -20.0930 -20.0924 -20.0924 -20.0919
   -20.0880 -20.0875 -20.0873 -20.0873 -20.0867 -20.0867 -20.0861 -20.0858
   -20.0850 -20.0846 -20.0838 -20.0838 -20.0830 -20.0830 -20.0825 -20.0821
   -20.0737 -20.0735 -20.0730 -20.0730 -20.0722 -20.0722 -20.0717 -20.0715
   -20.0525 -20.0525 -20.0512 -20.0512 -20.0506 -20.0506 -20.0495 -20.0495
   -20.0470 -20.0470 -20.0461 -20.0461 -20.0448 -20.0448 -20.0433 -20.0433
    -9.8094  -9.5501  -9.3632  -9.3632  -9.0925  -9.0925  -8.9055  -8.8864
    -8.8796  -8.7204  -8.6905  -8.6905  -7.8695  -7.7947  -7.7947  -7.7403
    -7.7178  -7.7119  -7.6214  -7.6094  -7.5653  -7.5653  -7.4656  -7.4656
     1.3862   1.3920   1.4447   1.4447   1.5210   1.5210   1.6531   1.8124
     1.9184   1.9764   1.9764   2.1646   2.5128   2.5880   2.7117   2.7751
     2.8940   2.8940   4.1240   4.1240   4.2308   4.2329   4.7537   4.9134
     4.9134   4.9571   4.9571   4.9966   5.1054   5.1054   5.1585   5.4200
     5.4200   5.6039   5.6039   5.6611   5.7133   5.7769   5.7787   5.7787
     5.8945   5.9030   5.9762   5.9963   5.9963   6.0786   6.1157   6.2136
     6.2275   6.3814   6.3884   6.6577   6.6578   6.7982   6.9430   6.9430
     6.9769   6.9840   7.0319   7.0596   7.0944   7.0944   7.3732   7.3732
     7.5506   7.5506   7.8610   7.8748   8.1009   8.1059   8.1059   8.1619
     9.6338   9.6416  10.3876  10.3914  10.3914  10.3952  12.3231  12.3231
    12.4087  12.4087  12.5124  12.6039  12.6090  12.6090  12.7913  12.9289
    13.3353  13.4677  13.4677  13.4931  13.9724  14.0660  14.0660  14.1486
    14.5511  14.9047  14.9047  15.1462  15.5865  15.5891  16.0578  16.1326
    16.1326  16.6073  17.2625  17.2625  17.6175

          k = 0.0000 0.1588 0.1667 ( 61929 PWs)   bands (ev):

   -65.9517 -65.9513 -65.9508 -65.9507 -65.9504 -65.9503 -65.9498 -65.9494
   -30.3899 -30.3836 -30.3824 -30.3758 -30.3544 -30.3420 -30.3391 -30.3248
   -30.3163 -30.3023 -30.2982 -30.2949 -30.2741 -30.2719 -30.2684 -30.2647
   -30.2292 -30.2289 -30.2223 -30.2222 -30.1844 -30.1790 -30.1776 -30.1731
   -20.0994 -20.0993 -20.0992 -20.0992 -20.0990 -20.0990 -20.0989 -20.0988
   -20.0969 -20.0965 -20.0965 -20.0962 -20.0930 -20.0925 -20.0924 -20.0919
   -20.0880 -20.0875 -20.0874 -20.0872 -20.0867 -20.0866 -20.0861 -20.0858
   -20.0849 -20.0845 -20.0839 -20.0837 -20.0831 -20.0829 -20.0826 -20.0822
   -20.0737 -20.0735 -20.0730 -20.0729 -20.0723 -20.0721 -20.0717 -20.0715
   -20.0525 -20.0522 -20.0513 -20.0509 -20.0504 -20.0503 -20.0496 -20.0491
   -20.0474 -20.0469 -20.0465 -20.0463 -20.0452 -20.0447 -20.0437 -20.0434
    -9.7626  -9.4969  -9.3807  -9.2999  -9.1083  -9.0084  -8.9146  -8.8493
    -8.8403  -8.7078  -8.6954  -8.6613  -7.8889  -7.8216  -7.7976  -7.7950
    -7.7493  -7.7289  -7.7059  -7.6816  -7.6047  -7.5876  -7.5748  -7.4751
     1.4448   1.4474   1.5044   1.5266   1.6723   1.7385   1.7553   1.9270
     1.9671   1.9868   2.0050   2.2341   2.5998   2.6783   2.7416   2.8441
     2.8859   2.9835   4.0845   4.1303   4.2285   4.2728   4.4972   4.5721
     4.6944   4.8253   4.9120   4.9558   4.9707   5.1062   5.1252   5.3466
     5.3660   5.4637   5.5177   5.6100   5.6693   5.6763   5.7480   5.7798
     5.8441   5.8880   5.9378   5.9525   5.9715   6.1118   6.1899   6.2197
     6.3670   6.3884   6.5871   6.6440   6.7795   6.8415   6.8773   6.8998
     6.9293   6.9886   7.0254   7.0556   7.0997   7.1353   7.2159   7.2430
     7.3318   7.4028   7.8777   7.8861   8.0694   8.0822   8.1080   8.1521
     9.9340   9.9621  10.3890  10.3964  10.5996  10.6426  12.2862  12.3357
    12.3975  12.4430  12.5208  12.5450  12.6073  12.7065  12.8416  12.9606
    13.2118  13.3698  13.4548  13.4688  13.9337  13.9854  14.0653  14.0987
    14.6095  14.8988  15.0114  15.2363  15.6184  15.6252  16.0146  16.1118
    16.4184  16.7604  17.0018  17.4177  17.6849

          k = 0.0000 0.1588 0.3333 ( 61952 PWs)   bands (ev):

   -65.9515 -65.9511 -65.9510 -65.9506 -65.9505 -65.9501 -65.9500 -65.9496
   -30.3882 -30.3847 -30.3807 -30.3770 -30.3503 -30.3436 -30.3341 -30.3265
   -30.3104 -30.3036 -30.2882 -30.2857 -30.2734 -30.2719 -30.2519 -30.2474
   -30.2450 -30.2449 -30.2248 -30.2204 -30.2017 -30.1954 -30.1768 -30.1742
   -20.0994 -20.0993 -20.0992 -20.0991 -20.0991 -20.0990 -20.0990 -20.0989
   -20.0968 -20.0966 -20.0964 -20.0963 -20.0929 -20.0926 -20.0923 -20.0920
   -20.0878 -20.0875 -20.0873 -20.0869 -20.0869 -20.0865 -20.0863 -20.0860
   -20.0847 -20.0842 -20.0841 -20.0834 -20.0834 -20.0828 -20.0828 -20.0823
   -20.0735 -20.0732 -20.0731 -20.0726 -20.0725 -20.0720 -20.0719 -20.0717
   -20.0522 -20.0516 -20.0514 -20.0502 -20.0499 -20.0499 -20.0494 -20.0483
   -20.0482 -20.0474 -20.0469 -20.0465 -20.0460 -20.0447 -20.0445 -20.0437
    -9.6486  -9.4343  -9.3698  -9.1565  -9.1500  -8.9463  -8.7788  -8.7601
    -8.7130  -8.7073  -8.6224  -8.5466  -8.1413  -8.0385  -8.0289  -7.9341
    -7.8222  -7.8040  -7.7692  -7.7424  -7.6741  -7.6011  -7.5762  -7.5016
     1.4560   1.4735   1.5414   1.5651   1.8624   1.8863   1.9597   1.9717
     2.3882   2.4664   2.6018   2.7076   2.7731   2.8530   2.8669   2.9450
     3.0803   3.2172   3.8525   3.9381   3.9690   4.0132   4.2476   4.2837
     4.3098   4.4820   4.6314   4.7685   4.7879   4.9086   4.9575   5.0375
     5.1531   5.2608   5.2816   5.3860   5.5076   5.5417   5.6161   5.7328
     5.8064   5.8443   5.9155   5.9521   6.0352   6.1564   6.2617   6.3645
     6.4322   6.5058   6.5901   6.6795   6.7373   6.7481   6.8019   6.8888
     6.9067   6.9577   6.9938   7.0461   7.0968   7.1363   7.1953   7.2572
     7.4109   7.4496   7.8304   7.8449   7.9535   7.9859   8.1255   8.1429
    10.3569  10.3876  10.5921  10.7102  11.1270  11.2401  11.9732  12.0807
    12.2070  12.5347  12.5888  12.6106  12.6396  12.7332  12.7989  12.9581
    12.9693  13.2140  13.3140  13.4792  13.6772  13.7492  14.0639  14.0776
    14.7639  14.8809  15.3205  15.4812  15.7598  15.8868  15.9967  16.0354
    16.4779  17.2062  17.2356  17.5120  17.8579

          k = 0.0000 0.1588-0.5000 ( 61924 PWs)   bands (ev):

   -65.9512 -65.9512 -65.9508 -65.9508 -65.9502 -65.9502 -65.9498 -65.9498
   -30.3864 -30.3864 -30.3787 -30.3787 -30.3464 -30.3464 -30.3296 -30.3296
   -30.3061 -30.3060 -30.2773 -30.2773 -30.2664 -30.2664 -30.2636 -30.2636
   -30.2327 -30.2327 -30.2247 -30.2247 -30.2135 -30.2135 -30.1756 -30.1755
   -20.0993 -20.0993 -20.0991 -20.0991 -20.0991 -20.0990 -20.0989 -20.0989
   -20.0967 -20.0967 -20.0964 -20.0964 -20.0928 -20.0927 -20.0922 -20.0922
   -20.0877 -20.0877 -20.0871 -20.0871 -20.0866 -20.0866 -20.0863 -20.0863
   -20.0844 -20.0844 -20.0838 -20.0837 -20.0831 -20.0831 -20.0826 -20.0826
   -20.0733 -20.0733 -20.0729 -20.0728 -20.0723 -20.0723 -20.0718 -20.0718
   -20.0519 -20.0519 -20.0505 -20.0505 -20.0495 -20.0495 -20.0487 -20.0487
   -20.0481 -20.0481 -20.0470 -20.0470 -20.0458 -20.0458 -20.0441 -20.0441
    -9.5259  -9.5259  -9.2427  -9.2427  -9.0167  -9.0167  -8.7297  -8.7297
    -8.4713  -8.4713  -8.4163  -8.4163  -8.3710  -8.3709  -8.2870  -8.2869
    -7.8183  -7.8183  -7.7587  -7.7587  -7.6376  -7.6376  -7.5384  -7.5384
     1.4679   1.4679   1.5590   1.5590   1.8852   1.8852   1.9728   1.9728
     2.8047   2.8047   3.0981   3.0982   3.2140   3.2140   3.2927   3.2927
     3.3939   3.3939   3.4518   3.4518   3.6385   3.6386   3.9111   3.9111
     4.0148   4.0148   4.3733   4.3733   4.7011   4.7011   4.8800   4.8800
     5.1927   5.1927   5.4202   5.4203   5.4624   5.4624   5.6235   5.6235
     5.8111   5.8111   5.9350   5.9350   6.1965   6.1965   6.3358   6.3358
     6.4446   6.4446   6.5523   6.5523   6.6543   6.6543   6.7720   6.7720
     6.9389   6.9390   6.9576   6.9576   7.0742   7.0742   7.5899   7.5899
     7.6259   7.6259   7.7441   7.7442   7.7785   7.7785   8.1375   8.1375
    10.3806  10.3806  11.3345  11.3345  11.4596  11.4596  11.7412  11.7412
    11.9711  11.9711  12.6177  12.6177  12.7745  12.7745  12.9716  12.9716
    12.9885  12.9885  13.3176  13.3176  13.5382  13.5383  14.0662  14.0662
    14.8466  14.8466  15.6373  15.6373  15.8551  15.8551  16.0069  16.0069
    16.7564  16.7564  17.7420  17.7420  18.1898

          k = 0.0000 0.3175 0.0000 ( 61947 PWs)   bands (ev):

   -65.9517 -65.9514 -65.9507 -65.9507 -65.9504 -65.9504 -65.9497 -65.9494
   -30.3817 -30.3739 -30.3739 -30.3645 -30.3617 -30.3470 -30.3470 -30.3349
   -30.3160 -30.3052 -30.3052 -30.3033 -30.2750 -30.2742 -30.2716 -30.2716
   -30.2237 -30.2231 -30.2231 -30.2214 -30.1780 -30.1780 -30.1730 -30.1724
   -20.0994 -20.0993 -20.0992 -20.0992 -20.0990 -20.0990 -20.0989 -20.0988
   -20.0960 -20.0956 -20.0956 -20.0952 -20.0937 -20.0932 -20.0932 -20.0927
   -20.0879 -20.0876 -20.0873 -20.0873 -20.0867 -20.0867 -20.0860 -20.0858
   -20.0850 -20.0848 -20.0839 -20.0839 -20.0830 -20.0830 -20.0825 -20.0822
   -20.0737 -20.0736 -20.0730 -20.0730 -20.0722 -20.0722 -20.0716 -20.0715
   -20.0525 -20.0525 -20.0512 -20.0512 -20.0506 -20.0506 -20.0495 -20.0495
   -20.0470 -20.0470 -20.0461 -20.0461 -20.0448 -20.0448 -20.0433 -20.0433
    -9.7346  -9.5878  -9.2826  -9.2826  -9.1083  -9.1083  -8.8841  -8.8791
    -8.6953  -8.5807  -8.5668  -8.5668  -8.0978  -8.0435  -8.0435  -8.0144
    -7.7225  -7.7193  -7.6199  -7.6129  -7.5678  -7.5678  -7.4664  -7.4664
     1.3874   1.3903   1.4483   1.4483   1.5259   1.5259   1.7733   1.8097
     2.4596   2.5286   2.5718   2.6077   2.6077   2.7754   2.9216   3.0181
     3.1091   3.1091   3.7393   3.7610   3.7821   3.7821   4.2342   4.5859
     4.5859   4.8525   4.9196   4.9196   4.9675   4.9675   5.1668   5.1896
     5.1896   5.1969   5.5184   5.5184   5.6784   5.6818   5.8232   5.8232
     5.9320   5.9349   5.9737   5.9737   6.0582   6.1280   6.1810   6.2129
     6.2463   6.3520   6.3599   6.6000   6.7053   6.7053   6.9669   6.9669
     6.9891   7.0503   7.1803   7.1836   7.2151   7.2151   7.3802   7.3802
     7.5586   7.5586   7.8422   7.8611   7.9243   7.9395   7.9507   7.9507
     9.6425   9.6440  10.8371  10.8371  10.8637  10.9048  11.9778  11.9778
    12.0861  12.1637  12.4207  12.4208  12.6067  12.6067  12.8300  12.9172
    13.4398  13.5097  13.5097  13.5607  13.8852  13.8863  13.8863  13.9359
    14.9596  15.3893  15.3893  15.5730  15.5796  15.7802  16.0334  16.0334
    16.0707  17.0308  17.3539  17.7235  17.7235

          k = 0.0000 0.3175 0.1667 ( 61936 PWs)   bands (ev):

   -65.9516 -65.9514 -65.9507 -65.9506 -65.9505 -65.9504 -65.9497 -65.9495
   -30.3809 -30.3743 -30.3728 -30.3649 -30.3600 -30.3476 -30.3457 -30.3354
   -30.3137 -30.3055 -30.3014 -30.3005 -30.2741 -30.2721 -30.2685 -30.2650
   -30.2292 -30.2289 -30.2229 -30.2225 -30.1844 -30.1789 -30.1777 -30.1731
   -20.0994 -20.0993 -20.0992 -20.0992 -20.0990 -20.0990 -20.0989 -20.0988
   -20.0960 -20.0956 -20.0956 -20.0953 -20.0937 -20.0933 -20.0932 -20.0928
   -20.0879 -20.0876 -20.0874 -20.0872 -20.0867 -20.0866 -20.0861 -20.0859
   -20.0849 -20.0846 -20.0839 -20.0838 -20.0832 -20.0830 -20.0825 -20.0823
   -20.0736 -20.0735 -20.0730 -20.0729 -20.0723 -20.0722 -20.0717 -20.0716
   -20.0525 -20.0522 -20.0513 -20.0509 -20.0504 -20.0503 -20.0496 -20.0491
   -20.0474 -20.0469 -20.0465 -20.0463 -20.0452 -20.0447 -20.0437 -20.0434
    -9.6852  -9.5347  -9.2998  -9.2074  -9.1251  -9.0251  -8.8475  -8.8369
    -8.7042  -8.5739  -8.5715  -8.5495  -8.0988  -8.0519  -8.0405  -8.0213
    -7.8344  -7.7321  -7.7119  -7.6913  -7.6057  -7.5880  -7.5774  -7.4760
     1.4475   1.4516   1.5050   1.5321   1.6928   1.7709   1.9169   1.9868
     2.4649   2.5857   2.6043   2.6242   2.6620   2.7668   2.9595   3.0772
     3.1108   3.2005   3.7466   3.7651   3.7929   3.8430   4.2178   4.5118
     4.5303   4.6008   4.6381   4.8466   4.8692   4.9419   5.0059   5.0241
     5.1827   5.1904   5.3093   5.4559   5.5094   5.6038   5.6904   5.7480
     5.8004   5.8688   5.8915   5.9468   6.0545   6.1344   6.2217   6.2474
     6.3622   6.3954   6.5663   6.6566   6.7066   6.9055   6.9467   7.0367
     7.0450   7.0686   7.1385   7.1652   7.1863   7.1997   7.2601   7.2766
     7.3480   7.4217   7.8448   7.8687   7.9181   7.9296   7.9374   7.9452
     9.9453   9.9747  10.8401  10.8771  11.0098  11.0533  11.9714  12.0625
    12.1147  12.2129  12.3437  12.4794  12.5096  12.6533  12.8892  12.9584
    13.3046  13.3951  13.5068  13.5089  13.7498  13.8029  13.8838  13.9211
    15.0836  15.3788  15.5334  15.6196  15.6461  15.8417  16.0057  16.2286
    16.3144  16.9944  17.3809  17.4510  17.8213

          k = 0.0000 0.3175 0.3333 ( 61944 PWs)   bands (ev):

   -65.9514 -65.9512 -65.9509 -65.9507 -65.9504 -65.9502 -65.9499 -65.9497
   -30.3790 -30.3754 -30.3704 -30.3662 -30.3562 -30.3494 -30.3426 -30.3369
   -30.3102 -30.3066 -30.2915 -30.2874 -30.2737 -30.2720 -30.2520 -30.2476
   -30.2453 -30.2451 -30.2251 -30.2205 -30.2017 -30.1954 -30.1768 -30.1742
   -20.0994 -20.0992 -20.0992 -20.0991 -20.0991 -20.0990 -20.0990 -20.0989
   -20.0959 -20.0957 -20.0955 -20.0953 -20.0936 -20.0934 -20.0931 -20.0929
   -20.0878 -20.0875 -20.0874 -20.0869 -20.0869 -20.0865 -20.0863 -20.0861
   -20.0847 -20.0843 -20.0841 -20.0835 -20.0834 -20.0829 -20.0828 -20.0825
   -20.0735 -20.0732 -20.0731 -20.0726 -20.0725 -20.0720 -20.0719 -20.0717
   -20.0522 -20.0516 -20.0514 -20.0502 -20.0499 -20.0499 -20.0494 -20.0483
   -20.0482 -20.0474 -20.0469 -20.0465 -20.0460 -20.0447 -20.0445 -20.0437
    -9.5666  -9.4052  -9.3521  -9.1772  -9.0149  -8.7935  -8.7391  -8.7312
    -8.6999  -8.5868  -8.5377  -8.4773  -8.1725  -8.1318  -8.0706  -8.0463
    -8.0306  -7.9846  -7.9619  -7.8793  -7.6779  -7.6041  -7.5772  -7.5025
     1.4620   1.4813   1.5485   1.5733   2.3006   2.3915   2.4063   2.5088
     2.5816   2.6249   2.6386   2.8418   2.8858   2.9187   3.0004   3.0842
     3.3134   3.4048   3.7253   3.7415   3.8302   3.9066   3.9541   3.9885
     4.1868   4.3752   4.4982   4.5514   4.5601   4.6813   4.6923   4.8592
     4.9458   4.9802   5.1135   5.1848   5.2781   5.3245   5.3806   5.4818
     5.5106   5.7046   5.7521   5.9055   6.1699   6.2054   6.2699   6.4200
     6.5003   6.5323   6.6529   6.7605   6.8163   6.8605   6.9093   6.9682
     7.0358   7.0686   7.1343   7.1418   7.1738   7.2141   7.2557   7.3193
     7.4157   7.4538   7.7875   7.8384   7.8420   7.8701   7.9270   7.9405
    10.6028  10.6566  10.8502  10.9059  11.4328  11.5092  11.9148  12.0146
    12.1208  12.1526  12.3463  12.3987  12.6630  12.7212  12.7572  12.8266
    12.9823  13.1610  13.3165  13.4417  13.5061  13.6251  13.8794  13.8988
    15.2346  15.3484  15.6550  15.9155  16.0402  16.0813  16.1179  16.7232
    16.8636  16.9064  17.0828  17.6218  17.6899

          k = 0.0000 0.3175-0.5000 ( 61934 PWs)   bands (ev):

   -65.9512 -65.9511 -65.9509 -65.9509 -65.9502 -65.9501 -65.9499 -65.9499
   -30.3770 -30.3770 -30.3681 -30.3681 -30.3523 -30.3523 -30.3394 -30.3394
   -30.3081 -30.3081 -30.2784 -30.2784 -30.2670 -30.2670 -30.2640 -30.2640
   -30.2329 -30.2329 -30.2248 -30.2248 -30.2135 -30.2135 -30.1756 -30.1756
   -20.0993 -20.0993 -20.0992 -20.0992 -20.0990 -20.0990 -20.0989 -20.0989
   -20.0958 -20.0958 -20.0955 -20.0954 -20.0935 -20.0935 -20.0930 -20.0930
   -20.0876 -20.0876 -20.0871 -20.0871 -20.0866 -20.0866 -20.0863 -20.0863
   -20.0844 -20.0844 -20.0839 -20.0839 -20.0831 -20.0831 -20.0827 -20.0827
   -20.0733 -20.0733 -20.0729 -20.0729 -20.0723 -20.0722 -20.0719 -20.0719
   -20.0519 -20.0519 -20.0505 -20.0505 -20.0495 -20.0495 -20.0487 -20.0487
   -20.0481 -20.0481 -20.0470 -20.0470 -20.0458 -20.0458 -20.0441 -20.0441
    -9.4426  -9.4425  -9.2706  -9.2705  -8.8270  -8.8270  -8.6224  -8.6224
    -8.4753  -8.4753  -8.4446  -8.4446  -8.3616  -8.3615  -8.2746  -8.2746
    -8.0439  -8.0439  -7.9974  -7.9974  -7.6410  -7.6410  -7.5394  -7.5394
     1.4757   1.4757   1.5678   1.5678   2.4638   2.4638   2.6073   2.6073
     3.0099   3.0099   3.1385   3.1385   3.1963   3.1963   3.3577   3.3578
     3.4109   3.4109   3.4741   3.4741   3.6204   3.6204   3.7757   3.7757
     4.1160   4.1160   4.1770   4.1771   4.2955   4.2955   4.4674   4.4674
     4.9377   4.9377   5.0428   5.0428   5.2419   5.2419   5.4066   5.4067
     5.5546   5.5546   5.8307   5.8307   6.2960   6.2960   6.3505   6.3505
     6.5559   6.5559   6.6455   6.6455   6.6718   6.6718   6.8574   6.8574
     7.1410   7.1410   7.1544   7.1544   7.1830   7.1831   7.5866   7.5866
     7.6102   7.6102   7.6821   7.6821   7.7151   7.7151   7.9321   7.9321
    10.8493  10.8493  11.3508  11.3508  11.4619  11.4619  11.8504  11.8504
    12.1473  12.1473  12.3092  12.3092  12.6879  12.6879  12.7768  12.7768
    12.9701  12.9701  13.1157  13.1157  13.5258  13.5258  13.8818  13.8818
    15.2997  15.2997  15.7940  15.7940  16.3962  16.3962  16.5963  16.5963
    16.9102  16.9102  17.3737  17.3737  17.9992

          k = 0.0000-0.4763 0.0000 ( 61818 PWs)   bands (ev):

   -65.9515 -65.9515 -65.9506 -65.9506 -65.9505 -65.9505 -65.9495 -65.9495
   -30.3708 -30.3708 -30.3661 -30.3661 -30.3531 -30.3531 -30.3497 -30.3496
   -30.3106 -30.3106 -30.3068 -30.3068 -30.2746 -30.2746 -30.2717 -30.2717
   -30.2232 -30.2232 -30.2227 -30.2226 -30.1780 -30.1780 -30.1727 -30.1727
   -20.0994 -20.0993 -20.0992 -20.0992 -20.0990 -20.0990 -20.0989 -20.0988
   -20.0949 -20.0948 -20.0946 -20.0946 -20.0942 -20.0942 -20.0940 -20.0940
   -20.0878 -20.0878 -20.0874 -20.0873 -20.0867 -20.0867 -20.0859 -20.0859
   -20.0849 -20.0849 -20.0839 -20.0839 -20.0831 -20.0831 -20.0824 -20.0824
   -20.0736 -20.0736 -20.0730 -20.0730 -20.0722 -20.0722 -20.0716 -20.0716
   -20.0525 -20.0525 -20.0512 -20.0512 -20.0506 -20.0506 -20.0495 -20.0495
   -20.0470 -20.0470 -20.0461 -20.0461 -20.0448 -20.0448 -20.0433 -20.0433
    -9.6519  -9.6519  -9.2361  -9.2361  -9.1226  -9.1226  -8.8811  -8.8811
    -8.3974  -8.3974  -8.3414  -8.3414  -8.3361  -8.3361  -8.3312  -8.3312
    -7.7217  -7.7217  -7.6169  -7.6168  -7.5681  -7.5681  -7.4669  -7.4669
     1.3886   1.3886   1.4489   1.4489   1.5269   1.5269   1.8015   1.8015
     2.5499   2.5499   3.1214   3.1214   3.2188   3.2188   3.3408   3.3408
     3.4436   3.4436   3.4469   3.4469   3.5611   3.5611   3.7379   3.7379
     3.8155   3.8156   4.9253   4.9253   4.9482   4.9482   5.3363   5.3363
     5.3767   5.3767   5.4087   5.4087   5.4275   5.4275   5.8661   5.8662
     5.8930   5.8930   5.9703   5.9703   6.1553   6.1553   6.2011   6.2011
     6.2948   6.2948   6.4062   6.4062   6.7407   6.7407   6.9044   6.9044
     7.0210   7.0210   7.3733   7.3733   7.5054   7.5054   7.5131   7.5131
     7.5987   7.5987   7.6387   7.6387   7.6714   7.6714   7.8797   7.8797
     9.6451   9.6451  11.3661  11.3661  11.4491  11.4491  11.4882  11.4883
    11.5887  11.5887  12.4253  12.4253  12.6087  12.6087  12.8807  12.8808
    13.6124  13.6124  13.6591  13.6591  13.6643  13.6643  13.7396  13.7396
    15.4521  15.4521  15.6174  15.6174  15.7269  15.7270  15.8791  15.8791
    16.6572  16.6572  18.0990  18.0993  18.1673

          k = 0.0000-0.4763 0.1667 ( 61930 PWs)   bands (ev):

   -65.9515 -65.9515 -65.9506 -65.9506 -65.9505 -65.9505 -65.9496 -65.9496
   -30.3705 -30.3687 -30.3664 -30.3641 -30.3537 -30.3529 -30.3503 -30.3499
   -30.3105 -30.3072 -30.3061 -30.3021 -30.2740 -30.2722 -30.2686 -30.2651
   -30.2293 -30.2287 -30.2232 -30.2226 -30.1844 -30.1789 -30.1777 -30.1732
   -20.0994 -20.0993 -20.0992 -20.0991 -20.0990 -20.0990 -20.0989 -20.0989
   -20.0948 -20.0948 -20.0946 -20.0945 -20.0943 -20.0942 -20.0940 -20.0940
   -20.0878 -20.0877 -20.0874 -20.0872 -20.0867 -20.0866 -20.0860 -20.0860
   -20.0849 -20.0848 -20.0840 -20.0838 -20.0832 -20.0830 -20.0825 -20.0824
   -20.0736 -20.0735 -20.0730 -20.0729 -20.0723 -20.0722 -20.0717 -20.0716
   -20.0525 -20.0522 -20.0513 -20.0509 -20.0504 -20.0503 -20.0496 -20.0491
   -20.0474 -20.0469 -20.0465 -20.0463 -20.0452 -20.0447 -20.0437 -20.0434
    -9.6062  -9.5938  -9.2523  -9.1524  -9.1408  -9.0416  -8.8466  -8.8364
    -8.4036  -8.4035  -8.3498  -8.3409  -8.3367  -8.3326  -8.3308  -8.3227
    -7.8365  -7.7329  -7.7125  -7.6924  -7.6062  -7.5884  -7.5777  -7.4765
     1.4477   1.4524   1.5050   1.5333   1.6951   1.7735   1.9412   1.9912
     2.6382   2.6400   3.1204   3.1323   3.2305   3.2585   3.3449   3.3470
     3.4097   3.4514   3.4516   3.5031   3.5636   3.6310   3.7286   3.7725
     3.8414   3.8493   4.5500   4.5616   4.9093   4.9405   5.1114   5.1574
     5.2371   5.2411   5.3144   5.3386   5.4172   5.4493   5.5971   5.6590
     5.8315   5.8498   5.8683   5.8915   6.0581   6.2045   6.2100   6.2633
     6.3861   6.4626   6.5015   6.5919   6.7290   6.8911   6.9186   7.0702
     7.0708   7.1025   7.1883   7.2200   7.3111   7.3569   7.5060   7.5252
     7.5859   7.5966   7.6057   7.6139   7.6549   7.6653   7.8926   7.8964
     9.9492   9.9781  11.3697  11.4415  11.4767  11.4903  11.5687  11.5956
    11.6072  11.7024  12.3458  12.4793  12.5093  12.6527  12.9360  12.9418
    13.4560  13.4894  13.5057  13.5593  13.6562  13.6599  13.6917  13.7584
    15.4564  15.5947  15.6514  15.7067  15.7758  15.8690  15.9965  16.1242
    16.7138  16.7195  17.9409  17.9932  18.1465

          k = 0.0000-0.4763 0.3333 ( 62010 PWs)   bands (ev):

   -65.9513 -65.9513 -65.9508 -65.9508 -65.9503 -65.9503 -65.9498 -65.9498
   -30.3696 -30.3673 -30.3639 -30.3597 -30.3558 -30.3526 -30.3521 -30.3507
   -30.3101 -30.3080 -30.2933 -30.2882 -30.2739 -30.2720 -30.2521 -30.2477
   -30.2455 -30.2452 -30.2253 -30.2206 -30.2017 -30.1954 -30.1768 -30.1743
   -20.0993 -20.0993 -20.0992 -20.0991 -20.0991 -20.0990 -20.0989 -20.0989
   -20.0948 -20.0947 -20.0947 -20.0945 -20.0944 -20.0942 -20.0941 -20.0941
   -20.0877 -20.0875 -20.0874 -20.0869 -20.0869 -20.0865 -20.0862 -20.0861
   -20.0847 -20.0844 -20.0842 -20.0835 -20.0835 -20.0829 -20.0827 -20.0826
   -20.0734 -20.0732 -20.0731 -20.0726 -20.0725 -20.0720 -20.0719 -20.0717
   -20.0522 -20.0516 -20.0514 -20.0502 -20.0499 -20.0499 -20.0494 -20.0483
   -20.0482 -20.0474 -20.0469 -20.0465 -20.0460 -20.0447 -20.0445 -20.0437
    -9.4973  -9.4508  -9.3012  -9.1974  -8.9204  -8.8207  -8.7284  -8.6928
    -8.4433  -8.4345  -8.3737  -8.3653  -8.3271  -8.3260  -8.3090  -8.2913
    -8.1071  -8.0122  -7.9879  -7.8944  -7.6783  -7.6044  -7.5777  -7.5029
     1.4629   1.4823   1.5500   1.5746   2.3511   2.4207   2.5489   2.6169
     2.8930   2.8964   3.1203   3.1501   3.2646   3.3208   3.3326   3.3645
     3.4077   3.4360   3.4830   3.5195   3.6103   3.7000   3.8186   3.8648
     3.9061   3.9250   3.9417   3.9806   4.5448   4.5580   4.7297   4.7646
     4.8359   4.8919   4.9892   5.0240   5.3049   5.3602   5.3642   5.3900
     5.4648   5.5340   5.7610   5.7735   6.1918   6.2476   6.2704   6.4457
     6.5253   6.5756   6.6526   6.7358   6.8433   6.8499   6.8737   7.0234
     7.1133   7.1598   7.2181   7.2454   7.2970   7.3212   7.4834   7.5461
     7.5538   7.5866   7.6019   7.6281   7.6309   7.6525   7.8522   7.8561
    10.6143  10.6772  11.3788  11.4278  11.5003  11.5506  11.8621  11.9076
    11.9474  12.0059  12.0165  12.1261  12.6533  12.7837  12.8271  12.8395
    13.0036  13.0543  13.2527  13.3367  13.6497  13.6545  13.6680  13.7153
    15.4640  15.6196  15.6410  15.7967  16.2479  16.3665  16.7061  16.7938
    16.9024  16.9300  17.4768  17.4857  17.9774

          k = 0.0000-0.4763-0.5000 ( 61996 PWs)   bands (ev):

   -65.9511 -65.9510 -65.9510 -65.9510 -65.9500 -65.9500 -65.9500 -65.9500
   -30.3685 -30.3685 -30.3592 -30.3592 -30.3554 -30.3554 -30.3516 -30.3516
   -30.3091 -30.3091 -30.2789 -30.2789 -30.2673 -30.2673 -30.2642 -30.2642
   -30.2330 -30.2330 -30.2248 -30.2248 -30.2136 -30.2136 -30.1756 -30.1756
   -20.0993 -20.0993 -20.0992 -20.0992 -20.0990 -20.0990 -20.0990 -20.0990
   -20.0947 -20.0947 -20.0946 -20.0946 -20.0943 -20.0943 -20.0941 -20.0941
   -20.0876 -20.0876 -20.0871 -20.0871 -20.0866 -20.0866 -20.0864 -20.0863
   -20.0844 -20.0844 -20.0839 -20.0839 -20.0831 -20.0831 -20.0827 -20.0827
   -20.0733 -20.0733 -20.0729 -20.0729 -20.0723 -20.0722 -20.0719 -20.0719
   -20.0519 -20.0519 -20.0505 -20.0505 -20.0495 -20.0495 -20.0487 -20.0487
   -20.0481 -20.0481 -20.0470 -20.0470 -20.0458 -20.0458 -20.0441 -20.0441
    -9.3843  -9.3843  -9.3007  -9.3006  -8.6213  -8.6213  -8.5581  -8.5580
    -8.5125  -8.5125  -8.4724  -8.4724  -8.3026  -8.3026  -8.2588  -8.2588
    -8.2346  -8.2346  -8.1756  -8.1755  -7.6415  -7.6414  -7.5398  -7.5398
     1.4769   1.4769   1.5695   1.5695   3.0136   3.0136   3.1293   3.1293
     3.2112   3.2113   3.2358   3.2358   3.2868   3.2868   3.3288   3.3288
     3.4344   3.4344   3.4747   3.4747   3.5441   3.5441   3.6069   3.6069
     3.7076   3.7076   3.8825   3.8826   4.3870   4.3870   4.4479   4.4480
     4.4827   4.4827   4.5711   4.5711   5.3214   5.3214   5.3584   5.3584
     5.5906   5.5906   5.6657   5.6657   6.3359   6.3359   6.3485   6.3486
     6.5917   6.5917   6.6778   6.6778   6.7023   6.7023   6.7951   6.7951
     7.3344   7.3344   7.3715   7.3715   7.4053   7.4053   7.5299   7.5299
     7.5742   7.5742   7.6274   7.6274   7.6650   7.6650   7.7067   7.7067
    11.2896  11.2896  11.3867  11.3867  11.4899  11.4899  11.5804  11.5804
    12.3409  12.3409  12.3922  12.3922  12.4739  12.4739  12.5179  12.5179
    12.9490  12.9490  13.0556  13.0556  13.6478  13.6478  13.6703  13.6703
    15.5449  15.5449  15.7078  15.7078  16.9064  16.9064  17.0081  17.0081
    17.3734  17.3734  17.4454  17.4455  17.5549

          k = 0.1667 0.0000 0.1667 ( 61928 PWs)   bands (ev):

   -65.9516 -65.9512 -65.9508 -65.9508 -65.9503 -65.9503 -65.9499 -65.9494
   -30.3927 -30.3865 -30.3865 -30.3802 -30.3505 -30.3376 -30.3375 -30.3215
   -30.3141 -30.2974 -30.2971 -30.2912 -30.2689 -30.2675 -30.2649 -30.2649
   -30.2314 -30.2282 -30.2282 -30.2262 -30.1841 -30.1840 -30.1801 -30.1787
   -20.0994 -20.0992 -20.0992 -20.0992 -20.0990 -20.0990 -20.0990 -20.0988
   -20.0972 -20.0969 -20.0968 -20.0965 -20.0927 -20.0922 -20.0922 -20.0916
   -20.0879 -20.0874 -20.0873 -20.0872 -20.0867 -20.0867 -20.0862 -20.0859
   -20.0848 -20.0843 -20.0838 -20.0838 -20.0830 -20.0830 -20.0827 -20.0822
   -20.0736 -20.0734 -20.0729 -20.0729 -20.0722 -20.0722 -20.0718 -20.0716
   -20.0522 -20.0521 -20.0510 -20.0510 -20.0502 -20.0501 -20.0492 -20.0492
   -20.0472 -20.0472 -20.0466 -20.0466 -20.0451 -20.0451 -20.0438 -20.0438
    -9.7466  -9.4273  -9.3599  -9.3585  -9.0199  -9.0172  -8.9987  -8.8124
    -8.8115  -8.7342  -8.6987  -8.6969  -7.8676  -7.8264  -7.7478  -7.7450
    -7.7248  -7.7185  -7.7136  -7.6625  -7.6616  -7.6398  -7.5992  -7.5887
     1.5595   1.6009   1.6043   1.6447   1.6508   1.7201   1.7383   1.7418
     1.8612   1.8614   2.0659   2.2145   2.6794   2.7361   2.7797   2.7953
     2.8890   2.9239   4.1709   4.1865   4.4524   4.4554   4.5726   4.5782
     4.6169   4.6513   4.7118   4.8002   4.8795   4.9500   5.2263   5.3611
     5.3622   5.4526   5.4793   5.6040   5.6424   5.7054   5.7309   5.8016
     5.8139   5.8368   5.8500   5.8652   5.9018   6.1368   6.3403   6.3492
     6.4105   6.6151   6.6658   6.7473   6.7644   6.7863   6.7935   6.8301
     6.8307   6.9318   6.9624   6.9643   7.0310   7.0797   7.1061   7.2032
     7.3799   7.4319   7.8825   7.8859   8.0979   8.1218   8.1432   8.2051
    10.1252  10.1830  10.4265  10.4452  10.4857  10.5743  12.3750  12.3776
    12.4120  12.4322  12.5685  12.5882  12.7552  12.8431  12.8660  12.9745
    13.1498  13.2994  13.3640  13.4606  13.9069  13.9965  14.0729  14.0952
    14.4758  14.7553  14.7561  15.2012  15.5916  15.6777  15.6911  16.4040
    16.4228  17.0206  17.0449  17.2029  17.6960

          k = 0.1667 0.0000 0.3333 ( 61940 PWs)   bands (ev):

   -65.9515 -65.9510 -65.9510 -65.9506 -65.9505 -65.9501 -65.9501 -65.9496
   -30.3911 -30.3876 -30.3849 -30.3814 -30.3460 -30.3392 -30.3317 -30.3234
   -30.3070 -30.2987 -30.2865 -30.2846 -30.2683 -30.2650 -30.2521 -30.2476
   -30.2455 -30.2437 -30.2300 -30.2258 -30.2014 -30.1962 -30.1832 -30.1805
   -20.0994 -20.0993 -20.0992 -20.0991 -20.0991 -20.0990 -20.0990 -20.0989
   -20.0971 -20.0969 -20.0968 -20.0966 -20.0926 -20.0923 -20.0921 -20.0918
   -20.0878 -20.0874 -20.0872 -20.0870 -20.0868 -20.0865 -20.0864 -20.0861
   -20.0846 -20.0840 -20.0840 -20.0835 -20.0832 -20.0829 -20.0828 -20.0824
   -20.0734 -20.0731 -20.0730 -20.0727 -20.0725 -20.0721 -20.0720 -20.0717
   -20.0519 -20.0513 -20.0513 -20.0502 -20.0499 -20.0495 -20.0493 -20.0483
   -20.0482 -20.0475 -20.0472 -20.0468 -20.0460 -20.0448 -20.0448 -20.0441
    -9.6303  -9.4126  -9.2893  -9.2222  -9.0662  -9.0309  -8.7833  -8.7556
    -8.7129  -8.6919  -8.6261  -8.5716  -8.1292  -8.0380  -8.0204  -7.9454
    -7.8064  -7.7488  -7.7140  -7.6989  -7.6743  -7.6705  -7.6497  -7.6197
     1.5732   1.5916   1.6746   1.7052   1.7506   1.7644   1.8493   1.8723
     2.3919   2.4675   2.5786   2.6797   2.7831   2.8793   2.9501   3.0102
     3.0635   3.1626   3.8815   3.9614   4.0319   4.0484   4.2389   4.4229
     4.4511   4.5671   4.6301   4.6343   4.7151   4.8356   4.9158   5.0139
     5.1628   5.1789   5.2398   5.3142   5.3868   5.5234   5.6737   5.7435
     5.7945   5.8503   5.8797   5.9188   5.9545   6.1153   6.1949   6.2245
     6.4758   6.5612   6.5938   6.6301   6.6635   6.7651   6.7797   6.8172
     6.8393   6.9557   6.9790   7.0079   7.1960   7.2287   7.2488   7.3469
     7.4274   7.4673   7.8377   7.8480   7.9959   8.0266   8.1567   8.1778
    10.4207  10.4304  10.7301  10.8306  11.0284  11.1822  12.0330  12.1269
    12.2584  12.5209  12.5790  12.6008  12.7144  12.7990  12.8961  12.9619
    13.0536  13.1790  13.2415  13.4116  13.7601  13.7823  14.0183  14.0417
    14.5737  14.7309  14.9944  15.4848  15.5029  15.9219  16.0463  16.2919
    16.5161  17.2055  17.4957  17.5443  17.6521

          k = 0.1667 0.0000-0.5000 ( 61982 PWs)   bands (ev):

   -65.9512 -65.9512 -65.9507 -65.9507 -65.9503 -65.9503 -65.9499 -65.9499
   -30.3893 -30.3893 -30.3830 -30.3830 -30.3420 -30.3419 -30.3267 -30.3266
   -30.3015 -30.3015 -30.2737 -30.2737 -30.2665 -30.2665 -30.2598 -30.2598
   -30.2357 -30.2357 -30.2247 -30.2247 -30.2163 -30.2163 -30.1819 -30.1819
   -20.0993 -20.0993 -20.0991 -20.0991 -20.0991 -20.0991 -20.0989 -20.0989
   -20.0970 -20.0970 -20.0967 -20.0967 -20.0925 -20.0924 -20.0920 -20.0919
   -20.0876 -20.0876 -20.0870 -20.0870 -20.0867 -20.0867 -20.0863 -20.0863
   -20.0843 -20.0843 -20.0836 -20.0836 -20.0832 -20.0832 -20.0826 -20.0826
   -20.0732 -20.0732 -20.0728 -20.0728 -20.0723 -20.0723 -20.0719 -20.0719
   -20.0516 -20.0516 -20.0504 -20.0504 -20.0492 -20.0492 -20.0488 -20.0488
   -20.0481 -20.0481 -20.0471 -20.0471 -20.0460 -20.0460 -20.0445 -20.0445
    -9.5052  -9.5052  -9.1540  -9.1539  -9.0993  -9.0993  -8.7330  -8.7330
    -8.4747  -8.4747  -8.4115  -8.4114  -8.3687  -8.3686  -8.2912  -8.2911
    -7.7802  -7.7802  -7.6997  -7.6997  -7.6633  -7.6633  -7.6533  -7.6533
     1.5805   1.5805   1.6906   1.6906   1.7666   1.7666   1.8798   1.8798
     2.8126   2.8126   3.1005   3.1005   3.1881   3.1882   3.3057   3.3057
     3.4051   3.4051   3.5140   3.5140   3.6887   3.6887   3.9299   3.9299
     3.9595   3.9595   4.5375   4.5375   4.6216   4.6216   5.0145   5.0146
     5.1275   5.1275   5.1887   5.1887   5.3914   5.3915   5.7340   5.7340
     5.8580   5.8580   5.9030   5.9030   5.9746   5.9746   6.1065   6.1065
     6.4356   6.4356   6.5406   6.5407   6.7381   6.7381   6.7897   6.7897
     6.9336   6.9336   7.0510   7.0511   7.1134   7.1134   7.6140   7.6140
     7.6537   7.6537   7.7723   7.7723   7.8044   7.8044   8.1689   8.1690
    10.4410  10.4411  11.4058  11.4058  11.5316  11.5316  11.6952  11.6952
    11.9345  11.9345  12.7106  12.7106  12.8199  12.8199  12.8799  12.8799
    13.0482  13.0482  13.4053  13.4053  13.4970  13.4970  14.0241  14.0241
    14.6785  14.6785  15.2847  15.2847  15.9151  15.9151  16.1838  16.1838
    16.8021  16.8021  17.9006  17.9008  18.0208

          k = 0.1667 0.1588 0.1667 ( 61894 PWs)   bands (ev):

   -65.9516 -65.9512 -65.9507 -65.9507 -65.9503 -65.9503 -65.9499 -65.9495
   -30.3892 -30.3829 -30.3828 -30.3762 -30.3524 -30.3397 -30.3396 -30.3254
   -30.3133 -30.2987 -30.2985 -30.2936 -30.2688 -30.2677 -30.2651 -30.2650
   -30.2311 -30.2284 -30.2283 -30.2267 -30.1841 -30.1840 -30.1800 -30.1788
   -20.0994 -20.0992 -20.0992 -20.0992 -20.0990 -20.0990 -20.0989 -20.0988
   -20.0968 -20.0965 -20.0965 -20.0962 -20.0929 -20.0925 -20.0925 -20.0920
   -20.0879 -20.0874 -20.0873 -20.0873 -20.0867 -20.0867 -20.0862 -20.0859
   -20.0848 -20.0844 -20.0838 -20.0838 -20.0830 -20.0830 -20.0826 -20.0822
   -20.0736 -20.0734 -20.0729 -20.0729 -20.0722 -20.0722 -20.0718 -20.0716
   -20.0522 -20.0521 -20.0510 -20.0510 -20.0502 -20.0501 -20.0492 -20.0492
   -20.0472 -20.0472 -20.0466 -20.0466 -20.0451 -20.0451 -20.0438 -20.0438
    -9.7134  -9.4396  -9.3182  -9.3166  -9.0256  -9.0229  -8.9243  -8.8106
    -8.8070  -8.6973  -8.6673  -8.6657  -7.8978  -7.8326  -7.8141  -7.8017
    -7.7824  -7.7596  -7.7251  -7.7157  -7.6983  -7.6848  -7.5973  -7.5897
     1.6323   1.6422   1.6741   1.6765   1.7560   1.7602   1.7676   1.9275
     2.0013   2.0043   2.0661   2.2881   2.6896   2.7738   2.8094   2.8734
     2.9640   2.9900   4.0924   4.0929   4.2518   4.2672   4.5347   4.5398
     4.6158   4.6469   4.6885   4.8082   4.8424   4.8799   5.0626   5.2803
     5.3042   5.3947   5.4142   5.5047   5.5143   5.6494   5.6539   5.7212
     5.8355   5.8559   5.8756   5.9065   5.9315   5.9749   6.3155   6.3416
     6.4394   6.5290   6.6448   6.7251   6.7907   6.8071   6.8434   6.8658
     6.9067   6.9261   6.9915   7.0018   7.0560   7.0785   7.1222   7.2072
     7.3842   7.4298   7.8811   7.8857   8.0560   8.0722   8.0986   8.1320
    10.1516  10.1968  10.5786  10.5870  10.6321  10.7037  12.3391  12.3587
    12.3800  12.3953  12.5321  12.5506  12.6258  12.7051  12.8753  12.9851
    13.1538  13.2844  13.3657  13.4538  13.9206  13.9265  14.0051  14.0292
    14.6750  15.0016  15.0084  15.3362  15.6738  15.6934  15.9881  16.3811
    16.3912  16.8836  17.1427  17.1480  17.7391

          k = 0.1667 0.1588 0.3333 ( 61944 PWs)   bands (ev):

   -65.9514 -65.9510 -65.9509 -65.9506 -65.9505 -65.9502 -65.9501 -65.9497
   -30.3875 -30.3840 -30.3811 -30.3774 -30.3481 -30.3413 -30.3346 -30.3271
   -30.3067 -30.2999 -30.2877 -30.2859 -30.2684 -30.2650 -30.2522 -30.2477
   -30.2455 -30.2439 -30.2303 -30.2259 -30.2014 -30.1962 -30.1832 -30.1806
   -20.0994 -20.0992 -20.0992 -20.0991 -20.0991 -20.0990 -20.0990 -20.0989
   -20.0968 -20.0966 -20.0965 -20.0963 -20.0929 -20.0926 -20.0924 -20.0921
   -20.0878 -20.0874 -20.0873 -20.0870 -20.0868 -20.0866 -20.0864 -20.0861
   -20.0846 -20.0841 -20.0840 -20.0835 -20.0833 -20.0829 -20.0828 -20.0824
   -20.0734 -20.0731 -20.0730 -20.0727 -20.0725 -20.0721 -20.0720 -20.0717
   -20.0519 -20.0513 -20.0513 -20.0502 -20.0499 -20.0495 -20.0493 -20.0483
   -20.0482 -20.0475 -20.0472 -20.0468 -20.0460 -20.0448 -20.0448 -20.0441
    -9.5936  -9.3715  -9.3011  -9.1667  -9.0732  -8.9573  -8.7883  -8.7313
    -8.6907  -8.6802  -8.6142  -8.5543  -8.1316  -8.0467  -8.0232  -7.9542
    -7.8332  -7.8096  -7.7835  -7.7663  -7.7483  -7.7099  -7.6898  -7.6193
     1.6795   1.6940   1.7723   1.7916   1.8810   1.8911   1.9679   2.0034
     2.3941   2.4743   2.5821   2.6905   2.8581   2.9378   2.9768   3.0552
     3.0919   3.2204   3.8819   3.9670   3.9894   4.0360   4.2592   4.2691
     4.3488   4.4914   4.5545   4.6538   4.6986   4.7777   4.8812   4.9217
     5.0327   5.0532   5.1205   5.2331   5.3393   5.3747   5.4626   5.6916
     5.7299   5.7522   5.8638   5.8908   5.9339   5.9615   6.1647   6.2187
     6.4742   6.5879   6.6386   6.7106   6.7530   6.7898   6.8169   6.8985
     6.9254   6.9573   7.0149   7.0580   7.1924   7.2326   7.2463   7.3490
     7.4275   7.4669   7.8380   7.8446   7.9605   7.9872   8.0998   8.1118
    10.5550  10.5751  10.7622  10.8461  11.1377  11.2626  12.0328  12.1285
    12.2492  12.5113  12.5593  12.6327  12.6553  12.6717  12.8369  12.9261
    12.9615  13.1612  13.2229  13.3981  13.6645  13.6933  13.9627  13.9844
    14.8411  14.9845  15.3171  15.6023  15.8764  15.9300  16.0572  16.2862
    16.6065  17.1759  17.2929  17.5553  17.6052

          k = 0.1667 0.1588-0.5000 ( 61948 PWs)   bands (ev):

   -65.9512 -65.9512 -65.9508 -65.9508 -65.9503 -65.9503 -65.9499 -65.9499
   -30.3856 -30.3856 -30.3791 -30.3791 -30.3441 -30.3441 -30.3301 -30.3301
   -30.3022 -30.3022 -30.2743 -30.2743 -30.2668 -30.2668 -30.2599 -30.2599
   -30.2359 -30.2359 -30.2247 -30.2247 -30.2163 -30.2163 -30.1819 -30.1819
   -20.0993 -20.0993 -20.0991 -20.0991 -20.0991 -20.0991 -20.0989 -20.0989
   -20.0967 -20.0967 -20.0964 -20.0964 -20.0927 -20.0927 -20.0922 -20.0922
   -20.0876 -20.0876 -20.0870 -20.0870 -20.0867 -20.0867 -20.0863 -20.0863
   -20.0843 -20.0843 -20.0837 -20.0837 -20.0832 -20.0832 -20.0826 -20.0826
   -20.0732 -20.0732 -20.0728 -20.0728 -20.0723 -20.0723 -20.0719 -20.0719
   -20.0516 -20.0516 -20.0504 -20.0504 -20.0492 -20.0492 -20.0488 -20.0488
   -20.0481 -20.0481 -20.0471 -20.0471 -20.0460 -20.0460 -20.0445 -20.0445
    -9.4656  -9.4655  -9.1634  -9.1633  -9.0303  -9.0303  -8.7012  -8.7012
    -8.4757  -8.4757  -8.4178  -8.4177  -8.3657  -8.3657  -8.2892  -8.2892
    -7.8260  -7.8260  -7.7688  -7.7687  -7.7408  -7.7408  -7.6547  -7.6547
     1.6886   1.6886   1.7904   1.7904   1.8948   1.8948   2.0028   2.0029
     2.8824   2.8824   3.1171   3.1171   3.2012   3.2013   3.3242   3.3243
     3.4086   3.4086   3.5228   3.5228   3.6849   3.6850   3.9338   3.9338
     4.0066   4.0067   4.3828   4.3828   4.5955   4.5955   4.8169   4.8169
     5.0275   5.0275   5.1521   5.1522   5.2388   5.2388   5.5659   5.5659
     5.7879   5.7879   5.8378   5.8378   5.9628   5.9628   5.9795   5.9795
     6.5548   6.5548   6.6923   6.6923   6.7407   6.7408   6.8483   6.8483
     6.9955   6.9955   7.0325   7.0325   7.1409   7.1409   7.6149   7.6149
     7.6467   7.6467   7.7552   7.7552   7.7844   7.7845   8.1066   8.1066
    10.5934  10.5934  11.4156  11.4156  11.5334  11.5335  11.7610  11.7610
    11.9886  11.9886  12.6669  12.6670  12.7360  12.7360  12.8530  12.8530
    13.0306  13.0306  13.2968  13.2968  13.4257  13.4257  13.9647  13.9647
    14.9409  14.9410  15.6408  15.6408  16.0142  16.0142  16.1918  16.1918
    16.8343  16.8343  17.7496  17.7496  18.0045

          k = 0.1667 0.3175 0.1667 ( 61942 PWs)   bands (ev):

   -65.9515 -65.9513 -65.9507 -65.9507 -65.9504 -65.9504 -65.9498 -65.9496
   -30.3799 -30.3732 -30.3732 -30.3654 -30.3584 -30.3463 -30.3462 -30.3359
   -30.3107 -30.3014 -30.3012 -30.2994 -30.2686 -30.2679 -30.2653 -30.2653
   -30.2304 -30.2286 -30.2286 -30.2278 -30.1841 -30.1841 -30.1798 -30.1791
   -20.0994 -20.0993 -20.0992 -20.0992 -20.0990 -20.0990 -20.0989 -20.0989
   -20.0960 -20.0956 -20.0956 -20.0953 -20.0937 -20.0933 -20.0933 -20.0928
   -20.0878 -20.0875 -20.0873 -20.0873 -20.0867 -20.0867 -20.0861 -20.0860
   -20.0848 -20.0845 -20.0838 -20.0838 -20.0831 -20.0831 -20.0826 -20.0824
   -20.0735 -20.0734 -20.0729 -20.0729 -20.0722 -20.0722 -20.0717 -20.0716
   -20.0522 -20.0521 -20.0510 -20.0510 -20.0502 -20.0501 -20.0492 -20.0492
   -20.0472 -20.0472 -20.0466 -20.0466 -20.0451 -20.0451 -20.0438 -20.0438
    -9.6326  -9.4780  -9.2257  -9.2240  -9.0433  -9.0409  -8.8083  -8.8042
    -8.7135  -8.5671  -8.5551  -8.5537  -8.1011  -8.0486  -8.0485  -8.0278
    -7.8252  -7.8248  -7.7244  -7.7190  -7.7069  -7.7000  -7.5963  -7.5920
     1.6376   1.6409   1.6967   1.6976   1.7779   1.7786   1.9984   2.0611
     2.4693   2.5861   2.5932   2.7112   2.7281   2.7850   3.0298   3.1177
     3.1913   3.1991   3.7739   3.7760   3.8075   3.8694   4.2038   4.5305
     4.5373   4.5708   4.5886   4.6706   4.6873   4.8502   4.8779   4.9500
     4.9990   5.0294   5.2484   5.2553   5.4868   5.5068   5.5131   5.5516
     5.7474   5.7615   5.8481   5.8542   5.9067   5.9294   6.3264   6.3480
     6.5071   6.5597   6.6284   6.7213   6.8699   6.8859   6.8990   6.9325
     7.0464   7.0515   7.0970   7.1099   7.1933   7.1957   7.2319   7.2525
     7.4141   7.4331   7.8431   7.8682   7.9028   7.9205   7.9282   7.9408
    10.1854  10.2057  10.9774  11.0079  11.0367  11.1015  12.0390  12.0768
    12.1603  12.2331  12.4016  12.4098  12.5585  12.5602  12.9317  12.9888
    13.2497  13.3123  13.3988  13.4701  13.7132  13.7295  13.7967  13.8538
    15.2270  15.5354  15.5686  15.6662  15.7076  15.9038  16.2788  16.2816
    16.3599  16.9605  17.4280  17.5021  17.5455

          k = 0.1667 0.3175 0.3333 ( 61930 PWs)   bands (ev):

   -65.9513 -65.9511 -65.9508 -65.9506 -65.9505 -65.9502 -65.9500 -65.9497
   -30.3780 -30.3743 -30.3708 -30.3666 -30.3547 -30.3480 -30.3431 -30.3375
   -30.3060 -30.3022 -30.2910 -30.2878 -30.2687 -30.2652 -30.2523 -30.2479
   -30.2456 -30.2442 -30.2308 -30.2261 -30.2015 -30.1962 -30.1832 -30.1806
   -20.0993 -20.0992 -20.0992 -20.0991 -20.0991 -20.0990 -20.0990 -20.0989
   -20.0959 -20.0957 -20.0956 -20.0954 -20.0936 -20.0934 -20.0932 -20.0929
   -20.0877 -20.0874 -20.0873 -20.0870 -20.0869 -20.0866 -20.0863 -20.0862
   -20.0846 -20.0842 -20.0840 -20.0835 -20.0834 -20.0830 -20.0828 -20.0826
   -20.0734 -20.0732 -20.0730 -20.0726 -20.0725 -20.0721 -20.0720 -20.0718
   -20.0519 -20.0513 -20.0513 -20.0502 -20.0499 -20.0495 -20.0493 -20.0483
   -20.0482 -20.0475 -20.0472 -20.0468 -20.0460 -20.0448 -20.0448 -20.0441
    -9.5055  -9.3385  -9.2785  -9.0954  -9.0326  -8.8102  -8.7497  -8.7009
    -8.6771  -8.5690  -8.5325  -8.4834  -8.1725  -8.1352  -8.0669  -8.0459
    -8.0345  -7.9836  -7.9665  -7.8903  -7.7904  -7.7186  -7.6931  -7.6203
     1.7086   1.7274   1.7913   1.8140   2.3054   2.3916   2.4058   2.5048
     2.5680   2.6154   2.6288   2.8176   2.9810   3.0461   3.0903   3.1783
     3.3212   3.4031   3.7467   3.7772   3.8354   3.9149   4.0000   4.0774
     4.1798   4.3828   4.4928   4.5178   4.5503   4.6477   4.6536   4.7829
     4.8701   4.9184   4.9577   4.9896   5.0536   5.1254   5.2543   5.2774
     5.4359   5.4644   5.5517   5.7202   5.8718   5.9235   6.1942   6.2194
     6.6393   6.6840   6.7389   6.8073   6.8826   6.9474   7.0177   7.0619
     7.0958   7.1136   7.1297   7.1815   7.2287   7.2585   7.3013   7.3613
     7.4316   7.4740   7.7920   7.8244   7.8492   7.8713   7.9089   7.9300
    10.7307  10.7823  11.0262  11.0623  11.4455  11.5255  11.9920  12.0633
    12.1517  12.2513  12.3461  12.3966  12.5938  12.7123  12.7658  12.7812
    12.9825  13.1238  13.2263  13.4040  13.4357  13.5069  13.7544  13.7893
    15.4214  15.5408  15.8277  16.0764  16.1014  16.1305  16.2239  16.7817
    16.8380  16.9488  17.0911  17.6390  17.7406

          k = 0.1667 0.3175-0.5000 ( 61952 PWs)   bands (ev):

   -65.9511 -65.9511 -65.9509 -65.9508 -65.9502 -65.9502 -65.9500 -65.9500
   -30.3760 -30.3760 -30.3685 -30.3685 -30.3509 -30.3508 -30.3399 -30.3399
   -30.3037 -30.3037 -30.2756 -30.2756 -30.2674 -30.2674 -30.2601 -30.2601
   -30.2362 -30.2362 -30.2248 -30.2248 -30.2164 -30.2163 -30.1820 -30.1820
   -20.0993 -20.0993 -20.0992 -20.0991 -20.0990 -20.0990 -20.0990 -20.0990
   -20.0958 -20.0958 -20.0955 -20.0955 -20.0935 -20.0935 -20.0931 -20.0931
   -20.0875 -20.0875 -20.0871 -20.0871 -20.0866 -20.0866 -20.0864 -20.0864
   -20.0843 -20.0843 -20.0838 -20.0838 -20.0832 -20.0831 -20.0828 -20.0828
   -20.0732 -20.0732 -20.0728 -20.0728 -20.0723 -20.0723 -20.0720 -20.0719
   -20.0516 -20.0516 -20.0504 -20.0504 -20.0492 -20.0492 -20.0488 -20.0488
   -20.0481 -20.0481 -20.0471 -20.0471 -20.0460 -20.0460 -20.0445 -20.0445
    -9.3731  -9.3731  -9.1933  -9.1933  -8.8424  -8.8424  -8.6015  -8.6015
    -8.4860  -8.4860  -8.4412  -8.4411  -8.3532  -8.3531  -8.2785  -8.2784
    -8.0409  -8.0409  -8.0029  -8.0029  -7.7564  -7.7564  -7.6562  -7.6562
     1.7244   1.7244   1.8135   1.8135   2.4685   2.4685   2.5897   2.5897
     3.0723   3.0723   3.1676   3.1677   3.2097   3.2098   3.3748   3.3748
     3.4172   3.4173   3.5510   3.5510   3.6650   3.6650   3.8240   3.8240
     4.1086   4.1086   4.1841   4.1841   4.2888   4.2888   4.4735   4.4735
     4.8472   4.8472   4.9374   4.9374   5.1057   5.1057   5.1617   5.1617
     5.2665   5.2665   5.6253   5.6253   5.9605   5.9605   5.9867   5.9867
     6.7234   6.7234   6.8661   6.8661   6.9210   6.9210   6.9689   6.9689
     7.1192   7.1192   7.1711   7.1711   7.2614   7.2614   7.6001   7.6002
     7.6253   7.6253   7.6896   7.6896   7.7241   7.7241   7.9155   7.9155
    11.0009  11.0009  11.4358  11.4358  11.5386  11.5386  11.8998  11.8998
    12.1620  12.1620  12.3492  12.3492  12.6727  12.6727  12.7459  12.7459
    12.9417  12.9418  13.0737  13.0737  13.3823  13.3823  13.7565  13.7566
    15.4973  15.4973  16.0297  16.0297  16.4641  16.4641  16.5898  16.5898
    16.9606  16.9607  17.4088  17.4089  17.9351

          k = 0.1667-0.4763 0.1667 ( 61942 PWs)   bands (ev):

   -65.9514 -65.9514 -65.9506 -65.9506 -65.9505 -65.9505 -65.9497 -65.9497
   -30.3684 -30.3684 -30.3644 -30.3644 -30.3536 -30.3536 -30.3506 -30.3506
   -30.3060 -30.3060 -30.3024 -30.3024 -30.2683 -30.2683 -30.2654 -30.2654
   -30.2292 -30.2292 -30.2287 -30.2287 -30.1841 -30.1841 -30.1794 -30.1794
   -20.0993 -20.0993 -20.0992 -20.0992 -20.0990 -20.0990 -20.0989 -20.0989
   -20.0948 -20.0948 -20.0946 -20.0946 -20.0943 -20.0943 -20.0940 -20.0940
   -20.0877 -20.0877 -20.0873 -20.0873 -20.0867 -20.0867 -20.0861 -20.0860
   -20.0847 -20.0847 -20.0839 -20.0838 -20.0831 -20.0831 -20.0825 -20.0825
   -20.0735 -20.0735 -20.0729 -20.0729 -20.0722 -20.0722 -20.0717 -20.0717
   -20.0522 -20.0521 -20.0510 -20.0510 -20.0502 -20.0501 -20.0492 -20.0492
   -20.0472 -20.0472 -20.0466 -20.0466 -20.0451 -20.0451 -20.0438 -20.0438
    -9.5445  -9.5445  -9.1689  -9.1689  -9.0602  -9.0602  -8.8055  -8.8055
    -8.4113  -8.4112  -8.3446  -8.3446  -8.3332  -8.3332  -8.3256  -8.3256
    -7.8271  -7.8271  -7.7222  -7.7222  -7.7048  -7.7048  -7.5945  -7.5945
     1.6392   1.6392   1.6995   1.6995   1.7810   1.7810   2.0490   2.0490
     2.7315   2.7315   3.1361   3.1361   3.2611   3.2611   3.3486   3.3486
     3.4144   3.4144   3.5260   3.5260   3.6302   3.6302   3.7658   3.7658
     3.8665   3.8665   4.5750   4.5751   4.6371   4.6371   5.0487   5.0487
     5.1148   5.1149   5.2151   5.2152   5.2724   5.2725   5.5575   5.5575
     5.6056   5.6056   5.8518   5.8518   5.8926   5.8926   6.3495   6.3495
     6.5919   6.5919   6.6425   6.6425   6.8846   6.8846   6.9429   6.9429
     7.0665   7.0665   7.1628   7.1628   7.3567   7.3567   7.5107   7.5107
     7.5854   7.5854   7.6061   7.6061   7.6640   7.6640   7.8954   7.8954
    10.2017  10.2017  11.4833  11.4833  11.5543  11.5543  11.6185  11.6185
    11.7045  11.7045  12.4016  12.4016  12.5557  12.5557  12.9813  12.9814
    13.4371  13.4371  13.4692  13.4692  13.5023  13.5023  13.6899  13.6899
    15.6263  15.6263  15.8035  15.8035  15.9824  15.9824  16.1084  16.1084
    16.7711  16.7711  17.9511  17.9512  18.0088

          k = 0.1667-0.4763 0.3333 ( 61950 PWs)   bands (ev):

   -65.9512 -65.9512 -65.9507 -65.9507 -65.9504 -65.9503 -65.9499 -65.9499
   -30.3676 -30.3653 -30.3636 -30.3600 -30.3556 -30.3532 -30.3524 -30.3513
   -30.3055 -30.3033 -30.2929 -30.2885 -30.2688 -30.2652 -30.2524 -30.2480
   -30.2456 -30.2444 -30.2310 -30.2262 -30.2015 -30.1962 -30.1832 -30.1806
   -20.0993 -20.0993 -20.0992 -20.0991 -20.0991 -20.0990 -20.0989 -20.0989
   -20.0948 -20.0947 -20.0946 -20.0945 -20.0944 -20.0943 -20.0942 -20.0941
   -20.0876 -20.0874 -20.0874 -20.0870 -20.0869 -20.0866 -20.0863 -20.0862
   -20.0845 -20.0843 -20.0840 -20.0835 -20.0834 -20.0830 -20.0828 -20.0826
   -20.0733 -20.0732 -20.0730 -20.0726 -20.0725 -20.0721 -20.0719 -20.0718
   -20.0519 -20.0513 -20.0513 -20.0502 -20.0499 -20.0495 -20.0493 -20.0483
   -20.0482 -20.0475 -20.0472 -20.0468 -20.0460 -20.0448 -20.0448 -20.0441
    -9.4269  -9.3910  -9.2190  -9.1188  -8.9378  -8.8406  -8.6985  -8.6711
    -8.4548  -8.4463  -8.3660  -8.3547  -8.3270  -8.3230  -8.3111  -8.2963
    -8.0976  -8.0020  -7.9969  -7.9097  -7.7915  -7.7194  -7.6938  -7.6208
     1.7115   1.7299   1.7943   1.8163   2.3570   2.4288   2.5339   2.5994
     2.9943   2.9973   3.1405   3.1640   3.2808   3.3159   3.3415   3.3547
     3.4062   3.4214   3.5495   3.6031   3.6499   3.7396   3.8101   3.8580
     3.9081   3.9153   4.0136   4.0843   4.5048   4.5445   4.7139   4.7263
     4.7782   4.8219   4.9120   4.9705   5.0669   5.1177   5.1461   5.1908
     5.2585   5.3272   5.4599   5.5413   5.8712   5.9018   6.2007   6.2215
     6.7089   6.7313   6.7504   6.8162   6.8999   7.0046   7.1040   7.1521
     7.1640   7.2217   7.2368   7.2810   7.3143   7.3305   7.4855   7.5411
     7.5520   7.5778   7.5968   7.6189   7.6502   7.6628   7.8556   7.8585
    10.7559  10.7986  11.4958  11.5437  11.6077  11.6575  11.8639  11.9172
    11.9616  12.0030  12.0778  12.1860  12.5792  12.7093  12.8283  12.8591
    13.0120  13.0623  13.1993  13.2749  13.4760  13.5064  13.5694  13.6197
    15.6835  15.8216  15.8988  16.0337  16.2968  16.4140  16.6861  16.7804
    16.9438  16.9636  17.5020  17.5483  17.8859

          k = 0.1667-0.4763-0.5000 ( 61888 PWs)   bands (ev):

   -65.9510 -65.9510 -65.9510 -65.9510 -65.9501 -65.9501 -65.9501 -65.9501
   -30.3664 -30.3664 -30.3590 -30.3590 -30.3557 -30.3557 -30.3522 -30.3522
   -30.3045 -30.3045 -30.2761 -30.2761 -30.2677 -30.2677 -30.2602 -30.2602
   -30.2364 -30.2364 -30.2249 -30.2248 -30.2164 -30.2164 -30.1820 -30.1820
   -20.0993 -20.0993 -20.0992 -20.0992 -20.0990 -20.0990 -20.0990 -20.0990
   -20.0947 -20.0947 -20.0946 -20.0946 -20.0943 -20.0943 -20.0942 -20.0942
   -20.0875 -20.0875 -20.0871 -20.0871 -20.0866 -20.0866 -20.0864 -20.0864
   -20.0843 -20.0843 -20.0839 -20.0839 -20.0831 -20.0831 -20.0828 -20.0828
   -20.0732 -20.0732 -20.0728 -20.0728 -20.0723 -20.0723 -20.0720 -20.0719
   -20.0516 -20.0516 -20.0504 -20.0504 -20.0492 -20.0492 -20.0488 -20.0488
   -20.0481 -20.0481 -20.0471 -20.0471 -20.0460 -20.0460 -20.0445 -20.0445
    -9.3058  -9.3058  -9.2284  -9.2284  -8.6408  -8.6407  -8.5790  -8.5789
    -8.4923  -8.4923  -8.4559  -8.4558  -8.2993  -8.2993  -8.2568  -8.2568
    -8.2367  -8.2367  -8.1779  -8.1778  -7.7575  -7.7575  -7.6568  -7.6568
     1.7276   1.7276   1.8168   1.8168   3.0257   3.0257   3.1331   3.1331
     3.2100   3.2101   3.2353   3.2353   3.2944   3.2945   3.3651   3.3651
     3.4503   3.4503   3.5359   3.5359   3.5795   3.5795   3.6795   3.6795
     3.7398   3.7398   3.9084   3.9085   4.3898   4.3898   4.4378   4.4378
     4.4820   4.4820   4.5620   4.5620   4.9929   4.9930   5.1681   5.1681
     5.2598   5.2599   5.4269   5.4270   5.9586   5.9586   5.9846   5.9846
     6.7757   6.7757   6.9021   6.9021   6.9450   6.9450   7.0152   7.0152
     7.3390   7.3390   7.3629   7.3630   7.4402   7.4402   7.5276   7.5276
     7.5694   7.5695   7.6251   7.6251   7.6853   7.6853   7.7212   7.7213
    11.3708  11.3708  11.4611  11.4611  11.5978  11.5978  11.7002  11.7002
    12.3432  12.3432  12.4010  12.4010  12.4738  12.4738  12.5238  12.5238
    12.8937  12.8937  12.9952  12.9952  13.4944  13.4944  13.5446  13.5446
    15.7966  15.7966  15.9417  15.9417  16.9593  16.9594  17.0534  17.0534
    17.3841  17.3842  17.4526  17.4526  17.5541

          k = 0.3333 0.0000 0.3333 ( 61968 PWs)   bands (ev):

   -65.9513 -65.9508 -65.9508 -65.9508 -65.9503 -65.9503 -65.9503 -65.9498
   -30.3895 -30.3861 -30.3859 -30.3825 -30.3409 -30.3336 -30.3333 -30.3252
   -30.2976 -30.2875 -30.2871 -30.2814 -30.2558 -30.2558 -30.2494 -30.2480
   -30.2470 -30.2431 -30.2383 -30.2380 -30.2007 -30.2005 -30.1984 -30.1970
   -20.0993 -20.0992 -20.0992 -20.0992 -20.0991 -20.0990 -20.0990 -20.0989
   -20.0971 -20.0969 -20.0969 -20.0967 -20.0925 -20.0922 -20.0922 -20.0919
   -20.0876 -20.0872 -20.0872 -20.0870 -20.0867 -20.0867 -20.0865 -20.0862
   -20.0843 -20.0838 -20.0837 -20.0837 -20.0831 -20.0831 -20.0830 -20.0826
   -20.0732 -20.0730 -20.0728 -20.0728 -20.0723 -20.0723 -20.0721 -20.0719
   -20.0511 -20.0511 -20.0504 -20.0504 -20.0493 -20.0493 -20.0485 -20.0485
   -20.0480 -20.0480 -20.0475 -20.0475 -20.0459 -20.0459 -20.0452 -20.0451
    -9.5021  -9.2758  -9.2713  -9.1132  -9.0674  -8.8371  -8.8246  -8.6778
    -8.6059  -8.5917  -8.5912  -8.5681  -8.1448  -8.0988  -8.0853  -8.0633
    -7.9978  -7.9850  -7.9121  -7.8862  -7.7100  -7.6845  -7.6845  -7.6596
     1.6198   1.6541   1.6567   1.6889   2.3192   2.3226   2.4015   2.4161
     2.4865   2.4914   2.6572   2.7627   2.9830   3.0458   3.0791   3.1170
     3.3322   3.3648   3.8430   3.9033   4.0165   4.0422   4.1860   4.2073
     4.2372   4.2659   4.3777   4.4576   4.5273   4.5649   4.6751   4.6813
     4.8798   4.9924   5.0849   5.1295   5.1371   5.1828   5.2912   5.5312
     5.5532   5.6066   5.6161   5.7441   5.9843   6.0026   6.0030   6.1718
     6.5441   6.5462   6.5819   6.5860   6.5980   6.6277   6.6538   6.6959
     7.0759   7.2215   7.2653   7.2918   7.3431   7.3829   7.4543   7.4620
     7.4979   7.5688   7.8014   7.8092   7.9721   8.0016   8.0829   8.0862
    10.8795  10.9724  11.0475  11.0737  11.2393  11.4191  12.2002  12.2051
    12.2513  12.2726  12.3265  12.4125  12.6241  12.6470  12.9344  12.9700
    12.9963  13.0665  13.1635  13.2200  13.6688  13.7474  13.7576  13.8578
    14.7105  14.9488  14.9581  15.3925  15.8915  16.3847  16.3938  16.7455
    16.8878  17.1499  17.2877  17.7805  17.7912

          k = 0.3333 0.0000-0.5000 ( 62008 PWs)   bands (ev):

   -65.9510 -65.9510 -65.9506 -65.9506 -65.9505 -65.9505 -65.9501 -65.9501
   -30.3876 -30.3876 -30.3841 -30.3841 -30.3364 -30.3364 -30.3284 -30.3284
   -30.2901 -30.2901 -30.2698 -30.2698 -30.2678 -30.2678 -30.2482 -30.2482
   -30.2454 -30.2454 -30.2242 -30.2241 -30.2204 -30.2204 -30.1993 -30.1993
   -20.0993 -20.0993 -20.0991 -20.0991 -20.0991 -20.0991 -20.0990 -20.0990
   -20.0970 -20.0970 -20.0968 -20.0968 -20.0924 -20.0924 -20.0921 -20.0921
   -20.0874 -20.0874 -20.0870 -20.0869 -20.0868 -20.0868 -20.0864 -20.0864
   -20.0840 -20.0840 -20.0834 -20.0834 -20.0833 -20.0833 -20.0828 -20.0828
   -20.0730 -20.0729 -20.0727 -20.0726 -20.0724 -20.0724 -20.0721 -20.0721
   -20.0508 -20.0507 -20.0500 -20.0500 -20.0492 -20.0492 -20.0485 -20.0485
   -20.0482 -20.0482 -20.0472 -20.0472 -20.0465 -20.0465 -20.0455 -20.0455
    -9.3676  -9.3676  -9.1433  -9.1433  -8.9337  -8.9337  -8.6269  -8.6269
    -8.5064  -8.5063  -8.4021  -8.4021  -8.3632  -8.3632  -8.2905  -8.2904
    -8.0422  -8.0422  -7.9518  -7.9518  -7.6982  -7.6982  -7.6729  -7.6729
     1.6368   1.6368   1.6727   1.6727   2.4190   2.4190   2.4962   2.4962
     3.0036   3.0036   3.1376   3.1376   3.1810   3.1810   3.3411   3.3412
     3.4418   3.4418   3.6778   3.6778   3.8493   3.8494   3.9469   3.9470
     4.0170   4.0170   4.1461   4.1461   4.3302   4.3302   4.5149   4.5149
     4.8151   4.8152   5.0393   5.0393   5.1642   5.1642   5.2488   5.2488
     5.3926   5.3927   5.6360   5.6360   6.0227   6.0227   6.1286   6.1286
     6.4835   6.4835   6.5138   6.5138   6.5769   6.5769   6.6509   6.6509
     7.2413   7.2413   7.3886   7.3887   7.4661   7.4661   7.6340   7.6340
     7.6683   7.6683   7.7859   7.7859   7.8156   7.8156   8.0587   8.0587
    11.0170  11.0170  11.6056  11.6056  11.7121  11.7121  11.7833  11.7833
    12.0363  12.0363  12.3533  12.3533  12.5918  12.5918  12.8223  12.8223
    13.0280  13.0280  13.3587  13.3588  13.3993  13.3993  13.7682  13.7682
    14.8641  14.8641  15.2161  15.2161  16.3451  16.3451  16.7888  16.7888
    17.1196  17.1196  17.5506  17.5507  18.0234

          k = 0.3333 0.1588 0.3333 ( 61963 PWs)   bands (ev):

   -65.9512 -65.9508 -65.9507 -65.9507 -65.9503 -65.9503 -65.9502 -65.9498
   -30.3858 -30.3823 -30.3821 -30.3785 -30.3435 -30.3365 -30.3362 -30.3288
   -30.2970 -30.2881 -30.2877 -30.2832 -30.2560 -30.2560 -30.2492 -30.2480
   -30.2471 -30.2438 -30.2383 -30.2381 -30.2007 -30.2005 -30.1984 -30.1971
   -20.0993 -20.0992 -20.0992 -20.0992 -20.0990 -20.0990 -20.0990 -20.0989
   -20.0967 -20.0966 -20.0965 -20.0964 -20.0928 -20.0925 -20.0925 -20.0922
   -20.0876 -20.0872 -20.0872 -20.0871 -20.0867 -20.0867 -20.0865 -20.0862
   -20.0843 -20.0839 -20.0837 -20.0837 -20.0831 -20.0831 -20.0830 -20.0826
   -20.0732 -20.0730 -20.0728 -20.0728 -20.0723 -20.0723 -20.0721 -20.0719
   -20.0511 -20.0511 -20.0504 -20.0504 -20.0493 -20.0493 -20.0485 -20.0485
   -20.0480 -20.0480 -20.0475 -20.0475 -20.0459 -20.0459 -20.0452 -20.0451
    -9.4592  -9.2225  -9.2172  -9.1257  -8.9950  -8.8448  -8.8323  -8.6493
    -8.6001  -8.5771  -8.5746  -8.5614  -8.1584  -8.0984  -8.0900  -8.0629
    -8.0006  -7.9885  -7.9147  -7.8875  -7.8020  -7.7772  -7.7771  -7.7514
     1.8394   1.8738   1.8760   1.9148   2.3201   2.3234   2.4017   2.4202
     2.4931   2.4972   2.6600   2.7695   3.0557   3.1239   3.1556   3.1632
[...]
    11.1179  11.1179  11.6327  11.6327  11.7593  11.7593  11.8065  11.8065
    12.0757  12.0757  12.3824  12.3824  12.5837  12.5837  12.8202  12.8202
    12.9058  12.9058  13.2388  13.2388  13.2805  13.2805  13.6704  13.6704
    15.2081  15.2081  15.5856  15.5856  16.4260  16.4260  16.7905  16.7906
    17.1248  17.1248  17.5622  17.5622  17.8874

          k = 0.3333 0.3175 0.3333 ( 61905 PWs)   bands (ev):

   -65.9512 -65.9509 -65.9507 -65.9507 -65.9504 -65.9504 -65.9502 -65.9499
   -30.3758 -30.3721 -30.3719 -30.3678 -30.3511 -30.3449 -30.3447 -30.3390
   -30.2951 -30.2893 -30.2889 -30.2872 -30.2564 -30.2564 -30.2485 -30.2480
   -30.2473 -30.2452 -30.2385 -30.2384 -30.2007 -30.2006 -30.1981 -30.1974
   -20.0993 -20.0992 -20.0992 -20.0992 -20.0991 -20.0990 -20.0990 -20.0989
   -20.0959 -20.0957 -20.0957 -20.0955 -20.0936 -20.0933 -20.0933 -20.0930
   -20.0875 -20.0872 -20.0871 -20.0871 -20.0868 -20.0867 -20.0865 -20.0863
   -20.0843 -20.0840 -20.0837 -20.0837 -20.0832 -20.0832 -20.0830 -20.0828
   -20.0731 -20.0730 -20.0728 -20.0727 -20.0724 -20.0723 -20.0721 -20.0720
   -20.0511 -20.0511 -20.0504 -20.0504 -20.0493 -20.0493 -20.0485 -20.0485
   -20.0480 -20.0480 -20.0475 -20.0475 -20.0459 -20.0459 -20.0452 -20.0451
    -9.3544  -9.1673  -9.0925  -9.0859  -8.8732  -8.8602  -8.7910  -8.5973
    -8.5966  -8.5099  -8.5029  -8.4937  -8.2461  -8.1249  -8.1185  -8.0714
    -8.0528  -8.0302  -8.0146  -7.9661  -7.9504  -7.9447  -7.8897  -7.8865
     2.2887   2.2917   2.3251   2.3509   2.3998   2.4251   2.4336   2.5159
     2.6268   2.6442   2.6651   2.8554   3.2361   3.2742   3.3252   3.3692
     3.4030   3.4349   3.7539   3.7765   3.8576   3.9515   4.0838   4.1456
     4.1822   4.2640   4.2791   4.3690   4.4183   4.4713   4.5019   4.5976
     4.6071   4.6851   4.7242   4.7984   4.8611   4.9139   4.9542   5.0122
     5.0527   5.0849   5.2534   5.3551   5.4186   5.4582   5.6237   5.6285
     6.8497   6.8819   6.9306   6.9677   7.0286   7.0743   7.1162   7.1275
     7.1864   7.2406   7.2970   7.3063   7.3501   7.3723   7.4488   7.4495
     7.5097   7.5515   7.7710   7.7723   7.8256   7.8458   7.8582   7.9044
    11.0842  11.1635  11.4027  11.4550  11.4905  11.6613  12.1767  12.1909
    12.2350  12.2764  12.2944  12.3784  12.5160  12.5743  12.7134  12.7479
    12.8429  12.8561  12.9389  13.2009  13.3060  13.3884  13.3996  13.5537
    15.8469  16.0244  16.0500  16.2885  16.3774  16.4387  16.7107  16.8933
    16.9351  17.0341  17.2432  17.3234  17.7703

          k = 0.3333 0.3175-0.5000 ( 61938 PWs)   bands (ev):

   -65.9509 -65.9509 -65.9507 -65.9507 -65.9504 -65.9504 -65.9502 -65.9502
   -30.3737 -30.3737 -30.3696 -30.3696 -30.3475 -30.3475 -30.3415 -30.3415
   -30.2906 -30.2905 -30.2718 -30.2718 -30.2685 -30.2685 -30.2492 -30.2492
   -30.2455 -30.2455 -30.2243 -30.2242 -30.2204 -30.2204 -30.1993 -30.1993
   -20.0992 -20.0992 -20.0991 -20.0991 -20.0991 -20.0991 -20.0990 -20.0990
   -20.0958 -20.0958 -20.0956 -20.0956 -20.0934 -20.0934 -20.0932 -20.0932
   -20.0873 -20.0873 -20.0870 -20.0870 -20.0868 -20.0868 -20.0866 -20.0866
   -20.0840 -20.0840 -20.0836 -20.0836 -20.0833 -20.0833 -20.0830 -20.0830
   -20.0729 -20.0729 -20.0727 -20.0727 -20.0724 -20.0724 -20.0722 -20.0722
   -20.0508 -20.0507 -20.0500 -20.0500 -20.0492 -20.0492 -20.0485 -20.0485
   -20.0482 -20.0482 -20.0472 -20.0472 -20.0465 -20.0465 -20.0455 -20.0455
    -9.1963  -9.1963  -8.9825  -8.9825  -8.8947  -8.8946  -8.5565  -8.5565
    -8.5146  -8.5146  -8.4076  -8.4076  -8.3380  -8.3380  -8.2856  -8.2855
    -8.0645  -8.0644  -8.0302  -8.0302  -7.9955  -7.9955  -7.9243  -7.9243
     2.3329   2.3329   2.4316   2.4316   2.4994   2.4994   2.6223   2.6223
     3.1409   3.1409   3.2088   3.2089   3.2912   3.2913   3.3940   3.3940
     3.4786   3.4786   3.7206   3.7206   3.8366   3.8366   3.9395   3.9396
     4.0737   4.0737   4.2031   4.2031   4.2537   4.2537   4.3702   4.3702
     4.4603   4.4604   4.6130   4.6130   4.7399   4.7399   4.9666   4.9666
     5.0615   5.0615   5.1432   5.1432   5.2010   5.2011   5.4233   5.4233
     6.9085   6.9086   6.9962   6.9962   7.0558   7.0558   7.1282   7.1282
     7.2841   7.2841   7.3778   7.3779   7.4671   7.4671   7.6033   7.6034
     7.6385   7.6385   7.7063   7.7063   7.7364   7.7364   7.8668   7.8668
    11.3951  11.3951  11.6836  11.6836  11.7930  11.7930  11.9771  11.9771
    12.2184  12.2184  12.4416  12.4416  12.5101  12.5101  12.5742  12.5742
    12.8524  12.8524  12.9656  12.9656  13.0346  13.0346  13.4190  13.4191
    16.0004  16.0004  16.4703  16.4704  16.6702  16.6702  16.8027  16.8027
    17.1567  17.1567  17.4641  17.4641  17.7414

          k = 0.3333-0.4763 0.3333 ( 61922 PWs)   bands (ev):

   -65.9510 -65.9510 -65.9506 -65.9505 -65.9505 -65.9505 -65.9500 -65.9500
   -30.3630 -30.3630 -30.3608 -30.3608 -30.3551 -30.3551 -30.3532 -30.3532
   -30.2920 -30.2920 -30.2894 -30.2894 -30.2566 -30.2566 -30.2479 -30.2479
   -30.2468 -30.2468 -30.2385 -30.2385 -30.2007 -30.2007 -30.1978 -30.1978
   -20.0992 -20.0992 -20.0991 -20.0991 -20.0991 -20.0991 -20.0990 -20.0990
   -20.0947 -20.0947 -20.0945 -20.0945 -20.0944 -20.0944 -20.0942 -20.0942
   -20.0874 -20.0873 -20.0871 -20.0871 -20.0868 -20.0868 -20.0864 -20.0864
   -20.0842 -20.0842 -20.0837 -20.0837 -20.0833 -20.0833 -20.0829 -20.0829
   -20.0731 -20.0731 -20.0728 -20.0727 -20.0724 -20.0724 -20.0720 -20.0720
   -20.0511 -20.0511 -20.0504 -20.0504 -20.0493 -20.0493 -20.0485 -20.0485
   -20.0480 -20.0480 -20.0475 -20.0475 -20.0459 -20.0459 -20.0452 -20.0452
    -9.2440  -9.2440  -8.9922  -8.9922  -8.9058  -8.9058  -8.5983  -8.5983
    -8.4974  -8.4974  -8.3396  -8.3395  -8.3176  -8.3176  -8.3062  -8.3061
    -8.0751  -8.0751  -8.0286  -8.0286  -7.9744  -7.9744  -7.8929  -7.8929
     2.3118   2.3118   2.3753   2.3753   2.4518   2.4518   2.6370   2.6370
     3.1750   3.1750   3.2183   3.2184   3.3284   3.3284   3.3743   3.3743
     3.4249   3.4249   3.6881   3.6881   3.7965   3.7965   3.8346   3.8346
     3.9189   3.9189   4.1786   4.1786   4.3053   4.3053   4.5112   4.5112
     4.6483   4.6483   4.7367   4.7368   4.8247   4.8247   4.8963   4.8963
     5.0047   5.0048   5.0927   5.0927   5.1264   5.1265   5.6160   5.6160
     6.9649   6.9649   7.1014   7.1014   7.1770   7.1770   7.2269   7.2270
     7.3096   7.3096   7.3433   7.3433   7.3906   7.3906   7.5223   7.5223
     7.5541   7.5542   7.6196   7.6196   7.6787   7.6787   7.8265   7.8265
    11.1535  11.1535  11.8030  11.8031  11.8477  11.8477  11.9726  11.9726
    12.0521  12.0521  12.2695  12.2696  12.3959  12.3960  12.7415  12.7415
    12.9699  12.9699  13.0647  13.0647  13.1130  13.1130  13.3541  13.3542
    16.3306  16.3306  16.5024  16.5024  16.6446  16.6447  16.7502  16.7503
    17.0784  17.0784  17.5808  17.5809  17.6649

          k = 0.3333-0.4763-0.5000 ( 61884 PWs)   bands (ev):

   -65.9508 -65.9508 -65.9508 -65.9508 -65.9503 -65.9503 -65.9503 -65.9503
   -30.3619 -30.3619 -30.3584 -30.3584 -30.3565 -30.3565 -30.3542 -30.3542
   -30.2907 -30.2907 -30.2725 -30.2725 -30.2687 -30.2687 -30.2496 -30.2496
   -30.2456 -30.2456 -30.2243 -30.2243 -30.2204 -30.2204 -30.1994 -30.1993
   -20.0992 -20.0992 -20.0991 -20.0991 -20.0991 -20.0990 -20.0990 -20.0990
   -20.0946 -20.0946 -20.0945 -20.0945 -20.0944 -20.0944 -20.0943 -20.0943
   -20.0872 -20.0872 -20.0870 -20.0870 -20.0867 -20.0867 -20.0866 -20.0866
   -20.0839 -20.0839 -20.0837 -20.0837 -20.0833 -20.0833 -20.0831 -20.0831
   -20.0729 -20.0729 -20.0727 -20.0727 -20.0724 -20.0724 -20.0722 -20.0722
   -20.0508 -20.0507 -20.0500 -20.0500 -20.0492 -20.0492 -20.0485 -20.0485
   -20.0482 -20.0482 -20.0472 -20.0472 -20.0465 -20.0465 -20.0455 -20.0455
    -9.0932  -9.0932  -9.0393  -9.0393  -8.7013  -8.7012  -8.6515  -8.6514
    -8.4278  -8.4278  -8.4023  -8.4023  -8.2909  -8.2909  -8.2560  -8.2560
    -8.2389  -8.2388  -8.1835  -8.1834  -8.0287  -8.0287  -7.9385  -7.9385
     2.3885   2.3885   2.4654   2.4654   3.0507   3.0507   3.1209   3.1209
     3.2083   3.2083   3.2535   3.2535   3.3321   3.3321   3.3805   3.3805
     3.5215   3.5215   3.5670   3.5670   3.7198   3.7198   3.8198   3.8198
     3.9229   3.9229   4.0236   4.0236   4.3201   4.3201   4.3851   4.3851
     4.4723   4.4723   4.5120   4.5120   4.5999   4.5999   4.6965   4.6965
     4.7845   4.7845   4.9461   4.9462   5.1865   5.1865   5.2166   5.2166
     7.0364   7.0364   7.1636   7.1636   7.2482   7.2482   7.2834   7.2834
     7.3688   7.3688   7.3989   7.3989   7.4914   7.4914   7.5145   7.5145
     7.5792   7.5792   7.6502   7.6502   7.7017   7.7018   7.7454   7.7455
    11.6213  11.6213  11.6844  11.6844  11.9180  11.9180  12.0186  12.0186
    12.3160  12.3160  12.3906  12.3906  12.4565  12.4565  12.5183  12.5183
    12.6673  12.6673  12.7770  12.7770  13.1073  13.1073  13.1861  13.1861
    16.5135  16.5135  16.6197  16.6197  17.1076  17.1076  17.1804  17.1804
    17.3820  17.3820  17.4597  17.4598  17.5547

          k =-0.5000 0.0000-0.5000 ( 62068 PWs)   bands (ev):

   -65.9508 -65.9508 -65.9508 -65.9508 -65.9503 -65.9503 -65.9503 -65.9503
   -30.3859 -30.3859 -30.3857 -30.3857 -30.3318 -30.3318 -30.3314 -30.3314
   -30.2741 -30.2741 -30.2741 -30.2741 -30.2643 -30.2643 -30.2637 -30.2637
   -30.2237 -30.2237 -30.2233 -30.2233 -30.2222 -30.2222 -30.2219 -30.2219
   -20.0992 -20.0992 -20.0992 -20.0992 -20.0991 -20.0991 -20.0990 -20.0990
   -20.0969 -20.0969 -20.0969 -20.0969 -20.0922 -20.0922 -20.0922 -20.0922
   -20.0872 -20.0872 -20.0871 -20.0871 -20.0867 -20.0867 -20.0866 -20.0866
   -20.0837 -20.0837 -20.0836 -20.0836 -20.0831 -20.0831 -20.0831 -20.0831
   -20.0727 -20.0727 -20.0726 -20.0726 -20.0725 -20.0725 -20.0724 -20.0724
   -20.0497 -20.0496 -20.0496 -20.0496 -20.0495 -20.0495 -20.0495 -20.0495
   -20.0470 -20.0470 -20.0470 -20.0470 -20.0469 -20.0469 -20.0469 -20.0468
    -9.2333  -9.2333  -9.2275  -9.2275  -8.6727  -8.6727  -8.6365  -8.6364
    -8.4913  -8.4913  -8.4440  -8.4439  -8.2838  -8.2838  -8.2624  -8.2623
    -8.2436  -8.2436  -8.2108  -8.2108  -7.6866  -7.6866  -7.6862  -7.6862
     1.6530   1.6530   1.6568   1.6568   3.0261   3.0261   3.0424   3.0425
     3.1918   3.1918   3.2015   3.2015   3.2626   3.2626   3.3117   3.3118
     3.4942   3.4942   3.5026   3.5026   3.7942   3.7942   3.8858   3.8858
     3.9050   3.9050   4.0304   4.0305   4.3296   4.3296   4.3594   4.3594
     4.4243   4.4243   4.4831   4.4831   5.0406   5.0407   5.0635   5.0636
     5.4768   5.4768   5.5037   5.5037   6.1135   6.1135   6.1145   6.1145
     6.4868   6.4869   6.4872   6.4872   6.5143   6.5143   6.5359   6.5359
     7.5318   7.5318   7.5452   7.5452   7.5678   7.5679   7.6290   7.6291
     7.7080   7.7080   7.7328   7.7328   7.8560   7.8560   7.9350   7.9350
    11.6051  11.6052  11.6699  11.6699  11.7686  11.7686  11.8175  11.8175
    12.1662  12.1662  12.1948  12.1948  12.3703  12.3703  12.3889  12.3889
    13.2433  13.2433  13.3036  13.3037  13.4251  13.4251  13.4806  13.4806
    15.0763  15.0763  15.0800  15.0800  16.7695  16.7695  16.8638  16.8638
    17.7071  17.7071  17.7251  17.7251  17.8696

          k =-0.5000 0.1588-0.5000 ( 62008 PWs)   bands (ev):

   -65.9508 -65.9507 -65.9507 -65.9507 -65.9504 -65.9503 -65.9503 -65.9503
   -30.3820 -30.3820 -30.3818 -30.3818 -30.3350 -30.3350 -30.3346 -30.3346
   -30.2737 -30.2737 -30.2737 -30.2737 -30.2653 -30.2653 -30.2648 -30.2648
   -30.2236 -30.2236 -30.2232 -30.2232 -30.2223 -30.2223 -30.2220 -30.2220
   -20.0992 -20.0992 -20.0992 -20.0992 -20.0991 -20.0991 -20.0990 -20.0990
   -20.0966 -20.0966 -20.0965 -20.0965 -20.0925 -20.0925 -20.0925 -20.0925
   -20.0872 -20.0871 -20.0871 -20.0871 -20.0867 -20.0867 -20.0867 -20.0866
   -20.0837 -20.0837 -20.0836 -20.0836 -20.0832 -20.0832 -20.0832 -20.0832
   -20.0727 -20.0727 -20.0726 -20.0726 -20.0725 -20.0725 -20.0724 -20.0724
   -20.0497 -20.0496 -20.0496 -20.0496 -20.0495 -20.0495 -20.0495 -20.0495
   -20.0470 -20.0470 -20.0470 -20.0470 -20.0469 -20.0469 -20.0469 -20.0469
    -9.1725  -9.1725  -9.1657  -9.1657  -8.6852  -8.6851  -8.6505  -8.6504
    -8.4771  -8.4771  -8.4295  -8.4294  -8.2825  -8.2825  -8.2636  -8.2635
    -8.2440  -8.2440  -8.2109  -8.2109  -7.7815  -7.7814  -7.7807  -7.7806
     1.8798   1.8798   1.8836   1.8836   3.0424   3.0424   3.0632   3.0632
     3.1976   3.1977   3.2038   3.2038   3.2864   3.2864   3.3392   3.3392
     3.4871   3.4872   3.4961   3.4961   3.8384   3.8385   3.9256   3.9257
     3.9503   3.9504   4.0736   4.0736   4.3098   4.3098   4.3386   4.3387
     4.4241   4.4241   4.4831   4.4832   4.8248   4.8248   4.8448   4.8448
     5.2390   5.2390   5.2568   5.2568   5.8512   5.8512   5.8530   5.8530
     6.6428   6.6428   6.6802   6.6802   6.7144   6.7145   6.7370   6.7370
     7.5293   7.5293   7.5413   7.5414   7.5613   7.5613   7.6256   7.6256
     7.6992   7.6992   7.7144   7.7145   7.8383   7.8383   7.8995   7.8995
    11.6659  11.6659  11.7304  11.7304  11.8229  11.8229  11.8767  11.8767
    12.1674  12.1674  12.1938  12.1938  12.3898  12.3898  12.4057  12.4057
    13.1154  13.1154  13.1709  13.1709  13.3113  13.3113  13.3606  13.3606
    15.4463  15.4463  15.4508  15.4508  16.8336  16.8336  16.9214  16.9214
    17.6500  17.6500  17.6958  17.6958  17.8742

          k =-0.5000 0.3175-0.5000 ( 61924 PWs)   bands (ev):

   -65.9507 -65.9507 -65.9507 -65.9506 -65.9504 -65.9504 -65.9504 -65.9504
   -30.3715 -30.3715 -30.3713 -30.3713 -30.3442 -30.3442 -30.3439 -30.3439
   -30.2725 -30.2724 -30.2724 -30.2724 -30.2678 -30.2678 -30.2674 -30.2674
   -30.2233 -30.2233 -30.2231 -30.2231 -30.2225 -30.2225 -30.2224 -30.2224
   -20.0992 -20.0992 -20.0991 -20.0991 -20.0991 -20.0991 -20.0991 -20.0991
   -20.0957 -20.0957 -20.0957 -20.0957 -20.0933 -20.0933 -20.0933 -20.0933
   -20.0871 -20.0870 -20.0870 -20.0870 -20.0868 -20.0868 -20.0868 -20.0868
   -20.0837 -20.0836 -20.0836 -20.0836 -20.0834 -20.0833 -20.0833 -20.0833
   -20.0726 -20.0726 -20.0726 -20.0726 -20.0725 -20.0725 -20.0725 -20.0725
   -20.0497 -20.0496 -20.0496 -20.0496 -20.0495 -20.0495 -20.0495 -20.0495
   -20.0470 -20.0470 -20.0470 -20.0470 -20.0469 -20.0469 -20.0469 -20.0469
    -9.0148  -9.0148  -9.0037  -9.0037  -8.7307  -8.7307  -8.7015  -8.7015
    -8.4252  -8.4252  -8.3755  -8.3755  -8.2791  -8.2791  -8.2666  -8.2666
    -8.2487  -8.2487  -8.2093  -8.2093  -8.0099  -8.0099  -8.0048  -8.0048
     2.4794   2.4794   2.4829   2.4829   3.0767   3.0767   3.1057   3.1057
     3.2022   3.2022   3.2023   3.2023   3.3503   3.3503   3.4181   3.4181
     3.4580   3.4581   3.4742   3.4743   3.9640   3.9640   4.0264   4.0264
     4.0694   4.0694   4.0990   4.0990   4.1972   4.1972   4.2541   4.2541
     4.4171   4.4171   4.4871   4.4872   4.5166   4.5166   4.5290   4.5290
     4.8346   4.8346   4.8352   4.8352   5.1694   5.1694   5.1788   5.1788
     6.9613   6.9613   7.0146   7.0147   7.0808   7.0808   7.1272   7.1272
     7.4961   7.4961   7.5086   7.5086   7.5326   7.5327   7.6020   7.6020
     7.6735   7.6735   7.6766   7.6766   7.7697   7.7697   7.8049   7.8049
    11.8385  11.8386  11.8802  11.8802  11.9701  11.9701  12.0107  12.0107
    12.1885  12.1885  12.2088  12.2088  12.4677  12.4677  12.4777  12.4777
    12.7996  12.7996  12.8453  12.8453  13.0220  13.0220  13.0554  13.0554
    16.3544  16.3544  16.3583  16.3583  17.0136  17.0137  17.0759  17.0759
    17.4749  17.4749  17.5861  17.5862  17.8890

          k =-0.5000-0.4763-0.5000 ( 61936 PWs)   bands (ev):

   -65.9506 -65.9506 -65.9506 -65.9505 -65.9505 -65.9505 -65.9505 -65.9505
   -30.3581 -30.3581 -30.3574 -30.3573 -30.3573 -30.3573 -30.3571 -30.3571
   -30.2707 -30.2707 -30.2704 -30.2704 -30.2704 -30.2704 -30.2697 -30.2697
   -30.2229 -30.2229 -30.2229 -30.2228 -30.2228 -30.2228 -30.2228 -30.2228
   -20.0991 -20.0991 -20.0991 -20.0991 -20.0991 -20.0991 -20.0991 -20.0991
   -20.0945 -20.0945 -20.0945 -20.0945 -20.0945 -20.0945 -20.0944 -20.0944
   -20.0869 -20.0869 -20.0869 -20.0869 -20.0869 -20.0869 -20.0869 -20.0869
   -20.0836 -20.0836 -20.0835 -20.0835 -20.0835 -20.0835 -20.0835 -20.0835
   -20.0726 -20.0726 -20.0726 -20.0725 -20.0725 -20.0725 -20.0725 -20.0725
   -20.0497 -20.0496 -20.0496 -20.0496 -20.0495 -20.0495 -20.0495 -20.0495
   -20.0470 -20.0470 -20.0470 -20.0470 -20.0469 -20.0469 -20.0469 -20.0469
    -8.8543  -8.8543  -8.8236  -8.8236  -8.8193  -8.8193  -8.8192  -8.8192
    -8.3389  -8.3389  -8.2808  -8.2808  -8.2784  -8.2784  -8.2784  -8.2784
    -8.2359  -8.2359  -8.2358  -8.2358  -8.1914  -8.1914  -8.1752  -8.1752
     3.0523   3.0523   3.0536   3.0536   3.0536   3.0536   3.0770   3.0770
     3.3190   3.3190   3.3190   3.3190   3.3276   3.3276   3.3319   3.3319
     3.4374   3.4374   3.5818   3.5819   3.5819   3.5819   3.6415   3.6416
     4.2402   4.2402   4.2492   4.2492   4.2784   4.2784   4.2784   4.2784
     4.4696   4.4696   4.4696   4.4696   4.5048   4.5048   4.5345   4.5345
     4.6067   4.6067   4.6107   4.6107   4.6416   4.6417   4.6417   4.6417
     7.1418   7.1418   7.2578   7.2578   7.2578   7.2578   7.3954   7.3955
     7.4571   7.4571   7.4572   7.4572   7.4623   7.4623   7.4809   7.4809
     7.6635   7.6635   7.6876   7.6877   7.6877   7.6877   7.7420   7.7420
    12.0078  12.0079  12.0079  12.0079  12.0089  12.0089  12.0164  12.0164
    12.3200  12.3200  12.3950  12.3950  12.3950  12.3950  12.5574  12.5574
    12.6407  12.6407  12.7220  12.7220  12.7220  12.7220  12.7497  12.7498
    17.1723  17.1723  17.2036  17.2036  17.2037  17.2037  17.2566  17.2566
    17.4541  17.4541  17.4541  17.4542  17.5846

     the Fermi energy is     9.9794 ev

!    total energy              =   -6260.73340063 Ry
     Harris-Foulkes estimate   =   -6260.73340063 Ry
     estimated scf accuracy    <          1.2E-09 Ry

     The total energy is the sum of the following terms:

     one-electron contribution =   -4695.42294688 Ry
     hartree contribution      =    2587.23426192 Ry
     xc contribution           =    -966.23825848 Ry
     ewald contribution        =   -3186.30643642 Ry
     smearing contrib. (-TS)   =      -0.00002077 Ry

     convergence has been achieved in  13 iterations

     Writing output data file Landau_17.save
 
     init_run     :     24.07s CPU     25.20s WALL (       1 calls)
     electrons    :    958.65s CPU    977.81s WALL (       1 calls)

     Called by init_run:
     wfcinit      :     22.18s CPU     23.17s WALL (       1 calls)
     potinit      :      0.69s CPU      0.72s WALL (       1 calls)

     Called by electrons:
     c_bands      :    835.46s CPU    853.15s WALL (      13 calls)
     sum_band     :    115.55s CPU    116.11s WALL (      13 calls)
     v_of_rho     :      2.05s CPU      2.07s WALL (      14 calls)
     mix_rho      :      4.81s CPU      5.32s WALL (      13 calls)

     Called by c_bands:
     init_us_2    :     10.52s CPU     11.02s WALL (      27 calls)
     cegterg      :    721.28s CPU    738.71s WALL (      13 calls)

     Called by sum_band:

     Called by *egterg:
     h_psi        :    568.19s CPU    570.67s WALL (      63 calls)
     g_psi        :      2.32s CPU      2.33s WALL (      49 calls)
     cdiaghg      :      8.96s CPU      8.99s WALL (      62 calls)

     Called by h_psi:
     h_psi:pot    :    564.15s CPU    566.48s WALL (      63 calls)
     h_psi:calbec :     67.15s CPU     68.82s WALL (      63 calls)
     vloc_psi     :    426.43s CPU    426.93s WALL (      63 calls)
     add_vuspsi   :     70.57s CPU     70.73s WALL (      63 calls)

     General routines
     calbec       :     67.15s CPU     68.82s WALL (      63 calls)
     fft          :      1.28s CPU      1.29s WALL (      56 calls)
     fftw         :    415.34s CPU    415.56s WALL (   16881 calls)
 
     Parallel routines
 
     PWSCF        : 16m24.52s CPU    16m52.42s WALL

 
   This run was terminated on:  12:53: 1  17Sep2019            

=------------------------------------------------------------------------------=
   JOB DONE.
=------------------------------------------------------------------------------=
