
     Program PWSCF v.6.2 (svn rev. 14038) starts on 19Mar2020 at 19:29:34 

     This program is part of the open-source Quantum ESPRESSO suite
     for quantum simulation of materials; please cite
         "P. Giannozzi et al., J. Phys.:Condens. Matter 21 395502 (2009);
         "P. Giannozzi et al., J. Phys.:Condens. Matter 29 465901 (2017);
          URL http://www.quantum-espresso.org", 
     in publications or presentations arising from this work. More details at
     http://www.quantum-espresso.org/quote

     Parallel version (MPI), running on    40 processors

     MPI processes distributed on     6 nodes
     K-points division:     npool     =      40
     Reading input from rscf.in

     Current dimensions of program PWSCF are:
     Max number of different atomic species (ntypx) = 10
     Max number of k-points (npk) =  40000
     Max angular momentum in pseudopotentials (lmaxx) =  3

     Subspace diagonalization in iterative solution of the eigenvalue problem:
     a serial algorithm will be used

 
     G-vector sticks info
     --------------------
     sticks:   dense  smooth     PW     G-vecs:    dense   smooth      PW
     Sum        7747    7747   2077               498127   498127   69057
 


     bravais-lattice index     =            0
     lattice parameter (alat)  =      13.8397  a.u.
     unit-cell volume          =    2804.9816 (a.u.)^3
     number of atoms/cell      =           32
     number of atomic types    =            2
     number of electrons       =       368.00
     number of Kohn-Sham states=          221
     kinetic-energy cutoff     =     120.0000  Ry
     charge density cutoff     =     480.0000  Ry
     convergence threshold     =      1.0E-08
     mixing beta               =       0.7000
     number of iterations used =            8  plain     mixing
     Exchange-correlation      = SLA PW NOGX NOGC ( 1  4  0  0 0 0)
     nstep                     =           50


     celldm(1)=  13.839685  celldm(2)=   0.000000  celldm(3)=   0.000000
     celldm(4)=   0.000000  celldm(5)=   0.000000  celldm(6)=   0.000000

     crystal axes: (cart. coord. in units of alat)
               a(1) = (   1.000000   0.000000   0.000000 )  
               a(2) = (   0.000000   1.058160   0.000000 )  
               a(3) = (   0.000000   0.000000   1.000000 )  

     reciprocal axes: (cart. coord. in units 2 pi/alat)
               b(1) = (  1.000000  0.000000  0.000000 )  
               b(2) = (  0.000000  0.945037  0.000000 )  
               b(3) = (  0.000000  0.000000  1.000000 )  


     PseudoPot. # 1 for W  read from file:
     /cluster/scratch/mnoe/QE/pps/W_ONCV_LDA-4.0.upf
     MD5 check sum: ba0307d5d4cd419d6f1d13dc49d7c13a
     Pseudo is Norm-conserving + core correction, Zval = 28.0
     Generated using ONCVPSP code by D. R. Hamann
     Using radial grid of 1380 points,  8 beta functions with: 
                l(1) =   0
                l(2) =   0
                l(3) =   1
                l(4) =   1
                l(5) =   2
                l(6) =   2
                l(7) =   3
                l(8) =   3

     PseudoPot. # 2 for O  read from file:
     /cluster/scratch/mnoe/QE/pps/O_ONCV_LDA-3.0.upf
     MD5 check sum: a1bd6164e7280c17a38c229939bfbd54
     Pseudo is Norm-conserving + core correction, Zval =  6.0
     Generated using ONCVPSP code by D. R. Hamann
     Using radial grid of  926 points,  5 beta functions with: 
                l(1) =   0
                l(2) =   0
                l(3) =   1
                l(4) =   1
                l(5) =   2

     atomic species   valence    mass     pseudopotential
        W             28.00   183.84000     W ( 1.00)
        O              6.00    15.99940     O ( 1.00)

      8 Sym. Ops., with inversion, found ( 6 have fractional translation)



   Cartesian axes

     site n.     atom                  positions (alat units)
         1           W   tau(   1) = (   0.2483831   0.2924353   0.0015269  )
         2           W   tau(   2) = (   0.7516169   0.7657248  -0.0015269  )
         3           W   tau(   3) = (   0.2516169   0.2366447   0.5015269  )
         4           W   tau(   4) = (   0.7483831   0.8215154   0.4984731  )
         5           W   tau(   5) = (   0.7516169   0.2924353   0.4984731  )
         6           W   tau(   6) = (   0.2483831   0.7657248   0.5015269  )
         7           W   tau(   7) = (   0.7483831   0.2366447  -0.0015269  )
         8           W   tau(   8) = (   0.2516169   0.8215154   0.0015269  )
         9           O   tau(   9) = (   0.2470170   0.0072190   0.0004746  )
        10           O   tau(  10) = (   0.7529830  -0.0072190  -0.0004746  )
        11           O   tau(  11) = (   0.2529830   0.5218611   0.5004746  )
        12           O   tau(  12) = (   0.7470170   0.5362990   0.4995254  )
        13           O   tau(  13) = (   0.7529830   0.0072190   0.4995254  )
        14           O   tau(  14) = (   0.2470170  -0.0072190   0.5004746  )
        15           O   tau(  15) = (   0.7470170   0.5218611  -0.0004746  )
        16           O   tau(  16) = (   0.2529830   0.5362990   0.0004746  )
        17           O   tau(  17) = (   0.5004422   0.2613021   0.4629835  )
        18           O   tau(  18) = (   0.4995578   0.7968579   0.5370165  )
        19           O   tau(  19) = (  -0.0004423   0.2677779   0.9629835  )
        20           O   tau(  20) = (   0.0004422   0.7903822   0.0370165  )
        21           O   tau(  21) = (   0.4995578   0.2613021   0.0370165  )
        22           O   tau(  22) = (   0.5004422   0.7968579   0.9629835  )
        23           O   tau(  23) = (   0.0004422   0.2677779   0.5370165  )
        24           O   tau(  24) = (  -0.0004423   0.7903822   0.4629835  )
        25           O   tau(  25) = (   0.7129835   0.2638334   0.7493296  )
        26           O   tau(  26) = (   0.2870165   0.7943267   0.2506704  )
        27           O   tau(  27) = (   0.7870166   0.2652466   0.2493296  )
        28           O   tau(  28) = (   0.2129835   0.7929135   0.7506703  )
        29           O   tau(  29) = (   0.2870165   0.2638334   0.7506703  )
        30           O   tau(  30) = (   0.7129835   0.7943267   0.2493296  )
        31           O   tau(  31) = (   0.2129835   0.2652466   0.2506704  )
        32           O   tau(  32) = (   0.7870166   0.7929135   0.7493296  )

     number of k points=    64  gaussian smearing, width (Ry)=  0.0007
                       cart. coord. in units 2pi/alat
        k(    1) = (   0.0000000   0.0000000   0.0000000), wk =   0.0092593
        k(    2) = (   0.0000000   0.0000000   0.1666667), wk =   0.0185185
        k(    3) = (   0.0000000   0.0000000   0.3333333), wk =   0.0185185
        k(    4) = (   0.0000000   0.0000000  -0.5000000), wk =   0.0092593
        k(    5) = (   0.0000000   0.1575061   0.0000000), wk =   0.0185185
        k(    6) = (   0.0000000   0.1575061   0.1666667), wk =   0.0370370
        k(    7) = (   0.0000000   0.1575061   0.3333333), wk =   0.0370370
        k(    8) = (   0.0000000   0.1575061  -0.5000000), wk =   0.0185185
        k(    9) = (   0.0000000   0.3150122   0.0000000), wk =   0.0185185
        k(   10) = (   0.0000000   0.3150122   0.1666667), wk =   0.0370370
        k(   11) = (   0.0000000   0.3150122   0.3333333), wk =   0.0370370
        k(   12) = (   0.0000000   0.3150122  -0.5000000), wk =   0.0185185
        k(   13) = (   0.0000000  -0.4725183   0.0000000), wk =   0.0092593
        k(   14) = (   0.0000000  -0.4725183   0.1666667), wk =   0.0185185
        k(   15) = (   0.0000000  -0.4725183   0.3333333), wk =   0.0185185
        k(   16) = (   0.0000000  -0.4725183  -0.5000000), wk =   0.0092593
        k(   17) = (   0.1666667   0.0000000   0.1666667), wk =   0.0370370
        k(   18) = (   0.1666667   0.0000000   0.3333333), wk =   0.0370370
        k(   19) = (   0.1666667   0.0000000  -0.5000000), wk =   0.0185185
        k(   20) = (   0.1666667   0.1575061   0.1666667), wk =   0.0740741
        k(   21) = (   0.1666667   0.1575061   0.3333333), wk =   0.0740741
        k(   22) = (   0.1666667   0.1575061  -0.5000000), wk =   0.0370370
        k(   23) = (   0.1666667   0.3150122   0.1666667), wk =   0.0740741
        k(   24) = (   0.1666667   0.3150122   0.3333333), wk =   0.0740741
        k(   25) = (   0.1666667   0.3150122  -0.5000000), wk =   0.0370370
        k(   26) = (   0.1666667  -0.4725183   0.1666667), wk =   0.0370370
        k(   27) = (   0.1666667  -0.4725183   0.3333333), wk =   0.0370370
        k(   28) = (   0.1666667  -0.4725183  -0.5000000), wk =   0.0185185
        k(   29) = (   0.3333333   0.0000000   0.3333333), wk =   0.0370370
        k(   30) = (   0.3333333   0.0000000  -0.5000000), wk =   0.0185185
        k(   31) = (   0.3333333   0.1575061   0.3333333), wk =   0.0740741
        k(   32) = (   0.3333333   0.1575061  -0.5000000), wk =   0.0370370
        k(   33) = (   0.3333333   0.3150122   0.3333333), wk =   0.0740741
        k(   34) = (   0.3333333   0.3150122  -0.5000000), wk =   0.0370370
        k(   35) = (   0.3333333  -0.4725183   0.3333333), wk =   0.0370370
        k(   36) = (   0.3333333  -0.4725183  -0.5000000), wk =   0.0185185
        k(   37) = (  -0.5000000   0.0000000  -0.5000000), wk =   0.0092593
        k(   38) = (  -0.5000000   0.1575061  -0.5000000), wk =   0.0185185
        k(   39) = (  -0.5000000   0.3150122  -0.5000000), wk =   0.0185185
        k(   40) = (  -0.5000000  -0.4725183  -0.5000000), wk =   0.0092593
        k(   41) = (   0.1666667   0.0000000   0.0000000), wk =   0.0185185
        k(   42) = (   0.3333333   0.0000000   0.0000000), wk =   0.0185185
        k(   43) = (  -0.5000000   0.0000000   0.0000000), wk =   0.0092593
        k(   44) = (   0.1666667  -0.1575061   0.0000000), wk =   0.0370370
        k(   45) = (   0.3333333  -0.1575061   0.0000000), wk =   0.0370370
        k(   46) = (  -0.5000000  -0.1575061   0.0000000), wk =   0.0185185
        k(   47) = (   0.1666667  -0.3150122   0.0000000), wk =   0.0370370
        k(   48) = (   0.3333333  -0.3150122   0.0000000), wk =   0.0370370
        k(   49) = (  -0.5000000  -0.3150122   0.0000000), wk =   0.0185185
        k(   50) = (   0.1666667   0.4725183   0.0000000), wk =   0.0185185
        k(   51) = (   0.3333333   0.4725183   0.0000000), wk =   0.0185185
        k(   52) = (  -0.5000000   0.4725183   0.0000000), wk =   0.0092593
        k(   53) = (   0.3333333   0.0000000   0.1666667), wk =   0.0370370
        k(   54) = (  -0.5000000   0.0000000   0.1666667), wk =   0.0185185
        k(   55) = (   0.3333333  -0.1575061   0.1666667), wk =   0.0740741
        k(   56) = (  -0.5000000  -0.1575061   0.1666667), wk =   0.0370370
        k(   57) = (   0.3333333  -0.3150122   0.1666667), wk =   0.0740741
        k(   58) = (  -0.5000000  -0.3150122   0.1666667), wk =   0.0370370
        k(   59) = (   0.3333333   0.4725183   0.1666667), wk =   0.0370370
        k(   60) = (  -0.5000000   0.4725183   0.1666667), wk =   0.0185185
        k(   61) = (  -0.5000000   0.0000000   0.3333333), wk =   0.0185185
        k(   62) = (  -0.5000000  -0.1575061   0.3333333), wk =   0.0370370
        k(   63) = (  -0.5000000  -0.3150122   0.3333333), wk =   0.0370370
        k(   64) = (  -0.5000000   0.4725183   0.3333333), wk =   0.0185185

     Dense  grid:   498127 G-vectors     FFT dimensions: ( 100, 108, 100)

     Estimated max dynamical RAM per process >       3.15 GB

     Estimated total dynamical RAM >     125.81 GB

     Initial potential from superposition of free atoms

     starting charge  367.99656, renormalised to  368.00000
     Starting wfc are  232 randomized atomic wfcs

     total cpu time spent up to now is       46.3 secs

     Self-consistent Calculation

     iteration #  1     ecut=   120.00 Ry     beta= 0.70
     Davidson diagonalization with overlap
     ethr =  1.00E-02,  avg # of iterations =  5.1

     total cpu time spent up to now is      158.9 secs

     total energy              =   -6254.04815251 Ry
     Harris-Foulkes estimate   =   -6264.57830964 Ry
     estimated scf accuracy    <      13.35536971 Ry

     iteration #  2     ecut=   120.00 Ry     beta= 0.70
     Davidson diagonalization with overlap
     ethr =  3.63E-03,  avg # of iterations =  3.5

     total cpu time spent up to now is      264.3 secs

     total energy              =   -6251.12517799 Ry
     Harris-Foulkes estimate   =   -6270.46641680 Ry
     estimated scf accuracy    <      51.52021131 Ry

     iteration #  3     ecut=   120.00 Ry     beta= 0.70
     Davidson diagonalization with overlap
     ethr =  3.63E-03,  avg # of iterations =  3.6

     total cpu time spent up to now is      366.8 secs

     total energy              =   -6261.04095626 Ry
     Harris-Foulkes estimate   =   -6261.38700465 Ry
     estimated scf accuracy    <       1.10319658 Ry

     iteration #  4     ecut=   120.00 Ry     beta= 0.70
     Davidson diagonalization with overlap
     ethr =  3.00E-04,  avg # of iterations =  3.1

     total cpu time spent up to now is      453.3 secs

     total energy              =   -6261.07202285 Ry
     Harris-Foulkes estimate   =   -6261.15286480 Ry
     estimated scf accuracy    <       0.27932997 Ry

     iteration #  5     ecut=   120.00 Ry     beta= 0.70
     Davidson diagonalization with overlap
     ethr =  7.59E-05,  avg # of iterations =  4.3

     total cpu time spent up to now is      541.4 secs

     total energy              =   -6261.06055919 Ry
     Harris-Foulkes estimate   =   -6261.10010373 Ry
     estimated scf accuracy    <       0.08568382 Ry

     iteration #  6     ecut=   120.00 Ry     beta= 0.70
     Davidson diagonalization with overlap
     ethr =  2.33E-05,  avg # of iterations =  5.6

     total cpu time spent up to now is      638.6 secs

     total energy              =   -6261.07997262 Ry
     Harris-Foulkes estimate   =   -6261.08162293 Ry
     estimated scf accuracy    <       0.00480498 Ry

     iteration #  7     ecut=   120.00 Ry     beta= 0.70
     Davidson diagonalization with overlap
     ethr =  1.31E-06,  avg # of iterations =  4.7

     total cpu time spent up to now is      732.1 secs

     total energy              =   -6261.08044752 Ry
     Harris-Foulkes estimate   =   -6261.08056243 Ry
     estimated scf accuracy    <       0.00027519 Ry

     iteration #  8     ecut=   120.00 Ry     beta= 0.70
     Davidson diagonalization with overlap
     ethr =  7.48E-08,  avg # of iterations =  3.0

     total cpu time spent up to now is      828.3 secs

     total energy              =   -6261.08051174 Ry
     Harris-Foulkes estimate   =   -6261.08051518 Ry
     estimated scf accuracy    <       0.00000768 Ry

     iteration #  9     ecut=   120.00 Ry     beta= 0.70
     Davidson diagonalization with overlap
     ethr =  2.09E-09,  avg # of iterations =  2.6

     total cpu time spent up to now is      932.4 secs

     total energy              =   -6261.08051318 Ry
     Harris-Foulkes estimate   =   -6261.08051451 Ry
     estimated scf accuracy    <       0.00000537 Ry

     iteration # 10     ecut=   120.00 Ry     beta= 0.70
     Davidson diagonalization with overlap
     ethr =  1.46E-09,  avg # of iterations =  1.8

     total cpu time spent up to now is     1014.2 secs

     total energy              =   -6261.08051275 Ry
     Harris-Foulkes estimate   =   -6261.08051351 Ry
     estimated scf accuracy    <       0.00000167 Ry

     iteration # 11     ecut=   120.00 Ry     beta= 0.70
     Davidson diagonalization with overlap
     ethr =  4.53E-10,  avg # of iterations =  2.9

     total cpu time spent up to now is     1117.1 secs

     total energy              =   -6261.08051314 Ry
     Harris-Foulkes estimate   =   -6261.08051319 Ry
     estimated scf accuracy    <       0.00000011 Ry

     iteration # 12     ecut=   120.00 Ry     beta= 0.70
     Davidson diagonalization with overlap
     ethr =  3.01E-11,  avg # of iterations =  2.0

     total cpu time spent up to now is     1202.4 secs

     total energy              =   -6261.08051315 Ry
     Harris-Foulkes estimate   =   -6261.08051315 Ry
     estimated scf accuracy    <       0.00000002 Ry

     iteration # 13     ecut=   120.00 Ry     beta= 0.70
     Davidson diagonalization with overlap
     ethr =  4.36E-12,  avg # of iterations =  2.8

     total cpu time spent up to now is     1299.4 secs

     End of self-consistent calculation

          k = 0.0000 0.0000 0.0000 ( 62239 PWs)   bands (ev):

   -66.1615 -66.1611 -66.1605 -66.1605 -66.1601 -66.1601 -66.1595 -66.1591
   -30.5633 -30.5630 -30.5600 -30.5597 -30.5574 -30.5572 -30.5543 -30.5540
   -30.5044 -30.5002 -30.5002 -30.4960 -30.4551 -30.4546 -30.4523 -30.4522
   -30.4501 -30.4496 -30.4473 -30.4472 -30.4453 -30.4414 -30.4413 -30.4373
   -20.3129 -20.3129 -20.3128 -20.3128 -20.3128 -20.3127 -20.3127 -20.3127
   -20.2909 -20.2905 -20.2905 -20.2900 -20.2878 -20.2877 -20.2875 -20.2874
   -20.2871 -20.2871 -20.2869 -20.2868 -20.2862 -20.2861 -20.2861 -20.2860
   -20.2857 -20.2855 -20.2853 -20.2852 -20.2852 -20.2848 -20.2847 -20.2842
   -20.2812 -20.2812 -20.2808 -20.2808 -20.2801 -20.2800 -20.2798 -20.2797
   -20.2787 -20.2786 -20.2781 -20.2780 -20.2778 -20.2777 -20.2774 -20.2773
   -20.2719 -20.2719 -20.2716 -20.2716 -20.2709 -20.2708 -20.2706 -20.2705
   -10.0612  -9.8547  -9.6358  -9.6349  -9.4744  -9.4730  -9.2561  -9.2413
    -8.9542  -8.8409  -8.8408  -8.8340  -7.7917  -7.7910  -7.7628  -7.7624
    -7.7228  -7.6871  -7.6859  -7.6669  -7.6626  -7.6611  -7.6585  -7.6104
     0.8483   0.8509   1.0053   1.0071   1.0115   1.0135   1.2367   1.3486
     1.6752   1.6814   1.6819   1.7835   2.2005   2.2794   2.5466   2.5468
     2.6807   2.6807   4.1284   4.1306   4.2205   4.2232   4.5466   4.5471
     4.5827   4.5833   4.9679   4.9865   5.0201   5.0493   5.0497   5.4562
     5.4579   5.5490   5.5534   5.5548   5.5567   5.5603   5.5620   5.7756
     5.8919   5.8924   6.0193   6.0224   6.0308   6.0320   6.0644   6.1140
     6.1157   6.3271   6.3279   6.3730   6.3755   6.7486   6.9340   6.9621
     6.9639   7.0011   7.0023   7.0649   7.0662   7.0723   7.2334   7.2348
     7.2419   7.2432   7.9768   7.9878   8.1359   8.1379   8.1993   8.2012
     9.1076   9.1196   9.7257   9.7264   9.7403   9.7408  12.2920  12.2945
    12.4253  12.4267  12.5120  12.5123  12.5682  12.5682  13.2355  13.2519
    13.3733  13.3759  13.4344  13.4448  13.8903  14.1897  14.1974  14.2055
    14.2132  14.3470  14.3679  14.8753  15.4396  15.4786  15.4885  16.3053
    16.3055  17.1665  17.2470  17.3254  17.3265

          k = 0.0000 0.0000 0.1667 ( 62262 PWs)   bands (ev):

   -66.1614 -66.1610 -66.1605 -66.1604 -66.1602 -66.1600 -66.1595 -66.1591
   -30.5626 -30.5594 -30.5576 -30.5562 -30.5544 -30.5531 -30.5504 -30.5474
   -30.5039 -30.5007 -30.4997 -30.4966 -30.4628 -30.4592 -30.4580 -30.4543
   -30.4542 -30.4520 -30.4499 -30.4477 -30.4450 -30.4410 -30.4409 -30.4373
   -20.3129 -20.3128 -20.3128 -20.3128 -20.3128 -20.3127 -20.3127 -20.3127
   -20.2909 -20.2905 -20.2905 -20.2901 -20.2877 -20.2877 -20.2874 -20.2874
   -20.2871 -20.2870 -20.2868 -20.2867 -20.2863 -20.2862 -20.2861 -20.2861
   -20.2858 -20.2855 -20.2854 -20.2852 -20.2852 -20.2848 -20.2847 -20.2843
   -20.2812 -20.2810 -20.2805 -20.2804 -20.2802 -20.2801 -20.2795 -20.2795
   -20.2782 -20.2782 -20.2779 -20.2779 -20.2779 -20.2778 -20.2775 -20.2775
   -20.2725 -20.2721 -20.2719 -20.2715 -20.2714 -20.2712 -20.2709 -20.2706
   -10.0090  -9.7990  -9.6484  -9.5509  -9.4833  -9.3768  -9.2119  -9.1955
    -8.9638  -8.8456  -8.8267  -8.8261  -7.9315  -7.9126  -7.8338  -7.8225
    -7.7832  -7.7559  -7.7150  -7.6939  -7.6678  -7.6667  -7.6592  -7.6140
     0.9515   0.9515   1.0097   1.0171   1.2716   1.2989   1.3630   1.5384
     1.6690   1.6740   1.7040   1.8503   2.2903   2.3700   2.5551   2.6382
     2.6719   2.7687   4.0929   4.1440   4.1654   4.2090   4.2306   4.2547
     4.6305   4.6509   4.6930   4.7057   4.9542   5.0063   5.0481   5.2628
     5.2858   5.4316   5.4704   5.5265   5.5661   5.6036   5.6468   5.7113
     5.7201   5.9197   5.9976   6.0038   6.0121   6.0741   6.0876   6.1185
     6.3237   6.3668   6.3771   6.4854   6.7289   6.7846   6.8160   6.8635
     6.8707   6.9471   6.9501   6.9829   6.9963   7.0134   7.0438   7.0482
     7.0746   7.1006   7.9525   7.9540   8.0975   8.1553   8.1601   8.2001
     9.5009   9.5100   9.7263   9.7392  10.0384  10.0438  12.2758  12.3675
    12.3916  12.4240  12.4274  12.4834  12.5654  12.6372  13.0352  13.1110
    13.2354  13.3720  13.4619  13.5145  14.0014  14.0335  14.0675  14.1880
    14.2068  14.3634  14.4848  15.0024  15.4077  15.5549  15.5869  16.2802
    16.6714  16.9775  17.3426  17.5490  17.5521

          k = 0.0000 0.0000 0.3333 ( 62268 PWs)   bands (ev):

   -66.1612 -66.1608 -66.1607 -66.1603 -66.1602 -66.1598 -66.1597 -66.1593
   -30.5615 -30.5586 -30.5583 -30.5554 -30.5368 -30.5344 -30.5312 -30.5291
   -30.5025 -30.5020 -30.4989 -30.4981 -30.4831 -30.4780 -30.4776 -30.4730
   -30.4533 -30.4511 -30.4508 -30.4486 -30.4440 -30.4416 -30.4400 -30.4377
   -20.3129 -20.3128 -20.3128 -20.3128 -20.3128 -20.3128 -20.3127 -20.3127
   -20.2909 -20.2907 -20.2905 -20.2902 -20.2876 -20.2875 -20.2875 -20.2872
   -20.2871 -20.2868 -20.2866 -20.2866 -20.2865 -20.2863 -20.2862 -20.2860
   -20.2860 -20.2856 -20.2854 -20.2852 -20.2851 -20.2848 -20.2847 -20.2844
   -20.2810 -20.2808 -20.2804 -20.2803 -20.2795 -20.2795 -20.2791 -20.2791
   -20.2783 -20.2782 -20.2779 -20.2778 -20.2771 -20.2771 -20.2769 -20.2768
   -20.2739 -20.2736 -20.2729 -20.2727 -20.2717 -20.2713 -20.2711 -20.2708
    -9.8875  -9.6909  -9.6777  -9.5155  -9.3290  -9.0976  -9.0716  -9.0273
    -9.0001  -8.8624  -8.7934  -8.7633  -8.2784  -8.2738  -8.2117  -8.1923
    -7.7644  -7.7372  -7.7126  -7.7060  -7.6863  -7.6775  -7.6495  -7.6236
     1.0154   1.0161   1.0256   1.0260   1.5819   1.6085   1.6557   1.6573
     2.0667   2.1322   2.2478   2.3478   2.5537   2.5778   2.6362   2.6511
     2.8889   3.0017   3.5526   3.6287   3.8749   3.9587   4.1503   4.1803
     4.1862   4.3415   4.5007   4.6934   4.7825   4.8278   4.8931   4.9301
     4.9539   4.9803   5.1128   5.3272   5.3360   5.3940   5.6384   5.8071
     5.8526   5.9364   5.9616   5.9692   6.1038   6.1557   6.1880   6.2237
     6.2943   6.3375   6.4320   6.4570   6.5486   6.5722   6.6908   6.7156
     6.7463   6.9425   6.9758   6.9857   6.9888   7.0401   7.0485   7.0685
     7.2688   7.3201   7.8027   7.8248   7.9663   8.0064   8.1901   8.2018
     9.7279   9.7337  10.2887  10.3261  10.7399  10.7794  11.9201  11.9489
    12.1349  12.4329  12.4544  12.6005  12.6527  12.6597  12.7369  12.8623
    13.1967  13.2988  13.3627  13.3729  13.6506  13.7004  14.1546  14.1834
    14.2493  14.3490  14.8120  15.3055  15.3187  15.7999  16.1046  16.1994
    16.3721  17.5976  17.6116  17.6324  17.6991

          k = 0.0000 0.0000-0.5000 ( 62264 PWs)   bands (ev):

   -66.1610 -66.1610 -66.1606 -66.1606 -66.1600 -66.1600 -66.1596 -66.1596
   -30.5601 -30.5601 -30.5569 -30.5569 -30.5105 -30.5105 -30.5101 -30.5101
   -30.5084 -30.5084 -30.5047 -30.5047 -30.4951 -30.4951 -30.4940 -30.4940
   -30.4521 -30.4521 -30.4498 -30.4498 -30.4427 -30.4427 -30.4388 -30.4388
   -20.3129 -20.3129 -20.3128 -20.3128 -20.3128 -20.3128 -20.3127 -20.3127
   -20.2908 -20.2908 -20.2903 -20.2903 -20.2876 -20.2875 -20.2873 -20.2873
   -20.2868 -20.2868 -20.2866 -20.2865 -20.2864 -20.2864 -20.2863 -20.2863
   -20.2858 -20.2858 -20.2853 -20.2853 -20.2849 -20.2849 -20.2846 -20.2846
   -20.2807 -20.2807 -20.2806 -20.2806 -20.2788 -20.2788 -20.2787 -20.2787
   -20.2785 -20.2785 -20.2784 -20.2784 -20.2757 -20.2757 -20.2755 -20.2755
   -20.2750 -20.2749 -20.2748 -20.2748 -20.2714 -20.2714 -20.2711 -20.2711
    -9.7694  -9.7694  -9.5760  -9.5760  -9.1034  -9.1033  -8.9130  -8.9130
    -8.6995  -8.6995  -8.6811  -8.6811  -8.6328  -8.6328  -8.5654  -8.5654
    -7.7384  -7.7384  -7.7117  -7.7117  -7.6919  -7.6919  -7.6366  -7.6366
     1.0220   1.0220   1.0340   1.0340   1.6358   1.6358   1.6413   1.6413
     2.6081   2.6081   2.9045   2.9045   3.0017   3.0017   3.0792   3.0792
     3.1073   3.1073   3.1563   3.1563   3.3121   3.3121   3.6999   3.6999
     3.8055   3.8055   4.2633   4.2633   4.7803   4.7803   4.8444   4.8444
     5.1354   5.1354   5.1516   5.1516   5.1819   5.1819   5.7736   5.7736
     5.9178   5.9178   6.0409   6.0409   6.1140   6.1140   6.2181   6.2181
     6.2698   6.2698   6.2897   6.2897   6.4340   6.4340   6.5685   6.5685
     6.8139   6.8139   6.9823   6.9824   7.0561   7.0561   7.4746   7.4746
     7.5197   7.5197   7.7011   7.7011   7.7264   7.7264   8.2008   8.2008
     9.7303   9.7303  11.1577  11.1577  11.1987  11.1987  11.5415  11.5415
    11.6492  11.6492  12.4628  12.4628  12.9460  12.9460  12.9701  12.9701
    13.0319  13.0320  13.2446  13.2446  13.4078  13.4078  14.1764  14.1764
    14.3180  14.3180  15.1127  15.1127  15.7866  15.7866  16.0457  16.0457
    16.9274  16.9274  17.9101  17.9101  17.9708

          k = 0.0000 0.1575 0.0000 ( 62231 PWs)   bands (ev):

   -66.1615 -66.1611 -66.1605 -66.1604 -66.1601 -66.1601 -66.1594 -66.1591
   -30.5631 -30.5628 -30.5603 -30.5600 -30.5572 -30.5569 -30.5545 -30.5542
   -30.5005 -30.4963 -30.4963 -30.4922 -30.4550 -30.4544 -30.4526 -30.4524
   -30.4500 -30.4494 -30.4493 -30.4477 -30.4474 -30.4452 -30.4451 -30.4410
   -20.3129 -20.3129 -20.3128 -20.3128 -20.3128 -20.3127 -20.3127 -20.3127
   -20.2906 -20.2901 -20.2901 -20.2896 -20.2877 -20.2876 -20.2874 -20.2874
   -20.2871 -20.2871 -20.2870 -20.2868 -20.2861 -20.2861 -20.2861 -20.2861
   -20.2858 -20.2856 -20.2856 -20.2854 -20.2852 -20.2852 -20.2850 -20.2846
   -20.2812 -20.2812 -20.2809 -20.2809 -20.2801 -20.2800 -20.2798 -20.2797
   -20.2787 -20.2786 -20.2781 -20.2780 -20.2778 -20.2777 -20.2774 -20.2773
   -20.2719 -20.2719 -20.2716 -20.2716 -20.2709 -20.2708 -20.2706 -20.2706
   -10.0409  -9.8638  -9.6161  -9.6151  -9.4801  -9.4787  -9.2551  -9.2423
    -8.8801  -8.7851  -8.7850  -8.7784  -7.8238  -7.7891  -7.7878  -7.7676
    -7.7672  -7.7644  -7.7643  -7.7191  -7.6843  -7.6836  -7.6630  -7.6627
     0.8485   0.8507   1.0084   1.0103   1.0117   1.0137   1.2837   1.3483
     1.8626   1.9218   1.9224   2.0341   2.2056   2.2740   2.6172   2.6173
     2.7481   2.7483   3.9779   3.9801   3.9980   4.0003   4.5492   4.5495
     4.5794   4.5800   4.7933   5.0470   5.0497   5.0570   5.0578   5.2842
     5.2852   5.4196   5.4201   5.5973   5.5976   5.6979   5.6991   5.7125
     5.8153   5.8522   5.8527   6.0285   6.0294   6.1086   6.1116   6.1198
     6.1199   6.3264   6.3281   6.3970   6.4005   6.7614   6.8495   6.9221
     6.9274   6.9356   6.9391   6.9465   6.9939   6.9940   7.2376   7.2381
     7.2436   7.2439   7.9805   7.9875   8.0922   8.0938   8.1202   8.1215
     9.1085   9.1188   9.9341   9.9343   9.9678   9.9679  12.1467  12.1495
    12.2640  12.2654  12.5271  12.5277  12.5676  12.5676  13.2696  13.2880
    13.3923  13.3947  13.4341  13.4477  14.0894  14.0985  14.1127  14.1199
    14.2918  14.6523  14.6568  14.9988  15.4790  15.4874  15.8537  16.2670
    16.2672  16.7911  17.4434  17.4446  17.5561

          k = 0.0000 0.1575 0.1667 ( 62237 PWs)   bands (ev):

   -66.1614 -66.1611 -66.1605 -66.1604 -66.1602 -66.1600 -66.1595 -66.1592
   -30.5624 -30.5596 -30.5573 -30.5560 -30.5546 -30.5533 -30.5502 -30.5476
   -30.5000 -30.4969 -30.4958 -30.4928 -30.4628 -30.4593 -30.4580 -30.4544
   -30.4541 -30.4523 -30.4497 -30.4490 -30.4480 -30.4448 -30.4447 -30.4409
   -20.3129 -20.3128 -20.3128 -20.3128 -20.3128 -20.3127 -20.3127 -20.3127
   -20.2906 -20.2902 -20.2901 -20.2897 -20.2876 -20.2876 -20.2874 -20.2873
   -20.2871 -20.2870 -20.2869 -20.2868 -20.2862 -20.2861 -20.2861 -20.2861
   -20.2859 -20.2856 -20.2855 -20.2855 -20.2853 -20.2852 -20.2850 -20.2846
   -20.2811 -20.2810 -20.2805 -20.2804 -20.2802 -20.2801 -20.2795 -20.2795
   -20.2782 -20.2782 -20.2779 -20.2779 -20.2779 -20.2778 -20.2775 -20.2775
   -20.2725 -20.2722 -20.2718 -20.2715 -20.2714 -20.2712 -20.2709 -20.2706
    -9.9880  -9.8081  -9.6284  -9.5286  -9.4891  -9.3825  -9.2107  -9.1965
    -8.8897  -8.7902  -8.7729  -8.7721  -7.9296  -7.9182  -7.8452  -7.8321
    -7.8000  -7.7802  -7.7690  -7.7608  -7.7578  -7.7164  -7.6905  -7.6695
     0.9516   0.9525   1.0133   1.0173   1.2848   1.2990   1.4413   1.5379
     1.8655   1.9142   1.9308   2.0568   2.2956   2.3644   2.6253   2.7110
     2.7397   2.8374   3.9612   3.9854   4.0078   4.0421   4.1864   4.2285
     4.6232   4.6463   4.7057   4.7546   4.7730   5.0388   5.0623   5.2051
     5.2451   5.2910   5.2989   5.4134   5.5518   5.5557   5.7117   5.7155
     5.7716   5.8740   5.8902   6.0194   6.0271   6.0857   6.1086   6.1189
     6.2354   6.3650   6.3918   6.4565   6.7355   6.7417   6.8408   6.8437
     6.8608   6.9224   6.9328   6.9465   6.9871   6.9893   6.9910   7.0042
     7.0708   7.1090   7.9540   7.9556   8.0547   8.0814   8.1006   8.1213
     9.5046   9.5093   9.9382   9.9661  10.2051  10.2261  12.1399  12.2270
    12.2649  12.3341  12.3989  12.4237  12.5807  12.6278  13.0755  13.1300
    13.2706  13.3891  13.4593  13.5195  13.9315  13.9755  14.0927  14.1109
    14.3937  14.6538  14.8146  15.1166  15.5544  15.5886  15.8228  16.2427
    16.6300  16.9350  17.0805  17.4050  17.6428

          k = 0.0000 0.1575 0.3333 ( 62284 PWs)   bands (ev):

   -66.1612 -66.1609 -66.1607 -66.1604 -66.1602 -66.1599 -66.1597 -66.1594
   -30.5613 -30.5585 -30.5584 -30.5556 -30.5366 -30.5345 -30.5310 -30.5292
   -30.4988 -30.4983 -30.4954 -30.4944 -30.4830 -30.4779 -30.4774 -30.4730
   -30.4532 -30.4514 -30.4507 -30.4489 -30.4480 -30.4454 -30.4438 -30.4414
   -20.3129 -20.3128 -20.3128 -20.3128 -20.3128 -20.3127 -20.3127 -20.3127
   -20.2905 -20.2903 -20.2901 -20.2898 -20.2876 -20.2874 -20.2874 -20.2872
   -20.2870 -20.2868 -20.2867 -20.2866 -20.2864 -20.2863 -20.2862 -20.2861
   -20.2860 -20.2857 -20.2855 -20.2854 -20.2853 -20.2851 -20.2851 -20.2848
   -20.2810 -20.2808 -20.2804 -20.2803 -20.2795 -20.2795 -20.2791 -20.2791
   -20.2783 -20.2782 -20.2779 -20.2778 -20.2771 -20.2771 -20.2769 -20.2768
   -20.2739 -20.2736 -20.2729 -20.2727 -20.2716 -20.2714 -20.2711 -20.2708
    -9.8654  -9.6862  -9.6701  -9.5218  -9.2952  -9.1035  -9.0654  -9.0290
    -8.9275  -8.8093  -8.7449  -8.7215  -8.2828  -8.2707  -8.2187  -8.1892
    -7.8052  -7.7785  -7.7615  -7.7523  -7.7390  -7.7274  -7.7093  -7.6880
     1.0204   1.0208   1.0257   1.0262   1.7882   1.7990   1.8856   1.9069
     2.0660   2.1653   2.2472   2.3844   2.5595   2.6269   2.6478   2.7217
     2.9636   3.0677   3.5531   3.6248   3.8530   3.9041   3.9997   4.0651
     4.2101   4.2366   4.5177   4.6755   4.7001   4.7138   4.7426   4.9035
     4.9308   4.9765   5.0791   5.1638   5.3097   5.3609   5.4101   5.7222
     5.7718   5.8639   5.9226   6.0229   6.0656   6.0722   6.1676   6.2087
     6.2316   6.3630   6.4540   6.5332   6.5583   6.6929   6.7021   6.7665
     6.8488   6.8776   6.9051   6.9437   6.9551   7.0106   7.0367   7.0922
     7.2663   7.3182   7.8104   7.8227   7.9301   7.9499   8.1173   8.1236
     9.9409   9.9595  10.2955  10.3282  10.8585  10.8809  11.9207  11.9477
    12.0690  12.2731  12.4772  12.5005  12.5482  12.6164  12.7546  12.8260
    13.2142  13.2735  13.3791  13.3855  13.5533  13.6225  14.0958  14.1070
    14.5559  14.6437  15.1833  15.4161  15.7249  15.7886  16.1291  16.1649
    16.4752  17.3264  17.5566  17.6494  17.6908

          k = 0.0000 0.1575-0.5000 ( 62234 PWs)   bands (ev):

   -66.1610 -66.1610 -66.1606 -66.1606 -66.1599 -66.1599 -66.1596 -66.1596
   -30.5599 -30.5599 -30.5571 -30.5571 -30.5100 -30.5099 -30.5098 -30.5098
   -30.5068 -30.5068 -30.5046 -30.5046 -30.4930 -30.4930 -30.4911 -30.4911
   -30.4519 -30.4519 -30.4502 -30.4501 -30.4467 -30.4466 -30.4425 -30.4425
   -20.3129 -20.3129 -20.3128 -20.3128 -20.3128 -20.3128 -20.3127 -20.3127
   -20.2904 -20.2904 -20.2900 -20.2900 -20.2875 -20.2875 -20.2873 -20.2873
   -20.2867 -20.2867 -20.2865 -20.2865 -20.2864 -20.2864 -20.2864 -20.2864
   -20.2859 -20.2859 -20.2854 -20.2854 -20.2853 -20.2853 -20.2849 -20.2849
   -20.2807 -20.2807 -20.2806 -20.2806 -20.2788 -20.2788 -20.2787 -20.2787
   -20.2785 -20.2785 -20.2784 -20.2784 -20.2757 -20.2757 -20.2755 -20.2755
   -20.2749 -20.2749 -20.2748 -20.2748 -20.2714 -20.2714 -20.2711 -20.2711
    -9.7476  -9.7476  -9.5832  -9.5832  -9.0434  -9.0434  -8.8755  -8.8755
    -8.7027  -8.7027  -8.6873  -8.6873  -8.6154  -8.6154  -8.5496  -8.5496
    -7.7921  -7.7921  -7.7407  -7.7407  -7.7348  -7.7348  -7.7135  -7.7135
     1.0276   1.0276   1.0342   1.0342   1.8383   1.8383   1.9055   1.9055
     2.6752   2.6752   2.9147   2.9147   2.9961   2.9961   3.0880   3.0880
     3.1443   3.1443   3.1538   3.1539   3.3044   3.3044   3.7186   3.7186
     3.8598   3.8598   4.0978   4.0978   4.5797   4.5798   4.7501   4.7501
     5.0949   5.0949   5.1148   5.1148   5.1707   5.1707   5.5004   5.5004
     5.8009   5.8009   6.0129   6.0129   6.1368   6.1368   6.2340   6.2340
     6.2789   6.2789   6.3162   6.3162   6.4233   6.4233   6.7538   6.7538
     6.8986   6.8986   6.9248   6.9248   6.9385   6.9385   7.4947   7.4947
     7.5146   7.5146   7.6785   7.6785   7.6973   7.6973   8.1241   8.1241
     9.9517   9.9517  11.1617  11.1617  11.1979  11.1979  11.6081  11.6081
    11.7129  11.7129  12.3147  12.3147  12.8772  12.8772  12.8900  12.8900
    13.0494  13.0494  13.1825  13.1825  13.3984  13.3984  14.1010  14.1010
    14.6203  14.6203  15.5047  15.5048  15.8994  15.8994  16.0190  16.0190
    16.9750  16.9750  17.7066  17.7066  17.9957

          k = 0.0000 0.3150 0.0000 ( 62175 PWs)   bands (ev):

   -66.1614 -66.1612 -66.1604 -66.1604 -66.1602 -66.1602 -66.1594 -66.1592
   -30.5625 -30.5622 -30.5608 -30.5606 -30.5566 -30.5564 -30.5550 -30.5548
   -30.4897 -30.4857 -30.4857 -30.4816 -30.4602 -30.4572 -30.4570 -30.4539
   -30.4535 -30.4533 -30.4528 -30.4519 -30.4490 -30.4489 -30.4478 -30.4469
   -20.3129 -20.3129 -20.3128 -20.3128 -20.3128 -20.3128 -20.3127 -20.3127
   -20.2896 -20.2891 -20.2891 -20.2886 -20.2875 -20.2875 -20.2873 -20.2873
   -20.2873 -20.2871 -20.2870 -20.2870 -20.2865 -20.2864 -20.2862 -20.2860
   -20.2860 -20.2860 -20.2859 -20.2859 -20.2857 -20.2856 -20.2854 -20.2853
   -20.2812 -20.2811 -20.2809 -20.2809 -20.2801 -20.2800 -20.2798 -20.2797
   -20.2787 -20.2786 -20.2781 -20.2780 -20.2778 -20.2778 -20.2774 -20.2773
   -20.2719 -20.2718 -20.2717 -20.2717 -20.2708 -20.2708 -20.2707 -20.2706
    -9.9913  -9.8911  -9.5719  -9.5707  -9.4976  -9.4962  -9.2524  -9.2450
    -8.6714  -8.6151  -8.6151  -8.6109  -8.0726  -8.0289  -8.0286  -7.9967
    -7.7840  -7.7837  -7.7697  -7.7696  -7.6798  -7.6795  -7.6676  -7.6672
     0.8489   0.8502   1.0115   1.0121   1.0135   1.0141   1.3267   1.3468
     2.2198   2.2592   2.4516   2.5873   2.5884   2.7315   2.8241   2.8256
     2.9450   2.9462   3.5688   3.5711   3.6283   3.6308   4.1816   4.5047
     4.5055   4.5562   4.5563   4.5953   4.5963   4.8155   5.1450   5.1456
     5.2162   5.2169   5.3646   5.3647   5.6669   5.6673   5.6986   5.6994
     5.8935   5.8946   5.9383   6.0165   6.0169   6.0328   6.0331   6.1405
     6.1408   6.2650   6.2680   6.4549   6.4666   6.4683   6.7337   6.7345
     6.7958   6.8887   7.1430   7.1433   7.1686   7.1687   7.2398   7.2408
     7.2511   7.2522   7.8878   7.8886   7.9036   7.9043   7.9842   7.9868
     9.1109   9.1168  10.4629  10.4643  10.5215  10.5224  11.7276  11.7302
    11.8196  11.8209  12.5482  12.5487  12.5654  12.5655  13.3640  13.3964
    13.4380  13.4692  13.4775  13.4799  13.8619  13.8631  13.8934  13.8967
    15.0366  15.3038  15.3045  15.4803  15.4850  15.4989  16.1342  16.1347
    16.2008  16.8860  17.2131  17.8535  17.8548

          k = 0.0000 0.3150 0.1667 ( 62260 PWs)   bands (ev):

   -66.1613 -66.1611 -66.1604 -66.1603 -66.1603 -66.1601 -66.1594 -66.1592
   -30.5618 -30.5602 -30.5568 -30.5554 -30.5552 -30.5539 -30.5496 -30.5482
   -30.4893 -30.4863 -30.4852 -30.4824 -30.4631 -30.4599 -30.4598 -30.4596
   -30.4567 -30.4548 -30.4536 -30.4533 -30.4519 -30.4516 -30.4492 -30.4473
   -20.3129 -20.3129 -20.3128 -20.3128 -20.3128 -20.3128 -20.3127 -20.3127
   -20.2896 -20.2892 -20.2891 -20.2887 -20.2875 -20.2874 -20.2873 -20.2873
   -20.2872 -20.2871 -20.2870 -20.2869 -20.2865 -20.2865 -20.2862 -20.2861
   -20.2860 -20.2860 -20.2860 -20.2859 -20.2857 -20.2856 -20.2854 -20.2854
   -20.2811 -20.2810 -20.2805 -20.2805 -20.2802 -20.2801 -20.2795 -20.2795
   -20.2782 -20.2782 -20.2779 -20.2779 -20.2779 -20.2778 -20.2775 -20.2775
   -20.2724 -20.2722 -20.2718 -20.2716 -20.2714 -20.2712 -20.2708 -20.2707
    -9.9371  -9.8354  -9.5832  -9.5071  -9.4793  -9.4003  -9.2076  -9.1994
    -8.6806  -8.6216  -8.6078  -8.6073  -8.0736  -8.0455  -8.0260  -8.0090
    -7.9245  -7.9030  -7.8274  -7.8099  -7.7762  -7.7628  -7.6864  -7.6741
     0.9521   0.9530   1.0169   1.0177   1.2956   1.2992   1.5090   1.5359
     2.3098   2.3494   2.4526   2.5586   2.5879   2.7126   2.8311   2.9368
     2.9374   3.0490   3.5708   3.6212   3.6229   3.6780   4.1708   4.1954
     4.2174   4.5095   4.5280   4.6236   4.6546   4.8125   4.8177   4.9269
     5.1117   5.1648   5.2193   5.2951   5.4073   5.4361   5.6228   5.6841
     5.7625   5.7707   5.8547   6.0104   6.0388   6.0655   6.1126   6.1383
     6.1553   6.3648   6.3693   6.4599   6.5434   6.7276   6.7795   6.8765
     6.9056   6.9242   6.9801   6.9891   7.0306   7.0339   7.1555   7.1781
     7.1812   7.1818   7.8625   7.8752   7.8890   7.8917   7.9576   7.9630
     9.5087   9.5095  10.4702  10.5201  10.6545  10.7030  11.7312  11.8202
    11.8239  11.9095  12.4092  12.4212  12.6018  12.6204  13.1954  13.2106
    13.3663  13.4487  13.4771  13.5322  13.6871  13.7664  13.8639  13.8912
    15.1524  15.3013  15.5356  15.5509  15.5727  15.6091  16.1134  16.3521
    16.4841  16.8529  17.2992  17.4084  17.5981

          k = 0.0000 0.3150 0.3333 ( 62269 PWs)   bands (ev):

   -66.1611 -66.1609 -66.1606 -66.1604 -66.1601 -66.1599 -66.1596 -66.1594
   -30.5607 -30.5591 -30.5578 -30.5562 -30.5361 -30.5348 -30.5305 -30.5294
   -30.4893 -30.4879 -30.4873 -30.4840 -30.4828 -30.4780 -30.4754 -30.4724
   -30.4588 -30.4558 -30.4556 -30.4530 -30.4526 -30.4506 -30.4501 -30.4482
   -20.3129 -20.3128 -20.3128 -20.3128 -20.3128 -20.3127 -20.3127 -20.3127
   -20.2896 -20.2893 -20.2891 -20.2888 -20.2874 -20.2873 -20.2873 -20.2871
   -20.2871 -20.2869 -20.2869 -20.2867 -20.2867 -20.2863 -20.2863 -20.2862
   -20.2862 -20.2861 -20.2860 -20.2859 -20.2857 -20.2856 -20.2855 -20.2855
   -20.2810 -20.2809 -20.2804 -20.2803 -20.2795 -20.2795 -20.2791 -20.2791
   -20.2783 -20.2782 -20.2779 -20.2779 -20.2771 -20.2771 -20.2769 -20.2769
   -20.2739 -20.2737 -20.2729 -20.2728 -20.2716 -20.2714 -20.2710 -20.2709
    -9.8127  -9.7121  -9.6228  -9.5413  -9.2226  -9.1225  -9.0532  -9.0341
    -8.7240  -8.6498  -8.5920  -8.5795  -8.3033  -8.2593  -8.2573  -8.1779
    -8.0484  -8.0254  -8.0085  -7.9758  -7.7571  -7.7439  -7.7053  -7.6927
     1.0248   1.0253   1.0260   1.0266   2.0291   2.0639   2.1561   2.2434
     2.4571   2.5455   2.5729   2.5870   2.6126   2.7380   2.8501   2.9192
     3.1930   3.2689   3.5070   3.5992   3.6116   3.6626   3.7157   3.7360
     4.1354   4.2626   4.3815   4.4082   4.4973   4.5299   4.5856   4.6801
     4.7133   4.8823   4.8986   4.9511   5.1400   5.2230   5.2604   5.2793
     5.4058   5.5087   5.7622   5.9567   6.1234   6.1773   6.1966   6.2011
     6.3122   6.4318   6.5255   6.5391   6.5975   6.6996   6.7024   6.7078
     6.8417   6.9438   7.0334   7.0582   7.0995   7.1612   7.1917   7.2256
     7.2651   7.3160   7.7769   7.7781   7.7979   7.8279   7.8954   7.9169
    10.3045  10.3063  10.4966  10.5133  11.1814  11.1917  11.7290  11.8189
    11.9429  11.9438  12.1224  12.1869  12.6435  12.6702  12.7785  12.7977
    13.1220  13.1680  13.3965  13.4246  13.4618  13.5234  13.8683  13.8876
    15.2411  15.2913  15.7429  15.8273  16.0466  16.0525  16.2514  16.7393
    16.8067  16.8081  17.3629  17.6220  17.8028

          k = 0.0000 0.3150-0.5000 ( 62306 PWs)   bands (ev):

   -66.1609 -66.1609 -66.1607 -66.1607 -66.1599 -66.1599 -66.1597 -66.1597
   -30.5593 -30.5593 -30.5577 -30.5577 -30.5096 -30.5095 -30.5091 -30.5091
   -30.5046 -30.5046 -30.5043 -30.5043 -30.4850 -30.4850 -30.4818 -30.4818
   -30.4573 -30.4573 -30.4544 -30.4543 -30.4514 -30.4514 -30.4494 -30.4494
   -20.3129 -20.3129 -20.3128 -20.3128 -20.3128 -20.3128 -20.3127 -20.3127
   -20.2895 -20.2894 -20.2890 -20.2890 -20.2874 -20.2874 -20.2872 -20.2872
   -20.2869 -20.2869 -20.2866 -20.2866 -20.2866 -20.2866 -20.2865 -20.2865
   -20.2861 -20.2861 -20.2859 -20.2859 -20.2857 -20.2857 -20.2855 -20.2855
   -20.2807 -20.2807 -20.2806 -20.2806 -20.2788 -20.2787 -20.2787 -20.2787
   -20.2785 -20.2785 -20.2785 -20.2785 -20.2757 -20.2757 -20.2756 -20.2756
   -20.2749 -20.2749 -20.2749 -20.2749 -20.2713 -20.2713 -20.2712 -20.2712
    -9.6968  -9.6968  -9.6056  -9.6056  -8.8968  -8.8967  -8.7919  -8.7919
    -8.7138  -8.7138  -8.7092  -8.7091  -8.5322  -8.5322  -8.4813  -8.4813
    -8.0390  -8.0390  -7.9992  -7.9992  -7.7311  -7.7311  -7.7182  -7.7182
     1.0328   1.0328   1.0345   1.0345   2.4413   2.4413   2.5595   2.5595
     2.8654   2.8654   2.9442   2.9442   2.9803   2.9803   3.1118   3.1118
     3.1484   3.1484   3.2421   3.2421   3.2757   3.2757   3.5855   3.5855
     3.9815   3.9815   4.0476   4.0476   4.0884   4.0884   4.3331   4.3331
     4.8378   4.8378   4.9661   4.9661   5.1006   5.1006   5.1583   5.1583
     5.3188   5.3188   5.8474   5.8474   6.2790   6.2790   6.2837   6.2837
     6.3488   6.3488   6.3881   6.3881   6.4186   6.4186   6.6811   6.6811
     7.0696   7.0696   7.1003   7.1004   7.1438   7.1438   7.4978   7.4978
     7.5235   7.5235   7.5901   7.5901   7.6060   7.6060   7.9034   7.9034
    10.4940  10.4940  11.1695  11.1695  11.1964  11.1964  11.6683  11.6683
    11.9117  11.9117  12.0377  12.0377  12.6050  12.6050  12.6296  12.6296
    13.0704  13.0705  13.1111  13.1111  13.4621  13.4621  13.8782  13.8783
    15.2720  15.2720  15.9248  15.9248  16.2481  16.2481  16.4989  16.4989
    17.1631  17.1631  17.2978  17.2978  18.0676

          k = 0.0000-0.4725 0.0000 ( 62212 PWs)   bands (ev):

   -66.1613 -66.1613 -66.1603 -66.1603 -66.1603 -66.1603 -66.1593 -66.1593
   -30.5617 -30.5617 -30.5614 -30.5614 -30.5558 -30.5558 -30.5556 -30.5556
   -30.4750 -30.4750 -30.4712 -30.4712 -30.4711 -30.4711 -30.4673 -30.4673
   -30.4534 -30.4534 -30.4532 -30.4531 -30.4486 -30.4486 -30.4480 -30.4480
   -20.3129 -20.3129 -20.3128 -20.3128 -20.3128 -20.3128 -20.3127 -20.3127
   -20.2883 -20.2883 -20.2878 -20.2878 -20.2878 -20.2878 -20.2873 -20.2873
   -20.2872 -20.2872 -20.2872 -20.2872 -20.2871 -20.2871 -20.2870 -20.2870
   -20.2859 -20.2859 -20.2859 -20.2859 -20.2857 -20.2857 -20.2857 -20.2856
   -20.2811 -20.2811 -20.2809 -20.2809 -20.2801 -20.2801 -20.2798 -20.2798
   -20.2787 -20.2787 -20.2781 -20.2781 -20.2778 -20.2778 -20.2774 -20.2774
   -20.2718 -20.2718 -20.2718 -20.2718 -20.2707 -20.2707 -20.2707 -20.2707
    -9.9357  -9.9357  -9.5284  -9.5284  -9.5271  -9.5271  -9.2487  -9.2487
    -8.3791  -8.3791  -8.3441  -8.3441  -8.3439  -8.3439  -8.3336  -8.3336
    -7.7772  -7.7772  -7.7764  -7.7764  -7.6737  -7.6737  -7.6734  -7.6734
     0.8496   0.8496   1.0124   1.0124   1.0143   1.0143   1.3418   1.3418
     2.2394   2.2394   3.1487   3.1487   3.1524   3.1524   3.2503   3.2503
     3.2515   3.2515   3.3109   3.3109   3.5306   3.5306   3.5311   3.5312
     3.7294   3.7294   4.5663   4.5663   4.5665   4.5665   5.2741   5.2741
     5.2752   5.2752   5.4592   5.4592   5.4602   5.4602   5.8113   5.8113
     5.8119   5.8119   5.9803   5.9803   5.9835   5.9835   6.1410   6.1410
     6.1860   6.1860   6.1911   6.1911   6.5776   6.5776   6.5783   6.5783
     6.8423   6.8423   7.2389   7.2389   7.2401   7.2401   7.5358   7.5358
     7.5362   7.5362   7.5606   7.5606   7.5610   7.5610   7.9857   7.9857
     9.1138   9.1138  11.1191  11.1191  11.1213  11.1213  11.1930  11.1930
    11.1956  11.1956  12.5600  12.5600  12.5603  12.5603  13.4190  13.4190
    13.6030  13.6030  13.6149  13.6149  13.6534  13.6534  13.6559  13.6559
    15.4824  15.4824  15.6144  15.6144  15.8426  15.8426  15.8435  15.8435
    16.4303  16.4303  18.1656  18.1664  18.2765

          k = 0.0000-0.4725 0.1667 ( 62246 PWs)   bands (ev):

   -66.1612 -66.1612 -66.1604 -66.1603 -66.1602 -66.1602 -66.1593 -66.1593
   -30.5610 -30.5610 -30.5560 -30.5559 -30.5546 -30.5546 -30.5489 -30.5489
   -30.4746 -30.4746 -30.4722 -30.4721 -30.4708 -30.4708 -30.4689 -30.4689
   -30.4594 -30.4594 -30.4550 -30.4550 -30.4528 -30.4528 -30.4485 -30.4485
   -20.3129 -20.3129 -20.3128 -20.3128 -20.3128 -20.3128 -20.3127 -20.3127
   -20.2883 -20.2883 -20.2879 -20.2879 -20.2878 -20.2878 -20.2873 -20.2873
   -20.2872 -20.2872 -20.2871 -20.2871 -20.2870 -20.2870 -20.2869 -20.2869
   -20.2860 -20.2860 -20.2859 -20.2859 -20.2858 -20.2858 -20.2857 -20.2857
   -20.2811 -20.2811 -20.2805 -20.2805 -20.2802 -20.2802 -20.2795 -20.2795
   -20.2782 -20.2782 -20.2779 -20.2779 -20.2779 -20.2779 -20.2775 -20.2775
   -20.2723 -20.2723 -20.2717 -20.2717 -20.2713 -20.2713 -20.2708 -20.2708
    -9.8804  -9.8804  -9.5388  -9.5388  -9.4324  -9.4324  -9.2034  -9.2034
    -8.3832  -8.3832  -8.3529  -8.3529  -8.3399  -8.3399  -8.3376  -8.3375
    -7.9167  -7.9167  -7.8204  -7.8204  -7.7696  -7.7696  -7.6803  -7.6802
     0.9527   0.9527   1.0179   1.0179   1.2987   1.2987   1.5295   1.5295
     2.3295   2.3295   3.1549   3.1549   3.1875   3.1875   3.2449   3.2450
     3.2996   3.2996   3.3095   3.3095   3.5266   3.5267   3.5687   3.5687
     3.7500   3.7500   4.2095   4.2095   4.6320   4.6320   4.9921   4.9921
     5.1821   5.1821   5.2540   5.2540   5.4674   5.4674   5.4957   5.4957
     5.7786   5.7786   5.7810   5.7811   6.0527   6.0527   6.1579   6.1579
     6.3130   6.3130   6.3477   6.3477   6.5706   6.5706   6.8355   6.8355
     6.9383   6.9383   6.9883   6.9883   7.0544   7.0544   7.5222   7.5223
     7.5413   7.5413   7.5461   7.5461   7.5529   7.5529   7.9587   7.9587
     9.5098   9.5098  11.1263  11.1263  11.1893  11.1893  11.2499  11.2499
    11.3212  11.3212  12.4166  12.4166  12.6137  12.6137  13.3360  13.3360
    13.4064  13.4064  13.5642  13.5642  13.6299  13.6299  13.6577  13.6577
    15.5220  15.5220  15.8056  15.8056  15.8308  15.8308  16.1533  16.1533
    16.5093  16.5093  17.8611  17.8611  18.1284

          k = 0.0000-0.4725 0.3333 ( 62268 PWs)   bands (ev):

   -66.1610 -66.1610 -66.1605 -66.1605 -66.1600 -66.1600 -66.1595 -66.1595
   -30.5599 -30.5599 -30.5570 -30.5570 -30.5354 -30.5354 -30.5299 -30.5299
   -30.4833 -30.4833 -30.4799 -30.4799 -30.4734 -30.4734 -30.4697 -30.4696
   -30.4678 -30.4678 -30.4658 -30.4658 -30.4519 -30.4519 -30.4494 -30.4494
   -20.3129 -20.3129 -20.3128 -20.3128 -20.3128 -20.3128 -20.3127 -20.3127
   -20.2883 -20.2882 -20.2880 -20.2880 -20.2878 -20.2878 -20.2875 -20.2875
   -20.2872 -20.2872 -20.2871 -20.2871 -20.2867 -20.2867 -20.2866 -20.2866
   -20.2862 -20.2861 -20.2860 -20.2860 -20.2858 -20.2858 -20.2857 -20.2857
   -20.2809 -20.2809 -20.2804 -20.2804 -20.2795 -20.2795 -20.2791 -20.2791
   -20.2782 -20.2782 -20.2779 -20.2779 -20.2771 -20.2771 -20.2769 -20.2769
   -20.2738 -20.2738 -20.2728 -20.2728 -20.2715 -20.2715 -20.2710 -20.2710
    -9.7558  -9.7558  -9.5754  -9.5754  -9.1601  -9.1601  -9.0422  -9.0422
    -8.4447  -8.4447  -8.4193  -8.4193  -8.3396  -8.3396  -8.3271  -8.3271
    -8.2170  -8.2170  -8.1429  -8.1429  -7.7506  -7.7506  -7.6990  -7.6990
     1.0260   1.0260   1.0266   1.0266   2.0580   2.0580   2.2289   2.2289
     2.5931   2.5931   3.1632   3.1632   3.2231   3.2231   3.2555   3.2556
     3.2945   3.2946   3.4019   3.4019   3.5049   3.5049   3.6140   3.6140
     3.6964   3.6964   3.7899   3.7899   4.4339   4.4339   4.5768   4.5768
     4.7610   4.7610   4.8017   4.8017   5.0354   5.0354   5.2433   5.2433
     5.5022   5.5022   5.6877   5.6877   6.1737   6.1737   6.2052   6.2052
     6.4336   6.4336   6.5405   6.5405   6.5574   6.5574   6.7021   6.7021
     6.9280   6.9280   7.1814   7.1814   7.2019   7.2019   7.4912   7.4912
     7.5070   7.5070   7.5308   7.5308   7.5604   7.5604   7.8357   7.8357
    10.3123  10.3123  11.1414  11.1414  11.1731  11.1731  11.6397  11.6397
    11.6964  11.6965  11.9405  11.9405  12.7817  12.7817  12.8755  12.8756
    12.8965  12.8965  13.4110  13.4110  13.6224  13.6225  13.6524  13.6524
    15.6086  15.6086  15.7902  15.7902  16.3512  16.3512  16.8550  16.8550
    16.9032  16.9032  17.3198  17.3198  17.9833

          k = 0.0000-0.4725-0.5000 ( 62284 PWs)   bands (ev):

   -66.1608 -66.1608 -66.1608 -66.1608 -66.1598 -66.1598 -66.1598 -66.1598
   -30.5585 -30.5585 -30.5585 -30.5585 -30.5092 -30.5091 -30.5091 -30.5091
   -30.5040 -30.5040 -30.5040 -30.5040 -30.4716 -30.4715 -30.4715 -30.4715
   -30.4680 -30.4680 -30.4680 -30.4680 -30.4507 -30.4507 -30.4506 -30.4506
   -20.3128 -20.3128 -20.3128 -20.3128 -20.3128 -20.3127 -20.3127 -20.3127
   -20.2881 -20.2881 -20.2881 -20.2881 -20.2877 -20.2877 -20.2877 -20.2877
   -20.2871 -20.2871 -20.2871 -20.2871 -20.2864 -20.2864 -20.2864 -20.2864
   -20.2863 -20.2863 -20.2863 -20.2863 -20.2858 -20.2857 -20.2857 -20.2857
   -20.2807 -20.2807 -20.2807 -20.2807 -20.2787 -20.2787 -20.2787 -20.2787
   -20.2785 -20.2785 -20.2785 -20.2785 -20.2756 -20.2756 -20.2756 -20.2756
   -20.2749 -20.2749 -20.2749 -20.2749 -20.2713 -20.2712 -20.2712 -20.2712
    -9.6443  -9.6443  -9.6443  -9.6443  -8.7679  -8.7679  -8.7679  -8.7679
    -8.7362  -8.7362  -8.7362  -8.7362  -8.3237  -8.3237  -8.3237  -8.3237
    -8.2922  -8.2922  -8.2922  -8.2922  -7.7247  -7.7247  -7.7247  -7.7247
     1.0344   1.0344   1.0344   1.0344   2.9399   2.9399   2.9399   2.9399
     3.0551   3.0551   3.0551   3.0551   3.1571   3.1571   3.1571   3.1571
     3.2289   3.2289   3.2289   3.2289   3.3957   3.3957   3.3957   3.3957
     3.6065   3.6065   3.6065   3.6065   4.2791   4.2791   4.2791   4.2791
     4.3812   4.3812   4.3812   4.3812   5.1027   5.1027   5.1027   5.1027
     5.5638   5.5638   5.5638   5.5638   6.2914   6.2914   6.2914   6.2914
     6.3983   6.3983   6.3983   6.3983   6.5145   6.5145   6.5145   6.5145
     7.3222   7.3222   7.3222   7.3222   7.4031   7.4031   7.4031   7.4031
     7.4634   7.4634   7.4634   7.4634   7.6301   7.6301   7.6301   7.6301
    11.1104  11.1104  11.1104  11.1104  11.2298  11.2298  11.2298  11.2298
    12.2326  12.2326  12.2326  12.2326  12.2645  12.2645  12.2645  12.2645
    13.0851  13.0852  13.0852  13.0852  13.6360  13.6360  13.6360  13.6360
    15.7141  15.7141  15.7141  15.7141  16.8243  16.8244  16.8244  16.8244
    17.5727  17.5728  17.5729  17.5729  17.6747

          k = 0.1667 0.0000 0.1667 ( 62234 PWs)   bands (ev):

   -66.1614 -66.1610 -66.1605 -66.1605 -66.1601 -66.1601 -66.1596 -66.1592
   -30.5558 -30.5556 -30.5528 -30.5525 -30.5509 -30.5505 -30.5480 -30.5473
   -30.5033 -30.5002 -30.5002 -30.4972 -30.4628 -30.4617 -30.4591 -30.4589
   -30.4583 -30.4575 -30.4545 -30.4545 -30.4446 -30.4407 -30.4407 -30.4372
   -20.3129 -20.3128 -20.3128 -20.3128 -20.3128 -20.3127 -20.3127 -20.3127
   -20.2909 -20.2905 -20.2905 -20.2901 -20.2877 -20.2876 -20.2874 -20.2873
   -20.2871 -20.2871 -20.2868 -20.2866 -20.2863 -20.2863 -20.2861 -20.2861
   -20.2857 -20.2855 -20.2854 -20.2853 -20.2852 -20.2848 -20.2847 -20.2843
   -20.2807 -20.2807 -20.2804 -20.2804 -20.2800 -20.2799 -20.2794 -20.2793
   -20.2780 -20.2780 -20.2780 -20.2779 -20.2777 -20.2776 -20.2776 -20.2776
   -20.2725 -20.2723 -20.2722 -20.2720 -20.2715 -20.2715 -20.2712 -20.2712
    -9.9527  -9.7367  -9.5647  -9.5639  -9.3872  -9.3859  -9.1714  -9.1563
    -8.9737  -8.8307  -8.8305  -8.8198  -7.9255  -7.9252  -7.9048  -7.9044
    -7.8598  -7.8571  -7.8204  -7.7970  -7.7097  -7.6632  -7.6631  -7.6175
     1.1378   1.1417   1.2733   1.2747   1.3027   1.3045   1.4026   1.6405
     1.6625   1.6974   1.6980   1.9099   2.3829   2.4639   2.6458   2.6460
     2.7494   2.7715   4.0944   4.1171   4.1626   4.1656   4.3026   4.3029
     4.3314   4.3326   4.6552   4.6899   4.6918   4.7784   4.9638   5.1922
     5.2134   5.2844   5.2954   5.4951   5.4973   5.5889   5.5893   5.7132
     5.7134   5.8121   5.8127   5.9578   6.0306   6.0823   6.2650   6.4181
     6.4208   6.4717   6.4803   6.5474   6.5509   6.7273   6.7293   6.7457
     6.8231   6.8283   6.8643   6.8651   6.9245   6.9699   6.9700   7.0194
     7.1324   7.1783   7.9287   7.9294   8.1054   8.1353   8.1547   8.1563
     9.7549   9.7957   9.9977  10.0407  10.0411  10.0994  12.3296  12.3662
    12.4411  12.4416  12.4494  12.4495  12.5342  12.5352  13.0296  13.0354
    13.1191  13.1383  13.4468  13.5540  14.0102  14.0164  14.0319  14.0978
    14.1164  14.4771  14.4819  15.1404  15.3764  15.6958  15.7078  16.6418
    16.6418  17.1536  17.1540  17.4099  17.5020

          k = 0.1667 0.0000 0.3333 ( 62265 PWs)   bands (ev):

   -66.1612 -66.1608 -66.1607 -66.1603 -66.1603 -66.1599 -66.1598 -66.1594
   -30.5545 -30.5516 -30.5514 -30.5486 -30.5364 -30.5340 -30.5316 -30.5294
   -30.5020 -30.5015 -30.4994 -30.4987 -30.4827 -30.4783 -30.4774 -30.4733
   -30.4611 -30.4589 -30.4577 -30.4554 -30.4437 -30.4412 -30.4398 -30.4376
   -20.3129 -20.3128 -20.3128 -20.3128 -20.3128 -20.3128 -20.3127 -20.3127
   -20.2909 -20.2907 -20.2905 -20.2902 -20.2875 -20.2875 -20.2874 -20.2871
   -20.2871 -20.2868 -20.2866 -20.2865 -20.2865 -20.2864 -20.2862 -20.2861
   -20.2860 -20.2856 -20.2855 -20.2853 -20.2851 -20.2848 -20.2848 -20.2844
   -20.2806 -20.2805 -20.2802 -20.2801 -20.2795 -20.2794 -20.2788 -20.2788
   -20.2781 -20.2780 -20.2780 -20.2779 -20.2772 -20.2772 -20.2769 -20.2768
   -20.2739 -20.2736 -20.2730 -20.2728 -20.2722 -20.2719 -20.2717 -20.2714
    -9.8200  -9.6080  -9.5978  -9.4189  -9.3438  -9.1086  -9.0399  -9.0150
    -9.0020  -8.8459  -8.7885  -8.7673  -8.2713  -8.2673  -8.2244  -8.2006
    -7.9055  -7.8867  -7.8546  -7.8366  -7.7007  -7.6735  -7.6533  -7.6272
     1.2759   1.2789   1.3031   1.3140   1.5946   1.6011   1.6488   1.6838
     2.0709   2.1354   2.2409   2.3461   2.6600   2.6669   2.7393   2.7453
     2.8935   2.9975   3.6153   3.7070   3.8852   3.9410   4.1390   4.1597
     4.2078   4.3442   4.4825   4.5114   4.5286   4.6401   4.6602   4.7905
     4.8992   4.9140   4.9468   5.1185   5.1512   5.3189   5.5613   5.6154
     5.7284   5.8553   5.9249   5.9630   5.9818   6.0132   6.0789   6.1285
     6.3995   6.4783   6.5479   6.5479   6.6095   6.6837   6.6994   6.8006
     6.8285   6.8361   6.8577   6.8865   7.0030   7.0795   7.0954   7.1115
     7.2710   7.3441   7.8046   7.8142   7.9778   8.0083   8.1495   8.1569
    10.0198  10.0369  10.4359  10.4807  10.7429  10.7995  11.9812  12.0091
    12.1831  12.4560  12.5075  12.5630  12.6026  12.6235  12.6950  12.7916
    13.0181  13.1452  13.2438  13.3660  13.6315  13.6662  14.0251  14.0491
    14.2875  14.4562  14.7968  15.2766  15.4788  16.0655  16.2456  16.5272
    16.5538  17.5684  17.5877  17.6468  17.7371

          k = 0.1667 0.0000-0.5000 ( 62322 PWs)   bands (ev):

   -66.1609 -66.1609 -66.1605 -66.1605 -66.1600 -66.1600 -66.1597 -66.1596
   -30.5531 -30.5531 -30.5500 -30.5500 -30.5103 -30.5103 -30.5098 -30.5097
   -30.5083 -30.5083 -30.5051 -30.5051 -30.4951 -30.4951 -30.4943 -30.4943
   -30.4600 -30.4599 -30.4566 -30.4566 -30.4424 -30.4424 -30.4387 -30.4387
   -20.3129 -20.3129 -20.3128 -20.3128 -20.3128 -20.3128 -20.3127 -20.3127
   -20.2908 -20.2908 -20.2904 -20.2904 -20.2875 -20.2874 -20.2873 -20.2873
   -20.2868 -20.2868 -20.2866 -20.2866 -20.2864 -20.2864 -20.2863 -20.2862
   -20.2859 -20.2859 -20.2854 -20.2854 -20.2849 -20.2849 -20.2846 -20.2846
   -20.2804 -20.2804 -20.2803 -20.2803 -20.2787 -20.2787 -20.2786 -20.2786
   -20.2784 -20.2784 -20.2783 -20.2783 -20.2757 -20.2757 -20.2755 -20.2755
   -20.2750 -20.2750 -20.2749 -20.2749 -20.2719 -20.2719 -20.2716 -20.2716
    -9.6915  -9.6914  -9.4831  -9.4831  -9.1175  -9.1175  -8.8913  -8.8913
    -8.6960  -8.6960  -8.6908  -8.6908  -8.6247  -8.6247  -8.5686  -8.5686
    -7.8802  -7.8802  -7.8619  -7.8619  -7.6873  -7.6873  -7.6403  -7.6403
     1.2835   1.2835   1.3217   1.3217   1.6336   1.6337   1.6627   1.6627
     2.6928   2.6929   2.9307   2.9307   2.9968   2.9968   3.1057   3.1057
     3.1198   3.1198   3.2359   3.2359   3.3520   3.3520   3.7122   3.7122
     3.7978   3.7978   4.2565   4.2565   4.6001   4.6001   4.7606   4.7606
     4.8578   4.8578   4.8692   4.8692   5.1074   5.1074   5.6916   5.6916
     5.7065   5.7065   5.8090   5.8090   5.9867   5.9867   6.1085   6.1085
     6.3561   6.3561   6.5453   6.5453   6.6416   6.6416   6.7362   6.7362
     6.8319   6.8319   6.9052   6.9052   6.9657   6.9657   7.5151   7.5151
     7.5332   7.5332   7.7059   7.7059   7.7321   7.7321   8.1572   8.1572
    10.0314  10.0314  11.2414  11.2415  11.2857  11.2857  11.5563  11.5563
    11.6613  11.6613  12.5278  12.5278  12.8281  12.8281  12.8909  12.8909
    13.0046  13.0046  13.1960  13.1960  13.2760  13.2760  14.0340  14.0340
    14.4014  14.4015  15.0892  15.0892  15.9483  15.9483  16.3795  16.3795
    17.0711  17.0711  17.9214  17.9249  17.9403

          k = 0.1667 0.1575 0.1667 ( 62255 PWs)   bands (ev):

   -66.1613 -66.1610 -66.1605 -66.1604 -66.1601 -66.1601 -66.1596 -66.1592
   -30.5556 -30.5554 -30.5530 -30.5527 -30.5507 -30.5502 -30.5482 -30.5475
   -30.4994 -30.4964 -30.4964 -30.4934 -30.4628 -30.4616 -30.4594 -30.4591
   -30.4583 -30.4575 -30.4547 -30.4547 -30.4486 -30.4445 -30.4444 -30.4409
   -20.3129 -20.3128 -20.3128 -20.3128 -20.3128 -20.3127 -20.3127 -20.3127
   -20.2906 -20.2902 -20.2902 -20.2897 -20.2876 -20.2875 -20.2873 -20.2873
   -20.2871 -20.2870 -20.2868 -20.2867 -20.2863 -20.2862 -20.2862 -20.2861
   -20.2859 -20.2856 -20.2855 -20.2855 -20.2853 -20.2852 -20.2850 -20.2847
   -20.2807 -20.2807 -20.2804 -20.2804 -20.2800 -20.2800 -20.2794 -20.2793
   -20.2780 -20.2780 -20.2780 -20.2779 -20.2777 -20.2776 -20.2776 -20.2776
   -20.2725 -20.2723 -20.2722 -20.2720 -20.2715 -20.2714 -20.2712 -20.2712
    -9.9308  -9.7458  -9.5422  -9.5413  -9.3931  -9.3917  -9.1704  -9.1573
    -8.8997  -8.7778  -8.7777  -8.7660  -7.9243  -7.9236  -7.9102  -7.9100
    -7.8769  -7.8580  -7.8190  -7.7995  -7.7986  -7.7620  -7.7619  -7.7164
     1.1381   1.1414   1.2877   1.2892   1.3029   1.3046   1.5078   1.6400
     1.8658   1.9232   1.9237   2.0807   2.3883   2.4587   2.7183   2.7184
     2.8211   2.8378   3.9704   4.0021   4.0157   4.0206   4.2731   4.2740
     4.3052   4.3056   4.6566   4.7276   4.7499   4.7805   4.7876   5.1375
     5.1886   5.2491   5.2504   5.2744   5.3182   5.5555   5.5558   5.7091
     5.7188   5.7298   5.9285   5.9294   5.9526   6.0662   6.2895   6.3417
     6.3432   6.4361   6.4482   6.5286   6.5551   6.7287   6.7310   6.7346
     6.7371   6.8766   6.8773   6.9012   6.9470   6.9795   6.9804   7.0296
     7.1346   7.1817   7.9291   7.9298   8.0480   8.0793   8.0815   8.0825
     9.7710   9.7929  10.1707  10.2229  10.2249  10.2556  12.1973  12.2382
    12.3280  12.3290  12.4523  12.4527  12.4919  12.4923  13.0706  13.0765
    13.1278  13.1559  13.4402  13.5567  13.9197  13.9273  13.9307  14.0102
    14.4837  14.8094  14.8108  15.2463  15.6963  15.7070  15.7932  16.6022
    16.6026  17.0476  17.2366  17.2368  17.4848

          k = 0.1667 0.1575 0.3333 ( 62260 PWs)   bands (ev):

   -66.1611 -66.1608 -66.1606 -66.1603 -66.1603 -66.1599 -66.1598 -66.1594
   -30.5543 -30.5516 -30.5514 -30.5488 -30.5362 -30.5341 -30.5314 -30.5295
   -30.4984 -30.4978 -30.4959 -30.4949 -30.4826 -30.4783 -30.4772 -30.4733
   -30.4610 -30.4590 -30.4578 -30.4556 -30.4476 -30.4451 -30.4435 -30.4414
   -20.3129 -20.3128 -20.3128 -20.3128 -20.3128 -20.3128 -20.3127 -20.3127
   -20.2905 -20.2903 -20.2901 -20.2899 -20.2875 -20.2874 -20.2873 -20.2871
   -20.2870 -20.2868 -20.2866 -20.2866 -20.2865 -20.2863 -20.2862 -20.2861
   -20.2861 -20.2857 -20.2855 -20.2854 -20.2854 -20.2851 -20.2851 -20.2848
   -20.2806 -20.2805 -20.2802 -20.2801 -20.2795 -20.2794 -20.2788 -20.2788
   -20.2781 -20.2780 -20.2780 -20.2779 -20.2772 -20.2772 -20.2769 -20.2768
   -20.2739 -20.2736 -20.2730 -20.2728 -20.2722 -20.2719 -20.2716 -20.2714
    -9.7963  -9.6065  -9.5847  -9.4252  -9.3099  -9.1146  -9.0355  -9.0076
    -8.9385  -8.7953  -8.7401  -8.7257  -8.2758  -8.2642  -8.2320  -8.1972
    -7.9039  -7.8928  -7.8531  -7.8452  -7.7949  -7.7716  -7.7529  -7.7269
     1.2912   1.2962   1.3034   1.3141   1.7898   1.7967   1.8773   1.9136
     2.0703   2.1673   2.2405   2.3796   2.6663   2.7353   2.7426   2.8109
     2.9674   3.0629   3.6137   3.7028   3.8632   3.9007   4.0099   4.0933
     4.2028   4.2497   4.4705   4.4975   4.5106   4.6648   4.6784   4.7233
     4.7979   4.8110   4.8227   5.0966   5.1056   5.1349   5.3132   5.5885
     5.6980   5.7270   5.7507   5.9021   5.9632   6.0044   6.0622   6.0760
     6.3055   6.5026   6.5121   6.6733   6.6838   6.7047   6.7124   6.7511
     6.8352   6.8907   6.9252   6.9732   6.9924   7.0732   7.1038   7.1286
     7.2674   7.3416   7.8066   7.8113   7.9314   7.9519   8.0822   8.0845
    10.1867  10.2189  10.4472  10.4876  10.8610  10.8971  11.9810  12.0067
    12.1314  12.3526  12.4610  12.4941  12.5348  12.6298  12.6413  12.7201
    13.0573  13.1384  13.2255  13.3758  13.5229  13.5764  13.9301  13.9582
    14.6558  14.7923  15.1715  15.5559  15.7078  16.0587  16.2584  16.5179
    16.6149  17.3798  17.5344  17.6162  17.8195

          k = 0.1667 0.1575-0.5000 ( 62292 PWs)   bands (ev):

   -66.1609 -66.1609 -66.1606 -66.1605 -66.1600 -66.1600 -66.1597 -66.1597
   -30.5529 -30.5528 -30.5502 -30.5502 -30.5096 -30.5096 -30.5096 -30.5096
   -30.5068 -30.5068 -30.5050 -30.5049 -30.4928 -30.4928 -30.4916 -30.4916
   -30.4599 -30.4599 -30.4568 -30.4568 -30.4463 -30.4463 -30.4424 -30.4424
   -20.3129 -20.3129 -20.3128 -20.3128 -20.3128 -20.3128 -20.3127 -20.3127
   -20.2904 -20.2904 -20.2900 -20.2900 -20.2874 -20.2874 -20.2872 -20.2872
   -20.2867 -20.2867 -20.2866 -20.2866 -20.2864 -20.2864 -20.2863 -20.2863
   -20.2859 -20.2859 -20.2855 -20.2854 -20.2852 -20.2852 -20.2850 -20.2850
   -20.2804 -20.2804 -20.2803 -20.2803 -20.2787 -20.2787 -20.2786 -20.2786
   -20.2784 -20.2784 -20.2783 -20.2783 -20.2757 -20.2757 -20.2755 -20.2755
   -20.2750 -20.2750 -20.2749 -20.2749 -20.2719 -20.2719 -20.2717 -20.2717
    -9.6672  -9.6672  -9.4905  -9.4905  -9.0581  -9.0581  -8.8561  -8.8561
    -8.7009  -8.7009  -8.6934  -8.6934  -8.6088  -8.6088  -8.5528  -8.5528
    -7.8788  -7.8788  -7.8687  -7.8687  -7.7842  -7.7842  -7.7400  -7.7400
     1.3032   1.3032   1.3218   1.3218   1.8411   1.8411   1.9051   1.9051
     2.7598   2.7598   2.9430   2.9430   3.0015   3.0015   3.1111   3.1111
     3.1333   3.1333   3.2493   3.2493   3.3453   3.3453   3.7333   3.7333
     3.8522   3.8522   4.1141   4.1141   4.5658   4.5658   4.6223   4.6223
     4.8090   4.8090   4.8567   4.8567   4.9477   4.9478   5.4520   5.4520
     5.6854   5.6854   5.7870   5.7870   5.8274   5.8274   6.0323   6.0323
     6.4574   6.4574   6.6425   6.6425   6.6514   6.6514   6.7627   6.7627
     6.8178   6.8178   6.9298   6.9298   7.0204   7.0204   7.5191   7.5191
     7.5281   7.5281   7.6789   7.6789   7.7027   7.7027   8.0861   8.0861
    10.2094  10.2094  11.2458  11.2458  11.2865  11.2865  11.6243  11.6243
    11.7243  11.7243  12.3797  12.3797  12.8006  12.8006  12.8484  12.8484
    12.9899  12.9899  13.1121  13.1121  13.2348  13.2348  13.9402  13.9402
    14.7502  14.7502  15.4858  15.4858  16.0446  16.0446  16.3542  16.3542
    17.1051  17.1051  17.7311  17.7312  17.9499

          k = 0.1667 0.3150 0.1667 ( 62249 PWs)   bands (ev):

   -66.1613 -66.1611 -66.1604 -66.1604 -66.1602 -66.1602 -66.1595 -66.1593
   -30.5550 -30.5548 -30.5535 -30.5532 -30.5501 -30.5497 -30.5487 -30.5481
   -30.4888 -30.4859 -30.4859 -30.4832 -30.4635 -30.4614 -30.4609 -30.4597
   -30.4595 -30.4594 -30.4580 -30.4554 -30.4550 -30.4532 -30.4529 -30.4500
   -20.3129 -20.3129 -20.3128 -20.3128 -20.3128 -20.3128 -20.3127 -20.3127
   -20.2896 -20.2892 -20.2892 -20.2887 -20.2874 -20.2874 -20.2873 -20.2872
   -20.2871 -20.2871 -20.2869 -20.2869 -20.2864 -20.2864 -20.2863 -20.2861
   -20.2861 -20.2860 -20.2860 -20.2860 -20.2857 -20.2856 -20.2855 -20.2854
   -20.2807 -20.2807 -20.2804 -20.2804 -20.2800 -20.2800 -20.2794 -20.2793
   -20.2780 -20.2780 -20.2780 -20.2780 -20.2777 -20.2776 -20.2776 -20.2776
   -20.2724 -20.2722 -20.2722 -20.2721 -20.2714 -20.2714 -20.2713 -20.2713
    -9.8778  -9.7735  -9.4922  -9.4911  -9.4114  -9.4101  -9.1676  -9.1600
    -8.6906  -8.6140  -8.6140  -8.6033  -8.0778  -8.0424  -8.0422  -8.0204
    -7.9177  -7.9171  -7.8966  -7.8963  -7.8524  -7.8274  -7.8145  -7.8028
     1.1387   1.1406   1.2992   1.3009   1.3030   1.3048   1.6027   1.6375
     2.4027   2.4380   2.4556   2.5590   2.5598   2.6950   2.9416   2.9424
     3.0318   3.0507   3.6180   3.6206   3.6470   3.6966   4.1619   4.2651
     4.2658   4.2918   4.2927   4.5271   4.5282   4.7640   4.8056   4.8934
     4.9292   4.9303   5.0736   5.1294   5.3014   5.3707   5.4367   5.4369
     5.7320   5.7325   5.7392   5.7558   5.8847   5.8849   6.3084   6.3123
     6.3792   6.4185   6.4259   6.5375   6.5586   6.6671   6.7696   6.7705
     6.8796   6.8802   6.9687   6.9954   7.0768   7.0823   7.1665   7.1671
     7.1948   7.2244   7.8556   7.8632   7.8645   7.8726   7.9324   7.9451
     9.7853   9.7912  10.6287  10.6901  10.7020  10.7057  11.8019  11.8498
    11.9076  11.9085  12.4598  12.4602  12.4823  12.4825  13.1909  13.1943
    13.2023  13.2409  13.4118  13.5662  13.6806  13.6850  13.6972  13.8100
    15.3129  15.5316  15.5333  15.6555  15.7003  15.7048  16.4615  16.4625
    16.4683  16.8207  17.3722  17.5022  17.5027

          k = 0.1667 0.3150 0.3333 ( 62265 PWs)   bands (ev):

   -66.1611 -66.1609 -66.1606 -66.1604 -66.1602 -66.1600 -66.1597 -66.1595
   -30.5537 -30.5522 -30.5508 -30.5493 -30.5357 -30.5345 -30.5309 -30.5297
   -30.4890 -30.4876 -30.4874 -30.4847 -30.4825 -30.4783 -30.4755 -30.4727
   -30.4612 -30.4605 -30.4584 -30.4578 -30.4562 -30.4553 -30.4526 -30.4508
   -20.3129 -20.3128 -20.3128 -20.3128 -20.3128 -20.3128 -20.3127 -20.3127
   -20.2896 -20.2893 -20.2892 -20.2889 -20.2873 -20.2873 -20.2872 -20.2872
   -20.2869 -20.2869 -20.2869 -20.2867 -20.2866 -20.2863 -20.2863 -20.2863
   -20.2862 -20.2861 -20.2860 -20.2859 -20.2857 -20.2857 -20.2855 -20.2855
   -20.2806 -20.2805 -20.2802 -20.2801 -20.2795 -20.2795 -20.2788 -20.2788
   -20.2781 -20.2780 -20.2779 -20.2779 -20.2772 -20.2772 -20.2769 -20.2768
   -20.2738 -20.2737 -20.2730 -20.2729 -20.2721 -20.2720 -20.2716 -20.2715
    -9.7396  -9.6334  -9.5322  -9.4452  -9.2366  -9.1343  -9.0265  -9.0115
    -8.7363  -8.6406  -8.5880  -8.5849  -8.2962  -8.2730  -8.2531  -8.1851
    -8.0457  -8.0351  -8.0106  -7.9845  -7.8985  -7.8790  -7.8479  -7.8314
     1.3008   1.3032   1.3099   1.3142   2.0328   2.0682   2.1500   2.2374
     2.4563   2.5457   2.5620   2.6566   2.6815   2.7737   2.9560   3.0245
     3.1931   3.2641   3.5577   3.6304   3.6641   3.6944   3.7301   3.8030
     4.1290   4.2639   4.3628   4.4067   4.4525   4.4792   4.5168   4.5401
     4.5746   4.7890   4.8116   4.8322   4.9155   4.9391   5.0480   5.1575
     5.2885   5.3689   5.4679   5.6829   5.7485   5.8839   6.0560   6.0700
     6.4397   6.5396   6.5856   6.7414   6.7509   6.7578   6.9083   6.9182
     6.9447   7.0131   7.0325   7.0609   7.0952   7.1765   7.2102   7.2369
     7.2723   7.3345   7.7672   7.7797   7.7848   7.8187   7.8704   7.8992
    10.4439  10.4603  10.6872  10.6962  11.1900  11.2003  11.8184  11.8875
    11.9870  12.0389  12.1284  12.1842  12.6084  12.6645  12.6739  12.6904
    13.1065  13.1354  13.1823  13.2998  13.3981  13.4229  13.6912  13.7391
    15.4606  15.5229  15.9151  16.0266  16.0477  16.3289  16.3943  16.7112
    16.8702  16.8940  17.3558  17.6501  17.7412

          k = 0.1667 0.3150-0.5000 ( 62264 PWs)   bands (ev):

   -66.1608 -66.1608 -66.1606 -66.1606 -66.1599 -66.1599 -66.1598 -66.1597
   -30.5523 -30.5523 -30.5508 -30.5507 -30.5092 -30.5092 -30.5088 -30.5088
   -30.5048 -30.5048 -30.5046 -30.5046 -30.4846 -30.4846 -30.4825 -30.4825
   -30.4606 -30.4606 -30.4573 -30.4573 -30.4568 -30.4568 -30.4518 -30.4518
   -20.3129 -20.3128 -20.3128 -20.3128 -20.3128 -20.3128 -20.3127 -20.3127
   -20.2895 -20.2895 -20.2890 -20.2890 -20.2873 -20.2873 -20.2872 -20.2872
   -20.2868 -20.2868 -20.2866 -20.2866 -20.2866 -20.2865 -20.2865 -20.2864
   -20.2861 -20.2861 -20.2859 -20.2859 -20.2858 -20.2857 -20.2856 -20.2856
   -20.2804 -20.2804 -20.2803 -20.2803 -20.2787 -20.2786 -20.2786 -20.2786
   -20.2784 -20.2784 -20.2783 -20.2783 -20.2757 -20.2757 -20.2756 -20.2756
   -20.2750 -20.2750 -20.2749 -20.2749 -20.2719 -20.2719 -20.2717 -20.2717
    -9.6113  -9.6113  -9.5137  -9.5137  -8.9129  -8.9129  -8.7799  -8.7799
    -8.7194  -8.7194  -8.7020  -8.7020  -8.5281  -8.5281  -8.4848  -8.4848
    -8.0385  -8.0385  -8.0097  -8.0097  -7.8733  -7.8733  -7.8553  -7.8553
     1.3173   1.3173   1.3219   1.3219   2.4428   2.4428   2.5372   2.5372
     2.9321   2.9321   2.9868   2.9868   3.0094   3.0094   3.1274   3.1274
     3.1660   3.1660   3.3039   3.3039   3.3191   3.3191   3.6292   3.6292
     3.9880   3.9880   4.0402   4.0402   4.0867   4.0867   4.3390   4.3390
     4.7107   4.7108   4.7818   4.7818   4.9100   4.9100   4.9922   4.9922
     5.0517   5.0517   5.5399   5.5399   5.8209   5.8209   5.9071   5.9071
     6.6050   6.6050   6.7265   6.7265   6.7425   6.7425   6.7987   6.7987
     7.0503   7.0503   7.1033   7.1033   7.1924   7.1924   7.5096   7.5096
     7.5284   7.5284   7.5905   7.5905   7.6123   7.6123   7.8801   7.8801
    10.6729  10.6729  11.2536  11.2536  11.2882  11.2882  11.7337  11.7337
    11.9220  11.9220  12.0659  12.0659  12.5995  12.5996  12.6210  12.6210
    12.9453  12.9453  13.0197  13.0197  13.2770  13.2770  13.7082  13.7082
    15.5024  15.5024  16.2574  16.2574  16.3377  16.3377  16.4872  16.4872
    17.2448  17.2448  17.3489  17.3489  17.9419

          k = 0.1667-0.4725 0.1667 ( 62220 PWs)   bands (ev):

   -66.1612 -66.1612 -66.1603 -66.1603 -66.1603 -66.1603 -66.1594 -66.1594
   -30.5543 -30.5543 -30.5540 -30.5540 -30.5494 -30.5494 -30.5489 -30.5489
   -30.4742 -30.4742 -30.4719 -30.4718 -30.4718 -30.4718 -30.4701 -30.4701
   -30.4602 -30.4602 -30.4582 -30.4581 -30.4555 -30.4554 -30.4547 -30.4547
   -20.3129 -20.3129 -20.3128 -20.3128 -20.3128 -20.3128 -20.3127 -20.3127
   -20.2883 -20.2883 -20.2879 -20.2879 -20.2879 -20.2879 -20.2874 -20.2874
   -20.2871 -20.2871 -20.2870 -20.2870 -20.2869 -20.2869 -20.2869 -20.2869
   -20.2860 -20.2860 -20.2860 -20.2859 -20.2858 -20.2858 -20.2857 -20.2857
   -20.2807 -20.2807 -20.2804 -20.2804 -20.2800 -20.2800 -20.2794 -20.2794
   -20.2780 -20.2780 -20.2780 -20.2780 -20.2777 -20.2777 -20.2776 -20.2776
   -20.2723 -20.2723 -20.2722 -20.2722 -20.2714 -20.2714 -20.2713 -20.2713
    -9.8194  -9.8194  -9.4444  -9.4443  -9.4431  -9.4431  -9.1638  -9.1638
    -8.3903  -8.3903  -8.3488  -8.3486  -8.3485  -8.3483  -8.3393  -8.3392
    -7.9103  -7.9101  -7.9095  -7.9093  -7.8439  -7.8439  -7.8087  -7.8087
     1.1395   1.1396   1.3023   1.3026   1.3041   1.3044   1.6294   1.6294
     2.4221   2.4221   3.1869   3.1898   3.1907   3.1946   3.2598   3.2599
     3.3077   3.3080   3.3321   3.3325   3.5621   3.5625   3.5664   3.5673
     3.7667   3.7668   4.2693   4.2700   4.2956   4.2962   4.9371   4.9379
     5.0350   5.0354   5.1726   5.1738   5.1979   5.1988   5.4290   5.4295
     5.4990   5.4992   5.7599   5.7612   5.7827   5.7836   6.3726   6.3817
     6.3855   6.3962   6.5089   6.5098   6.5582   6.5592   6.8253   6.8256
     6.8342   6.8350   7.0243   7.0244   7.1271   7.1273   7.5236   7.5247
     7.5248   7.5281   7.5317   7.5342   7.5523   7.5526   7.9348   7.9348
     9.7898   9.7899  11.2272  11.2281  11.2824  11.2838  11.3140  11.3164
    11.3170  11.3187  12.4623  12.4627  12.4812  12.4814  13.3062  13.3063
    13.4045  13.4071  13.4176  13.4202  13.4310  13.4323  13.6487  13.6488
    15.7012  15.7013  15.9020  15.9024  16.1386  16.1397  16.1452  16.1460
    16.5727  16.5728  17.8822  17.8867  17.8883

          k = 0.1667-0.4725 0.3333 ( 62252 PWs)   bands (ev):

   -66.1610 -66.1610 -66.1605 -66.1605 -66.1601 -66.1601 -66.1596 -66.1596
   -30.5529 -30.5529 -30.5501 -30.5501 -30.5351 -30.5351 -30.5303 -30.5303
   -30.4831 -30.4831 -30.4800 -30.4800 -30.4730 -30.4730 -30.4708 -30.4708
   -30.4677 -30.4676 -30.4672 -30.4671 -30.4579 -30.4579 -30.4558 -30.4558
   -20.3129 -20.3129 -20.3128 -20.3128 -20.3128 -20.3128 -20.3127 -20.3127
   -20.2883 -20.2883 -20.2880 -20.2880 -20.2879 -20.2879 -20.2876 -20.2875
   -20.2871 -20.2871 -20.2869 -20.2869 -20.2867 -20.2867 -20.2866 -20.2866
   -20.2861 -20.2861 -20.2860 -20.2860 -20.2859 -20.2859 -20.2858 -20.2858
   -20.2806 -20.2805 -20.2802 -20.2802 -20.2795 -20.2795 -20.2788 -20.2788
   -20.2781 -20.2780 -20.2779 -20.2779 -20.2772 -20.2772 -20.2769 -20.2769
   -20.2738 -20.2737 -20.2729 -20.2729 -20.2720 -20.2720 -20.2715 -20.2715
    -9.6792  -9.6792  -9.4810  -9.4809  -9.1730  -9.1728  -9.0180  -9.0180
    -8.4596  -8.4594  -8.4132  -8.4120  -8.3379  -8.3370  -8.3346  -8.3344
    -8.2123  -8.2117  -8.1484  -8.1476  -7.8913  -7.8910  -7.8413  -7.8410
     1.3028   1.3034   1.3133   1.3139   2.0620   2.0625   2.2233   2.2242
     2.6960   2.6968   3.1939   3.1993   3.2401   3.2496   3.2497   3.2706
     3.2972   3.2980   3.4141   3.4417   3.5244   3.5546   3.6361   3.6541
     3.7327   3.7614   3.7943   3.8044   4.4097   4.4359   4.4579   4.4657
     4.5955   4.6360   4.7755   4.7944   4.9447   4.9498   4.9683   5.0365
     5.1877   5.2253   5.3185   5.4084   5.7719   5.7877   6.0550   6.0670
     6.5192   6.5203   6.6697   6.6886   6.7896   6.7998   6.9415   6.9578
     6.9605   7.0026   7.1696   7.1812   7.2180   7.2281   7.4838   7.4909
     7.4995   7.5063   7.5245   7.5368   7.5410   7.5578   7.8232   7.8282
    10.4612  10.4628  11.2605  11.2733  11.2944  11.3019  11.6457  11.6571
    11.6824  11.6947  11.9879  12.0264  12.6227  12.6740  12.8594  12.8893
    12.8901  12.9215  13.2316  13.3474  13.4181  13.4430  13.4747  13.5616
    15.8950  15.9098  16.0998  16.1103  16.4168  16.4399  16.8684  16.8737
    16.8901  16.9059  17.3578  17.3809  17.9165

          k = 0.1667-0.4725-0.5000 ( 62232 PWs)   bands (ev):

   -66.1607 -66.1607 -66.1607 -66.1607 -66.1599 -66.1598 -66.1598 -66.1598
   -30.5515 -30.5515 -30.5515 -30.5515 -30.5088 -30.5088 -30.5088 -30.5088
   -30.5044 -30.5044 -30.5044 -30.5043 -30.4712 -30.4712 -30.4712 -30.4712
   -30.4693 -30.4693 -30.4693 -30.4693 -30.4569 -30.4569 -30.4569 -30.4569
   -20.3128 -20.3128 -20.3128 -20.3128 -20.3128 -20.3127 -20.3127 -20.3127
   -20.2882 -20.2882 -20.2882 -20.2882 -20.2877 -20.2877 -20.2877 -20.2877
   -20.2870 -20.2870 -20.2870 -20.2870 -20.2864 -20.2864 -20.2864 -20.2864
   -20.2863 -20.2863 -20.2863 -20.2862 -20.2858 -20.2858 -20.2858 -20.2858
   -20.2804 -20.2804 -20.2804 -20.2803 -20.2786 -20.2786 -20.2786 -20.2786
   -20.2784 -20.2784 -20.2783 -20.2783 -20.2756 -20.2756 -20.2756 -20.2756
   -20.2749 -20.2749 -20.2749 -20.2749 -20.2718 -20.2718 -20.2718 -20.2718
    -9.5546  -9.5546  -9.5545  -9.5545  -8.7873  -8.7873  -8.7857  -8.7857
    -8.7210  -8.7210  -8.7191  -8.7191  -8.3225  -8.3225  -8.3192  -8.3192
    -8.2994  -8.2994  -8.2960  -8.2960  -7.8664  -7.8664  -7.8660  -7.8660
     1.3208   1.3208   1.3215   1.3215   2.9522   2.9522   2.9556   2.9556
     3.0563   3.0563   3.1005   3.1005   3.1440   3.1440   3.1817   3.1817
     3.2892   3.2892   3.3211   3.3212   3.3914   3.3914   3.4215   3.4215
     3.6281   3.6281   3.6395   3.6395   4.2757   4.2757   4.2837   4.2837
     4.3675   4.3675   4.3769   4.3769   4.7643   4.7643   4.8604   4.8604
     5.1897   5.1897   5.2866   5.2866   5.8314   5.8314   5.8476   5.8476
     6.6785   6.6785   6.7102   6.7102   6.7749   6.7749   6.8017   6.8017
     7.3049   7.3049   7.3545   7.3545   7.3881   7.3881   7.4161   7.4161
     7.4501   7.4501   7.4850   7.4850   7.6144   7.6145   7.6418   7.6418
    11.1817  11.1817  11.2386  11.2386  11.3035  11.3035  11.3819  11.3819
    12.2308  12.2308  12.2471  12.2471  12.2559  12.2559  12.2693  12.2693
    12.9357  12.9357  13.0049  13.0049  13.4289  13.4289  13.4816  13.4816
    16.0224  16.0224  16.0364  16.0364  16.8849  16.8850  16.8944  16.8944
    17.5617  17.5617  17.5904  17.5904  17.6748

          k = 0.3333 0.0000 0.3333 ( 62316 PWs)   bands (ev):

   -66.1610 -66.1606 -66.1605 -66.1605 -66.1601 -66.1601 -66.1600 -66.1596
   -30.5354 -30.5352 -30.5332 -30.5331 -30.5326 -30.5319 -30.5316 -30.5289
   -30.5012 -30.5005 -30.5005 -30.4999 -30.4825 -30.4806 -30.4792 -30.4791
   -30.4779 -30.4752 -30.4740 -30.4739 -30.4427 -30.4404 -30.4403 -30.4381
   -20.3129 -20.3128 -20.3128 -20.3128 -20.3128 -20.3128 -20.3127 -20.3127
   -20.2909 -20.2906 -20.2906 -20.2904 -20.2874 -20.2873 -20.2872 -20.2871
   -20.2870 -20.2869 -20.2866 -20.2865 -20.2865 -20.2863 -20.2862 -20.2860
   -20.2859 -20.2857 -20.2856 -20.2855 -20.2850 -20.2848 -20.2847 -20.2845
   -20.2800 -20.2799 -20.2796 -20.2796 -20.2795 -20.2794 -20.2784 -20.2783
   -20.2780 -20.2779 -20.2774 -20.2773 -20.2771 -20.2771 -20.2765 -20.2765
   -20.2740 -20.2737 -20.2734 -20.2732 -20.2732 -20.2731 -20.2729 -20.2729
    -9.6554  -9.4000  -9.3928  -9.3922  -9.1446  -9.1434  -9.0547  -8.9299
    -8.9123  -8.7792  -8.7787  -8.7676  -8.3282  -8.2639  -8.2544  -8.2539
    -8.2458  -8.2456  -8.1580  -8.1368  -7.6911  -7.6637  -7.6636  -7.6371
     1.5528   1.5857   1.5858   1.6338   1.9229   1.9254   2.0806   2.0819
     2.1415   2.1426   2.3547   2.4691   2.9065   2.9068   2.9369   2.9397
     3.0439   3.0507   3.7588   3.7634   3.8321   3.8371   3.9316   3.9325
     4.1221   4.1224   4.1311   4.2420   4.2984   4.2984   4.4142   4.4346
     4.7383   4.7812   4.7876   4.8644   4.9144   4.9151   5.0137   5.3244
     5.3435   5.3726   5.3743   5.7064   6.0491   6.0491   6.0899   6.1392
     6.4842   6.5465   6.5472   6.5711   6.6251   6.6481   6.6482   6.6737
     6.9763   7.1172   7.1174   7.1644   7.1652   7.1704   7.2647   7.2736
     7.2746   7.4661   7.7334   7.7375   7.9396   8.0130   8.0140   8.0551
    10.6782  10.7036  10.7428  10.7459  10.9321  11.0490  12.1578  12.1593
    12.2159  12.2175  12.2818  12.2926  12.4940  12.4954  12.7425  12.7438
    12.7926  12.8670  12.9780  13.1001  13.5525  13.6224  13.6236  13.7231
    14.4804  14.7469  14.7471  15.1848  15.8770  16.7101  16.7558  16.9027
    16.9032  17.5491  17.5498  17.7858  17.8371

          k = 0.3333 0.0000-0.5000 ( 62288 PWs)   bands (ev):

   -66.1607 -66.1607 -66.1603 -66.1603 -66.1602 -66.1602 -66.1598 -66.1598
   -30.5338 -30.5338 -30.5315 -30.5315 -30.5101 -30.5100 -30.5088 -30.5088
   -30.5080 -30.5080 -30.5061 -30.5061 -30.4959 -30.4959 -30.4945 -30.4945
   -30.4801 -30.4801 -30.4751 -30.4751 -30.4415 -30.4415 -30.4392 -30.4392
   -20.3129 -20.3128 -20.3128 -20.3128 -20.3128 -20.3128 -20.3127 -20.3127
   -20.2908 -20.2907 -20.2905 -20.2905 -20.2872 -20.2872 -20.2872 -20.2871
   -20.2869 -20.2869 -20.2867 -20.2867 -20.2862 -20.2862 -20.2861 -20.2861
   -20.2860 -20.2860 -20.2856 -20.2856 -20.2849 -20.2849 -20.2847 -20.2847
   -20.2798 -20.2798 -20.2797 -20.2797 -20.2789 -20.2789 -20.2788 -20.2788
   -20.2774 -20.2774 -20.2773 -20.2773 -20.2757 -20.2757 -20.2755 -20.2755
   -20.2751 -20.2751 -20.2750 -20.2750 -20.2734 -20.2734 -20.2731 -20.2731
    -9.4920  -9.4920  -9.2249  -9.2249  -9.1675  -9.1674  -8.8090  -8.8090
    -8.7388  -8.7388  -8.6626  -8.6626  -8.6091  -8.6091  -8.5766  -8.5766
    -8.2227  -8.2227  -8.2198  -8.2198  -7.6775  -7.6775  -7.6504  -7.6504
     1.5714   1.5715   1.6176   1.6176   2.0835   2.0835   2.1308   2.1308
     2.9038   2.9038   2.9671   2.9671   2.9971   2.9971   3.1174   3.1174
     3.1662   3.1662   3.4719   3.4719   3.5462   3.5462   3.7388   3.7388
     3.7771   3.7771   3.9764   3.9764   4.1155   4.1155   4.2261   4.2261
     4.5381   4.5381   4.7907   4.7907   4.9101   4.9101   4.9581   4.9581
[...]
   -20.5906 -20.5906 -20.5906 -20.5906 -20.5905 -20.5905 -20.5900 -20.5900
   -20.5848 -20.5848 -20.5847 -20.5847 -20.5838 -20.5838 -20.5837 -20.5837
   -20.5834 -20.5834 -20.5833 -20.5833 -20.5805 -20.5805 -20.5802 -20.5802
   -20.5800 -20.5800 -20.5798 -20.5798 -20.5771 -20.5771 -20.5768 -20.5768
    -9.7139  -9.7139  -9.5615  -9.5615  -9.2109  -9.2109  -8.9947  -8.9947
    -8.8332  -8.8331  -8.7898  -8.7898  -8.7329  -8.7328  -8.6857  -8.6856
    -8.3816  -8.3816  -8.3543  -8.3543  -8.0410  -8.0410  -8.0264  -8.0264
     1.2767   1.2767   1.2874   1.2874   2.0830   2.0830   2.1828   2.1828
     2.7643   2.7643   2.8735   2.8735   2.9013   2.9014   3.0266   3.0266
     3.0557   3.0557   3.2049   3.2049   3.2276   3.2276   3.4904   3.4904
     3.7555   3.7555   3.7981   3.7981   3.8933   3.8934   4.1199   4.1200
     4.4593   4.4593   4.5618   4.5618   4.7012   4.7012   4.7314   4.7314
     4.8337   4.8337   5.2581   5.2581   5.6226   5.6226   5.6768   5.6768
     6.4380   6.4381   6.5396   6.5396   6.5914   6.5914   6.6260   6.6260
     6.8137   6.8137   6.8579   6.8579   6.9719   6.9719   7.3092   7.3092
     7.3436   7.3436   7.3706   7.3706   7.4096   7.4096   7.6481   7.6481
    10.4156  10.4156  10.9317  10.9317  10.9644  10.9644  11.4625  11.4625
    11.5994  11.5994  11.8141  11.8141  12.3250  12.3250  12.3360  12.3360
    12.5542  12.5542  12.6344  12.6344  12.8836  12.8836  13.3610  13.3610
    15.1314  15.1314  15.6821  15.6821  16.1358  16.1359  16.3183  16.3183
    16.7357  16.7357  17.0632  17.0633  17.6491

          k = 0.3294 0.4765 0.1647 ( 63190 PWs)   bands (ev):

   -66.4505 -66.4505 -66.4501 -66.4501 -66.4498 -66.4498 -66.4494 -66.4494
   -30.7928 -30.7927 -30.7908 -30.7907 -30.7894 -30.7894 -30.7871 -30.7871
   -30.7794 -30.7794 -30.7772 -30.7772 -30.7632 -30.7632 -30.7593 -30.7593
   -30.7175 -30.7175 -30.7137 -30.7137 -30.6999 -30.6999 -30.6978 -30.6978
   -20.6177 -20.6177 -20.6176 -20.6176 -20.6176 -20.6176 -20.6176 -20.6175
   -20.5926 -20.5925 -20.5923 -20.5923 -20.5922 -20.5922 -20.5919 -20.5919
   -20.5917 -20.5917 -20.5916 -20.5915 -20.5914 -20.5914 -20.5911 -20.5911
   -20.5907 -20.5906 -20.5905 -20.5905 -20.5905 -20.5905 -20.5904 -20.5904
   -20.5849 -20.5849 -20.5845 -20.5845 -20.5841 -20.5841 -20.5835 -20.5835
   -20.5834 -20.5834 -20.5832 -20.5832 -20.5821 -20.5821 -20.5817 -20.5817
   -20.5786 -20.5786 -20.5781 -20.5781 -20.5771 -20.5771 -20.5768 -20.5768
    -9.7428  -9.7428  -9.5453  -9.5452  -9.2674  -9.2672  -9.0699  -9.0698
    -8.8072  -8.8068  -8.7301  -8.7294  -8.6919  -8.6914  -8.6848  -8.6847
    -8.3797  -8.3794  -8.3215  -8.3212  -8.0570  -8.0568  -8.0108  -8.0106
     1.2755   1.2755   1.2775   1.2776   1.9778   1.9783   2.1137   2.1148
     2.7172   2.7185   2.9774   2.9775   3.0056   3.0107   3.0144   3.0191
     3.0624   3.0805   3.2093   3.2310   3.2370   3.2593   3.4158   3.4280
     3.4954   3.5071   3.6606   3.7108   4.1576   4.1839   4.2957   4.3235
     4.3699   4.4453   4.5461   4.5532   4.6689   4.7333   4.7395   4.7446
     4.8502   4.8971   5.1143   5.1739   5.5487   5.5635   5.8947   5.9032
     6.4025   6.4035   6.4619   6.4763   6.6040   6.6071   6.8005   6.8069
     6.8295   6.8548   6.9367   6.9552   7.0116   7.0168   7.2405   7.2559
     7.2606   7.2759   7.2910   7.3090   7.3101   7.3295   7.6528   7.6568
    10.1730  10.1751  11.0345  11.0460  11.0625  11.0723  11.3963  11.4069
    11.4238  11.4404  11.6289  11.6721  12.2325  12.2816  12.5102  12.5405
    12.5535  12.5795  12.8318  12.9462  13.0403  13.0680  13.0835  13.1638
    15.3474  15.3576  15.6060  15.6175  16.0468  16.0624  16.4773  16.5001
    16.6837  16.6846  17.1291  17.1669  17.6827

          k =-0.4942 0.4765 0.1647 ( 63204 PWs)   bands (ev):

   -66.4503 -66.4503 -66.4503 -66.4503 -66.4496 -66.4496 -66.4496 -66.4496
   -30.7918 -30.7918 -30.7917 -30.7917 -30.7883 -30.7883 -30.7882 -30.7882
   -30.7783 -30.7783 -30.7783 -30.7783 -30.7405 -30.7405 -30.7403 -30.7403
   -30.7367 -30.7367 -30.7365 -30.7365 -30.6988 -30.6988 -30.6988 -30.6988
   -20.6177 -20.6177 -20.6177 -20.6177 -20.6176 -20.6176 -20.6176 -20.6176
   -20.5925 -20.5925 -20.5924 -20.5924 -20.5921 -20.5921 -20.5921 -20.5921
   -20.5916 -20.5916 -20.5916 -20.5916 -20.5910 -20.5910 -20.5910 -20.5910
   -20.5908 -20.5908 -20.5908 -20.5908 -20.5904 -20.5904 -20.5904 -20.5904
   -20.5847 -20.5847 -20.5847 -20.5847 -20.5837 -20.5837 -20.5837 -20.5837
   -20.5834 -20.5834 -20.5834 -20.5834 -20.5804 -20.5803 -20.5803 -20.5803
   -20.5799 -20.5799 -20.5799 -20.5799 -20.5770 -20.5770 -20.5770 -20.5770
    -9.6211  -9.6211  -9.6204  -9.6204  -8.9665  -8.9664  -8.9629  -8.9629
    -8.8426  -8.8426  -8.8388  -8.8388  -8.6442  -8.6442  -8.6379  -8.6379
    -8.6000  -8.6000  -8.5944  -8.5944  -8.0340  -8.0340  -8.0338  -8.0338
     1.2852   1.2852   1.2863   1.2863   2.7975   2.7975   2.8209   2.8209
     2.9062   2.9062   2.9165   2.9165   3.0057   3.0057   3.0445   3.0445
     3.0680   3.0680   3.1415   3.1415   3.2446   3.2446   3.2658   3.2658
     3.3473   3.3473   3.4023   3.4023   4.0226   4.0226   4.0389   4.0389
     4.1020   4.1020   4.1230   4.1231   4.5875   4.5875   4.6950   4.6950
     4.9106   4.9106   5.0152   5.0152   5.6290   5.6290   5.6429   5.6429
     6.5161   6.5161   6.5583   6.5583   6.6003   6.6003   6.6398   6.6398
     7.0947   7.0947   7.1160   7.1160   7.1465   7.1465   7.1902   7.1902
     7.2342   7.2342   7.2723   7.2723   7.4235   7.4235   7.4497   7.4497
    10.8973  10.8973  10.9313  10.9313  11.0602  11.0602  11.1132  11.1132
    11.9316  11.9316  11.9530  11.9530  11.9609  11.9609  11.9779  11.9779
    12.5351  12.5351  12.6012  12.6012  13.0530  13.0530  13.1021  13.1021
    15.5056  15.5056  15.5186  15.5186  16.6429  16.6429  16.6566  16.6566
    17.2617  17.2617  17.2900  17.2901  17.3698

          k =-0.4942 0.0000 0.3294 ( 63208 PWs)   bands (ev):

   -66.4504 -66.4504 -66.4500 -66.4500 -66.4499 -66.4499 -66.4495 -66.4495
   -30.8231 -30.8231 -30.8211 -30.8211 -30.7668 -30.7668 -30.7602 -30.7602
   -30.7579 -30.7579 -30.7560 -30.7560 -30.7402 -30.7402 -30.7386 -30.7386
   -30.7375 -30.7375 -30.7358 -30.7358 -30.7170 -30.7170 -30.7142 -30.7142
   -20.6177 -20.6177 -20.6176 -20.6176 -20.6176 -20.6176 -20.6176 -20.6175
   -20.5953 -20.5953 -20.5951 -20.5951 -20.5918 -20.5918 -20.5914 -20.5914
   -20.5913 -20.5913 -20.5912 -20.5912 -20.5911 -20.5911 -20.5907 -20.5907
   -20.5904 -20.5904 -20.5904 -20.5904 -20.5891 -20.5891 -20.5888 -20.5888
   -20.5846 -20.5846 -20.5845 -20.5845 -20.5840 -20.5840 -20.5839 -20.5839
   -20.5823 -20.5823 -20.5818 -20.5818 -20.5805 -20.5805 -20.5802 -20.5802
   -20.5800 -20.5800 -20.5798 -20.5798 -20.5786 -20.5785 -20.5780 -20.5780
    -9.7196  -9.7196  -9.5217  -9.5217  -9.2848  -9.2848  -9.0251  -9.0251
    -8.8363  -8.8362  -8.7665  -8.7664  -8.7297  -8.7297  -8.7135  -8.7135
    -8.3582  -8.3582  -8.3464  -8.3464  -8.0065  -8.0065  -7.9832  -7.9832
     1.1658   1.1658   1.1966   1.1966   2.0078   2.0078   2.0469   2.0469
     2.7017   2.7017   2.8154   2.8154   2.8520   2.8520   2.9770   2.9770
     3.0564   3.0564   3.3850   3.3850   3.4732   3.4732   3.5499   3.5500
     3.6096   3.6096   3.7592   3.7592   3.8965   3.8965   4.1332   4.1332
     4.4664   4.4664   4.6959   4.6959   4.7629   4.7629   4.8178   4.8178
     5.0176   5.0176   5.3359   5.3360   5.7603   5.7603   5.8287   5.8287
     6.1828   6.1828   6.2006   6.2006   6.2957   6.2957   6.3663   6.3663
     6.9066   6.9066   7.0464   7.0464   7.1184   7.1184   7.3542   7.3542
     7.3669   7.3669   7.4492   7.4492   7.5099   7.5099   7.7757   7.7757
    10.4251  10.4251  11.1261  11.1261  11.1798  11.1799  11.2857  11.2857
    11.4015  11.4015  11.9578  11.9578  12.1906  12.1906  12.2988  12.2988
    12.5560  12.5560  12.9096  12.9096  12.9377  12.9377  13.3646  13.3646
    14.4936  14.4936  14.8781  14.8781  16.0294  16.0294  16.5726  16.5726
    16.9101  16.9101  17.1734  17.1734  17.7063

          k =-0.4942-0.1588 0.3294 ( 63208 PWs)   bands (ev):

   -66.4503 -66.4503 -66.4500 -66.4500 -66.4499 -66.4499 -66.4495 -66.4495
   -30.8188 -30.8188 -30.8169 -30.8169 -30.7681 -30.7681 -30.7619 -30.7619
   -30.7604 -30.7604 -30.7585 -30.7585 -30.7403 -30.7403 -30.7386 -30.7386
   -30.7378 -30.7378 -30.7360 -30.7360 -30.7168 -30.7168 -30.7144 -30.7144
   -20.6177 -20.6177 -20.6176 -20.6176 -20.6176 -20.6176 -20.6176 -20.6176
   -20.5949 -20.5949 -20.5947 -20.5947 -20.5918 -20.5918 -20.5913 -20.5913
   -20.5912 -20.5912 -20.5912 -20.5912 -20.5911 -20.5911 -20.5907 -20.5907
   -20.5905 -20.5905 -20.5905 -20.5905 -20.5895 -20.5895 -20.5892 -20.5892
   -20.5846 -20.5846 -20.5845 -20.5845 -20.5840 -20.5840 -20.5839 -20.5839
   -20.5822 -20.5822 -20.5819 -20.5819 -20.5805 -20.5805 -20.5802 -20.5802
   -20.5801 -20.5801 -20.5798 -20.5798 -20.5785 -20.5785 -20.5780 -20.5780
    -9.6657  -9.6656  -9.4496  -9.4496  -9.2951  -9.2951  -9.0009  -9.0009
    -8.8456  -8.8455  -8.7633  -8.7633  -8.7272  -8.7271  -8.7115  -8.7115
    -8.3563  -8.3563  -8.3518  -8.3518  -8.1115  -8.1115  -8.0882  -8.0882
     1.4079   1.4079   1.4406   1.4406   2.0074   2.0074   2.0552   2.0552
     2.7662   2.7662   2.8377   2.8377   2.8765   2.8765   2.9826   2.9826
     3.0566   3.0566   3.4083   3.4083   3.4750   3.4750   3.5961   3.5961
     3.6114   3.6114   3.7949   3.7949   3.8873   3.8873   4.1427   4.1427
     4.3341   4.3341   4.4666   4.4666   4.7139   4.7139   4.7609   4.7610
     4.7957   4.7957   5.0911   5.0911   5.4943   5.4943   5.6078   5.6078
     6.3326   6.3326   6.3684   6.3684   6.4317   6.4317   6.5575   6.5575
     6.9124   6.9124   7.0391   7.0391   7.1238   7.1238   7.3456   7.3456
     7.3614   7.3615   7.4302   7.4302   7.4850   7.4850   7.7246   7.7246
    10.5427  10.5427  11.1500  11.1500  11.2134  11.2134  11.3336  11.3336
    11.4496  11.4496  11.9896  11.9896  12.1890  12.1890  12.3137  12.3137
    12.4042  12.4042  12.7758  12.7758  12.8022  12.8022  13.2452  13.2452
    14.8791  14.8791  15.2812  15.2812  16.1133  16.1133  16.5715  16.5715
    16.9184  16.9184  17.1981  17.1982  17.5413

          k =-0.4942-0.3177 0.3294 ( 63186 PWs)   bands (ev):

   -66.4503 -66.4503 -66.4500 -66.4500 -66.4499 -66.4498 -66.4496 -66.4496
   -30.8071 -30.8071 -30.8051 -30.8051 -30.7761 -30.7761 -30.7732 -30.7732
   -30.7614 -30.7614 -30.7609 -30.7609 -30.7402 -30.7402 -30.7389 -30.7389
   -30.7379 -30.7379 -30.7367 -30.7367 -30.7164 -30.7164 -30.7149 -30.7149
   -20.6177 -20.6177 -20.6176 -20.6176 -20.6176 -20.6176 -20.6176 -20.6176
   -20.5938 -20.5938 -20.5936 -20.5936 -20.5916 -20.5916 -20.5914 -20.5914
   -20.5912 -20.5912 -20.5911 -20.5911 -20.5910 -20.5910 -20.5909 -20.5909
   -20.5907 -20.5907 -20.5907 -20.5907 -20.5905 -20.5905 -20.5902 -20.5902
   -20.5845 -20.5845 -20.5845 -20.5845 -20.5840 -20.5840 -20.5840 -20.5839
   -20.5822 -20.5822 -20.5819 -20.5819 -20.5804 -20.5804 -20.5802 -20.5802
   -20.5801 -20.5801 -20.5799 -20.5799 -20.5784 -20.5784 -20.5781 -20.5781
    -9.5348  -9.5348  -9.3305  -9.3305  -9.2536  -9.2536  -8.9179  -8.9179
    -8.8830  -8.8830  -8.7597  -8.7596  -8.7149  -8.7149  -8.6941  -8.6941
    -8.4089  -8.4089  -8.3685  -8.3685  -8.3496  -8.3496  -8.2966  -8.2966
     1.9197   1.9197   2.0051   2.0051   2.0883   2.0883   2.2210   2.2210
     2.8640   2.8640   2.9019   2.9019   2.9511   2.9511   3.0165   3.0165
     3.0900   3.0900   3.4174   3.4174   3.4770   3.4770   3.5664   3.5664
     3.7539   3.7539   3.8030   3.8030   3.8872   3.8872   3.9651   3.9651
     4.0655   4.0655   4.2166   4.2166   4.3146   4.3146   4.5783   4.5783
     4.6748   4.6748   4.7369   4.7369   4.7729   4.7729   5.0712   5.0712
     6.6635   6.6635   6.7189   6.7189   6.7765   6.7765   6.8246   6.8246
     6.9287   6.9287   7.0225   7.0225   7.1533   7.1533   7.2876   7.2876
     7.3264   7.3264   7.3959   7.3959   7.4192   7.4192   7.5756   7.5756
    10.8721  10.8721  11.1840  11.1840  11.2492  11.2492  11.5281  11.5281
    11.6370  11.6370  11.9801  11.9801  12.0867  12.0867  12.1659  12.1659
    12.3623  12.3623  12.4602  12.4602  12.4895  12.4895  12.9535  12.9535
    15.7482  15.7482  16.2608  16.2608  16.3743  16.3744  16.5399  16.5399
    16.9676  16.9676  17.1474  17.1475  17.3420

          k =-0.4942 0.4765 0.3294 ( 63204 PWs)   bands (ev):

   -66.4502 -66.4502 -66.4501 -66.4501 -66.4497 -66.4497 -66.4497 -66.4497
   -30.7913 -30.7913 -30.7912 -30.7912 -30.7892 -30.7892 -30.7890 -30.7890
   -30.7615 -30.7615 -30.7615 -30.7615 -30.7397 -30.7397 -30.7395 -30.7395
   -30.7375 -30.7375 -30.7373 -30.7373 -30.7157 -30.7157 -30.7157 -30.7157
   -20.6176 -20.6176 -20.6176 -20.6176 -20.6176 -20.6176 -20.6176 -20.6176
   -20.5924 -20.5924 -20.5924 -20.5924 -20.5922 -20.5922 -20.5921 -20.5921
   -20.5914 -20.5914 -20.5914 -20.5913 -20.5910 -20.5910 -20.5909 -20.5909
   -20.5909 -20.5909 -20.5908 -20.5908 -20.5907 -20.5907 -20.5906 -20.5906
   -20.5845 -20.5845 -20.5845 -20.5845 -20.5840 -20.5840 -20.5840 -20.5840
   -20.5821 -20.5821 -20.5821 -20.5821 -20.5803 -20.5803 -20.5803 -20.5803
   -20.5800 -20.5800 -20.5800 -20.5800 -20.5783 -20.5783 -20.5783 -20.5783
    -9.4072  -9.4071  -9.4060  -9.4060  -9.0201  -9.0200  -9.0168  -9.0168
    -8.7899  -8.7899  -8.7863  -8.7863  -8.6383  -8.6383  -8.6323  -8.6322
    -8.6056  -8.6055  -8.6004  -8.6004  -8.3403  -8.3403  -8.3397  -8.3396
     1.9962   1.9962   1.9986   1.9986   2.8009   2.8009   2.8150   2.8151
     2.8891   2.8891   2.8961   2.8961   3.0535   3.0535   3.0732   3.0732
     3.1312   3.1312   3.1483   3.1483   3.4144   3.4144   3.4329   3.4329
     3.5302   3.5302   3.5621   3.5621   3.9952   3.9952   4.0086   4.0086
     4.0467   4.0467   4.1001   4.1001   4.1672   4.1672   4.2353   4.2353
     4.4086   4.4087   4.5165   4.5165   4.7972   4.7972   4.8104   4.8104
     6.8201   6.8201   6.8470   6.8470   6.9444   6.9444   6.9456   6.9456
     7.0842   7.0842   7.1123   7.1123   7.1253   7.1253   7.1948   7.1948
     7.2622   7.2622   7.3151   7.3151   7.4172   7.4172   7.4401   7.4401
    11.1525  11.1525  11.1950  11.1950  11.3980  11.3980  11.4701  11.4701
    11.9006  11.9006  11.9526  11.9526  11.9637  11.9637  11.9753  11.9753
    12.1811  12.1811  12.3027  12.3027  12.5898  12.5898  12.6706  12.6706
    16.3357  16.3357  16.3735  16.3735  16.8298  16.8298  16.8383  16.8383
    17.2124  17.2124  17.2999  17.3000  17.3465

     the Fermi energy is     8.7560 ev

!    total energy              =   -6261.10336051 Ry
     Harris-Foulkes estimate   =   -6261.10336051 Ry
     estimated scf accuracy    <          1.1E-11 Ry

     The total energy is the sum of the following terms:

     one-electron contribution =   -4785.81002621 Ry
     hartree contribution      =    2626.13534179 Ry
     xc contribution           =    -965.67047578 Ry
     ewald contribution        =   -3135.75820031 Ry
     smearing contrib. (-TS)   =      -0.00000000 Ry

     convergence has been achieved in  15 iterations

     Forces acting on atoms (cartesian axes, Ry/au):

     atom    1 type  1   force =    -0.00146069    0.01237748    0.00120241
     atom    2 type  1   force =     0.00146069   -0.01237748   -0.00120241
     atom    3 type  1   force =     0.00146069   -0.01237748    0.00120241
     atom    4 type  1   force =    -0.00146069    0.01237748   -0.00120241
     atom    5 type  1   force =     0.00146069    0.01237748   -0.00120241
     atom    6 type  1   force =    -0.00146069   -0.01237748    0.00120241
     atom    7 type  1   force =    -0.00146069   -0.01237748   -0.00120241
     atom    8 type  1   force =     0.00146069    0.01237748    0.00120241
     atom    9 type  2   force =    -0.00005733   -0.00647796   -0.00005563
     atom   10 type  2   force =     0.00005733    0.00647796    0.00005563
     atom   11 type  2   force =     0.00005733    0.00647796   -0.00005563
     atom   12 type  2   force =    -0.00005733   -0.00647796    0.00005563
     atom   13 type  2   force =     0.00005733   -0.00647796    0.00005563
     atom   14 type  2   force =    -0.00005733    0.00647796   -0.00005563
     atom   15 type  2   force =    -0.00005733    0.00647796    0.00005563
     atom   16 type  2   force =     0.00005733   -0.00647796   -0.00005563
     atom   17 type  2   force =    -0.00078034   -0.00011906   -0.00147594
     atom   18 type  2   force =     0.00078034    0.00011906    0.00147594
     atom   19 type  2   force =     0.00078034    0.00011906   -0.00147594
     atom   20 type  2   force =    -0.00078034   -0.00011906    0.00147594
     atom   21 type  2   force =     0.00078034   -0.00011906    0.00147594
     atom   22 type  2   force =    -0.00078034    0.00011906   -0.00147594
     atom   23 type  2   force =    -0.00078034    0.00011906    0.00147594
     atom   24 type  2   force =     0.00078034   -0.00011906   -0.00147594
     atom   25 type  2   force =    -0.00151783    0.00001192    0.00090352
     atom   26 type  2   force =     0.00151783   -0.00001192   -0.00090352
     atom   27 type  2   force =     0.00151783   -0.00001192    0.00090352
     atom   28 type  2   force =    -0.00151783    0.00001192   -0.00090352
     atom   29 type  2   force =     0.00151783    0.00001192   -0.00090352
     atom   30 type  2   force =    -0.00151783   -0.00001192    0.00090352
     atom   31 type  2   force =    -0.00151783   -0.00001192   -0.00090352
     atom   32 type  2   force =     0.00151783    0.00001192    0.00090352

     Total force =     0.000000     Total SCF correction =     0.000000


     Computing stress (Cartesian axis) and pressure

          total   stress  (Ry/bohr**3)                   (kbar)     P=    0.55
   0.00000540   0.00000000   0.00000000          0.80      0.00      0.00
   0.00000000   0.00000032   0.00000000          0.00      0.05      0.00
   0.00000000   0.00000000   0.00000542          0.00      0.00      0.80


     Writing output data file Landau_14.save
 
     init_run     :     60.52s CPU     63.31s WALL (       2 calls)
     electrons    :   9250.23s CPU   9480.63s WALL (       7 calls)
     update_pot   :     93.46s CPU     93.86s WALL (       5 calls)
     forces       :    146.40s CPU    149.06s WALL (       7 calls)
     stress       :   1454.86s CPU   1473.03s WALL (       7 calls)

     Called by init_run:
     wfcinit      :     43.54s CPU     46.04s WALL (       2 calls)
     potinit      :      7.70s CPU      7.76s WALL (       2 calls)

     Called by electrons:
     c_bands      :   8086.46s CPU   8301.44s WALL (      97 calls)
     sum_band     :   1071.73s CPU   1081.09s WALL (      97 calls)
     v_of_rho     :      7.85s CPU      8.03s WALL (     102 calls)
     mix_rho      :     13.44s CPU     17.22s WALL (      97 calls)

     Called by c_bands:
     init_us_2    :     52.76s CPU     58.27s WALL (     420 calls)
     cegterg      :   5162.73s CPU   5361.27s WALL (     194 calls)

     Called by sum_band:

     Called by *egterg:
     h_psi        :   4066.26s CPU   4090.30s WALL (     752 calls)
     g_psi        :      9.88s CPU      9.93s WALL (     554 calls)
     cdiaghg      :     68.07s CPU     68.34s WALL (     734 calls)

     Called by h_psi:
     h_psi:pot    :   4037.14s CPU   4060.18s WALL (     752 calls)
     h_psi:calbec :    381.60s CPU    391.43s WALL (     752 calls)
     vloc_psi     :   3221.18s CPU   3232.17s WALL (     752 calls)
     add_vuspsi   :    434.35s CPU    436.57s WALL (     752 calls)

     General routines
     calbec       :    438.44s CPU    448.51s WALL (     822 calls)
     fft          :      6.07s CPU      6.09s WALL (     466 calls)
     fftw         :   3314.44s CPU   3323.82s WALL (  251320 calls)
 
     Parallel routines
 
     PWSCF        :     3h 3m CPU        3h 8m WALL

 
   This run was terminated on:  22:37:39  19Mar2020            

=------------------------------------------------------------------------------=
   JOB DONE.
=------------------------------------------------------------------------------=
