
     Program PWSCF v.6.4.1 starts on 20Nov2019 at 13: 2:14 

     This program is part of the open-source Quantum ESPRESSO suite
     for quantum simulation of materials; please cite
         "P. Giannozzi et al., J. Phys.:Condens. Matter 21 395502 (2009);
         "P. Giannozzi et al., J. Phys.:Condens. Matter 29 465901 (2017);
          URL http://www.quantum-espresso.org", 
     in publications or presentations arising from this work. More details at
     http://www.quantum-espresso.org/quote

     Parallel version (MPI), running on    40 processors

     MPI processes distributed on     3 nodes
     K-points division:     npool     =      40
     Reading input from scf.in

     Current dimensions of program PWSCF are:
     Max number of different atomic species (ntypx) = 10
     Max number of k-points (npk) =  40000
     Max angular momentum in pseudopotentials (lmaxx) =  3

     Subspace diagonalization in iterative solution of the eigenvalue problem:
     a serial algorithm will be used

     Message from routine setup:
     using ibrav=0 with symmetry is DISCOURAGED, use correct ibrav instead
 
     G-vector sticks info
     --------------------
     sticks:   dense  smooth     PW     G-vecs:    dense   smooth      PW
     Sum        3761    3761   1033               252261   252261   36021
 


     bravais-lattice index     =            0
     lattice parameter (alat)  =       9.9224  a.u.
     unit-cell volume          =    1420.1456 (a.u.)^3
     number of atoms/cell      =           16
     number of atomic types    =            2
     number of electrons       =       184.50
     number of Kohn-Sham states=          111
     kinetic-energy cutoff     =     120.0000  Ry
     charge density cutoff     =     480.0000  Ry
     convergence threshold     =      1.0E-08
     mixing beta               =       0.7000
     number of iterations used =            8  plain     mixing
     Exchange-correlation      = SLA PW NOGX NOGC ( 1  4  0  0 0 0)

     celldm(1)=   9.922440  celldm(2)=   0.000000  celldm(3)=   0.000000
     celldm(4)=   0.000000  celldm(5)=   0.000000  celldm(6)=   0.000000

     crystal axes: (cart. coord. in units of alat)
               a(1) = (   1.000000   0.000000   0.000000 )  
               a(2) = (   0.000000   1.000000   0.000000 )  
               a(3) = (   0.000000   0.000000   1.453709 )  

     reciprocal axes: (cart. coord. in units 2 pi/alat)
               b(1) = (  1.000000  0.000000  0.000000 )  
               b(2) = (  0.000000  1.000000  0.000000 )  
               b(3) = (  0.000000  0.000000  0.687896 )  


     PseudoPot. # 1 for W  read from file:
     /cluster/scratch/mnoe/QE/pps/W_ONCV_LDA-4.0.upf
     MD5 check sum: ba0307d5d4cd419d6f1d13dc49d7c13a
     Pseudo is Norm-conserving + core correction, Zval = 28.0
     Generated using ONCVPSP code by D. R. Hamann
     Using radial grid of 1380 points,  8 beta functions with: 
                l(1) =   0
                l(2) =   0
                l(3) =   1
                l(4) =   1
                l(5) =   2
                l(6) =   2
                l(7) =   3
                l(8) =   3

     PseudoPot. # 2 for O  read from file:
     /cluster/scratch/mnoe/QE/pps/O_ONCV_LDA-3.0.upf
     MD5 check sum: b55cdb4f45ae2203d24ad12cf8d61a31
     Pseudo is Norm-conserving + core correction, Zval =  6.0
     Generated using ONCVPSP code by D. R. Hamann
     Using radial grid of  926 points,  5 beta functions with: 
                l(1) =   0
                l(2) =   0
                l(3) =   1
                l(4) =   1
                l(5) =   2

     atomic species   valence    mass     pseudopotential
        W             28.00   183.84000     W ( 1.00)
        O              6.00    15.99940     O ( 1.00)

     16 Sym. Ops., with inversion, found (14 have fractional translation)



   Cartesian axes

     site n.     atom                  positions (alat units)
         1           W   tau(   1) = (   0.2500000   0.2500000   0.3022771  )
         2           W   tau(   2) = (   0.7500000   0.7500000   1.1514319  )
         3           W   tau(   3) = (   0.7500000   0.7500000   0.4245774  )
         4           W   tau(   4) = (   0.2500000   0.2500000   1.0291316  )
         5           O   tau(   5) = (   0.2500000   0.2500000   0.6867263  )
         6           O   tau(   6) = (   0.7500000   0.7500000   0.7669826  )
         7           O   tau(   7) = (   0.7500000   0.7500000   0.0401282  )
         8           O   tau(   8) = (   0.2500000   0.2500000   1.4135808  )
         9           O   tau(   9) = (   0.5020724   0.4979276   0.3634272  )
        10           O   tau(  10) = (   0.4979276   0.5020724   1.0902817  )
        11           O   tau(  11) = (  -0.0020724   1.0020724   0.3634272  )
        12           O   tau(  12) = (   1.0020723  -0.0020724   1.0902817  )
        13           O   tau(  13) = (   1.0020724   0.5020724   0.3634272  )
        14           O   tau(  14) = (  -0.0020724   0.4979276   1.0902817  )
        15           O   tau(  15) = (   0.4979276  -0.0020724   0.3634272  )
        16           O   tau(  16) = (   0.5020724   1.0020723   1.0902817  )

     number of k points=    40  gaussian smearing, width (Ry)=  0.0007
                       cart. coord. in units 2pi/alat
        k(    1) = (   0.0000000   0.0000000   0.0000000), wk =   0.0092593
        k(    2) = (   0.0000000   0.0000000   0.1146493), wk =   0.0185185
        k(    3) = (   0.0000000   0.0000000   0.2292985), wk =   0.0185185
        k(    4) = (   0.0000000   0.0000000  -0.3439478), wk =   0.0092593
        k(    5) = (   0.0000000   0.1666667   0.0000000), wk =   0.0370370
        k(    6) = (   0.0000000   0.1666667   0.1146493), wk =   0.0740741
        k(    7) = (   0.0000000   0.1666667   0.2292985), wk =   0.0740741
        k(    8) = (   0.0000000   0.1666667  -0.3439478), wk =   0.0370370
        k(    9) = (   0.0000000   0.3333333   0.0000000), wk =   0.0370370
        k(   10) = (   0.0000000   0.3333333   0.1146493), wk =   0.0740741
        k(   11) = (   0.0000000   0.3333333   0.2292985), wk =   0.0740741
        k(   12) = (   0.0000000   0.3333333  -0.3439478), wk =   0.0370370
        k(   13) = (   0.0000000  -0.5000000   0.0000000), wk =   0.0185185
        k(   14) = (   0.0000000  -0.5000000   0.1146493), wk =   0.0370370
        k(   15) = (   0.0000000  -0.5000000   0.2292985), wk =   0.0370370
        k(   16) = (   0.0000000  -0.5000000  -0.3439478), wk =   0.0185185
        k(   17) = (   0.1666667   0.1666667   0.0000000), wk =   0.0370370
        k(   18) = (   0.1666667   0.1666667   0.1146493), wk =   0.0740741
        k(   19) = (   0.1666667   0.1666667   0.2292985), wk =   0.0740741
        k(   20) = (   0.1666667   0.1666667  -0.3439478), wk =   0.0370370
        k(   21) = (   0.1666667   0.3333333   0.0000000), wk =   0.0740741
        k(   22) = (   0.1666667   0.3333333   0.1146493), wk =   0.1481481
        k(   23) = (   0.1666667   0.3333333   0.2292985), wk =   0.1481481
        k(   24) = (   0.1666667   0.3333333  -0.3439478), wk =   0.0740741
        k(   25) = (   0.1666667  -0.5000000   0.0000000), wk =   0.0370370
        k(   26) = (   0.1666667  -0.5000000   0.1146493), wk =   0.0740741
        k(   27) = (   0.1666667  -0.5000000   0.2292985), wk =   0.0740741
        k(   28) = (   0.1666667  -0.5000000  -0.3439478), wk =   0.0370370
        k(   29) = (   0.3333333   0.3333333   0.0000000), wk =   0.0370370
        k(   30) = (   0.3333333   0.3333333   0.1146493), wk =   0.0740741
        k(   31) = (   0.3333333   0.3333333   0.2292985), wk =   0.0740741
        k(   32) = (   0.3333333   0.3333333  -0.3439478), wk =   0.0370370
        k(   33) = (   0.3333333  -0.5000000   0.0000000), wk =   0.0370370
        k(   34) = (   0.3333333  -0.5000000   0.1146493), wk =   0.0740741
        k(   35) = (   0.3333333  -0.5000000   0.2292985), wk =   0.0740741
        k(   36) = (   0.3333333  -0.5000000  -0.3439478), wk =   0.0370370
        k(   37) = (  -0.5000000  -0.5000000   0.0000000), wk =   0.0092593
        k(   38) = (  -0.5000000  -0.5000000   0.1146493), wk =   0.0185185
        k(   39) = (  -0.5000000  -0.5000000   0.2292985), wk =   0.0185185
        k(   40) = (  -0.5000000  -0.5000000  -0.3439478), wk =   0.0092593

     Dense  grid:   252261 G-vectors     FFT dimensions: (  72,  72, 108)

     Estimated max dynamical RAM per process >     791.02 MB

     Estimated total dynamical RAM >      30.90 GB

     Initial potential from superposition of free atoms

     starting charge  183.99828, renormalised to  184.50000
     Starting wfcs are  116 randomized atomic wfcs

     total cpu time spent up to now is        6.1 secs

     Self-consistent Calculation

     iteration #  1     ecut=   120.00 Ry     beta= 0.70
     Davidson diagonalization with overlap
     ethr =  1.00E-02,  avg # of iterations =  4.6

     total cpu time spent up to now is       24.3 secs

     total energy              =   -3126.38972713 Ry
     Harris-Foulkes estimate   =   -3132.03969946 Ry
     estimated scf accuracy    <       7.08628163 Ry

     iteration #  2     ecut=   120.00 Ry     beta= 0.70
     Davidson diagonalization with overlap
     ethr =  3.84E-03,  avg # of iterations =  3.4

     total cpu time spent up to now is       41.8 secs

     total energy              =   -3124.86030273 Ry
     Harris-Foulkes estimate   =   -3135.19375624 Ry
     estimated scf accuracy    <      27.46415509 Ry

     iteration #  3     ecut=   120.00 Ry     beta= 0.70
     Davidson diagonalization with overlap
     ethr =  3.84E-03,  avg # of iterations =  3.3

     total cpu time spent up to now is       57.7 secs

     total energy              =   -3130.15738980 Ry
     Harris-Foulkes estimate   =   -3130.28948116 Ry
     estimated scf accuracy    <       0.46366521 Ry

     iteration #  4     ecut=   120.00 Ry     beta= 0.70
     Davidson diagonalization with overlap
     ethr =  2.51E-04,  avg # of iterations =  2.6

     total cpu time spent up to now is       70.9 secs

     total energy              =   -3130.14129091 Ry
     Harris-Foulkes estimate   =   -3130.18633671 Ry
     estimated scf accuracy    <       0.12443270 Ry

     iteration #  5     ecut=   120.00 Ry     beta= 0.70
     Davidson diagonalization with overlap
     ethr =  6.74E-05,  avg # of iterations =  3.9

     total cpu time spent up to now is       85.4 secs

     total energy              =   -3130.15016209 Ry
     Harris-Foulkes estimate   =   -3130.16254288 Ry
     estimated scf accuracy    <       0.02889634 Ry

     iteration #  6     ecut=   120.00 Ry     beta= 0.70
     Davidson diagonalization with overlap
     ethr =  1.57E-05,  avg # of iterations =  4.1

     total cpu time spent up to now is      100.4 secs

     total energy              =   -3130.15579572 Ry
     Harris-Foulkes estimate   =   -3130.15760190 Ry
     estimated scf accuracy    <       0.00453908 Ry

     iteration #  7     ecut=   120.00 Ry     beta= 0.70
     Davidson diagonalization with overlap
     ethr =  2.46E-06,  avg # of iterations =  3.6

     total cpu time spent up to now is      114.2 secs

     total energy              =   -3130.15648173 Ry
     Harris-Foulkes estimate   =   -3130.15651227 Ry
     estimated scf accuracy    <       0.00004753 Ry

     iteration #  8     ecut=   120.00 Ry     beta= 0.70
     Davidson diagonalization with overlap
     ethr =  2.58E-08,  avg # of iterations =  3.5

     total cpu time spent up to now is      132.5 secs

     total energy              =   -3130.15651169 Ry
     Harris-Foulkes estimate   =   -3130.15652372 Ry
     estimated scf accuracy    <       0.00005364 Ry

     iteration #  9     ecut=   120.00 Ry     beta= 0.70
     Davidson diagonalization with overlap
     ethr =  2.58E-08,  avg # of iterations =  1.0

     total cpu time spent up to now is      144.6 secs

     total energy              =   -3130.15650724 Ry
     Harris-Foulkes estimate   =   -3130.15651430 Ry
     estimated scf accuracy    <       0.00001808 Ry

     iteration # 10     ecut=   120.00 Ry     beta= 0.70
     Davidson diagonalization with overlap
     ethr =  9.80E-09,  avg # of iterations =  2.5

     total cpu time spent up to now is      157.6 secs

     total energy              =   -3130.15651035 Ry
     Harris-Foulkes estimate   =   -3130.15651047 Ry
     estimated scf accuracy    <       0.00000024 Ry

     iteration # 11     ecut=   120.00 Ry     beta= 0.70
     Davidson diagonalization with overlap
     ethr =  1.32E-10,  avg # of iterations =  2.8

     total cpu time spent up to now is      175.2 secs

     total energy              =   -3130.15651041 Ry
     Harris-Foulkes estimate   =   -3130.15651044 Ry
     estimated scf accuracy    <       0.00000005 Ry

     iteration # 12     ecut=   120.00 Ry     beta= 0.70
     Davidson diagonalization with overlap
     ethr =  2.84E-11,  avg # of iterations =  2.0

     total cpu time spent up to now is      189.5 secs

     End of self-consistent calculation

          k = 0.0000 0.0000 0.0000 ( 31535 PWs)   bands (ev):

   -66.1764 -66.1759 -66.1751 -66.1746 -30.5796 -30.5757 -30.5083 -30.5083
   -30.5056 -30.5040 -30.5040 -30.5030 -30.4288 -30.4288 -30.4254 -30.4254
   -20.3241 -20.3239 -20.3233 -20.3232 -20.3232 -20.3231 -20.3172 -20.3170
   -20.3149 -20.3148 -20.3148 -20.3146 -20.3137 -20.3137 -20.3123 -20.3123
   -20.3108 -20.3108 -20.3092 -20.3092 -20.2899 -20.2899 -20.2898 -20.2898
   -20.2878 -20.2878 -20.2878 -20.2878 -10.1253  -9.6975  -9.3591  -9.0460
    -9.0207  -8.9588  -7.9141  -7.8101  -7.8101  -7.7857  -7.7857  -7.7811
     1.0702   1.0898   1.0917   1.2633   1.4235   1.4943   2.3709   2.3709
     2.4545   2.5731   3.9736   3.9736   4.7057   4.7057   4.9269   5.5429
     5.5429   5.7027   5.7027   5.8145   5.8145   5.8867   5.9466   6.5206
     6.5206   6.7867   7.0833   7.1350   7.1350   7.1526   7.1526   7.1643
     8.2763   8.2763   8.3520   8.3631   8.9449   8.9465   9.4982   9.4982
    12.4353  12.4353  13.2884  13.2884  13.4735  13.8438  13.8642  14.0966
    14.1038  14.1833  14.1833  14.5651  15.5818  16.3636  17.0162

          k = 0.0000 0.0000 0.1146 ( 31582 PWs)   bands (ev):

   -66.1764 -66.1759 -66.1751 -66.1747 -30.5747 -30.5709 -30.5106 -30.5080
   -30.5080 -30.5080 -30.5043 -30.5043 -30.4286 -30.4286 -30.4256 -30.4256
   -20.3236 -20.3235 -20.3233 -20.3232 -20.3232 -20.3231 -20.3176 -20.3175
   -20.3149 -20.3148 -20.3147 -20.3146 -20.3136 -20.3136 -20.3124 -20.3124
   -20.3107 -20.3107 -20.3093 -20.3093 -20.2899 -20.2899 -20.2898 -20.2898
   -20.2878 -20.2878 -20.2878 -20.2878 -10.0826  -9.7141  -9.2755  -9.0443
    -9.0224  -8.9160  -8.0278  -7.9048  -7.8085  -7.8085  -7.7874  -7.7874
     1.0900   1.0916   1.2755   1.4227   1.4501   1.6370   2.4427   2.4427
     2.4623   2.5650   3.7900   3.7900   4.6820   4.7687   4.7687   5.5179
     5.5179   5.5525   5.5525   5.5557   5.9316   6.0520   6.0520   6.5198
     6.5198   6.8057   6.9636   7.0626   7.1346   7.1346   7.1462   7.1462
     8.1842   8.1842   8.3528   8.3624   8.9454   8.9468   9.7528   9.7528
    12.2600  12.2600  13.3205  13.3205  13.7318  13.8452  13.8628  14.0861
    14.0861  14.0974  14.1037  14.8146  16.0043  16.0303  17.0972

          k = 0.0000 0.0000 0.2293 ( 31570 PWs)   bands (ev):

   -66.1763 -66.1760 -66.1750 -66.1748 -30.5613 -30.5577 -30.5243 -30.5213
   -30.5072 -30.5072 -30.5050 -30.5050 -30.4279 -30.4279 -30.4262 -30.4262
   -20.3233 -20.3232 -20.3232 -20.3232 -20.3224 -20.3222 -20.3189 -20.3188
   -20.3149 -20.3148 -20.3147 -20.3146 -20.3134 -20.3134 -20.3126 -20.3126
   -20.3104 -20.3104 -20.3096 -20.3096 -20.2899 -20.2899 -20.2898 -20.2898
   -20.2878 -20.2878 -20.2878 -20.2878  -9.9764  -9.7663  -9.0397  -9.0383
    -9.0270  -8.7785  -8.3195  -8.2063  -7.8041  -7.8041  -7.7919  -7.7919
     1.0904   1.0913   1.3983   1.4200   2.0655   2.3566   2.4836   2.5429
     2.6528   2.6528   3.3937   3.3937   3.9796   4.5894   4.9458   4.9458
     5.3756   5.3756   5.5856   5.5856   5.8944   5.8944   6.0645   6.5933
     6.8583   6.9316   6.9316   7.0065   7.1334   7.1334   7.1431   7.1431
     7.9104   7.9104   8.3548   8.3603   8.9463   8.9472  10.3639  10.3639
    11.7774  11.7774  13.4240  13.4240  13.8490  13.8554  13.8554  13.8592
    14.0993  14.1030  14.2451  15.4346  15.5207  16.9295  17.0587

          k = 0.0000 0.0000-0.3439 ( 31642 PWs)   bands (ev):

   -66.1762 -66.1762 -66.1749 -66.1749 -30.5428 -30.5428 -30.5396 -30.5396
   -30.5061 -30.5061 -30.5061 -30.5061 -30.4271 -30.4271 -30.4271 -30.4271
   -20.3233 -20.3233 -20.3232 -20.3232 -20.3207 -20.3207 -20.3205 -20.3205
   -20.3149 -20.3148 -20.3147 -20.3147 -20.3130 -20.3130 -20.3130 -20.3130
   -20.3100 -20.3100 -20.3100 -20.3100 -20.2898 -20.2898 -20.2898 -20.2898
   -20.2878 -20.2878 -20.2878 -20.2878  -9.8573  -9.8573  -9.0334  -9.0334
    -8.6916  -8.6916  -8.5334  -8.5334  -7.7980  -7.7980  -7.7980  -7.7980
     1.0909   1.0909   1.4141   1.4141   2.5130   2.5130   2.9833   2.9833
     2.9833   2.9833   3.0115   3.0116   3.4241   3.4241   5.1845   5.1845
     5.1845   5.1845   5.6785   5.6785   5.6785   5.6785   6.2837   6.2837
     6.9315   6.9315   7.1312   7.1312   7.1312   7.1312   7.4757   7.4757
     7.4757   7.4757   8.3576   8.3576   8.9471   8.9471  11.0973  11.0973
    11.0973  11.0973  13.6085  13.6085  13.6085  13.6085  13.8541  13.8541
    14.1015  14.1015  14.8183  14.8183  16.3509  16.3509  17.4390

          k = 0.0000 0.1667 0.0000 ( 31557 PWs)   bands (ev):

   -66.1763 -66.1758 -66.1752 -66.1747 -30.5797 -30.5762 -30.5097 -30.5036
   -30.5030 -30.4988 -30.4987 -30.4985 -30.4342 -30.4339 -30.4307 -30.4306
   -20.3241 -20.3240 -20.3233 -20.3232 -20.3232 -20.3231 -20.3172 -20.3172
   -20.3152 -20.3151 -20.3150 -20.3150 -20.3134 -20.3130 -20.3120 -20.3118
   -20.3109 -20.3108 -20.3094 -20.3093 -20.2898 -20.2898 -20.2897 -20.2897
   -20.2880 -20.2880 -20.2880 -20.2880 -10.0457  -9.5942  -9.3797  -8.9777
    -8.9525  -8.9325  -7.9941  -7.9503  -7.9129  -7.8885  -7.8580  -7.7880
     1.0928   1.2454   1.3378   1.3430   1.6884   1.7393   2.4425   2.4527
     2.6251   2.7418   3.9288   3.9729   4.3618   4.4601   4.9159   5.2410
     5.2737   5.4990   5.6043   5.8356   5.8362   5.9796   6.2918   6.3734
     6.3810   6.4722   6.5085   6.7629   6.9801   7.0138   7.0678   7.1116
     8.1963   8.2144   8.2302   8.2337   9.5962   9.6107   9.8261   9.9143
    12.4966  12.5263  13.0182  13.0346  13.5691  13.5913  13.7780  13.9598
    14.0034  14.6951  14.7253  14.7615  15.5130  16.6939  17.0935

          k = 0.0000 0.1667 0.1146 ( 31518 PWs)   bands (ev):

   -66.1763 -66.1758 -66.1752 -66.1747 -30.5749 -30.5714 -30.5132 -30.5085
   -30.5027 -30.5001 -30.4990 -30.4987 -30.4339 -30.4336 -30.4309 -30.4308
   -20.3237 -20.3235 -20.3233 -20.3232 -20.3232 -20.3231 -20.3177 -20.3176
   -20.3151 -20.3151 -20.3150 -20.3150 -20.3133 -20.3129 -20.3121 -20.3119
   -20.3108 -20.3107 -20.3095 -20.3094 -20.2898 -20.2898 -20.2897 -20.2897
   -20.2880 -20.2880 -20.2880 -20.2880 -10.0001  -9.6110  -9.2964  -8.9760
    -8.9542  -8.8928  -8.0680  -7.9484  -7.9317  -7.9112  -7.8902  -7.8792
     1.3377   1.3382   1.3427   1.4822   1.6871   1.7879   2.5163   2.5233
     2.6325   2.7346   3.7698   3.8122   4.4303   4.5254   4.6662   5.2490
     5.2817   5.3080   5.3926   5.5732   5.9581   6.0110   6.3257   6.3979
     6.4332   6.4555   6.4718   6.8870   6.8945   7.0204   7.0711   7.1233
     8.1121   8.1430   8.2162   8.2342   9.5971   9.6058  10.0247  10.1042
    12.3238  12.3565  13.0584  13.0697  13.5680  13.5908  13.8664  13.9017
    14.0448  14.6956  14.7181  14.9915  15.9347  16.3144  17.0280

          k = 0.0000 0.1667 0.2293 ( 31545 PWs)   bands (ev):

   -66.1762 -66.1759 -66.1751 -66.1748 -30.5615 -30.5582 -30.5253 -30.5219
   -30.5019 -30.5008 -30.4998 -30.4994 -30.4333 -30.4331 -30.4316 -30.4314
   -20.3233 -20.3232 -20.3232 -20.3232 -20.3224 -20.3223 -20.3190 -20.3189
   -20.3151 -20.3151 -20.3150 -20.3150 -20.3131 -20.3127 -20.3124 -20.3121
   -20.3106 -20.3104 -20.3098 -20.3097 -20.2898 -20.2897 -20.2897 -20.2897
   -20.2880 -20.2880 -20.2880 -20.2880  -9.8863  -9.6644  -9.0600  -8.9714
    -8.9589  -8.7633  -8.3420  -8.2120  -7.9429  -7.9211  -7.9068  -7.8947
     1.3392   1.3418   1.6423   1.6830   2.0712   2.3217   2.6524   2.7047
     2.7298   2.7590   3.4024   3.4457   3.9723   4.5867   4.6284   4.7127
     5.1561   5.2055   5.2816   5.3133   5.6377   5.6708   6.4151   6.4459
     6.4764   6.7339   6.8870   6.9172   6.9916   7.0264   7.0881   7.1572
     7.8570   7.8862   8.2212   8.2312   9.5990   9.6027  10.5394  10.6047
    11.8530  11.8939  13.1728  13.1816  13.5501  13.5852  13.6410  13.6751
    14.5643  14.6971  14.7069  15.6826  15.7203  16.9809  17.1026

          k = 0.0000 0.1667-0.3439 ( 31510 PWs)   bands (ev):

   -66.1761 -66.1761 -66.1750 -66.1750 -30.5433 -30.5433 -30.5401 -30.5401
   -30.5009 -30.5009 -30.5003 -30.5003 -30.4324 -30.4324 -30.4322 -30.4322
   -20.3233 -20.3233 -20.3232 -20.3232 -20.3207 -20.3207 -20.3206 -20.3206
   -20.3151 -20.3151 -20.3150 -20.3150 -20.3127 -20.3127 -20.3124 -20.3124
   -20.3102 -20.3102 -20.3101 -20.3101 -20.2897 -20.2897 -20.2897 -20.2897
   -20.2880 -20.2880 -20.2880 -20.2880  -9.7595  -9.7595  -8.9652  -8.9652
    -8.7140  -8.7140  -8.5278  -8.5278  -7.9343  -7.9343  -7.9008  -7.9007
     1.3405   1.3405   1.6737   1.6737   2.6790   2.6790   2.9814   2.9814
     3.0189   3.0189   3.0519   3.0519   3.4610   3.4610   4.9133   4.9133
     4.9784   4.9784   5.3799   5.3799   5.3996   5.3996   6.4504   6.4504
     6.5779   6.5779   7.0153   7.0153   7.1072   7.1072   7.4415   7.4415
     7.4753   7.4753   8.2266   8.2266   9.6009   9.6009  11.2062  11.2062
    11.2581  11.2581  13.3656  13.3656  13.3785  13.3785  13.5964  13.5964
    14.7002  14.7002  15.1226  15.1226  16.5240  16.5240  17.4869

          k = 0.0000 0.3333 0.0000 ( 31536 PWs)   bands (ev):

   -66.1761 -66.1756 -66.1755 -66.1749 -30.5796 -30.5774 -30.5091 -30.5052
   -30.4885 -30.4846 -30.4844 -30.4837 -30.4488 -30.4476 -30.4451 -30.4447
   -20.3241 -20.3241 -20.3233 -20.3233 -20.3232 -20.3231 -20.3174 -20.3174
   -20.3156 -20.3155 -20.3154 -20.3153 -20.3126 -20.3120 -20.3114 -20.3113
   -20.3109 -20.3108 -20.3098 -20.3095 -20.2895 -20.2894 -20.2894 -20.2894
   -20.2885 -20.2884 -20.2884 -20.2884  -9.8400  -9.4527  -9.2998  -8.8372
    -8.7831  -8.7582  -8.3779  -8.2838  -8.1743  -8.1500  -7.8566  -7.8069
     1.1249   1.2046   1.9971   2.0276   2.3575   2.3578   2.6305   2.6616
     3.1527   3.2606   3.6967   3.7373   3.8844   3.9897   4.4885   4.5369
     4.8958   5.0304   5.3163   5.3420   5.3913   5.8713   5.9001   6.0479
     6.1652   6.1838   6.2763   6.6379   6.9629   7.1547   7.2235   7.4475
     7.8914   7.8931   7.9659   8.0949  10.5799  10.6888  10.7151  10.7615
    12.3651  12.4585  12.6851  12.7914  12.8389  12.8506  13.5655  13.6200
    14.3884  15.3005  15.3546  16.0338  16.0402  17.2267  17.2836

          k = 0.0000 0.3333 0.1146 ( 31505 PWs)   bands (ev):

   -66.1761 -66.1756 -66.1754 -66.1750 -30.5748 -30.5726 -30.5134 -30.5100
   -30.4882 -30.4851 -30.4847 -30.4840 -30.4485 -30.4474 -30.4454 -30.4449
   -20.3237 -20.3236 -20.3233 -20.3232 -20.3232 -20.3232 -20.3178 -20.3178
   -20.3156 -20.3155 -20.3154 -20.3153 -20.3126 -20.3119 -20.3114 -20.3112
   -20.3109 -20.3108 -20.3099 -20.3096 -20.2895 -20.2894 -20.2894 -20.2894
   -20.2884 -20.2884 -20.2884 -20.2884  -9.7844  -9.3719  -9.3173  -8.8075
    -8.7815  -8.7599  -8.4034  -8.2794  -8.1727  -8.1516  -7.9597  -7.9162
     1.3821   1.4617   1.9994   2.0259   2.3544   2.3672   2.7057   2.7256
     3.1576   3.2545   3.6171   3.6684   3.9549   4.0562   4.5029   4.5514
     4.6257   4.8512   5.0860   5.2925   5.3144   5.5850   5.6160   5.8695
     6.3442   6.4121   6.6207   6.7176   6.9709   7.1485   7.2366   7.4398
     7.8817   7.8933   7.9052   8.0364  10.6482  10.6903  10.7580  10.8750
    12.4079  12.4992  12.5365  12.6367  12.8292  12.8540  13.4478  13.5062
    14.7218  15.5105  15.7174  16.0344  16.0396  16.8974  17.3159

          k = 0.0000 0.3333 0.2293 ( 31524 PWs)   bands (ev):

   -66.1760 -66.1757 -66.1753 -66.1751 -30.5616 -30.5594 -30.5258 -30.5233
   -30.4875 -30.4855 -30.4855 -30.4845 -30.4479 -30.4470 -30.4461 -30.4455
   -20.3233 -20.3232 -20.3232 -20.3232 -20.3225 -20.3224 -20.3191 -20.3191
   -20.3156 -20.3155 -20.3153 -20.3153 -20.3124 -20.3117 -20.3117 -20.3111
   -20.3109 -20.3106 -20.3102 -20.3099 -20.2895 -20.2894 -20.2894 -20.2894
   -20.2884 -20.2884 -20.2884 -20.2884  -9.6436  -9.3754  -9.1445  -8.7769
    -8.7645  -8.7055  -8.5300  -8.2643  -8.2150  -8.1683  -8.1561  -8.1253
     2.0056   2.0209   2.0649   2.0954   2.3428   2.4527   2.9083   2.9403
     3.1640   3.2387   3.3846   3.4635   3.9600   4.1631   4.2483   4.4031
     4.5568   4.6088   4.7519   4.8545   5.0929   5.2538   5.3098   5.3206
     6.8633   6.8668   6.9128   6.9727   6.9834   7.1273   7.2912   7.4059
     7.7099   7.7787   7.8987   7.9310  10.6836  10.6909  11.0571  11.2069
    12.1041  12.2266  12.5395  12.6553  12.8125  12.8669  13.1698  13.2263
    15.3407  16.0359  16.0385  16.0939  16.3879  16.7288  17.3174

          k = 0.0000 0.3333-0.3439 ( 31526 PWs)   bands (ev):

   -66.1758 -66.1758 -66.1752 -66.1752 -30.5436 -30.5436 -30.5413 -30.5413
   -30.4865 -30.4865 -30.4852 -30.4852 -30.4470 -30.4470 -30.4463 -30.4463
   -20.3232 -20.3232 -20.3232 -20.3232 -20.3208 -20.3208 -20.3208 -20.3208
   -20.3155 -20.3155 -20.3153 -20.3153 -20.3120 -20.3120 -20.3114 -20.3114
   -20.3106 -20.3106 -20.3102 -20.3102 -20.2895 -20.2894 -20.2894 -20.2894
   -20.2884 -20.2884 -20.2884 -20.2884  -9.4869  -9.4869  -8.8232  -8.8232
    -8.7707  -8.7707  -8.5029  -8.5029  -8.2284  -8.2284  -8.1622  -8.1622
     2.0135   2.0135   2.3132   2.3132   2.9373   2.9373   3.0507   3.0507
     3.1770   3.1770   3.2254   3.2254   3.5122   3.5122   4.4663   4.4663
     4.5107   4.5107   4.7148   4.7148   4.7914   4.7914   5.3048   5.3048
     6.9648   6.9648   7.0725   7.0725   7.3027   7.3027   7.3716   7.3716
     7.4759   7.4759   7.9067   7.9067  10.6895  10.6895  11.5573  11.5573
    11.6985  11.6985  12.7288  12.7288  12.9029  12.9029  12.9335  12.9335
    15.8671  15.8671  16.0374  16.0374  16.9421  16.9421  17.4019

          k = 0.0000-0.5000 0.0000 ( 31490 PWs)   bands (ev):

   -66.1758 -66.1758 -66.1753 -66.1753 -30.5788 -30.5788 -30.5073 -30.5073
   -30.4687 -30.4687 -30.4661 -30.4661 -30.4648 -30.4648 -30.4641 -30.4641
   -20.3241 -20.3241 -20.3233 -20.3233 -20.3232 -20.3232 -20.3175 -20.3175
   -20.3157 -20.3157 -20.3155 -20.3155 -20.3119 -20.3119 -20.3113 -20.3113
   -20.3105 -20.3105 -20.3100 -20.3100 -20.2890 -20.2890 -20.2890 -20.2890
   -20.2889 -20.2889 -20.2889 -20.2889  -9.6081  -9.6081  -8.8638  -8.8638
    -8.6240  -8.6240  -8.4950  -8.4950  -8.4704  -8.4704  -7.8325  -7.8325
     1.1613   1.1613   2.6887   2.6887   2.7775   2.7776   2.9520   2.9520
     3.1250   3.1250   3.7840   3.7840   3.8643   3.8643   4.0587   4.0587
     4.1594   4.1594   4.9302   4.9302   5.5714   5.5714   5.9998   5.9998
     6.0494   6.0494   6.3583   6.3583   7.4770   7.4770   7.5192   7.5193
     7.5539   7.5539   7.8372   7.8372  11.4550  11.4550  11.6628  11.6628
    11.8049  11.8049  11.8721  11.8721  13.0795  13.0795  13.1869  13.1869
    14.9299  14.9299  16.2931  16.2931  17.4125  17.6223  17.6229

          k = 0.0000-0.5000 0.1146 ( 31536 PWs)   bands (ev):

   -66.1757 -66.1757 -66.1753 -66.1753 -30.5740 -30.5740 -30.5120 -30.5120
   -30.4684 -30.4684 -30.4662 -30.4662 -30.4651 -30.4651 -30.4643 -30.4643
   -20.3237 -20.3237 -20.3233 -20.3233 -20.3232 -20.3232 -20.3179 -20.3179
   -20.3157 -20.3157 -20.3155 -20.3155 -20.3118 -20.3118 -20.3112 -20.3112
   -20.3106 -20.3106 -20.3101 -20.3101 -20.2890 -20.2890 -20.2890 -20.2890
   -20.2889 -20.2889 -20.2889 -20.2889  -9.5372  -9.5372  -8.8831  -8.8830
    -8.6097  -8.6097  -8.4933  -8.4933  -8.4720  -8.4720  -7.9409  -7.9409
     1.4197   1.4197   2.7147   2.7147   2.8199   2.8199   2.9413   2.9413
     3.1074   3.1074   3.8323   3.8323   3.9034   3.9035   4.0561   4.0561
     4.1587   4.1587   4.6671   4.6671   5.1774   5.1774   5.7080   5.7080
     6.4432   6.4432   6.5351   6.5351   7.4684   7.4684   7.5206   7.5206
     7.5300   7.5300   7.8034   7.8034  11.5060  11.5060  11.7325  11.7325
    11.8039  11.8039  11.8870  11.8870  12.9393  12.9393  13.0526  13.0526
    15.3245  15.3245  16.3740  16.3740  17.3065  17.3065  17.6251

          k = 0.0000-0.5000 0.2293 ( 31492 PWs)   bands (ev):

   -66.1757 -66.1756 -66.1754 -66.1754 -30.5608 -30.5608 -30.5249 -30.5249
   -30.4677 -30.4677 -30.4661 -30.4661 -30.4658 -30.4658 -30.4649 -30.4649
   -20.3232 -20.3232 -20.3232 -20.3232 -20.3225 -20.3225 -20.3191 -20.3191
   -20.3156 -20.3156 -20.3156 -20.3155 -20.3116 -20.3116 -20.3110 -20.3110
   -20.3109 -20.3109 -20.3103 -20.3103 -20.2890 -20.2890 -20.2890 -20.2890
   -20.2889 -20.2889 -20.2889 -20.2889  -9.3471  -9.3471  -8.9549  -8.9549
    -8.5573  -8.5572  -8.4889  -8.4888  -8.4766  -8.4765  -8.1934  -8.1934
     2.1067   2.1067   2.7791   2.7791   2.9080   2.9080   2.9390   2.9390
     3.0454   3.0454   3.9534   3.9534   3.9876   3.9876   4.0250   4.0250
     4.1747   4.1747   4.1798   4.1798   4.6756   4.6756   4.9880   4.9880
     6.9138   6.9138   6.9321   6.9321   7.4296   7.4296   7.4299   7.4299
     7.5423   7.5423   7.7039   7.7039  11.6428  11.6428  11.7877  11.7877
    11.9537  11.9537  11.9591  11.9591  12.5902  12.5902  12.7111  12.7111
    16.2012  16.2012  16.6665  16.6665  17.0509  17.0509  17.6305

          k = 0.0000-0.5000-0.3439 ( 31504 PWs)   bands (ev):

   -66.1755 -66.1755 -66.1755 -66.1755 -30.5428 -30.5428 -30.5428 -30.5428
   -30.4668 -30.4668 -30.4668 -30.4667 -30.4656 -30.4656 -30.4656 -30.4656
   -20.3232 -20.3232 -20.3232 -20.3232 -20.3208 -20.3208 -20.3208 -20.3208
   -20.3156 -20.3156 -20.3156 -20.3156 -20.3113 -20.3113 -20.3112 -20.3112
   -20.3107 -20.3107 -20.3106 -20.3106 -20.2890 -20.2890 -20.2890 -20.2890
   -20.2889 -20.2889 -20.2889 -20.2889  -9.1163  -9.1163  -9.1163  -9.1163
    -8.4827  -8.4827  -8.4827  -8.4827  -8.4298  -8.4298  -8.4298  -8.4298
     2.8474   2.8475   2.8475   2.8475   2.8528   2.8528   2.8528   2.8528
     3.2567   3.2567   3.2567   3.2567   4.1036   4.1036   4.1036   4.1036
     4.2679   4.2679   4.2679   4.2679   4.4055   4.4055   4.4055   4.4055
     7.2325   7.2325   7.2325   7.2325   7.2816   7.2816   7.2816   7.2816
     7.5914   7.5914   7.5914   7.5914  11.7521  11.7521  11.7521  11.7521
    12.2006  12.2006  12.2007  12.2007  12.3012  12.3012  12.3012  12.3012
    16.7270  16.7270  16.7270  16.7270  17.5133  17.5133  17.5133

          k = 0.1667 0.1667 0.0000 ( 31519 PWs)   bands (ev):

   -66.1763 -66.1757 -66.1753 -66.1748 -30.5796 -30.5766 -30.5095 -30.5074
   -30.5052 -30.5042 -30.4854 -30.4829 -30.4492 -30.4460 -30.4277 -30.4243
   -20.3241 -20.3240 -20.3233 -20.3232 -20.3232 -20.3231 -20.3173 -20.3172
   -20.3151 -20.3151 -20.3151 -20.3151 -20.3137 -20.3123 -20.3123 -20.3111
   -20.3111 -20.3108 -20.3097 -20.3092 -20.2903 -20.2902 -20.2890 -20.2889
   -20.2889 -20.2888 -20.2874 -20.2874  -9.9911  -9.5353  -9.4037  -8.9831
    -8.8535  -8.8217  -8.2589  -8.2195  -7.8793  -7.8240  -7.7989  -7.7939
     1.0828   1.2197   1.2348   1.2598   2.2474   2.2546   2.3549   2.6563
     2.7875   2.9025   3.7186   3.8991   3.9888   4.5654   4.7213   4.9055
     5.2838   5.4073   5.5746   5.7851   5.9152   6.0007   6.1044   6.2492
     6.3704   6.3913   6.4261   6.5554   6.7358   6.8695   7.1423   7.3073
     8.0293   8.0411   8.0707   8.2641   9.5473  10.1012  10.1256  10.6572
    12.3794  12.4397  12.7466  13.2820  13.3743  13.3959  13.5647  13.7719
    14.1847  14.8631  14.9540  15.2557  15.4279  17.1684  17.1778

          k = 0.1667 0.1667 0.1146 ( 31529 PWs)   bands (ev):

   -66.1762 -66.1758 -66.1753 -66.1748 -30.5747 -30.5717 -30.5120 -30.5092
   -30.5090 -30.5054 -30.4855 -30.4832 -30.4491 -30.4462 -30.4275 -30.4246
   -20.3237 -20.3235 -20.3233 -20.3232 -20.3232 -20.3231 -20.3177 -20.3177
   -20.3151 -20.3151 -20.3151 -20.3151 -20.3136 -20.3124 -20.3122 -20.3112
   -20.3110 -20.3107 -20.3098 -20.3093 -20.2903 -20.2902 -20.2890 -20.2889
   -20.2889 -20.2888 -20.2874 -20.2874  -9.9439  -9.5514  -9.3213  -8.9594
    -8.8561  -8.8056  -8.2800  -8.2167  -7.9810  -7.9095  -7.8224  -7.8006
     1.1943   1.2194   1.3913   1.5118   2.2516   2.2591   2.4267   2.7241
     2.7945   2.8956   3.6421   3.7974   3.9733   4.5806   4.6480   4.7837
     5.0180   5.4144   5.4155   5.5955   5.7112   6.0428   6.2827   6.3138
     6.3491   6.4257   6.5607   6.5678   6.7314   6.9339   7.0137   7.3050
     7.9723   8.0444   8.0600   8.1800   9.7862  10.1025  10.1296  10.7712
    12.2615  12.4376  12.5856  13.3059  13.3747  13.3996  13.4524  14.0086
    14.0886  14.8504  15.1143  15.3547  15.8457  16.6588  17.1860

          k = 0.1667 0.1667 0.2293 ( 31533 PWs)   bands (ev):

   -66.1761 -66.1759 -66.1752 -66.1749 -30.5614 -30.5585 -30.5250 -30.5223
   -30.5084 -30.5062 -30.4854 -30.4839 -30.4485 -30.4469 -30.4269 -30.4252
   -20.3233 -20.3232 -20.3232 -20.3232 -20.3224 -20.3223 -20.3190 -20.3189
   -20.3151 -20.3151 -20.3151 -20.3151 -20.3134 -20.3126 -20.3120 -20.3114
   -20.3108 -20.3104 -20.3100 -20.3096 -20.2903 -20.2902 -20.2890 -20.2890
   -20.2889 -20.2888 -20.2874 -20.2874  -9.8267  -9.6033  -9.0883  -8.9098
    -8.8641  -8.7247  -8.4207  -8.2193  -8.2077  -8.1247  -7.8178  -7.8052
     1.2134   1.2185   2.0609   2.1094   2.2421   2.4077   2.6349   2.8126
     2.8789   2.9303   3.3960   3.4175   3.9668   4.1797   4.4872   4.6358
     4.8618   4.9558   5.1800   5.2986   5.4512   5.8482   6.3795   6.4022
     6.4247   6.5931   6.7183   6.7608   6.9114   6.9549   7.1184   7.2870
     7.7744   7.8731   8.0593   8.0856  10.1029  10.1056  10.4048  11.1083
    11.7857  12.1605  12.5906  13.1631  13.3553  13.3747  13.4565  13.8607
    14.4171  14.8046  15.3221  15.9524  16.1058  16.8683  17.3626

          k = 0.1667 0.1667-0.3439 ( 31516 PWs)   bands (ev):

   -66.1760 -66.1760 -66.1750 -66.1750 -30.5432 -30.5432 -30.5405 -30.5405
   -30.5073 -30.5073 -30.4847 -30.4847 -30.4477 -30.4477 -30.4260 -30.4260
   -20.3233 -20.3232 -20.3232 -20.3232 -20.3208 -20.3207 -20.3206 -20.3206
   -20.3151 -20.3151 -20.3151 -20.3151 -20.3130 -20.3130 -20.3117 -20.3117
   -20.3104 -20.3104 -20.3100 -20.3100 -20.2903 -20.2903 -20.2890 -20.2890
   -20.2889 -20.2889 -20.2874 -20.2874  -9.6977  -9.6977  -8.8794  -8.8794
    -8.7516  -8.7515  -8.5174  -8.5174  -8.1883  -8.1883  -7.8115  -7.8115
     1.2169   1.2169   2.2214   2.2214   2.8307   2.8307   2.9893   2.9893
     3.0019   3.0019   3.0897   3.0897   3.4769   3.4769   4.4933   4.4933
     4.7858   4.7859   5.1650   5.1650   5.5705   5.5705   6.4208   6.4208
     6.5233   6.5233   6.7001   6.7002   7.2202   7.2202   7.4377   7.4377
     7.4401   7.4401   8.0714   8.0714  10.1085  10.1085  11.1162  11.1162
    11.6137  11.6137  12.8443  12.8443  13.3718  13.3718  13.6203  13.6203
    14.6865  14.6865  15.6281  15.6281  16.7837  16.7837  17.5604

          k = 0.1667 0.3333 0.0000 ( 31497 PWs)   bands (ev):

   -66.1761 -66.1755 -66.1755 -66.1750 -30.5792 -30.5775 -30.5095 -30.5056
   -30.5019 -30.5006 -30.4692 -30.4664 -30.4655 -30.4626 -30.4321 -30.4288
   -20.3241 -20.3240 -20.3233 -20.3233 -20.3232 -20.3231 -20.3174 -20.3173
   -20.3154 -20.3153 -20.3153 -20.3153 -20.3133 -20.3119 -20.3116 -20.3115
   -20.3109 -20.3103 -20.3102 -20.3093 -20.2905 -20.2904 -20.2897 -20.2897
   -20.2882 -20.2882 -20.2872 -20.2872  -9.8409  -9.4868  -9.3537  -8.9343
    -8.6636  -8.5893  -8.5692  -8.5522  -7.9511  -7.9443  -7.8503  -7.8101
     1.1240   1.2049   1.4807   1.5030   2.4239   2.7302   2.7947   3.0259
     3.1069   3.3352   3.3928   3.8205   3.8629   3.9699   4.4539   4.9084
     4.9262   5.0577   5.2091   5.6989   5.7763   5.7793   5.8570   5.9598
     6.1304   6.1992   6.4043   6.6244   6.8209   6.9101   6.9474   7.6573
     7.6663   7.6995   7.7324   8.2080   9.9198  11.0416  11.0715  11.5668
    11.5753  12.5095  12.8184  12.8456  13.0364  13.1169  13.1395  14.0106
    14.1161  15.1603  15.5306  15.5712  16.3621  17.3419  17.4678

          k = 0.1667 0.3333 0.1146 ( 31531 PWs)   bands (ev):

   -66.1760 -66.1756 -66.1755 -66.1750 -30.5744 -30.5727 -30.5129 -30.5103
   -30.5031 -30.5009 -30.4691 -30.4666 -30.4654 -30.4628 -30.4319 -30.4290
   -20.3237 -20.3236 -20.3233 -20.3233 -20.3232 -20.3232 -20.3178 -20.3178
   -20.3154 -20.3153 -20.3153 -20.3153 -20.3132 -20.3120 -20.3115 -20.3114
   -20.3108 -20.3104 -20.3103 -20.3094 -20.2905 -20.2904 -20.2897 -20.2897
   -20.2882 -20.2882 -20.2872 -20.2872  -9.7877  -9.4094  -9.3685  -8.9058
    -8.6782  -8.5941  -8.5638  -8.5444  -7.9941  -7.9493  -7.9341  -7.9011
     1.3550   1.4385   1.4801   1.5616   2.4971   2.7619   2.8351   3.0116
     3.0962   3.3334   3.3892   3.8059   3.8646   3.9095   4.5185   4.6299
     4.9024   4.9304   4.9855   5.4139   5.6715   5.6827   5.7006   5.9947
     6.3455   6.3950   6.5189   6.6474   6.8159   6.8993   6.9865   7.6538
     7.6601   7.6707   7.7024   8.1262  10.1046  11.0425  11.0712  11.6276
    11.6550  12.3416  12.8117  12.8405  12.9789  13.0035  13.0775  13.9083
    14.3897  15.5452  15.5536  15.6885  16.4305  17.1424  17.4304

          k = 0.1667 0.3333 0.2293 ( 31519 PWs)   bands (ev):

   -66.1759 -66.1757 -66.1754 -66.1751 -30.5611 -30.5595 -30.5251 -30.5234
   -30.5033 -30.5016 -30.4688 -30.4673 -30.4650 -30.4634 -30.4313 -30.4296
   -20.3233 -20.3232 -20.3232 -20.3232 -20.3225 -20.3224 -20.3191 -20.3190
   -20.3154 -20.3153 -20.3153 -20.3153 -20.3130 -20.3123 -20.3113 -20.3112
   -20.3106 -20.3106 -20.3105 -20.3097 -20.2905 -20.2905 -20.2897 -20.2897
   -20.2882 -20.2882 -20.2872 -20.2872  -9.6557  -9.4179  -9.1966  -8.8125
    -8.7416  -8.6128  -8.5419  -8.5152  -8.2307  -8.1974  -7.9443  -7.9281
     1.4666   1.4784   2.0878   2.1985   2.7139   2.8507   2.9452   2.9654
     3.0541   3.3061   3.3805   3.4591   3.9992   4.0036   4.0631   4.2679
     4.6934   4.7812   4.8839   4.9612   4.9625   5.5054   5.7058   5.7684
     6.6433   6.7089   6.7985   6.8341   6.8776   6.9746   7.1478   7.5494
     7.5834   7.6336   7.6788   7.8972  10.5899  11.0432  11.0753  11.8307
    11.8772  11.8922  12.5938  12.6577  12.8320  12.8398  13.1943  13.6627
    14.8884  15.4529  16.0759  16.4839  16.7600  16.7698  17.4817

          k = 0.1667 0.3333-0.3439 ( 31542 PWs)   bands (ev):

   -66.1758 -66.1758 -66.1752 -66.1752 -30.5430 -30.5430 -30.5415 -30.5414
   -30.5026 -30.5026 -30.4681 -30.4681 -30.4642 -30.4642 -30.4305 -30.4305
   -20.3232 -20.3232 -20.3232 -20.3232 -20.3208 -20.3208 -20.3207 -20.3207
   -20.3153 -20.3153 -20.3153 -20.3153 -20.3126 -20.3126 -20.3110 -20.3110
   -20.3109 -20.3109 -20.3101 -20.3101 -20.2905 -20.2905 -20.2897 -20.2897
   -20.2882 -20.2882 -20.2872 -20.2872  -9.5145  -9.5145  -8.9239  -8.9239
    -8.6769  -8.6768  -8.4548  -8.4545  -8.4302  -8.4299  -7.9370  -7.9370
     1.4750   1.4751   2.8415   2.8417   2.8995   2.8996   2.9926   2.9950
     3.1615   3.1638   3.3350   3.3356   3.4000   3.4009   4.2951   4.2957
     4.3654   4.3655   4.8429   4.8530   5.1402   5.1497   5.7180   5.7183
     6.7485   6.7541   6.7926   6.7981   7.3234   7.3240   7.3531   7.3582
     7.4113   7.4142   7.7166   7.7177  11.0238  11.0264  11.2787  11.2829
    12.1758  12.1785  12.2395  12.2403  12.8289  12.8356  13.3943  13.3988
    15.2500  15.2521  16.4151  16.4169  17.3367  17.3439  17.4794

          k = 0.1667-0.5000 0.0000 ( 31522 PWs)   bands (ev):

   -66.1758 -66.1758 -66.1753 -66.1753 -30.5785 -30.5785 -30.5076 -30.5076
   -30.4884 -30.4884 -30.4864 -30.4864 -30.4460 -30.4460 -30.4428 -30.4428
   -20.3241 -20.3241 -20.3233 -20.3233 -20.3232 -20.3232 -20.3174 -20.3174
   -20.3155 -20.3155 -20.3154 -20.3154 -20.3124 -20.3124 -20.3111 -20.3111
   -20.3110 -20.3110 -20.3096 -20.3096 -20.2903 -20.2903 -20.2903 -20.2903
   -20.2875 -20.2875 -20.2875 -20.2875  -9.6454  -9.6454  -9.0523  -9.0523
    -8.8028  -8.8028  -8.2446  -8.2446  -8.2422  -8.2422  -7.8321  -7.8321
     1.1657   1.1657   2.1388   2.1388   2.1555   2.1555   2.6357   2.6357
     3.7096   3.7096   3.9445   3.9445   4.1481   4.1481   4.2313   4.2313
     4.7200   4.7200   5.0941   5.0942   5.5720   5.5720   5.8361   5.8361
     6.2243   6.2243   6.5051   6.5052   7.1917   7.1918   7.2008   7.2008
     7.2546   7.2546   8.0374   8.0374  10.6948  10.6948  11.9962  11.9962
    12.0193  12.0193  12.4246  12.4246  12.7425  12.7425  13.6077  13.6077
    14.6934  14.6934  16.4110  16.4110  16.7586  16.7586  17.5776

          k = 0.1667-0.5000 0.1146 ( 31538 PWs)   bands (ev):

   -66.1757 -66.1757 -66.1753 -66.1753 -30.5737 -30.5737 -30.5120 -30.5120
   -30.4887 -30.4887 -30.4866 -30.4866 -30.4458 -30.4458 -30.4430 -30.4430
   -20.3237 -20.3237 -20.3233 -20.3233 -20.3232 -20.3232 -20.3178 -20.3178
   -20.3155 -20.3155 -20.3154 -20.3154 -20.3123 -20.3123 -20.3112 -20.3112
   -20.3110 -20.3110 -20.3097 -20.3097 -20.2903 -20.2903 -20.2903 -20.2903
   -20.2875 -20.2875 -20.2875 -20.2875  -9.5802  -9.5802  -9.0663  -9.0663
    -8.7835  -8.7835  -8.2534  -8.2534  -8.2398  -8.2398  -7.9387  -7.9387
     1.4224   1.4224   2.1457   2.1457   2.1530   2.1530   2.7077   2.7077
     3.6463   3.6463   3.9919   3.9919   4.1686   4.1686   4.1871   4.1871
     4.7285   4.7285   4.8656   4.8656   5.2228   5.2228   5.8277   5.8277
     6.3046   6.3046   6.6882   6.6882   7.1832   7.1832   7.2015   7.2015
     7.2615   7.2615   7.9753   7.9754  10.8077  10.8077  11.9939  11.9939
    12.0185  12.0185  12.4704  12.4704  12.5891  12.5891  13.4883  13.4883
    15.0387  15.0387  16.5061  16.5061  16.7146  16.7146  17.5633

          k = 0.1667-0.5000 0.2293 ( 31522 PWs)   bands (ev):

   -66.1757 -66.1756 -66.1754 -66.1754 -30.5605 -30.5605 -30.5246 -30.5246
   -30.4887 -30.4887 -30.4873 -30.4873 -30.4453 -30.4453 -30.4436 -30.4436
   -20.3232 -20.3232 -20.3232 -20.3232 -20.3225 -20.3225 -20.3191 -20.3191
   -20.3155 -20.3155 -20.3154 -20.3154 -20.3121 -20.3121 -20.3115 -20.3115
   -20.3107 -20.3107 -20.3100 -20.3100 -20.2903 -20.2903 -20.2903 -20.2903
   -20.2875 -20.2875 -20.2875 -20.2875  -9.4128  -9.4128  -9.1167  -9.1167
    -8.7115  -8.7115  -8.3219  -8.3219  -8.2321  -8.2321  -8.1490  -8.1490
     2.0266   2.0266   2.1455   2.1455   2.2477   2.2477   2.9241   2.9241
     3.4188   3.4188   4.0588   4.0588   4.0826   4.0826   4.2803   4.2803
     4.3088   4.3088   4.7596   4.7596   4.8699   4.8699   5.2399   5.2399
     6.7852   6.7852   6.9564   6.9564   7.1522   7.1522   7.1928   7.1928
     7.3044   7.3044   7.7862   7.7862  11.1361  11.1361  11.9687  11.9687
    12.0187  12.0187  12.2045  12.2045  12.6162  12.6162  13.1963  13.1963
    15.7497  15.7497  16.5685  16.5685  16.8016  16.8016  17.4058

          k = 0.1667-0.5000-0.3439 ( 31544 PWs)   bands (ev):

   -66.1755 -66.1755 -66.1755 -66.1755 -30.5425 -30.5425 -30.5425 -30.5425
   -30.4881 -30.4881 -30.4881 -30.4881 -30.4445 -30.4445 -30.4445 -30.4445
   -20.3232 -20.3232 -20.3232 -20.3232 -20.3208 -20.3208 -20.3208 -20.3208
   -20.3154 -20.3154 -20.3154 -20.3154 -20.3118 -20.3118 -20.3118 -20.3118
   -20.3104 -20.3103 -20.3103 -20.3103 -20.2903 -20.2903 -20.2903 -20.2903
   -20.2875 -20.2875 -20.2875 -20.2875  -9.2303  -9.2303  -9.2303  -9.2303
    -8.5456  -8.5456  -8.5455  -8.5455  -8.2160  -8.2160  -8.2160  -8.2160
     2.1307   2.1307   2.1308   2.1308   2.9811   2.9811   2.9815   2.9815
     3.3743   3.3743   3.3757   3.3757   4.0860   4.0861   4.0918   4.0918
     4.6062   4.6062   4.6094   4.6094   4.8548   4.8549   4.8552   4.8552
     7.0637   7.0637   7.0649   7.0650   7.1378   7.1378   7.1416   7.1416
     7.4955   7.4955   7.4975   7.4975  11.6139  11.6139  11.6186  11.6186
    12.0246  12.0246  12.0333  12.0333  12.8679  12.8679  12.8717  12.8717
    16.2785  16.2785  16.2838  16.2838  17.1658  17.1660  17.1751

          k = 0.3333 0.3333 0.0000 ( 31516 PWs)   bands (ev):

   -66.1759 -66.1756 -66.1754 -66.1751 -30.5785 -30.5777 -30.5119 -30.5075
   -30.5069 -30.5053 -30.4893 -30.4875 -30.4449 -30.4417 -30.4256 -30.4222
   -20.3241 -20.3240 -20.3233 -20.3233 -20.3232 -20.3232 -20.3173 -20.3172
   -20.3152 -20.3152 -20.3151 -20.3150 -20.3138 -20.3123 -20.3123 -20.3111
   -20.3111 -20.3108 -20.3096 -20.3092 -20.2912 -20.2911 -20.2908 -20.2907
   -20.2871 -20.2871 -20.2865 -20.2865  -9.8121  -9.5879  -9.3718  -9.0082
    -8.9628  -8.7941  -8.2594  -8.2552  -7.8546  -7.8514  -7.8247  -7.8190
     1.1142   1.1979   1.2277   1.2864   2.1357   2.1504   2.3284   2.6395
     3.6991   3.7995   3.9251   3.9944   4.0477   4.6677   4.7520   4.9268
     4.9799   5.1097   5.3043   5.6259   5.6699   5.6961   5.9806   6.0030
     6.2491   6.2997   6.3708   6.3800   6.5424   6.7647   7.1065   7.1432
     7.1502   7.2265   8.0294   8.2554   9.6142  10.7029  11.7256  11.7590
    12.4063  12.4351  12.7063  12.7224  12.7402  13.2683  13.6075  13.8936
    14.1878  14.7417  15.2738  16.0184  16.8279  16.9633  17.5774

          k = 0.3333 0.3333 0.1146 ( 31501 PWs)   bands (ev):

   -66.1759 -66.1756 -66.1755 -66.1751 -30.5736 -30.5729 -30.5116 -30.5112
   -30.5103 -30.5078 -30.4896 -30.4877 -30.4447 -30.4419 -30.4254 -30.4225
   -20.3236 -20.3236 -20.3233 -20.3233 -20.3232 -20.3232 -20.3177 -20.3177
   -20.3152 -20.3152 -20.3151 -20.3150 -20.3137 -20.3124 -20.3122 -20.3112
   -20.3110 -20.3107 -20.3097 -20.3093 -20.2912 -20.2911 -20.2908 -20.2907
   -20.2871 -20.2871 -20.2865 -20.2865  -9.7610  -9.5213  -9.3844  -9.0205
    -8.9295  -8.7755  -8.2688  -8.2526  -7.9656  -7.9310  -7.8497  -7.8265
     1.2022   1.2275   1.4251   1.4956   2.1427   2.1479   2.4021   2.7143
     3.6867   3.7944   3.8113   3.8607   4.0633   4.6786   4.8074   4.8733
     4.9278   4.9358   5.0084   5.2687   5.8183   5.8402   5.9834   6.0001
     6.0301   6.3728   6.4009   6.4971   6.5878   6.8314   7.0251   7.1362
     7.1442   7.2243   7.9662   8.1650   9.8499  10.8191  11.7260  11.7576
    12.2661  12.4502  12.5794  12.7073  12.7253  13.3016  13.4858  14.0889
    14.1399  15.0795  15.2444  16.1742  16.7841  17.0644  17.5994

          k = 0.3333 0.3333 0.2293 ( 31520 PWs)   bands (ev):

   -66.1758 -66.1755 -66.1755 -66.1752 -30.5603 -30.5597 -30.5238 -30.5237
   -30.5108 -30.5086 -30.4898 -30.4884 -30.4442 -30.4426 -30.4248 -30.4231
   -20.3233 -20.3232 -20.3232 -20.3232 -20.3224 -20.3224 -20.3190 -20.3189
   -20.3152 -20.3152 -20.3150 -20.3150 -20.3134 -20.3127 -20.3120 -20.3114
   -20.3107 -20.3104 -20.3100 -20.3096 -20.2912 -20.2911 -20.2908 -20.2907
   -20.2871 -20.2871 -20.2865 -20.2865  -9.6370  -9.4266  -9.3508  -9.0650
    -8.8142  -8.7035  -8.3423  -8.2446  -8.2355  -8.1551  -7.8448  -7.8314
     1.2214   1.2268   2.0176   2.1404   2.2170   2.2462   2.6183   2.9400
     3.3858   3.4939   3.7471   3.7802   4.2424   4.2655   4.2935   4.7187
     4.8273   4.8790   4.8921   5.0533   5.2427   5.6740   5.9921   6.0293
     6.2214   6.3518   6.4874   6.7671   6.7990   6.9736   7.0375   7.1113
     7.2050   7.2391   7.7703   7.9010  10.4274  11.1534  11.7000  11.7538
    11.8293  12.1706  12.5952  12.7102  12.7199  13.1866  13.4091  13.8526
    14.5990  15.1454  15.7919  16.5575  16.6422  17.3087  17.4651

          k = 0.3333 0.3333-0.3439 ( 31512 PWs)   bands (ev):

   -66.1757 -66.1757 -66.1754 -66.1754 -30.5420 -30.5420 -30.5416 -30.5416
   -30.5097 -30.5097 -30.4892 -30.4892 -30.4434 -30.4434 -30.4239 -30.4239
   -20.3232 -20.3232 -20.3232 -20.3232 -20.3207 -20.3207 -20.3207 -20.3207
   -20.3152 -20.3152 -20.3150 -20.3150 -20.3130 -20.3130 -20.3117 -20.3117
   -20.3104 -20.3104 -20.3100 -20.3100 -20.2912 -20.2912 -20.2907 -20.2907
   -20.2871 -20.2871 -20.2865 -20.2865  -9.5100  -9.5100  -9.1703  -9.1702
    -8.5935  -8.5935  -8.5258  -8.5258  -8.2274  -8.2273  -7.8382  -7.8382
     1.2253   1.2253   2.1252   2.1253   2.9600   2.9600   2.9940   2.9940
     3.2232   3.2232   3.4053   3.4053   3.7611   3.7611   4.5638   4.5638
     4.8396   4.8396   4.8864   4.8864   5.3413   5.3413   6.0059   6.0059
     6.3104   6.3104   6.6228   6.6228   7.0380   7.0380   7.1411   7.1412
     7.4381   7.4381   7.5165   7.5165  11.1287  11.1287  11.6445  11.6445
    11.7503  11.7503  12.7145  12.7145  12.8528  12.8528  13.5988  13.5988
    14.9453  14.9453  16.3520  16.3520  16.9555  16.9555  17.7423

          k = 0.3333-0.5000 0.0000 ( 31492 PWs)   bands (ev):

   -66.1758 -66.1758 -66.1753 -66.1753 -30.5779 -30.5779 -30.5098 -30.5098
   -30.5026 -30.5026 -30.5018 -30.5018 -30.4303 -30.4303 -30.4270 -30.4270
   -20.3240 -20.3240 -20.3233 -20.3233 -20.3232 -20.3232 -20.3172 -20.3172
   -20.3151 -20.3151 -20.3151 -20.3151 -20.3132 -20.3132 -20.3119 -20.3119
   -20.3109 -20.3109 -20.3093 -20.3093 -20.2913 -20.2913 -20.2912 -20.2912
   -20.2865 -20.2865 -20.2865 -20.2865  -9.7193  -9.7193  -9.2577  -9.2577
    -8.9218  -8.9218  -7.9738  -7.9738  -7.9619  -7.9619  -7.8316  -7.8316
     1.1679   1.1679   1.4778   1.4778   1.5059   1.5059   2.4081   2.4081
     4.0622   4.0622   4.3621   4.3621   4.4063   4.4063   4.5317   4.5317
     5.3936   5.3936   5.5543   5.5543   5.6267   5.6267   5.7753   5.7753
     6.4140   6.4140   6.5688   6.5688   6.5909   6.5909   6.6917   6.6917
     7.0016   7.0016   8.1997   8.1997   9.9588   9.9588  12.3355  12.3355
    12.3598  12.3598  12.5089  12.5089  13.0277  13.0277  14.0164  14.0164
    14.1874  14.1874  15.7688  15.7688  16.7201  16.7201  17.5190

          k = 0.3333-0.5000 0.1146 ( 31516 PWs)   bands (ev):

   -66.1757 -66.1757 -66.1753 -66.1753 -30.5731 -30.5731 -30.5122 -30.5122
   -30.5041 -30.5041 -30.5029 -30.5029 -30.4301 -30.4301 -30.4272 -30.4272
   -20.3236 -20.3236 -20.3233 -20.3233 -20.3232 -20.3232 -20.3177 -20.3177
   -20.3151 -20.3151 -20.3151 -20.3151 -20.3131 -20.3131 -20.3120 -20.3120
   -20.3108 -20.3108 -20.3094 -20.3094 -20.2913 -20.2913 -20.2912 -20.2912
   -20.2865 -20.2865 -20.2865 -20.2865  -9.6640  -9.6640  -9.2696  -9.2696
    -8.8919  -8.8919  -7.9965  -7.9965  -7.9719  -7.9719  -7.9148  -7.9148
     1.3734   1.3734   1.4773   1.4773   1.5660   1.5660   2.4838   2.4838
     3.8701   3.8701   4.3770   4.3770   4.3824   4.3824   4.5793   4.5793
     5.1009   5.1009   5.5337   5.5337   5.5590   5.5590   5.9692   5.9692
     6.2265   6.2265   6.5862   6.5862   6.7071   6.7071   6.7186   6.7186
     6.9643   6.9643   8.1158   8.1158  10.1439  10.1439  12.3165  12.3165
    12.3571  12.3571  12.3639  12.3639  13.0621  13.0621  13.9108  13.9108
    14.4619  14.4619  15.7357  15.7357  16.8612  16.8612  17.5966

          k = 0.3333-0.5000 0.2293 ( 31538 PWs)   bands (ev):

   -66.1757 -66.1756 -66.1754 -66.1754 -30.5598 -30.5598 -30.5238 -30.5238
   -30.5052 -30.5052 -30.5037 -30.5037 -30.4295 -30.4295 -30.4278 -30.4278
   -20.3232 -20.3232 -20.3232 -20.3232 -20.3224 -20.3224 -20.3189 -20.3189
   -20.3151 -20.3151 -20.3150 -20.3150 -20.3129 -20.3129 -20.3123 -20.3123
   -20.3105 -20.3105 -20.3097 -20.3097 -20.2913 -20.2913 -20.2912 -20.2912
   -20.2865 -20.2865 -20.2865 -20.2865  -9.5294  -9.5294  -9.3101  -9.3101
    -8.7843  -8.7843  -8.2512  -8.2512  -7.9667  -7.9667  -7.9493  -7.9493
     1.4641   1.4641   1.4758   1.4758   2.1923   2.1923   2.7125   2.7125
     3.4426   3.4426   4.2987   4.2987   4.3748   4.3749   4.3898   4.3898
     4.7570   4.7570   5.3830   5.3830   5.5743   5.5743   5.7350   5.7350
     6.4049   6.4049   6.5669   6.5669   6.7633   6.7633   6.8961   6.8961
     7.0302   7.0302   7.8654   7.8654  10.6318  10.6318  11.8862  11.8862
    12.3450  12.3450  12.3546  12.3546  13.1759  13.1759  13.6566  13.6566
    14.9941  14.9941  15.6254  15.6254  17.2078  17.2078  17.7023

          k = 0.3333-0.5000-0.3439 ( 31548 PWs)   bands (ev):

   -66.1755 -66.1755 -66.1755 -66.1755 -30.5417 -30.5417 -30.5417 -30.5417
   -30.5046 -30.5046 -30.5046 -30.5046 -30.4286 -30.4286 -30.4286 -30.4286
   -20.3232 -20.3232 -20.3232 -20.3232 -20.3207 -20.3207 -20.3207 -20.3207
   -20.3151 -20.3151 -20.3150 -20.3150 -20.3126 -20.3126 -20.3126 -20.3126
   -20.3101 -20.3101 -20.3101 -20.3101 -20.2913 -20.2913 -20.2913 -20.2913
   -20.2865 -20.2865 -20.2865 -20.2865  -9.3942  -9.3942  -9.3942  -9.3942
    -8.5621  -8.5621  -8.5621  -8.5621  -7.9590  -7.9590  -7.9590  -7.9590
     1.4726   1.4726   1.4726   1.4726   2.9766   2.9766   2.9769   2.9769
     3.2761   3.2761   3.2763   3.2763   4.3815   4.3815   4.3839   4.3839
     5.0577   5.0577   5.0601   5.0601   5.6096   5.6096   5.6105   5.6105
     6.5207   6.5207   6.5214   6.5214   6.8350   6.8350   6.8354   6.8354
     7.4702   7.4702   7.4707   7.4707  11.2678  11.2678  11.2682  11.2682
    12.3487  12.3487  12.3503  12.3503  13.3810  13.3810  13.3821  13.3821
    15.3987  15.3987  15.3998  15.3998  17.4925  17.4939  17.4953

          k =-0.5000-0.5000 0.0000 ( 31472 PWs)   bands (ev):

   -66.1758 -66.1758 -66.1753 -66.1753 -30.5776 -30.5776 -30.5130 -30.5130
   -30.5087 -30.5087 -30.5043 -30.5043 -30.4245 -30.4245 -30.4212 -30.4212
   -20.3240 -20.3240 -20.3233 -20.3233 -20.3232 -20.3232 -20.3171 -20.3171
   -20.3148 -20.3148 -20.3147 -20.3147 -20.3138 -20.3138 -20.3123 -20.3123
   -20.3108 -20.3108 -20.3092 -20.3092 -20.2916 -20.2916 -20.2915 -20.2915
   -20.2861 -20.2861 -20.2861 -20.2861  -9.7553  -9.7553  -9.3330  -9.3330
    -8.9556  -8.9556  -7.8649  -7.8649  -7.8407  -7.8407  -7.8374  -7.8374
     1.1382   1.1382   1.2252   1.2252   1.2944   1.2944   2.3188   2.3188
     4.1454   4.1454   4.5915   4.5915   4.6553   4.6553   4.7305   4.7305
     5.4280   5.4280   5.4564   5.4564   5.9093   5.9093   5.9612   5.9612
     6.2589   6.2589   6.3613   6.3613   6.3983   6.3983   6.5451   6.5451
     7.1481   7.1481   8.2515   8.2515   9.6372   9.6372  12.4333  12.4333
    12.4867  12.4867  12.5077  12.5077  13.2602  13.2602  13.9175  13.9175
    14.1893  14.1893  15.3458  15.3458  16.9160  16.9160  17.5286

          k =-0.5000-0.5000 0.1146 ( 31508 PWs)   bands (ev):

   -66.1757 -66.1757 -66.1753 -66.1753 -30.5728 -30.5728 -30.5128 -30.5128
   -30.5093 -30.5093 -30.5090 -30.5090 -30.4243 -30.4243 -30.4214 -30.4214
   -20.3235 -20.3235 -20.3233 -20.3233 -20.3232 -20.3232 -20.3176 -20.3176
   -20.3148 -20.3148 -20.3147 -20.3147 -20.3137 -20.3137 -20.3124 -20.3124
   -20.3107 -20.3107 -20.3093 -20.3093 -20.2916 -20.2916 -20.2915 -20.2915
   -20.2861 -20.2861 -20.2861 -20.2861  -9.7041  -9.7041  -9.3444  -9.3444
    -8.9216  -8.9216  -7.9571  -7.9571  -7.8631  -7.8631  -7.8392  -7.8392
     1.2035   1.2035   1.2250   1.2250   1.4970   1.4970   2.3937   2.3937
     3.8911   3.8911   4.5957   4.5957   4.6510   4.6510   4.7965   4.7965
     5.1266   5.1266   5.5866   5.5866   5.9127   5.9127   5.9758   5.9758
     6.2458   6.2458   6.2550   6.2550   6.4274   6.4274   6.6501   6.6501
     7.0266   7.0266   8.1603   8.1603   9.8717   9.8717  12.2633  12.2633
    12.4882  12.4882  12.5064  12.5064  13.2926  13.2926  14.0885  14.0885
    14.1657  14.1657  15.3155  15.3155  17.1236  17.1236  17.5612

          k =-0.5000-0.5000 0.2293 ( 31520 PWs)   bands (ev):

   -66.1757 -66.1756 -66.1754 -66.1754 -30.5594 -30.5594 -30.5228 -30.5228
   -30.5120 -30.5120 -30.5098 -30.5098 -30.4237 -30.4237 -30.4220 -30.4220
   -20.3232 -20.3232 -20.3232 -20.3232 -20.3223 -20.3223 -20.3189 -20.3189
   -20.3148 -20.3148 -20.3147 -20.3147 -20.3134 -20.3134 -20.3127 -20.3127
   -20.3104 -20.3104 -20.3096 -20.3096 -20.2916 -20.2916 -20.2916 -20.2916
   -20.2861 -20.2861 -20.2861 -20.2861  -9.5813  -9.5813  -9.3826  -9.3826
    -8.8017  -8.8017  -8.2439  -8.2439  -7.8581  -7.8581  -7.8443  -7.8443
     1.2198   1.2198   1.2245   1.2245   2.2116   2.2116   2.6142   2.6142
     3.4174   3.4174   4.2997   4.2998   4.6073   4.6073   4.6392   4.6392
     4.9871   4.9871   5.5564   5.5564   5.9228   5.9228   5.9761   5.9761
     6.1549   6.1549   6.2318   6.2318   6.5115   6.5115   6.8175   6.8175
     6.9963   6.9963   7.8911   7.8911  10.4460  10.4460  11.7978  11.7978
    12.4923  12.4923  12.5027  12.5027  13.3982  13.3982  13.8476  13.8476
    14.6417  14.6417  15.2142  15.2142  17.6524  17.7619  17.7627

          k =-0.5000-0.5000-0.3439 ( 31624 PWs)   bands (ev):

   -66.1755 -66.1755 -66.1755 -66.1755 -30.5412 -30.5412 -30.5412 -30.5412
   -30.5109 -30.5109 -30.5109 -30.5109 -30.4229 -30.4229 -30.4229 -30.4229
   -20.3232 -20.3232 -20.3232 -20.3232 -20.3206 -20.3206 -20.3206 -20.3206
   -20.3148 -20.3148 -20.3148 -20.3148 -20.3130 -20.3130 -20.3130 -20.3130
   -20.3100 -20.3100 -20.3100 -20.3100 -20.2916 -20.2916 -20.2916 -20.2916
   -20.2861 -20.2861 -20.2861 -20.2861  -9.4597  -9.4596  -9.4596  -9.4596
    -8.5650  -8.5650  -8.5650  -8.5650  -7.8512  -7.8512  -7.8512  -7.8512
     1.2232   1.2233   1.2233   1.2233   2.9659   2.9659   2.9659   2.9659
     3.2268   3.2268   3.2268   3.2268   4.6232   4.6232   4.6232   4.6232
     5.2723   5.2723   5.2724   5.2724   5.9408   5.9408   5.9408   5.9408
     6.1967   6.1967   6.1967   6.1967   6.6429   6.6429   6.6429   6.6429
     7.4725   7.4725   7.4725   7.4725  11.1453  11.1453  11.1453  11.1453
    12.4976  12.4976  12.4976  12.4976  13.5894  13.5894  13.5894  13.5894
    15.0070  15.0070  15.0070  15.0070  17.7853  17.7853  17.7854

     the Fermi energy is     9.6066 ev

!    total energy              =   -3130.15651041 Ry
     Harris-Foulkes estimate   =   -3130.15651041 Ry
     estimated scf accuracy    <          1.5E-09 Ry

     The total energy is the sum of the following terms:

     one-electron contribution =   -2392.11018736 Ry
     hartree contribution      =    1314.60652014 Ry
     xc contribution           =    -483.41163719 Ry
     ewald contribution        =   -1569.24113845 Ry
     smearing contrib. (-TS)   =      -0.00006755 Ry

     convergence has been achieved in  12 iterations

     Writing output data file Landau_30.save/
 
     init_run     :      5.29s CPU      5.63s WALL (       1 calls)
     electrons    :    178.64s CPU    183.48s WALL (       1 calls)

     Called by init_run:
     wfcinit      :      4.50s CPU      4.76s WALL (       1 calls)
     potinit      :      0.29s CPU      0.31s WALL (       1 calls)
     hinit0       :      0.40s CPU      0.43s WALL (       1 calls)

     Called by electrons:
     c_bands      :    152.85s CPU    157.35s WALL (      12 calls)
     sum_band     :     22.83s CPU     22.91s WALL (      12 calls)
     v_of_rho     :      0.78s CPU      0.82s WALL (      13 calls)
     mix_rho      :      1.41s CPU      1.58s WALL (      12 calls)

     Called by c_bands:
     init_us_2    :      1.12s CPU      1.26s WALL (      25 calls)
     cegterg      :    132.74s CPU    137.16s WALL (      12 calls)

     Called by sum_band:

     Called by *egterg:
     h_psi        :    107.91s CPU    109.14s WALL (      47 calls)
     g_psi        :      0.22s CPU      0.22s WALL (      34 calls)
     cdiaghg      :      1.32s CPU      1.34s WALL (      46 calls)

     Called by h_psi:
     h_psi:pot    :    107.58s CPU    108.02s WALL (      47 calls)
     h_psi:calbec :     10.62s CPU     10.77s WALL (      47 calls)
     vloc_psi     :     85.62s CPU     85.79s WALL (      47 calls)
     add_vuspsi   :     11.35s CPU     11.46s WALL (      47 calls)

     General routines
     calbec       :     10.62s CPU     10.77s WALL (      47 calls)
     fft          :      0.41s CPU      0.41s WALL (      39 calls)
     ffts         :      0.14s CPU      0.14s WALL (      12 calls)
     fftw         :     87.15s CPU     87.24s WALL (    7926 calls)
 
     Parallel routines
 
     PWSCF        :   3m 4.82s CPU   3m10.24s WALL

 
   This run was terminated on:  13: 5:24  20Nov2019            

=------------------------------------------------------------------------------=
   JOB DONE.
=------------------------------------------------------------------------------=
