
     Program PWSCF v.6.4.1 starts on 17Dec2019 at 14:31: 3 

     This program is part of the open-source Quantum ESPRESSO suite
     for quantum simulation of materials; please cite
         "P. Giannozzi et al., J. Phys.:Condens. Matter 21 395502 (2009);
         "P. Giannozzi et al., J. Phys.:Condens. Matter 29 465901 (2017);
          URL http://www.quantum-espresso.org", 
     in publications or presentations arising from this work. More details at
     http://www.quantum-espresso.org/quote

     Parallel version (MPI), running on    40 processors

     MPI processes distributed on    10 nodes
     K-points division:     npool     =      40
     Reading input from scf.in

     Current dimensions of program PWSCF are:
     Max number of different atomic species (ntypx) = 10
     Max number of k-points (npk) =  40000
     Max angular momentum in pseudopotentials (lmaxx) =  3

     Subspace diagonalization in iterative solution of the eigenvalue problem:
     a serial algorithm will be used

     Message from routine setup:
     using ibrav=0 with symmetry is DISCOURAGED, use correct ibrav instead
 
     G-vector sticks info
     --------------------
     sticks:   dense  smooth     PW     G-vecs:    dense   smooth      PW
     Sum        3761    3761   1009               253269   253269   35677
 


     bravais-lattice index     =            0
     lattice parameter (alat)  =       9.9205  a.u.
     unit-cell volume          =    1425.5776 (a.u.)^3
     number of atoms/cell      =           16
     number of atomic types    =            2
     number of electrons       =       184.00
     number of Kohn-Sham states=          110
     kinetic-energy cutoff     =     120.0000  Ry
     charge density cutoff     =     480.0000  Ry
     convergence threshold     =      1.0E-08
     mixing beta               =       0.7000
     number of iterations used =            8  plain     mixing
     Exchange-correlation      = SLA PW NOGX NOGC ( 1  4  0  0 0 0)

     celldm(1)=   9.920463  celldm(2)=   0.000000  celldm(3)=   0.000000
     celldm(4)=   0.000000  celldm(5)=   0.000000  celldm(6)=   0.000000

     crystal axes: (cart. coord. in units of alat)
               a(1) = (   1.000000   0.000000   0.000000 )  
               a(2) = (   0.000000   1.000000   0.000000 )  
               a(3) = (   0.000000   0.000000   1.460142 )  

     reciprocal axes: (cart. coord. in units 2 pi/alat)
               b(1) = (  1.000000  0.000000  0.000000 )  
               b(2) = (  0.000000  1.000000  0.000000 )  
               b(3) = (  0.000000  0.000000  0.684865 )  


     PseudoPot. # 1 for W  read from file:
     /cluster/scratch/mnoe/QE/pps/W_ONCV_LDA-4.0.upf
     MD5 check sum: ba0307d5d4cd419d6f1d13dc49d7c13a
     Pseudo is Norm-conserving + core correction, Zval = 28.0
     Generated using ONCVPSP code by D. R. Hamann
     Using radial grid of 1380 points,  8 beta functions with: 
                l(1) =   0
                l(2) =   0
                l(3) =   1
                l(4) =   1
                l(5) =   2
                l(6) =   2
                l(7) =   3
                l(8) =   3

     PseudoPot. # 2 for O  read from file:
     /cluster/scratch/mnoe/QE/pps/O_ONCV_LDA-3.0.upf
     MD5 check sum: b55cdb4f45ae2203d24ad12cf8d61a31
     Pseudo is Norm-conserving + core correction, Zval =  6.0
     Generated using ONCVPSP code by D. R. Hamann
     Using radial grid of  926 points,  5 beta functions with: 
                l(1) =   0
                l(2) =   0
                l(3) =   1
                l(4) =   1
                l(5) =   2

     atomic species   valence    mass     pseudopotential
        W             28.00   183.84000     W ( 1.00)
        O              6.00    15.99940     O ( 1.00)

     16 Sym. Ops., with inversion, found (14 have fractional translation)



   Cartesian axes

     site n.     atom                  positions (alat units)
         1           W   tau(   1) = (   0.2500000   0.2500000   0.3085719  )
         2           W   tau(   2) = (   0.7500000   0.7500000   1.1515700  )
         3           W   tau(   3) = (   0.7500000   0.7500000   0.4214991  )
         4           W   tau(   4) = (   0.2500000   0.2500000   1.0386427  )
         5           O   tau(   5) = (   0.2500000   0.2500000   0.6991461  )
         6           O   tau(   6) = (   0.7500000   0.7500000   0.7609957  )
         7           O   tau(   7) = (   0.7500000   0.7500000   0.0309248  )
         8           O   tau(   8) = (   0.2500000   0.2500000   1.4292170  )
         9           O   tau(   9) = (   0.4845182   0.5154817   0.3650355  )
        10           O   tau(  10) = (   0.5154818   0.4845183   1.0951064  )
        11           O   tau(  11) = (   0.0154817   0.9845183   0.3650355  )
        12           O   tau(  12) = (   0.9845182   0.0154818   1.0951064  )
        13           O   tau(  13) = (   0.9845183   0.4845182   0.3650355  )
        14           O   tau(  14) = (   0.0154818   0.5154818   1.0951064  )
        15           O   tau(  15) = (   0.5154817   0.0154817   0.3650355  )
        16           O   tau(  16) = (   0.4845183   0.9845182   1.0951064  )

     number of k points=    60  gaussian smearing, width (Ry)=  0.0007
                       cart. coord. in units 2pi/alat
        k(    1) = (   0.0000000   0.0000000   0.0000000), wk =   0.0041152
        k(    2) = (   0.0000000   0.0000000   0.1141442), wk =   0.0082305
        k(    3) = (   0.0000000   0.0000000   0.2282883), wk =   0.0082305
        k(    4) = (   0.0000000   0.0000000  -0.3424325), wk =   0.0041152
        k(    5) = (   0.0000000   0.1111111   0.0000000), wk =   0.0164609
        k(    6) = (   0.0000000   0.1111111   0.1141442), wk =   0.0329218
        k(    7) = (   0.0000000   0.1111111   0.2282883), wk =   0.0329218
        k(    8) = (   0.0000000   0.1111111  -0.3424325), wk =   0.0164609
        k(    9) = (   0.0000000   0.2222222   0.0000000), wk =   0.0164609
        k(   10) = (   0.0000000   0.2222222   0.1141442), wk =   0.0329218
        k(   11) = (   0.0000000   0.2222222   0.2282883), wk =   0.0329218
        k(   12) = (   0.0000000   0.2222222  -0.3424325), wk =   0.0164609
        k(   13) = (   0.0000000   0.3333333   0.0000000), wk =   0.0164609
        k(   14) = (   0.0000000   0.3333333   0.1141442), wk =   0.0329218
        k(   15) = (   0.0000000   0.3333333   0.2282883), wk =   0.0329218
        k(   16) = (   0.0000000   0.3333333  -0.3424325), wk =   0.0164609
        k(   17) = (   0.0000000   0.4444444   0.0000000), wk =   0.0164609
        k(   18) = (   0.0000000   0.4444444   0.1141442), wk =   0.0329218
        k(   19) = (   0.0000000   0.4444444   0.2282883), wk =   0.0329218
        k(   20) = (   0.0000000   0.4444444  -0.3424325), wk =   0.0164609
        k(   21) = (   0.1111111   0.1111111   0.0000000), wk =   0.0164609
        k(   22) = (   0.1111111   0.1111111   0.1141442), wk =   0.0329218
        k(   23) = (   0.1111111   0.1111111   0.2282883), wk =   0.0329218
        k(   24) = (   0.1111111   0.1111111  -0.3424325), wk =   0.0164609
        k(   25) = (   0.1111111   0.2222222   0.0000000), wk =   0.0329218
        k(   26) = (   0.1111111   0.2222222   0.1141442), wk =   0.0658436
        k(   27) = (   0.1111111   0.2222222   0.2282883), wk =   0.0658436
        k(   28) = (   0.1111111   0.2222222  -0.3424325), wk =   0.0329218
        k(   29) = (   0.1111111   0.3333333   0.0000000), wk =   0.0329218
        k(   30) = (   0.1111111   0.3333333   0.1141442), wk =   0.0658436
        k(   31) = (   0.1111111   0.3333333   0.2282883), wk =   0.0658436
        k(   32) = (   0.1111111   0.3333333  -0.3424325), wk =   0.0329218
        k(   33) = (   0.1111111   0.4444444   0.0000000), wk =   0.0329218
        k(   34) = (   0.1111111   0.4444444   0.1141442), wk =   0.0658436
        k(   35) = (   0.1111111   0.4444444   0.2282883), wk =   0.0658436
        k(   36) = (   0.1111111   0.4444444  -0.3424325), wk =   0.0329218
        k(   37) = (   0.2222222   0.2222222   0.0000000), wk =   0.0164609
        k(   38) = (   0.2222222   0.2222222   0.1141442), wk =   0.0329218
        k(   39) = (   0.2222222   0.2222222   0.2282883), wk =   0.0329218
        k(   40) = (   0.2222222   0.2222222  -0.3424325), wk =   0.0164609
        k(   41) = (   0.2222222   0.3333333   0.0000000), wk =   0.0329218
        k(   42) = (   0.2222222   0.3333333   0.1141442), wk =   0.0658436
        k(   43) = (   0.2222222   0.3333333   0.2282883), wk =   0.0658436
        k(   44) = (   0.2222222   0.3333333  -0.3424325), wk =   0.0329218
        k(   45) = (   0.2222222   0.4444444   0.0000000), wk =   0.0329218
        k(   46) = (   0.2222222   0.4444444   0.1141442), wk =   0.0658436
        k(   47) = (   0.2222222   0.4444444   0.2282883), wk =   0.0658436
        k(   48) = (   0.2222222   0.4444444  -0.3424325), wk =   0.0329218
        k(   49) = (   0.3333333   0.3333333   0.0000000), wk =   0.0164609
        k(   50) = (   0.3333333   0.3333333   0.1141442), wk =   0.0329218
        k(   51) = (   0.3333333   0.3333333   0.2282883), wk =   0.0329218
        k(   52) = (   0.3333333   0.3333333  -0.3424325), wk =   0.0164609
        k(   53) = (   0.3333333   0.4444444   0.0000000), wk =   0.0329218
        k(   54) = (   0.3333333   0.4444444   0.1141442), wk =   0.0658436
        k(   55) = (   0.3333333   0.4444444   0.2282883), wk =   0.0658436
        k(   56) = (   0.3333333   0.4444444  -0.3424325), wk =   0.0329218
        k(   57) = (   0.4444444   0.4444444   0.0000000), wk =   0.0164609
        k(   58) = (   0.4444444   0.4444444   0.1141442), wk =   0.0329218
        k(   59) = (   0.4444444   0.4444444   0.2282883), wk =   0.0329218
        k(   60) = (   0.4444444   0.4444444  -0.3424325), wk =   0.0164609

     Dense  grid:   253269 G-vectors     FFT dimensions: (  72,  72, 108)

     Estimated max dynamical RAM per process >     895.54 MB

     Estimated total dynamical RAM >      34.98 GB

     Initial potential from superposition of free atoms

     starting charge  183.99828, renormalised to  184.00000
     Starting wfcs are  116 randomized atomic wfcs

     total cpu time spent up to now is       10.3 secs

     Self-consistent Calculation

     iteration #  1     ecut=   120.00 Ry     beta= 0.70
     Davidson diagonalization with overlap
     ethr =  1.00E-02,  avg # of iterations =  4.3

     total cpu time spent up to now is       47.0 secs

     total energy              =   -3126.88861201 Ry
     Harris-Foulkes estimate   =   -3132.30169934 Ry
     estimated scf accuracy    <       6.84999743 Ry

     iteration #  2     ecut=   120.00 Ry     beta= 0.70
     Davidson diagonalization with overlap
     ethr =  3.72E-03,  avg # of iterations =  3.4

     total cpu time spent up to now is       84.7 secs

     total energy              =   -3125.30897275 Ry
     Harris-Foulkes estimate   =   -3135.56360672 Ry
     estimated scf accuracy    <      27.64256318 Ry

     iteration #  3     ecut=   120.00 Ry     beta= 0.70
     Davidson diagonalization with overlap
     ethr =  3.72E-03,  avg # of iterations =  3.2

     total cpu time spent up to now is      114.9 secs

     total energy              =   -3130.52132524 Ry
     Harris-Foulkes estimate   =   -3130.66378968 Ry
     estimated scf accuracy    <       0.47405063 Ry

     iteration #  4     ecut=   120.00 Ry     beta= 0.70
     Davidson diagonalization with overlap
     ethr =  2.58E-04,  avg # of iterations =  2.4

     total cpu time spent up to now is      142.0 secs

     total energy              =   -3130.51701592 Ry
     Harris-Foulkes estimate   =   -3130.55493925 Ry
     estimated scf accuracy    <       0.11472217 Ry

     iteration #  5     ecut=   120.00 Ry     beta= 0.70
     Davidson diagonalization with overlap
     ethr =  6.23E-05,  avg # of iterations =  4.4

     total cpu time spent up to now is      173.8 secs

     total energy              =   -3130.52097538 Ry
     Harris-Foulkes estimate   =   -3130.53518721 Ry
     estimated scf accuracy    <       0.03245638 Ry

     iteration #  6     ecut=   120.00 Ry     beta= 0.70
     Davidson diagonalization with overlap
     ethr =  1.76E-05,  avg # of iterations =  3.7

     total cpu time spent up to now is      201.4 secs

     total energy              =   -3130.52768007 Ry
     Harris-Foulkes estimate   =   -3130.52909553 Ry
     estimated scf accuracy    <       0.00358238 Ry

     iteration #  7     ecut=   120.00 Ry     beta= 0.70
     Davidson diagonalization with overlap
     ethr =  1.95E-06,  avg # of iterations =  3.5

     total cpu time spent up to now is      229.5 secs

     total energy              =   -3130.52823041 Ry
     Harris-Foulkes estimate   =   -3130.52824907 Ry
     estimated scf accuracy    <       0.00003182 Ry

     iteration #  8     ecut=   120.00 Ry     beta= 0.70
     Davidson diagonalization with overlap
     ethr =  1.73E-08,  avg # of iterations =  3.8

     total cpu time spent up to now is      267.9 secs

     total energy              =   -3130.52825100 Ry
     Harris-Foulkes estimate   =   -3130.52825448 Ry
     estimated scf accuracy    <       0.00001965 Ry

     iteration #  9     ecut=   120.00 Ry     beta= 0.70
     Davidson diagonalization with overlap
     ethr =  1.07E-08,  avg # of iterations =  2.0

     total cpu time spent up to now is      292.2 secs

     total energy              =   -3130.52824811 Ry
     Harris-Foulkes estimate   =   -3130.52825200 Ry
     estimated scf accuracy    <       0.00001133 Ry

     iteration # 10     ecut=   120.00 Ry     beta= 0.70
     Davidson diagonalization with overlap
     ethr =  6.16E-09,  avg # of iterations =  2.0

     total cpu time spent up to now is      317.6 secs

     total energy              =   -3130.52824932 Ry
     Harris-Foulkes estimate   =   -3130.52824958 Ry
     estimated scf accuracy    <       0.00000061 Ry

     iteration # 11     ecut=   120.00 Ry     beta= 0.70
     Davidson diagonalization with overlap
     ethr =  3.31E-10,  avg # of iterations =  2.7

     total cpu time spent up to now is      346.6 secs

     total energy              =   -3130.52824944 Ry
     Harris-Foulkes estimate   =   -3130.52824947 Ry
     estimated scf accuracy    <       0.00000004 Ry

     iteration # 12     ecut=   120.00 Ry     beta= 0.70
     Davidson diagonalization with overlap
     ethr =  2.19E-11,  avg # of iterations =  2.0

     total cpu time spent up to now is      374.3 secs

     End of self-consistent calculation

          k = 0.0000 0.0000 0.0000 ( 31663 PWs)   bands (ev):

   -66.4549 -66.4544 -66.4535 -66.4530 -30.8060 -30.8014 -30.7908 -30.7908
   -30.7869 -30.7869 -30.7376 -30.7342 -30.7106 -30.7106 -30.7074 -30.7074
   -20.6203 -20.6202 -20.6202 -20.6201 -20.6088 -20.6088 -20.6088 -20.6088
   -20.6068 -20.6068 -20.6067 -20.6067 -20.5931 -20.5930 -20.5916 -20.5915
   -20.5914 -20.5913 -20.5865 -20.5864 -20.5848 -20.5848 -20.5834 -20.5834
   -20.5816 -20.5816 -20.5802 -20.5802 -10.2094  -9.8480  -9.4077  -9.2218
    -9.1994  -9.0909  -8.0261  -7.9377  -7.9377  -7.9137  -7.9137  -7.9079
     0.8799   0.8800   0.9880   1.2166   1.2429   1.3766   2.2981   2.3303
     2.3303   2.4040   3.8982   3.8982   4.6145   4.6145   4.8340   5.3845
     5.3845   5.4566   5.4566   5.6689   5.6689   5.7724   5.8136   6.4576
     6.4576   6.6659   6.9357   6.9708   7.0000   7.0000   7.0176   7.0176
     8.0725   8.0725   8.1354   8.1418   8.7416   8.7477   9.4279   9.4279
    12.2354  12.2354  13.1285  13.1285  13.3783  13.3963  13.4041  13.9927
    13.9927  14.1980  14.2006  14.5379  15.3645  16.3047

          k = 0.0000 0.0000 0.1141 ( 31699 PWs)   bands (ev):

   -66.4548 -66.4544 -66.4535 -66.4531 -30.8015 -30.7970 -30.7905 -30.7905
   -30.7872 -30.7872 -30.7422 -30.7388 -30.7104 -30.7104 -30.7076 -30.7076
   -20.6203 -20.6202 -20.6202 -20.6202 -20.6088 -20.6088 -20.6088 -20.6088
   -20.6068 -20.6068 -20.6067 -20.6067 -20.5926 -20.5926 -20.5916 -20.5915
   -20.5914 -20.5913 -20.5870 -20.5869 -20.5847 -20.5847 -20.5835 -20.5835
   -20.5815 -20.5815 -20.5803 -20.5803 -10.1726  -9.8621  -9.3271  -9.2203
    -9.2009  -9.0454  -8.1347  -8.0272  -7.9361  -7.9361  -7.9153  -7.9153
     0.8799   0.8800   1.1346   1.2423   1.3890   1.5777   2.3050   2.3967
     2.4009   2.4009   3.7224   3.7224   4.5876   4.6621   4.6621   5.3213
     5.3213   5.4094   5.4094   5.4340   5.8147   5.8342   5.8342   6.4722
     6.4722   6.6834   6.7779   6.9171   6.9997   6.9997   7.0139   7.0139
     7.9917   7.9917   8.1359   8.1417   8.7422   8.7475   9.6643   9.6643
    12.0691  12.0691  13.1574  13.1574  13.3968  13.4036  13.6762  13.8985
    13.8985  14.1984  14.2007  14.7467  15.7811  16.0145

          k = 0.0000 0.0000 0.2283 ( 31654 PWs)   bands (ev):

   -66.4547 -66.4545 -66.4534 -66.4532 -30.7898 -30.7898 -30.7890 -30.7879
   -30.7879 -30.7847 -30.7548 -30.7511 -30.7098 -30.7098 -30.7082 -30.7082
   -20.6202 -20.6202 -20.6202 -20.6202 -20.6088 -20.6088 -20.6088 -20.6088
   -20.6068 -20.6068 -20.6068 -20.6068 -20.5916 -20.5915 -20.5915 -20.5914
   -20.5914 -20.5913 -20.5882 -20.5881 -20.5844 -20.5844 -20.5837 -20.5837
   -20.5812 -20.5812 -20.5805 -20.5805 -10.0821  -9.9061  -9.2162  -9.2050
    -9.0985  -8.9011  -8.4120  -8.3223  -7.9317  -7.9317  -7.9197  -7.9197
     0.8800   0.8800   1.2191   1.2401   2.0046   2.2994   2.3240   2.3770
     2.6075   2.6075   3.3356   3.3356   3.8861   4.4889   4.8176   4.8176
     5.2048   5.2048   5.4395   5.4395   5.7253   5.7253   5.9394   6.4304
     6.7316   6.8202   6.8202   6.8665   6.9996   6.9996   7.0141   7.0141
     7.7385   7.7385   8.1372   8.1408   8.7437   8.7468  10.2444  10.2444
    11.6061  11.6061  13.2555  13.2555  13.3983  13.4023  13.6746  13.6746
    14.1993  14.2006  14.2558  15.3922  15.4515  16.8572

          k = 0.0000 0.0000-0.3424 ( 31762 PWs)   bands (ev):

   -66.4546 -66.4546 -66.4533 -66.4533 -30.7889 -30.7889 -30.7889 -30.7889
   -30.7720 -30.7720 -30.7680 -30.7680 -30.7090 -30.7090 -30.7090 -30.7090
   -20.6202 -20.6202 -20.6202 -20.6202 -20.6088 -20.6088 -20.6088 -20.6088
   -20.6068 -20.6068 -20.6068 -20.6068 -20.5915 -20.5915 -20.5914 -20.5914
   -20.5899 -20.5899 -20.5898 -20.5898 -20.5841 -20.5841 -20.5841 -20.5841
   -20.5809 -20.5809 -20.5809 -20.5809  -9.9822  -9.9822  -9.2106  -9.2106
    -8.7658  -8.7658  -8.6502  -8.6502  -7.9258  -7.9258  -7.9258  -7.9258
     0.8800   0.8800   1.2348   1.2348   2.3503   2.3503   2.9297   2.9297
     2.9325   2.9325   2.9325   2.9325   3.3459   3.3459   5.0342   5.0342
     5.0342   5.0342   5.5299   5.5299   5.5299   5.5299   6.1434   6.1434
     6.7985   6.7985   6.9986   6.9986   6.9986   6.9986   7.3292   7.3292
     7.3292   7.3292   8.1390   8.1390   8.7454   8.7454  10.9500  10.9500
    10.9500  10.9500  13.4003  13.4003  13.4346  13.4346  13.4346  13.4346
    14.2001  14.2001  14.8473  14.8473  16.2269  16.2269

          k = 0.0000 0.1111 0.0000 ( 31707 PWs)   bands (ev):

   -66.4548 -66.4543 -66.4536 -66.4531 -30.8065 -30.8017 -30.7887 -30.7884
   -30.7846 -30.7840 -30.7373 -30.7349 -30.7130 -30.7125 -30.7099 -30.7098
   -20.6203 -20.6202 -20.6202 -20.6201 -20.6088 -20.6087 -20.6087 -20.6087
   -20.6069 -20.6069 -20.6068 -20.6068 -20.5931 -20.5930 -20.5916 -20.5915
   -20.5914 -20.5913 -20.5866 -20.5865 -20.5847 -20.5846 -20.5833 -20.5832
   -20.5817 -20.5817 -20.5803 -20.5803 -10.1713  -9.8011  -9.4162  -9.1902
    -9.1678  -9.0808  -8.0458  -8.0044  -7.9866  -7.9651  -7.9626  -7.9109
     0.9952   0.9960   1.0132   1.2086   1.3654   1.4751   2.3551   2.3618
     2.3855   2.4790   3.8773   3.8970   4.4441   4.5010   4.8267   5.2437
     5.2677   5.3683   5.4103   5.6716   5.6763   5.8236   5.9721   6.3929
     6.3953   6.6490   6.6605   6.7755   6.8008   6.8856   6.9594   6.9871
     8.0358   8.0594   8.0829   8.0882   9.0857   9.0924   9.5696   9.6176
    12.2593  12.2742  12.9944  13.0046  13.3727  13.4071  13.5157  13.9098
    13.9107  14.3652  14.3798  14.6309  15.3338  16.4574

          k = 0.0000 0.1111 0.1141 ( 31665 PWs)   bands (ev):

   -66.4548 -66.4544 -66.4535 -66.4531 -30.8021 -30.7972 -30.7884 -30.7881
   -30.7848 -30.7841 -30.7419 -30.7393 -30.7128 -30.7124 -30.7101 -30.7100
   -20.6203 -20.6202 -20.6202 -20.6202 -20.6087 -20.6087 -20.6087 -20.6087
   -20.6069 -20.6069 -20.6068 -20.6068 -20.5926 -20.5926 -20.5916 -20.5915
   -20.5914 -20.5913 -20.5870 -20.5869 -20.5846 -20.5846 -20.5834 -20.5833
   -20.5816 -20.5816 -20.5804 -20.5803 -10.1332  -9.8153  -9.3356  -9.1887
    -9.1693  -9.0366  -8.1429  -8.0373  -8.0027  -7.9850  -7.9710  -7.9643
     0.9953   0.9959   1.1994   1.3646   1.4034   1.6121   2.3771   2.4319
     2.4404   2.4736   3.7135   3.7334   4.4936   4.5495   4.5791   5.2222
     5.2325   5.2896   5.2938   5.4395   5.7980   5.8227   6.0097   6.4064
     6.4196   6.6343   6.6543   6.7624   6.7912   6.8431   6.9567   6.9909
     7.9596   7.9770   8.0802   8.0896   9.0873   9.0909   9.7820   9.8238
    12.0953  12.1115  13.0213  13.0404  13.3682  13.4096  13.8128  13.8140
    13.8239  14.3655  14.3750  14.8301  15.7504  16.1516

          k = 0.0000 0.1111 0.2283 ( 31677 PWs)   bands (ev):

   -66.4547 -66.4545 -66.4534 -66.4532 -30.7912 -30.7879 -30.7874 -30.7855
   -30.7850 -30.7833 -30.7544 -30.7516 -30.7122 -30.7120 -30.7106 -30.7105
   -20.6202 -20.6202 -20.6202 -20.6202 -20.6087 -20.6087 -20.6087 -20.6087
   -20.6069 -20.6069 -20.6068 -20.6068 -20.5916 -20.5915 -20.5915 -20.5914
   -20.5914 -20.5914 -20.5883 -20.5882 -20.5843 -20.5843 -20.5836 -20.5836
   -20.5813 -20.5813 -20.5806 -20.5806 -10.0398  -9.8596  -9.1846  -9.1734
    -9.1072  -8.8954  -8.4180  -8.3260  -7.9980  -7.9836  -7.9806  -7.9687
     0.9954   0.9958   1.3336   1.3618   2.0068   2.2805   2.3985   2.4517
     2.6427   2.6540   3.3394   3.3600   3.8822   4.4901   4.6606   4.7102
     5.0967   5.1232   5.2956   5.3165   5.6127   5.6225   6.1172   6.4823
     6.6525   6.6597   6.7897   6.7970   6.8369   6.8738   6.9596   7.0037
     7.7128   7.7286   8.0824   8.0883   9.0889   9.0898  10.3210  10.3531
    11.6388  11.6587  13.1119  13.1441  13.3464  13.4186  13.5860  13.6233
    14.3659  14.3690  14.3988  15.4630  15.5856  16.7872

          k = 0.0000 0.1111-0.3424 ( 31672 PWs)   bands (ev):

   -66.4546 -66.4546 -66.4533 -66.4533 -30.7873 -30.7873 -30.7865 -30.7865
   -30.7711 -30.7710 -30.7683 -30.7683 -30.7114 -30.7114 -30.7113 -30.7113
   -20.6202 -20.6202 -20.6202 -20.6202 -20.6087 -20.6087 -20.6087 -20.6087
   -20.6068 -20.6068 -20.6068 -20.6068 -20.5916 -20.5915 -20.5914 -20.5914
   -20.5899 -20.5899 -20.5898 -20.5898 -20.5840 -20.5840 -20.5840 -20.5840
   -20.5810 -20.5810 -20.5810 -20.5810  -9.9371  -9.9371  -9.1790  -9.1790
    -8.7740  -8.7740  -8.6484  -8.6484  -7.9913  -7.9913  -7.9747  -7.9747
     0.9956   0.9956   1.3550   1.3550   2.4247   2.4247   2.9230   2.9230
     2.9388   2.9388   2.9638   2.9638   3.3644   3.3644   4.9013   4.9013
     4.9397   4.9398   5.3852   5.3852   5.4032   5.4032   6.2823   6.2823
     6.6535   6.6535   6.8598   6.8598   6.9547   6.9547   7.3092   7.3092
     7.3289   7.3289   8.0856   8.0856   9.0895   9.0895  10.9977  10.9977
    11.0227  11.0227  13.2514  13.2514  13.3317  13.3317  13.4715  13.4715
    14.3666  14.3666  14.9868  14.9868  16.2997  16.2997

          k = 0.0000 0.2222 0.0000 ( 31663 PWs)   bands (ev):

   -66.4547 -66.4542 -66.4537 -66.4532 -30.8070 -30.8025 -30.7826 -30.7815
   -30.7777 -30.7763 -30.7371 -30.7363 -30.7200 -30.7177 -30.7168 -30.7164
   -20.6203 -20.6202 -20.6202 -20.6201 -20.6086 -20.6086 -20.6085 -20.6085
   -20.6070 -20.6070 -20.6070 -20.6070 -20.5931 -20.5930 -20.5916 -20.5915
   -20.5915 -20.5914 -20.5868 -20.5866 -20.5843 -20.5842 -20.5830 -20.5829
   -20.5819 -20.5819 -20.5806 -20.5805 -10.0631  -9.6635  -9.4438  -9.0974
    -9.0750  -9.0476  -8.2174  -8.1846  -8.1222  -8.0986  -7.9898  -7.9194
     1.0509   1.1877   1.3247   1.3295   1.7067   1.7799   2.4511   2.4647
     2.6093   2.7064   3.7920   3.8409   4.1277   4.2304   4.8052   4.8662
     4.8938   5.1333   5.2696   5.6770   5.7032   5.8501   5.9390   5.9554
     6.2291   6.2929   6.3820   6.4712   6.6951   6.9264   6.9887   7.0208
     7.9139   7.9357   7.9642   8.0118   9.7485   9.7779   9.9433  10.0816
    12.3266  12.3770  12.7047  12.7194  13.1190  13.1556  13.6871  13.7164
    13.8336  14.9120  14.9749  14.9811  15.2406  16.8602

          k = 0.0000 0.2222 0.1141 ( 31651 PWs)   bands (ev):

   -66.4547 -66.4543 -66.4536 -66.4532 -30.8028 -30.7981 -30.7824 -30.7812
   -30.7780 -30.7763 -30.7412 -30.7408 -30.7198 -30.7180 -30.7170 -30.7166
   -20.6203 -20.6202 -20.6202 -20.6202 -20.6086 -20.6086 -20.6085 -20.6085
   -20.6070 -20.6070 -20.6070 -20.6070 -20.5927 -20.5926 -20.5916 -20.5915
   -20.5915 -20.5914 -20.5872 -20.5870 -20.5842 -20.5842 -20.5831 -20.5830
   -20.5818 -20.5818 -20.5807 -20.5806 -10.0210  -9.6778  -9.3638  -9.0959
    -9.0765  -9.0074  -8.2520  -8.1823  -8.1207  -8.1002  -8.0813  -8.0223
     1.2878   1.3250   1.3292   1.4209   1.7053   1.8228   2.5245   2.5293
     2.6193   2.7007   3.6682   3.7274   4.1722   4.2796   4.5542   4.8726
     4.8975   4.9772   5.0879   5.4525   5.6594   5.7776   5.9357   5.9564
     6.2804   6.3334   6.4114   6.6675   6.6723   6.9185   7.0036   7.0290
     7.8709   7.9096   7.9339   7.9610   9.7548   9.7712  10.1084  10.2316
    12.1754  12.2331  12.7314  12.7417  13.1152  13.1569  13.5849  13.6222
    14.1549  14.9750  14.9792  15.0809  15.6570  16.5096

          k = 0.0000 0.2222 0.2283 ( 31647 PWs)   bands (ev):

   -66.4546 -66.4543 -66.4536 -66.4533 -30.7919 -30.7859 -30.7822 -30.7805
   -30.7787 -30.7754 -30.7529 -30.7528 -30.7192 -30.7181 -30.7176 -30.7171
   -20.6202 -20.6202 -20.6202 -20.6202 -20.6086 -20.6086 -20.6086 -20.6085
   -20.6070 -20.6070 -20.6070 -20.6070 -20.5916 -20.5916 -20.5915 -20.5915
   -20.5915 -20.5914 -20.5883 -20.5882 -20.5840 -20.5840 -20.5833 -20.5833
   -20.5816 -20.5815 -20.5809 -20.5808  -9.9178  -9.7235  -9.1370  -9.0918
    -9.0806  -8.8765  -8.4597  -8.3341  -8.1757  -8.1368  -8.1164  -8.1046
     1.3259   1.3283   1.6379   1.7005   2.0134   2.2593   2.6211   2.6780
     2.7432   2.7659   3.3421   3.4124   3.8716   4.3497   4.4348   4.4819
     4.8394   4.8623   4.9446   4.9451   5.3141   5.3856   5.9358   5.9528
     6.4657   6.6152   6.7402   6.7872   6.8428   6.9048   7.0443   7.0596
     7.6490   7.6951   7.9319   7.9425   9.7614   9.7670  10.5496  10.6527
    11.7430  11.8130  12.8375  12.8375  13.0960  13.1576  13.3483  13.4057
    14.7830  14.9750  14.9765  15.6641  15.9457  16.6835

          k = 0.0000 0.2222-0.3424 ( 31648 PWs)   bands (ev):

   -66.4545 -66.4545 -66.4534 -66.4534 -30.7834 -30.7834 -30.7796 -30.7796
   -30.7693 -30.7693 -30.7678 -30.7678 -30.7184 -30.7184 -30.7177 -30.7177
   -20.6202 -20.6202 -20.6202 -20.6202 -20.6086 -20.6086 -20.6085 -20.6085
   -20.6070 -20.6070 -20.6070 -20.6070 -20.5916 -20.5916 -20.5914 -20.5914
   -20.5899 -20.5899 -20.5899 -20.5899 -20.5837 -20.5837 -20.5836 -20.5836
   -20.5812 -20.5812 -20.5812 -20.5812  -9.8057  -9.8057  -9.0862  -9.0862
    -8.8068  -8.8068  -8.6414  -8.6414  -8.1637  -8.1637  -8.1105  -8.1105
     1.3271   1.3271   1.6882   1.6882   2.6456   2.6456   2.9153   2.9153
     2.9513   2.9513   3.0465   3.0465   3.4102   3.4102   4.6119   4.6119
     4.6894   4.6894   5.0336   5.0336   5.0538   5.0538   5.9456   5.9456
     6.5537   6.5537   6.8767   6.8767   7.0227   7.0227   7.2728   7.2728
     7.3291   7.3291   7.9366   7.9366   9.7648   9.7648  11.1471  11.1471
    11.2327  11.2327  12.9729  12.9729  13.0598  13.0598  13.2444  13.2444
    14.9751  14.9751  15.3666  15.3666  16.5017  16.5017

          k = 0.0000 0.3333 0.0000 ( 31674 PWs)   bands (ev):

   -66.4545 -66.4540 -66.4539 -66.4534 -30.8070 -30.8037 -30.7732 -30.7709
   -30.7672 -30.7654 -30.7420 -30.7347 -30.7308 -30.7274 -30.7266 -30.7241
   -20.6203 -20.6203 -20.6202 -20.6202 -20.6083 -20.6083 -20.6083 -20.6083
   -20.6073 -20.6073 -20.6072 -20.6072 -20.5931 -20.5931 -20.5917 -20.5916
   -20.5916 -20.5915 -20.5869 -20.5867 -20.5838 -20.5837 -20.5826 -20.5825
   -20.5823 -20.5822 -20.5810 -20.5809  -9.9052  -9.4981  -9.4445  -8.9807
    -8.9497  -8.9272  -8.5061  -8.4278  -8.3174  -8.2941  -7.9806  -7.9324
     1.0793   1.1602   1.8192   1.8402   2.1930   2.2241   2.5814   2.6133
     3.0009   3.0949   3.5847   3.6069   3.8126   3.9110   4.3118   4.3649
     4.7844   4.8387   5.1563   5.1648   5.1899   5.6435   5.7505   5.8800
     6.0939   6.1453   6.1955   6.4846   6.8160   7.0094   7.0874   7.3038
     7.7074   7.7108   7.7982   7.9184  10.4560  10.4659  10.5258  10.6784
    12.1870  12.2284  12.5528  12.6286  12.6299  12.6614  13.3773  13.4569
    14.2130  15.0825  15.3794  15.8920  15.8971  17.2706

          k = 0.0000 0.3333 0.1141 ( 31629 PWs)   bands (ev):

   -66.4545 -66.4541 -66.4538 -66.4534 -30.8027 -30.7993 -30.7733 -30.7706
   -30.7674 -30.7653 -30.7450 -30.7390 -30.7305 -30.7277 -30.7268 -30.7254
   -20.6203 -20.6202 -20.6202 -20.6202 -20.6083 -20.6083 -20.6083 -20.6083
   -20.6073 -20.6073 -20.6072 -20.6072 -20.5927 -20.5927 -20.5917 -20.5916
   -20.5916 -20.5915 -20.5873 -20.5872 -20.5838 -20.5837 -20.5827 -20.5826
   -20.5822 -20.5821 -20.5811 -20.5810  -9.8555  -9.4592  -9.4202  -8.9482
    -8.9482  -8.9287  -8.5262  -8.4234  -8.3159  -8.2957  -8.0827  -8.0388
     1.3283   1.4073   1.8207   1.8390   2.1906   2.2367   2.6551   2.6749
     3.0059   3.0893   3.5215   3.5614   3.8647   3.9636   4.3254   4.3789
     4.5192   4.6691   4.8898   5.1508   5.1623   5.4139   5.4797   5.6969
     6.2503   6.3105   6.5025   6.5624   6.8244   7.0024   7.0995   7.2950
     7.6988   7.7022   7.7477   7.8614  10.4828  10.4920  10.6010  10.7743
    12.2226  12.2255  12.4439  12.4909  12.6301  12.6621  13.2645  13.3493
    14.5717  15.4672  15.5334  15.8923  15.8967  16.9403

          k = 0.0000 0.3333 0.2283 ( 31622 PWs)   bands (ev):

   -66.4544 -66.4542 -66.4537 -66.4535 -30.7915 -30.7872 -30.7741 -30.7699
   -30.7681 -30.7649 -30.7552 -30.7501 -30.7299 -30.7283 -30.7272 -30.7271
   -20.6202 -20.6202 -20.6202 -20.6202 -20.6083 -20.6083 -20.6083 -20.6083
   -20.6073 -20.6073 -20.6073 -20.6072 -20.5916 -20.5916 -20.5915 -20.5915
   -20.5915 -20.5915 -20.5884 -20.5883 -20.5835 -20.5835 -20.5829 -20.5828
   -20.5820 -20.5819 -20.5813 -20.5812  -9.7323  -9.5076  -9.2016  -8.9442
    -8.9328  -8.8375  -8.6289  -8.4083  -8.3350  -8.3115  -8.3000  -8.2558
     1.8249   1.8355   1.9526   2.0255   2.1813   2.3583   2.8491   2.8847
     3.0177   3.0748   3.3073   3.3869   3.8598   4.0479   4.1262   4.2752
     4.3871   4.4330   4.5744   4.7064   4.9555   5.0953   5.1630   5.1873
     6.7002   6.7155   6.7810   6.8321   6.8454   6.9824   7.1523   7.2580
     7.5410   7.6124   7.7212   7.7523  10.4980  10.5010  10.9198  11.0835
    11.9245  12.0533  12.3961  12.4532  12.6357  12.6772  12.9962  13.0890
    15.3067  15.8924  15.8956  15.9734  16.4297  16.5018

          k = 0.0000 0.3333-0.3424 ( 31616 PWs)   bands (ev):

   -66.4543 -66.4543 -66.4536 -66.4536 -30.7791 -30.7791 -30.7709 -30.7709
   -30.7690 -30.7690 -30.7612 -30.7612 -30.7291 -30.7291 -30.7275 -30.7275
   -20.6202 -20.6202 -20.6202 -20.6202 -20.6083 -20.6083 -20.6083 -20.6083
   -20.6073 -20.6073 -20.6073 -20.6073 -20.5916 -20.5916 -20.5915 -20.5915
   -20.5900 -20.5900 -20.5899 -20.5899 -20.5832 -20.5832 -20.5832 -20.5831
   -20.5817 -20.5817 -20.5816 -20.5816  -9.5999  -9.5999  -8.9390  -8.9390
    -8.8946  -8.8946  -8.6246  -8.6246  -8.3708  -8.3708  -8.3058  -8.3058
     1.8304   1.8304   2.1535   2.1535   2.8604   2.8604   2.9657   2.9657
     3.0642   3.0642   3.1300   3.1300   3.4355   3.4355   4.3060   4.3060
     4.3513   4.3513   4.5681   4.5681   4.6561   4.6561   5.1577   5.1577
     6.8036   6.8036   6.9329   6.9329   7.1424   7.1424   7.2197   7.2197
     7.3326   7.3326   7.7268   7.7268  10.5021  10.5021  11.4061  11.4061
    11.5552  11.5552  12.5258  12.5258  12.6884  12.6884  12.8353  12.8353
    15.8850  15.8850  15.9090  15.9090  16.7871  16.7871

          k = 0.0000 0.4444 0.0000 ( 31628 PWs)   bands (ev):

   -66.4543 -66.4541 -66.4538 -66.4536 -30.8062 -30.8050 -30.7620 -30.7578
   -30.7543 -30.7525 -30.7508 -30.7439 -30.7404 -30.7391 -30.7324 -30.7291
   -20.6203 -20.6203 -20.6202 -20.6202 -20.6080 -20.6080 -20.6079 -20.6079
   -20.6076 -20.6076 -20.6076 -20.6076 -20.5931 -20.5931 -20.5917 -20.5916
   -20.5916 -20.5916 -20.5869 -20.5869 -20.5833 -20.5832 -20.5827 -20.5827
   -20.5821 -20.5819 -20.5815 -20.5814  -9.7342  -9.5921  -9.1606  -8.8609
    -8.8374  -8.7566  -8.7367  -8.6696  -8.5392  -8.5162  -7.9653  -7.9484
     1.1048   1.1316   2.3703   2.4660   2.6175   2.6498   2.6992   2.7656
     3.1126   3.2240   3.5636   3.6229   3.6533   3.6789   3.7634   3.8781
     4.2653   4.3741   4.7751   4.8298   5.2451   5.4697   5.8121   5.8689
     6.0033   6.0176   6.1966   6.3066   7.1983   7.1997   7.2769   7.4404
     7.4680   7.5584   7.5724   7.7717  11.0299  11.1430  11.2454  11.3435
    11.6714  11.7410  12.0035  12.0252  12.7577  12.8727  13.0480  13.1631
    14.5652  14.8573  15.9945  16.6461  16.9493  16.9977

          k = 0.0000 0.4444 0.1141 ( 31624 PWs)   bands (ev):

   -66.4543 -66.4540 -66.4539 -66.4536 -30.8019 -30.8006 -30.7625 -30.7576
   -30.7545 -30.7526 -30.7523 -30.7437 -30.7407 -30.7392 -30.7362 -30.7320
   -20.6203 -20.6202 -20.6202 -20.6202 -20.6080 -20.6080 -20.6079 -20.6079
   -20.6076 -20.6076 -20.6076 -20.6076 -20.5927 -20.5927 -20.5917 -20.5916
   -20.5916 -20.5916 -20.5873 -20.5873 -20.5832 -20.5831 -20.5826 -20.5826
   -20.5822 -20.5820 -20.5816 -20.5814  -9.6733  -9.5204  -9.1759  -8.8539
    -8.8396  -8.7554  -8.7380  -8.6594  -8.5377  -8.5177  -8.0703  -8.0546
     1.3556   1.3820   2.3794   2.4618   2.6358   2.6748   2.7582   2.7732
     3.0967   3.1987   3.5666   3.6374   3.7096   3.7153   3.7995   3.9089
     4.2407   4.3726   4.5223   4.5955   4.9214   5.1357   5.5282   5.6030
     6.2944   6.3596   6.3807   6.4515   7.1905   7.1910   7.2769   7.4279
     7.4645   7.5255   7.5514   7.7289  11.0931  11.1809  11.2616  11.3865
    11.7225  11.7860  12.0108  12.0370  12.6175  12.7369  12.9210  13.0415
    14.9526  15.2594  16.0855  16.6984  16.9462  17.0047

          k = 0.0000 0.4444 0.2283 ( 31622 PWs)   bands (ev):

   -66.4542 -66.4540 -66.4539 -66.4537 -30.7903 -30.7888 -30.7655 -30.7591
   -30.7569 -30.7551 -30.7525 -30.7451 -30.7430 -30.7413 -30.7394 -30.7370
   -20.6202 -20.6202 -20.6202 -20.6202 -20.6080 -20.6080 -20.6079 -20.6079
   -20.6076 -20.6076 -20.6076 -20.6076 -20.5916 -20.5916 -20.5916 -20.5916
   -20.5915 -20.5915 -20.5884 -20.5884 -20.5830 -20.5829 -20.5825 -20.5824
   -20.5824 -20.5823 -20.5819 -20.5817  -9.5170  -9.3257  -9.2297  -8.9197
    -8.7622  -8.7517  -8.7415  -8.6209  -8.5336  -8.5219  -8.3235  -8.3014
     2.0282   2.0391   2.4018   2.4489   2.6849   2.6992   2.8392   2.9242
     3.0452   3.1038   3.5677   3.6332   3.8574   3.8686   3.8788   3.9396
     4.0147   4.0256   4.3413   4.3710   4.4688   4.6515   4.7953   4.9325
     6.7494   6.7686   6.7735   6.8119   7.1412   7.1611   7.2947   7.3654
     7.3750   7.4927   7.4950   7.6091  11.1979  11.2216  11.3968  11.5858
    11.8628  11.8630  12.0505  12.1210  12.2701  12.3874  12.6076  12.7369
    15.8305  16.2279  16.3888  16.8317  16.8941  16.9550

          k = 0.0000 0.4444-0.3424 ( 31656 PWs)   bands (ev):

   -66.4541 -66.4541 -66.4538 -66.4538 -30.7757 -30.7757 -30.7730 -30.7730
   -30.7560 -30.7560 -30.7511 -30.7510 -30.7422 -30.7422 -30.7392 -30.7391
   -20.6202 -20.6202 -20.6202 -20.6202 -20.6080 -20.6080 -20.6079 -20.6079
   -20.6076 -20.6076 -20.6076 -20.6076 -20.5916 -20.5916 -20.5916 -20.5916
   -20.5900 -20.5900 -20.5900 -20.5900 -20.5827 -20.5827 -20.5826 -20.5826
   -20.5822 -20.5822 -20.5820 -20.5820  -9.3439  -9.3439  -9.0841  -9.0841
    -8.7466  -8.7466  -8.5907  -8.5907  -8.5275  -8.5275  -8.5185  -8.5184
     2.4276   2.4276   2.6037   2.6037   2.8197   2.8197   2.9496   2.9496
     3.0547   3.0547   3.2787   3.2788   3.6317   3.6317   4.0946   4.0946
     4.1589   4.1589   4.2314   4.2314   4.3258   4.3258   4.4185   4.4185
     6.9980   6.9980   7.0642   7.0642   7.1336   7.1337   7.1708   7.1708
     7.3779   7.3779   7.5160   7.5160  11.2246  11.2246  11.7216  11.7216
    11.9448  11.9448  11.9983  11.9983  12.2483  12.2483  12.3908  12.3908
    16.4843  16.4843  16.8958  16.8958  17.0176  17.0176

          k = 0.1111 0.1111 0.0000 ( 31667 PWs)   bands (ev):

   -66.4548 -66.4543 -66.4536 -66.4531 -30.8065 -30.8020 -30.7914 -30.7875
   -30.7815 -30.7765 -30.7369 -30.7358 -30.7192 -30.7171 -30.7101 -30.7070
   -20.6203 -20.6202 -20.6202 -20.6201 -20.6090 -20.6090 -20.6084 -20.6083
   -20.6072 -20.6072 -20.6066 -20.6065 -20.5931 -20.5930 -20.5916 -20.5915
   -20.5914 -20.5914 -20.5866 -20.5865 -20.5848 -20.5843 -20.5834 -20.5830
   -20.5819 -20.5816 -20.5805 -20.5802 -10.1391  -9.7639  -9.4253  -9.1667
    -9.1292  -9.0594  -8.1578  -8.1473  -8.0020  -7.9448  -7.9204  -7.9136
     0.9541   0.9918   1.0897   1.2024   1.5922   1.6606   2.3219   2.4345
     2.4815   2.5525   3.8356   3.8716   4.1796   4.6138   4.8190   4.9179
     5.2395   5.3301   5.4148   5.6520   5.7048   5.8337   6.0244   6.2182
     6.4335   6.5456   6.5794   6.6058   6.7604   6.8395   6.9035   6.9625
     7.9640   8.0232   8.0279   8.0740   9.3717   9.3853   9.4467  10.0001
    12.2234  12.3701  12.6824  13.1264  13.2986  13.3173  13.5920  13.7078
    13.9930  14.5023  14.5912  14.7253  15.3002  16.6434

          k = 0.1111 0.1111 0.1141 ( 31688 PWs)   bands (ev):

   -66.4547 -66.4543 -66.4536 -66.4532 -30.8021 -30.7975 -30.7911 -30.7877
   -30.7813 -30.7766 -30.7415 -30.7400 -30.7193 -30.7173 -30.7099 -30.7072
   -20.6203 -20.6202 -20.6202 -20.6202 -20.6090 -20.6090 -20.6084 -20.6083
   -20.6072 -20.6072 -20.6066 -20.6065 -20.5927 -20.5926 -20.5916 -20.5915
   -20.5914 -20.5914 -20.5871 -20.5870 -20.5847 -20.5842 -20.5835 -20.5831
   -20.5818 -20.5815 -20.5806 -20.5803 -10.1001  -9.7780  -9.3450  -9.1607
    -9.1309  -9.0207  -8.1947  -8.1454  -8.0856  -8.0224  -7.9432  -7.9221
     0.9821   0.9917   1.2888   1.4305   1.5911   1.7224   2.3918   2.4498
     2.5437   2.5464   3.7048   3.7151   4.2136   4.5694   4.6672   4.9268
     5.0592   5.2949   5.3421   5.4461   5.7220   5.8278   6.0600   6.3060
     6.4274   6.5677   6.5860   6.6161   6.7598   6.8447   6.8849   6.9146
     7.9042   7.9787   8.0168   8.0357   9.3733   9.3804   9.6843  10.1568
    12.0649  12.2109  12.7190  13.1527  13.2894  13.3289  13.6184  13.8566
    13.8996  14.4972  14.6192  14.9148  15.7164  16.3133

          k = 0.1111 0.1111 0.2283 ( 31659 PWs)   bands (ev):

   -66.4547 -66.4544 -66.4535 -66.4532 -30.7906 -30.7904 -30.7885 -30.7853
   -30.7809 -30.7764 -30.7538 -30.7520 -30.7191 -30.7179 -30.7093 -30.7077
   -20.6202 -20.6202 -20.6202 -20.6202 -20.6090 -20.6090 -20.6084 -20.6083
   -20.6072 -20.6072 -20.6066 -20.6065 -20.5916 -20.5915 -20.5915 -20.5915
   -20.5914 -20.5914 -20.5883 -20.5882 -20.5844 -20.5840 -20.5837 -20.5833
   -20.5816 -20.5812 -20.5809 -20.5805 -10.0045  -9.8222  -9.1511  -9.1356
    -9.1169  -8.8875  -8.4316  -8.3304  -8.1401  -8.1164  -7.9388  -7.9266
     0.9892   0.9915   1.5472   1.5873   2.0095   2.2796   2.4718   2.5193
     2.6070   2.7564   3.3331   3.3788   3.8782   4.3858   4.4812   4.8228
     4.8907   4.9593   5.1881   5.3391   5.4003   5.7056   6.1606   6.5010
     6.5604   6.5723   6.6843   6.7455   6.8116   6.8263   6.9432   6.9728
     7.6841   7.7222   8.0205   8.0301   9.3760   9.3792  10.2587  10.5897
    11.6098  11.7750  12.8334  13.2107  13.2578  13.3384  13.4444  13.6769
    14.2943  14.4834  14.7619  15.5439  15.7507  16.7478

          k = 0.1111 0.1111-0.3424 ( 31654 PWs)   bands (ev):

   -66.4545 -66.4545 -66.4534 -66.4534 -30.7894 -30.7894 -30.7814 -30.7814
   -30.7695 -30.7695 -30.7687 -30.7686 -30.7186 -30.7185 -30.7085 -30.7085
   -20.6202 -20.6202 -20.6202 -20.6202 -20.6090 -20.6090 -20.6084 -20.6084
   -20.6072 -20.6072 -20.6066 -20.6066 -20.5916 -20.5916 -20.5914 -20.5914
   -20.5899 -20.5899 -20.5898 -20.5898 -20.5841 -20.5841 -20.5837 -20.5836
   -20.5812 -20.5812 -20.5809 -20.5809  -9.9002  -9.9002  -9.1425  -9.1425
    -8.7848  -8.7848  -8.6461  -8.6461  -8.1316  -8.1316  -7.9327  -7.9327
     0.9908   0.9908   1.5784   1.5784   2.4973   2.4973   2.9266   2.9266
     2.9289   2.9289   2.9903   2.9903   3.3833   3.3833   4.6526   4.6526
     5.0057   5.0057   5.0956   5.0957   5.4841   5.4841   6.3145   6.3145
     6.5702   6.5702   6.7374   6.7374   6.9461   6.9461   7.3078   7.3078
     7.3153   7.3153   8.0257   8.0257   9.3780   9.3780  10.9589  10.9589
    11.1819  11.1819  13.0245  13.0245  13.3459  13.3459  13.4497  13.4497
    14.4486  14.4486  15.1893  15.1893  16.3851  16.3851

          k = 0.1111 0.2222 0.0000 ( 31671 PWs)   bands (ev):

   -66.4547 -66.4542 -66.4537 -66.4532 -30.8067 -30.8027 -30.7896 -30.7853
   -30.7711 -30.7653 -30.7398 -30.7359 -30.7280 -30.7271 -30.7118 -30.7089
   -20.6203 -20.6202 -20.6202 -20.6201 -20.6091 -20.6091 -20.6079 -20.6079
   -20.6077 -20.6076 -20.6065 -20.6064 -20.5931 -20.5930 -20.5916 -20.5915
   -20.5915 -20.5914 -20.5867 -20.5866 -20.5847 -20.5838 -20.5833 -20.5825
   -20.5822 -20.5817 -20.5809 -20.5803 -10.0470  -9.6544  -9.4553  -9.1161
    -9.0165  -8.9765  -8.3966  -8.3648  -8.0109  -8.0069  -7.9712  -7.9216
     1.0176   1.1319   1.1850   1.1983   2.0826   2.1045   2.3506   2.5955
     2.6867   2.7755   3.6220   3.7361   3.9829   4.3886   4.4717   4.7985
     5.0644   5.1290   5.2772   5.6451   5.7284   5.8530   5.9344   6.0419
     6.1554   6.2717   6.2943   6.3973   6.7288   6.8383   6.8654   7.1752
     7.8116   7.8582   7.8768   8.0545   9.6164   9.9792  10.0023  10.5448
    12.1430  12.3663  12.5389  12.9989  13.0507  13.0925  13.4216  13.7631
    13.9129  14.9344  14.9893  15.1980  15.2284  17.1096

          k = 0.1111 0.2222 0.1141 ( 31659 PWs)   bands (ev):

   -66.4546 -66.4542 -66.4537 -66.4533 -30.8024 -30.7983 -30.7893 -30.7855
   -30.7710 -30.7654 -30.7429 -30.7403 -30.7282 -30.7281 -30.7117 -30.7091
   -20.6203 -20.6202 -20.6202 -20.6202 -20.6091 -20.6091 -20.6079 -20.6079
   -20.6077 -20.6076 -20.6065 -20.6064 -20.5927 -20.5926 -20.5916 -20.5915
   -20.5915 -20.5914 -20.5872 -20.5870 -20.5846 -20.5837 -20.5834 -20.5826
   -20.5822 -20.5816 -20.5810 -20.5804 -10.0049  -9.6681  -9.3759  -9.0955
    -9.0187  -8.9554  -8.4127  -8.3620  -8.1023  -8.0364  -8.0052  -7.9796
     1.1048   1.1317   1.3449   1.4506   2.0806   2.1200   2.4211   2.6464
     2.7086   2.7696   3.5533   3.6908   3.9184   4.4038   4.5309   4.5430
     4.8263   5.1350   5.1551   5.4639   5.5447   5.8082   5.9732   6.0414
     6.2601   6.3160   6.4021   6.4899   6.7310   6.7940   6.8775   7.1719
     7.7797   7.8488   7.8545   7.9767   9.8132   9.9811  10.0106  10.6560
    12.0687  12.3275  12.3925  13.0061  13.0436  13.1082  13.3225  13.8179
    14.0399  14.9243  15.1640  15.2638  15.6125  16.7044

          k = 0.1111 0.2222 0.2283 ( 31640 PWs)   bands (ev):

   -66.4545 -66.4543 -66.4536 -66.4534 -30.7914 -30.7887 -30.7861 -30.7854
   -30.7713 -30.7655 -30.7535 -30.7519 -30.7293 -30.7286 -30.7112 -30.7097
   -20.6202 -20.6202 -20.6202 -20.6202 -20.6091 -20.6091 -20.6079 -20.6079
   -20.6077 -20.6076 -20.6065 -20.6064 -20.5916 -20.5916 -20.5915 -20.5915
   -20.5914 -20.5914 -20.5883 -20.5882 -20.5843 -20.5836 -20.5835 -20.5829
   -20.5819 -20.5813 -20.5813 -20.5806  -9.9021  -9.7120  -9.1517  -9.0586
    -9.0253  -8.8568  -8.5239  -8.3530  -8.3399  -8.2580  -8.0007  -7.9875
     1.1257   1.1310   1.9393   2.0222   2.0732   2.3209   2.6278   2.6932
     2.7576   2.8808   3.3253   3.3686   3.8692   4.0681   4.3647   4.4615
     4.6835   4.7111   5.0227   5.0507   5.1863   5.5716   6.0162   6.0392
     6.3689   6.5703   6.6498   6.7127   6.7876   6.8295   7.0088   7.1521
     7.6023   7.6913   7.8529   7.8758   9.9825   9.9855  10.3655  10.9826
    11.6526  11.9923  12.4388  12.9346  13.0417  13.1396  13.1902  13.5924
    14.5160  14.8874  15.3755  15.7875  16.1671  16.6248

          k = 0.1111 0.2222-0.3424 ( 31624 PWs)   bands (ev):

   -66.4544 -66.4544 -66.4535 -66.4535 -30.7880 -30.7880 -30.7760 -30.7760
   -30.7697 -30.7697 -30.7632 -30.7632 -30.7292 -30.7292 -30.7104 -30.7104
   -20.6202 -20.6202 -20.6202 -20.6202 -20.6091 -20.6091 -20.6079 -20.6079
   -20.6077 -20.6076 -20.6064 -20.6064 -20.5916 -20.5916 -20.5915 -20.5915
   -20.5899 -20.5899 -20.5899 -20.5899 -20.5840 -20.5840 -20.5832 -20.5832
   -20.5816 -20.5816 -20.5810 -20.5810  -9.7918  -9.7918  -9.0372  -9.0371
    -8.8295  -8.8293  -8.6367  -8.6365  -8.3327  -8.3325  -7.9944  -7.9943
     1.1294   1.1297   2.0540   2.0543   2.7102   2.7117   2.9094   2.9174
     2.9424   2.9465   3.0386   3.0513   3.4048   3.4072   4.3367   4.3482
     4.6247   4.6303   4.8966   4.9303   5.2742   5.3057   6.0328   6.0328
     6.4734   6.4894   6.6927   6.7047   7.0743   7.0761   7.2698   7.2768
     7.3023   7.3085   7.8611   7.8620   9.9862   9.9870  11.0229  11.0275
    11.4674  11.4716  12.6630  12.6821  13.0490  13.1106  13.3306  13.3734
    14.7834  14.7892  15.6827  15.6905  16.6303  16.6306

          k = 0.1111 0.3333 0.0000 ( 31669 PWs)   bands (ev):

   -66.4545 -66.4540 -66.4539 -66.4534 -30.8066 -30.8038 -30.7834 -30.7783
   -30.7588 -30.7521 -30.7491 -30.7411 -30.7341 -30.7327 -30.7175 -30.7154
   -20.6203 -20.6203 -20.6202 -20.6202 -20.6091 -20.6090 -20.6081 -20.6081
   -20.6075 -20.6074 -20.6065 -20.6064 -20.5931 -20.5931 -20.5916 -20.5916
   -20.5916 -20.5915 -20.5868 -20.5867 -20.5843 -20.5832 -20.5830 -20.5827
   -20.5820 -20.5819 -20.5815 -20.5805  -9.9093  -9.5140  -9.4786  -9.0537
    -8.8398  -8.8190  -8.6810  -8.6013  -8.1636  -8.1542  -7.9785  -7.9338
     1.0740   1.1605   1.4731   1.5010   2.4367   2.5693   2.6570   2.7093
     3.0780   3.1422   3.1889   3.5802   3.8561   3.8830   4.1751   4.6731
     4.7846   4.8609   5.0580   5.3704   5.4438   5.6187   5.7207   5.8473
     6.0766   6.0970   6.2695   6.6251   6.6376   6.8472   6.9447   7.4550
     7.5921   7.6116   7.6710   7.9887  10.0225  10.6696  10.6961  11.1415
    11.6970  12.3963  12.5674  12.6222  12.7137  12.8566  13.1027  13.7080
    14.0832  15.0231  15.4393  15.6484  16.0711  17.3819

          k = 0.1111 0.3333 0.1141 ( 31644 PWs)   bands (ev):

   -66.4545 -66.4541 -66.4538 -66.4534 -30.8024 -30.7994 -30.7832 -30.7784
   -30.7591 -30.7522 -30.7502 -30.7412 -30.7381 -30.7356 -30.7176 -30.7156
   -20.6203 -20.6202 -20.6202 -20.6202 -20.6091 -20.6090 -20.6081 -20.6081
   -20.6075 -20.6074 -20.6065 -20.6065 -20.5927 -20.5927 -20.5916 -20.5916
   -20.5915 -20.5915 -20.5872 -20.5871 -20.5842 -20.5832 -20.5831 -20.5826
   -20.5821 -20.5818 -20.5815 -20.5806  -9.8612  -9.4919  -9.4378  -9.0262
    -8.8429  -8.8110  -8.6941  -8.5954  -8.1693  -8.1618  -8.0761  -8.0380
     1.3016   1.3924   1.4725   1.5470   2.5038   2.5890   2.6621   2.7473
     3.0810   3.1289   3.1772   3.6049   3.7837   3.8891   4.2365   4.5067
     4.6822   4.7178   4.8333   5.3204   5.3722   5.3816   5.5021   5.7508
     6.2819   6.3096   6.3921   6.6554   6.6797   6.8388   6.9668   7.4323
     7.5803   7.6053   7.6416   7.9162  10.1755  10.6703  10.6985  11.2210
    11.7566  12.2416  12.5470  12.6162  12.6823  12.8031  12.9841  13.6060
    14.3995  15.4194  15.5849  15.6313  16.1045  17.1038

          k = 0.1111 0.3333 0.2283 ( 31625 PWs)   bands (ev):

   -66.4544 -66.4541 -66.4538 -66.4535 -30.7913 -30.7874 -30.7828 -30.7782
   -30.7615 -30.7568 -30.7525 -30.7473 -30.7416 -30.7405 -30.7174 -30.7161
   -20.6202 -20.6202 -20.6202 -20.6202 -20.6091 -20.6090 -20.6081 -20.6081
   -20.6075 -20.6074 -20.6065 -20.6065 -20.5916 -20.5916 -20.5916 -20.5915
   -20.5915 -20.5915 -20.5884 -20.5883 -20.5840 -20.5833 -20.5830 -20.5824
   -20.5823 -20.5818 -20.5816 -20.5809  -9.7436  -9.5357  -9.2266  -8.9473
    -8.8532  -8.7709  -8.7540  -8.5737  -8.3456  -8.3158  -8.1566  -8.1356
     1.4550   1.4706   2.0200   2.1080   2.6202   2.6392   2.7530   2.8745
     3.0589   3.0950   3.1553   3.3779   3.8632   3.8698   4.0064   4.1814
     4.4087   4.6587   4.6860   4.7575   4.8072   5.2349   5.3749   5.4463
     6.6099   6.6852   6.7168   6.7591   6.8189   6.8434   7.0672   7.3529
     7.4679   7.5586   7.6224   7.7267  10.5624  10.6714  10.7375  11.4631
    11.7637  11.9903  12.2847  12.5567  12.6042  12.7362  12.8931  13.3608
    14.9940  15.5633  15.9837  16.3019  16.4101  16.6727

          k = 0.1111 0.3333-0.3424 ( 31626 PWs)   bands (ev):

   -66.4543 -66.4543 -66.4536 -66.4536 -30.7832 -30.7832 -30.7716 -30.7716
   -30.7713 -30.7713 -30.7521 -30.7521 -30.7418 -30.7418 -30.7168 -30.7168
   -20.6202 -20.6202 -20.6202 -20.6202 -20.6091 -20.6091 -20.6081 -20.6081
   -20.6074 -20.6074 -20.6065 -20.6065 -20.5916 -20.5916 -20.5915 -20.5915
   -20.5900 -20.5899 -20.5899 -20.5899 -20.5837 -20.5837 -20.5827 -20.5827
   -20.5821 -20.5821 -20.5812 -20.5812  -9.6200  -9.6200  -8.9487  -8.9478
    -8.8785  -8.8772  -8.6117  -8.6108  -8.5105  -8.5097  -8.1489  -8.1487
     1.4664   1.4669   2.5788   2.5789   2.8345   2.8378   2.9434   2.9672
     3.0318   3.0528   3.1470   3.1526   3.3392   3.3483   4.1639   4.1794
     4.2685   4.2735   4.5629   4.6393   4.8594   4.9238   5.3826   5.3853
     6.7010   6.7209   6.7776   6.7979   7.1657   7.1714   7.2041   7.2211
     7.2870   7.3015   7.6349   7.6399  10.6665  10.6712  11.2011  11.2184
    11.8429  11.8530  12.2452  12.2789  12.5986  12.6755  13.0718  13.1145
    15.3784  15.3931  16.2890  16.3075  17.0063  17.0197

          k = 0.1111 0.4444 0.0000 ( 31649 PWs)   bands (ev):

   -66.4543 -66.4541 -66.4538 -66.4536 -30.8060 -30.8050 -30.7737 -30.7678
   -30.7616 -30.7548 -30.7466 -30.7383 -30.7378 -30.7310 -30.7256 -30.7252
   -20.6203 -20.6203 -20.6202 -20.6202 -20.6089 -20.6088 -20.6086 -20.6085
   -20.6070 -20.6070 -20.6067 -20.6067 -20.5931 -20.5931 -20.5916 -20.5916
   -20.5916 -20.5916 -20.5869 -20.5868 -20.5838 -20.5832 -20.5827 -20.5825
   -20.5822 -20.5820 -20.5814 -20.5809  -9.7528  -9.6128  -9.2469  -8.9745
    -8.9592  -8.8099  -8.6167  -8.6087  -8.3781  -8.3759  -7.9646  -7.9488
     1.1053   1.1331   1.9762   1.9772   2.4742   2.5740   2.5826   2.7087
     3.1973   3.5676   3.6453   3.6471   3.6933   3.8647   3.9548   4.1281
     4.3252   4.6428   4.8003   4.9353   5.2758   5.4554   5.7403   5.7923
     6.0685   6.1086   6.2300   6.3919   7.0190   7.0535   7.1348   7.3250
     7.3329   7.4040   7.6950   7.8711  10.5528  11.1173  11.3609  11.4051
    11.7229  12.0122  12.0667  12.2839  12.5685  12.8069  13.1144  13.4250
    14.4490  14.7722  16.0370  16.5088  16.7571  17.0016

          k = 0.1111 0.4444 0.1141 ( 31635 PWs)   bands (ev):

   -66.4543 -66.4540 -66.4539 -66.4536 -30.8017 -30.8006 -30.7736 -30.7679
   -30.7618 -30.7550 -30.7479 -30.7408 -30.7385 -30.7339 -30.7262 -30.7258
   -20.6203 -20.6202 -20.6202 -20.6202 -20.6089 -20.6088 -20.6085 -20.6085
   -20.6070 -20.6070 -20.6067 -20.6067 -20.5927 -20.5927 -20.5916 -20.5916
   -20.5916 -20.5916 -20.5873 -20.5872 -20.5837 -20.5832 -20.5826 -20.5826
   -20.5822 -20.5821 -20.5815 -20.5810  -9.6951  -9.5443  -9.2598  -8.9871
    -8.9369  -8.7970  -8.6210  -8.6050  -8.3823  -8.3758  -8.0690  -8.0545
     1.3542   1.3814   1.9754   1.9848   2.4874   2.5682   2.6514   2.7625
     3.1793   3.5256   3.6212   3.6705   3.7362   3.9219   3.9747   4.1379
     4.2686   4.5513   4.6493   4.7211   4.9885   5.1224   5.5652   5.6566
     6.2461   6.2768   6.4363   6.5513   7.0189   7.0468   7.1422   7.3162
     7.3280   7.3911   7.6538   7.8117  10.6634  11.1917  11.3609  11.4119
    11.7793  12.0097  12.0677  12.3306  12.4207  12.6711  12.9879  13.3116
    14.8073  15.1589  16.1357  16.4895  16.8070  17.0240

          k = 0.1111 0.4444 0.2283 ( 31627 PWs)   bands (ev):

   -66.4542 -66.4540 -66.4539 -66.4537 -30.7903 -30.7889 -30.7737 -30.7678
   -30.7638 -30.7552 -30.7548 -30.7492 -30.7389 -30.7382 -30.7270 -30.7263
   -20.6202 -20.6202 -20.6202 -20.6202 -20.6089 -20.6088 -20.6085 -20.6085
   -20.6070 -20.6070 -20.6067 -20.6067 -20.5916 -20.5916 -20.5916 -20.5916
   -20.5915 -20.5915 -20.5884 -20.5884 -20.5835 -20.5830 -20.5829 -20.5824
   -20.5823 -20.5819 -20.5818 -20.5813  -9.5509  -9.3632  -9.3044  -9.0354
    -8.8575  -8.7472  -8.6389  -8.5908  -8.4299  -8.3688  -8.3171  -8.2763
     1.8899   1.9696   2.0249   2.1515   2.5313   2.5492   2.8520   2.9164
     3.1104   3.3223   3.6260   3.6599   3.8994   3.9306   4.0367   4.0747
     4.0979   4.2117   4.2859   4.5925   4.6667   4.7073   4.8828   5.0994
     6.6780   6.7130   6.7925   6.8287   7.0060   7.0229   7.1825   7.2677
     7.2912   7.3817   7.5266   7.6369  10.9785  11.3409  11.3691  11.4962
    11.9354  11.9608  12.0732  12.0844  12.3345  12.4724  12.6732  13.0342
    15.5632  16.0542  16.3860  16.4566  16.9685  17.0717

          k = 0.1111 0.4444-0.3424 ( 31656 PWs)   bands (ev):

   -66.4541 -66.4541 -66.4538 -66.4538 -30.7776 -30.7776 -30.7738 -30.7738
   -30.7651 -30.7651 -30.7546 -30.7546 -30.7392 -30.7392 -30.7268 -30.7268
   -20.6202 -20.6202 -20.6202 -20.6202 -20.6089 -20.6089 -20.6085 -20.6085
   -20.6070 -20.6070 -20.6067 -20.6067 -20.5916 -20.5916 -20.5916 -20.5916
   -20.5900 -20.5900 -20.5899 -20.5899 -20.5832 -20.5832 -20.5827 -20.5827
   -20.5821 -20.5821 -20.5816 -20.5816  -9.3997  -9.3996  -9.1580  -9.1578
    -8.7161  -8.7151  -8.6176  -8.6176  -8.5334  -8.5333  -8.3534  -8.3530
     1.9573   1.9580   2.5030   2.5032   2.8602   2.8602   2.9197   2.9232
     3.1692   3.1804   3.3108   3.3140   3.6635   3.6757   4.0827   4.0949
     4.1822   4.2605   4.3080   4.3399   4.4675   4.5182   4.7371   4.7385
     6.9107   6.9261   6.9499   6.9612   7.1024   7.1097   7.1269   7.1616
     7.3212   7.3389   7.4294   7.4427  11.2944  11.3427  11.4887  11.5482
    11.8143  11.8630  12.0090  12.1117  12.2928  12.3193  12.7055  12.7397
    16.1044  16.1326  16.7248  16.8025  16.9102  17.0219

          k = 0.2222 0.2222 0.0000 ( 31655 PWs)   bands (ev):

   -66.4546 -66.4541 -66.4538 -66.4533 -30.8061 -30.8033 -30.7928 -30.7889
   -30.7584 -30.7516 -30.7493 -30.7415 -30.7346 -30.7315 -30.7088 -30.7057
   -20.6203 -20.6202 -20.6202 -20.6202 -20.6095 -20.6095 -20.6083 -20.6083
   -20.6073 -20.6072 -20.6061 -20.6060 -20.5931 -20.5931 -20.5916 -20.5915
   -20.5915 -20.5915 -20.5867 -20.5866 -20.5848 -20.5834 -20.5832 -20.5827
   -20.5820 -20.5816 -20.5814 -20.5802  -9.9966  -9.6146  -9.4927  -9.1172
    -8.8592  -8.8260  -8.6606  -8.5926  -7.9923  -7.9627  -7.9374  -7.9279
     0.9674   1.0251   1.1632   1.1760   2.2987   2.5937   2.6894   2.7093
     2.8922   2.9780   3.1748   3.5728   3.8679   3.9670   4.6022   4.7820
     5.0383   5.1116   5.2094   5.6150   5.7085   5.7730   5.9667   5.9867
     6.0598   6.1292   6.1949   6.4398   6.4741   6.6654   6.9694   7.4407
     7.5783   7.6437   7.6865   8.0743   9.4880  10.4831  10.5121  11.1312
    11.6798  12.2741  12.7779  12.8624  12.8790  13.1206  13.1281  13.7196
    13.9937  14.9734  15.0672  15.2389  15.7805  17.3522

          k = 0.2222 0.2222 0.1141 ( 31641 PWs)   bands (ev):

   -66.4545 -66.4541 -66.4538 -66.4534 -30.8016 -30.7989 -30.7925 -30.7891
   -30.7587 -30.7517 -30.7503 -30.7417 -30.7386 -30.7349 -30.7086 -30.7059
   -20.6203 -20.6202 -20.6202 -20.6202 -20.6095 -20.6095 -20.6083 -20.6083
   -20.6073 -20.6072 -20.6061 -20.6060 -20.5927 -20.5926 -20.5916 -20.5915
   -20.5915 -20.5915 -20.5871 -20.5871 -20.5847 -20.5835 -20.5832 -20.5826
   -20.5821 -20.5815 -20.5815 -20.5803  -9.9540  -9.6271  -9.4159  -9.0851
    -8.8629  -8.8170  -8.6726  -8.5872  -8.0970  -8.0399  -7.9610  -7.9391
     1.0068   1.0250   1.3557   1.4529   2.3693   2.6131   2.7022   2.7341
     2.8996   2.9714   3.1540   3.6029   3.8040   3.9010   4.5173   4.6411
     4.7766   5.1149   5.1155   5.3674   5.5034   5.8139   5.9422   6.0600
     6.1221   6.2237   6.3882   6.4206   6.4923   6.7350   6.8528   7.4184
     7.5799   7.6368   7.6576   7.9895   9.7152  10.4847  10.5124  11.2100
    11.7390  12.1160  12.6445  12.8312  12.8843  13.0235  13.1539  13.8987
    13.9721  14.9536  15.3932  15.4833  15.8486  17.0414

          k = 0.2222 0.2222 0.2283 ( 31636 PWs)   bands (ev):

   -66.4545 -66.4542 -66.4537 -66.4534 -30.7918 -30.7899 -30.7896 -30.7868
   -30.7618 -30.7564 -30.7520 -30.7475 -30.7421 -30.7406 -30.7081 -30.7065
   -20.6202 -20.6202 -20.6202 -20.6202 -20.6095 -20.6095 -20.6083 -20.6083
   -20.6073 -20.6072 -20.6061 -20.6060 -20.5916 -20.5916 -20.5916 -20.5915
   -20.5915 -20.5914 -20.5883 -20.5883 -20.5845 -20.5837 -20.5830 -20.5824
   -20.5823 -20.5818 -20.5812 -20.5805  -9.8509  -9.6676  -9.2027  -8.9937
    -8.8757  -8.7734  -8.7292  -8.5670  -8.3465  -8.3048  -7.9565  -7.9438
     1.0204   1.0246   2.0156   2.1358   2.5721   2.6808   2.6809   2.8484
     2.9287   2.9527   3.0859   3.3340   3.8548   3.8738   4.0171   4.1770
     4.7150   4.7645   4.8395   5.0417   5.1698   5.6238   6.0354   6.0607
     6.3062   6.3070   6.4238   6.6163   6.7813   6.8349   6.9690   7.3399
     7.4807   7.5865   7.6437   7.7685  10.2654  10.4883  10.5235  11.4513
    11.6119  11.9785  12.2850  12.6165  12.8912  12.9203  13.2523  13.6740
    14.4210  14.8833  15.8063  16.2070  16.4442  16.5703

          k = 0.2222 0.2222-0.3424 ( 31638 PWs)   bands (ev):

   -66.4543 -66.4543 -66.4536 -66.4536 -30.7908 -30.7908 -30.7738 -30.7738
   -30.7708 -30.7708 -30.7517 -30.7517 -30.7422 -30.7422 -30.7073 -30.7073
   -20.6202 -20.6202 -20.6202 -20.6202 -20.6095 -20.6095 -20.6083 -20.6083
   -20.6072 -20.6072 -20.6061 -20.6060 -20.5916 -20.5916 -20.5915 -20.5915
   -20.5899 -20.5899 -20.5899 -20.5899 -20.5841 -20.5841 -20.5827 -20.5826
   -20.5821 -20.5821 -20.5809 -20.5809  -9.7430  -9.7430  -8.9220  -8.9220
    -8.9065  -8.9065  -8.6157  -8.6157  -8.5056  -8.5056  -7.9502  -7.9502
     1.0236   1.0236   2.6090   2.6090   2.8485   2.8485   2.8743   2.8743
     2.9732   2.9732   3.0547   3.0547   3.3007   3.3007   4.1721   4.1721
     4.2780   4.2780   4.9747   4.9747   5.3231   5.3231   6.0580   6.0581
     6.3731   6.3731   6.4586   6.4586   7.1631   7.1631   7.2413   7.2413
     7.2671   7.2671   7.6652   7.6652  10.4883  10.4883  10.9859  10.9859
    11.8383  11.8383  12.2673  12.2673  12.8989  12.8990  13.4329  13.4329
    14.7261  14.7261  16.1487  16.1487  16.9961  16.9961

          k = 0.2222 0.3333 0.0000 ( 31627 PWs)   bands (ev):

   -66.4544 -66.4540 -66.4539 -66.4535 -30.8057 -30.8041 -30.7912 -30.7868
   -30.7624 -30.7558 -30.7465 -30.7374 -30.7337 -30.7316 -30.7104 -30.7075
   -20.6203 -20.6202 -20.6202 -20.6202 -20.6097 -20.6097 -20.6089 -20.6089
   -20.6067 -20.6066 -20.6059 -20.6058 -20.5931 -20.5931 -20.5916 -20.5915
   -20.5915 -20.5915 -20.5867 -20.5867 -20.5847 -20.5833 -20.5832 -20.5827
   -20.5820 -20.5817 -20.5814 -20.5803  -9.9105  -9.5635  -9.5253  -9.0938
    -8.9304  -8.7977  -8.6399  -8.6230  -8.0269  -8.0149  -7.9708  -7.9377
     1.0323   1.1432   1.1594   1.2337   2.3259   2.4725   2.5701   2.7279
     3.1956   3.3301   3.3830   3.6895   3.8271   3.9966   4.4788   4.7711
     4.8305   4.8853   5.1036   5.5689   5.6262   5.6308   5.7160   5.7722
     6.0865   6.1085   6.3734   6.4024   6.4738   6.6928   6.8565   7.3034
     7.3400   7.4222   7.6789   8.0509   9.6565  11.0701  11.0902  11.1409
    11.7181  12.2973  12.5782  12.5791  12.8204  12.9573  13.1415  13.8591
    13.9160  14.8429  15.2974  15.6418  16.4450  17.3667

          k = 0.2222 0.3333 0.1141 ( 31632 PWs)   bands (ev):

   -66.4544 -66.4540 -66.4539 -66.4535 -30.8014 -30.7997 -30.7909 -30.7870
   -30.7625 -30.7559 -30.7482 -30.7378 -30.7376 -30.7342 -30.7103 -30.7077
   -20.6202 -20.6202 -20.6202 -20.6202 -20.6097 -20.6097 -20.6089 -20.6089
   -20.6067 -20.6066 -20.6059 -20.6058 -20.5927 -20.5926 -20.5916 -20.5915
   -20.5915 -20.5915 -20.5871 -20.5871 -20.5846 -20.5834 -20.5832 -20.5826
   -20.5821 -20.5816 -20.5815 -20.5804  -9.8653  -9.5368  -9.4931  -9.0594
    -8.9412  -8.7860  -8.6453  -8.6188  -8.0936  -8.0514  -8.0251  -7.9975
     1.1116   1.1430   1.3710   1.4517   2.3978   2.4854   2.5640   2.7862
     3.1925   3.3260   3.3602   3.7280   3.7501   3.9398   4.5247   4.5320
     4.8038   4.8141   4.8369   5.2195   5.5667   5.6244   5.7190   5.7931
     6.0938   6.3759   6.3888   6.4387   6.4848   6.7410   6.8066   7.3079
     7.3331   7.4035   7.6362   7.9677   9.8596  11.0707  11.0954  11.2205
    11.7763  12.1343  12.5522  12.5792  12.7069  12.9292  13.0773  13.8185
    14.1283  15.2206  15.2709  15.7958  16.5163  17.2397

          k = 0.2222 0.3333 0.2283 ( 31635 PWs)   bands (ev):

   -66.4543 -66.4541 -66.4538 -66.4536 -30.7910 -30.7903 -30.7879 -30.7859
   -30.7640 -30.7566 -30.7561 -30.7480 -30.7380 -30.7376 -30.7098 -30.7082
   -20.6202 -20.6202 -20.6202 -20.6202 -20.6097 -20.6097 -20.6089 -20.6089
   -20.6067 -20.6066 -20.6059 -20.6058 -20.5916 -20.5916 -20.5916 -20.5915
   -20.5915 -20.5914 -20.5883 -20.5883 -20.5843 -20.5836 -20.5830 -20.5824
   -20.5823 -20.5818 -20.5813 -20.5806  -9.7572  -9.5746  -9.3068  -8.9834
    -8.9457  -8.7388  -8.6684  -8.6026  -8.3468  -8.3150  -8.0204  -8.0067
     1.1359   1.1423   2.0164   2.1435   2.5309   2.5432   2.6132   2.9494
     3.1557   3.2665   3.3171   3.3953   3.9146   3.9481   4.0234   4.1517
     4.5793   4.6666   4.7915   4.8693   4.8904   5.4427   5.7239   5.7584
     6.3200   6.4497   6.4741   6.6540   6.7450   6.8468   6.9547   7.2871
     7.3049   7.3745   7.4996   7.7287  10.3773  11.0712  11.0968  11.4561
    11.6990  11.9595  12.2855  12.5692  12.6163  12.6572  13.1476  13.5857
    14.6280  15.1792  16.0953  16.2084  16.8251  16.9284

          k = 0.2222 0.3333-0.3424 ( 31650 PWs)   bands (ev):

   -66.4542 -66.4542 -66.4537 -66.4537 -30.7895 -30.7895 -30.7730 -30.7730
   -30.7720 -30.7720 -30.7551 -30.7551 -30.7383 -30.7383 -30.7090 -30.7090
   -20.6202 -20.6202 -20.6202 -20.6202 -20.6097 -20.6097 -20.6089 -20.6089
   -20.6066 -20.6066 -20.6059 -20.6059 -20.5916 -20.5916 -20.5915 -20.5915
   -20.5899 -20.5899 -20.5899 -20.5899 -20.5840 -20.5840 -20.5827 -20.5827
   -20.5821 -20.5821 -20.5810 -20.5810  -9.6476  -9.6476  -9.0984  -9.0983
    -8.7660  -8.7654  -8.6039  -8.6035  -8.5412  -8.5410  -8.0138  -8.0137
     1.1405   1.1408   2.4959   2.4960   2.8835   2.8888   2.9057   2.9182
     3.1199   3.1279   3.2478   3.2728   3.3419   3.3531   4.1500   4.1529
     4.3215   4.3230   4.7317   4.7770   5.0836   5.1308   5.7314   5.7360
     6.4093   6.4199   6.5642   6.5740   7.1263   7.1280   7.1455   7.1740
     7.2517   7.2649   7.4455   7.4554  10.9780  11.0011  11.1216  11.1518
    11.8560  11.8634  12.2650  12.2665  12.5883  12.6084  13.3265  13.3426
    14.9817  14.9890  16.5719  16.5781  16.9663  16.9831

          k = 0.2222 0.4444 0.0000 ( 31640 PWs)   bands (ev):

   -66.4543 -66.4541 -66.4538 -66.4536 -30.8055 -30.8049 -30.7850 -30.7798
   -30.7749 -30.7690 -30.7391 -30.7358 -30.7247 -30.7243 -30.7163 -30.7140
   -20.6203 -20.6203 -20.6202 -20.6202 -20.6096 -20.6096 -20.6094 -20.6093
   -20.6062 -20.6061 -20.6059 -20.6059 -20.5931 -20.5931 -20.5916 -20.5916
   -20.5915 -20.5915 -20.5867 -20.5867 -20.5843 -20.5838 -20.5830 -20.5825
   -20.5822 -20.5819 -20.5809 -20.5805  -9.7949  -9.6698  -9.3782  -9.1761
    -9.0421  -8.9486  -8.3977  -8.3961  -8.1833  -8.1737  -7.9627  -7.9499
     1.1011   1.1353   1.4748   1.5118   1.9736   1.9771   2.4248   2.5797
     3.5798   3.7651   3.8609   3.8707   3.9459   4.1980   4.3115   4.4013
     4.5393   4.9454   5.1708   5.1892   5.4024   5.4306   5.6309   5.6655
     6.1696   6.2619   6.3050   6.5653   6.7077   6.7079   6.8456   7.0066
     7.0359   7.1069   7.8594   7.9812  10.0537  10.5714  11.6447  11.6696
    12.1548  12.1581  12.2811  12.3984  12.5703  12.6983  13.4251  13.7101
    14.1691  14.5301  15.9068  16.1790  16.7015  16.8345

          k = 0.2222 0.4444 0.1141 ( 31646 PWs)   bands (ev):

   -66.4542 -66.4541 -66.4538 -66.4537 -30.8012 -30.8006 -30.7848 -30.7798
   -30.7748 -30.7691 -30.7428 -30.7400 -30.7254 -30.7245 -30.7163 -30.7142
   -20.6202 -20.6202 -20.6202 -20.6202 -20.6096 -20.6096 -20.6094 -20.6093
   -20.6062 -20.6062 -20.6059 -20.6059 -20.5927 -20.5926 -20.5916 -20.5916
   -20.5915 -20.5915 -20.5872 -20.5871 -20.5842 -20.5837 -20.5831 -20.5826
   -20.5822 -20.5818 -20.5810 -20.5806  -9.7440  -9.6096  -9.3890  -9.1867
    -9.0117  -8.9270  -8.4052  -8.3936  -8.1877  -8.1815  -8.0640  -8.0524
     1.3155   1.3738   1.4742   1.5620   1.9717   1.9865   2.4982   2.6518
     3.5471   3.7139   3.7707   3.8761   3.9499   4.2403   4.3162   4.3475
     4.5490   4.7365   4.9022   5.1095   5.1940   5.2476   5.6579   5.7423
     6.1390   6.2368   6.5231   6.6617   6.6993   6.7246   6.8656   6.9990
     7.0332   7.1051   7.7983   7.9061  10.2098  10.6860  11.6438  11.6684
    12.1510  12.1563  12.2466  12.3200  12.4272  12.7368  13.3093  13.6051
    14.4747  14.8765  15.8744  16.2987  16.6611  16.9133

          k = 0.2222 0.4444 0.2283 ( 31654 PWs)   bands (ev):

   -66.4542 -66.4540 -66.4539 -66.4537 -30.7904 -30.7892 -30.7843 -30.7791
   -30.7748 -30.7689 -30.7539 -30.7515 -30.7259 -30.7250 -30.7160 -30.7147
   -20.6202 -20.6202 -20.6202 -20.6202 -20.6096 -20.6096 -20.6094 -20.6094
   -20.6062 -20.6062 -20.6059 -20.6059 -20.5916 -20.5916 -20.5915 -20.5915
   -20.5915 -20.5915 -20.5883 -20.5883 -20.5840 -20.5835 -20.5833 -20.5829
   -20.5819 -20.5816 -20.5813 -20.5809  -9.6217  -9.4597  -9.4257  -9.2242
    -8.9037  -8.8439  -8.4608  -8.3860  -8.3649  -8.2855  -8.1761  -8.1530
     1.4548   1.4722   1.8793   1.9657   2.1261   2.1572   2.7206   2.8685
     3.3532   3.3741   3.7517   3.7806   4.1196   4.1375   4.1895   4.2703
     4.3155   4.4921   4.5870   4.6949   5.0946   5.1084   5.2097   5.4161
     6.4634   6.6000   6.6718   6.7493   6.7811   6.8350   6.9676   6.9909
     7.0399   7.1230   7.6105   7.6828  10.6353  11.0134  11.6296  11.6616
    11.8272  11.9963  12.1573  12.2036  12.4580  12.8563  13.0278  13.3519
    15.0781  15.6194  15.7632  16.5107  16.6647  17.1507

          k = 0.2222 0.4444-0.3424 ( 31648 PWs)   bands (ev):

   -66.4540 -66.4540 -66.4539 -66.4539 -30.7843 -30.7843 -30.7775 -30.7775
   -30.7695 -30.7695 -30.7647 -30.7647 -30.7256 -30.7256 -30.7154 -30.7154
   -20.6202 -20.6202 -20.6202 -20.6202 -20.6096 -20.6096 -20.6094 -20.6094
   -20.6062 -20.6062 -20.6059 -20.6059 -20.5916 -20.5916 -20.5915 -20.5915
   -20.5899 -20.5899 -20.5899 -20.5899 -20.5837 -20.5837 -20.5832 -20.5832
   -20.5816 -20.5816 -20.5812 -20.5812  -9.5009  -9.5008  -9.3099  -9.3098
    -8.6915  -8.6910  -8.6514  -8.6513  -8.3687  -8.3684  -8.1679  -8.1677
     1.4678   1.4682   1.9526   1.9530   2.9077   2.9081   2.9151   2.9200
     3.2184   3.2305   3.3111   3.3139   3.7504   3.7769   4.2276   4.2513
     4.4636   4.4742   4.7001   4.7102   4.7809   4.8099   5.2471   5.2515
     6.6143   6.6152   6.7717   6.7719   6.9006   6.9206   6.9858   6.9973
     7.2971   7.3077   7.3428   7.3549  11.2009  11.2157  11.4808  11.4960
    11.6585  11.6929  12.1568  12.1919  12.6953  12.7119  13.0658  13.0844
    15.5190  15.5326  16.2049  16.2263  17.0481  17.0864

          k = 0.3333 0.3333 0.0000 ( 31624 PWs)   bands (ev):

   -66.4544 -66.4540 -66.4539 -66.4535 -30.8048 -30.8044 -30.7944 -30.7905
   -30.7754 -30.7695 -30.7395 -30.7345 -30.7245 -30.7238 -30.7074 -30.7043
   -20.6203 -20.6202 -20.6202 -20.6202 -20.6101 -20.6100 -20.6096 -20.6095
   -20.6060 -20.6059 -20.6055 -20.6054 -20.5931 -20.5931 -20.5916 -20.5915
   -20.5915 -20.5915 -20.5867 -20.5866 -20.5848 -20.5838 -20.5834 -20.5825
   -20.5822 -20.5816 -20.5809 -20.5802  -9.8884  -9.6457  -9.5278  -9.1590
    -9.1015  -8.9444  -8.4047  -8.4026  -7.9829  -7.9752  -7.9566  -7.9440
     0.9773   1.0249   1.1515   1.1875   1.9705   1.9748   2.2794   2.5812
     3.5440   3.6381   3.8347   3.8934   3.9707   4.5196   4.6221   4.7546
     4.8100   4.9544   5.1918   5.4943   5.5108   5.5530   5.7901   5.8421
     6.1241   6.1821   6.2165   6.2570   6.4751   6.6292   6.9210   6.9759
     6.9767   7.1017   7.8559   8.0707   9.5254  10.5727  11.5308  11.5583
    12.2525  12.2630  12.4648  12.4718  12.5926  13.0809  13.4305  13.7663
    13.9945  14.5500  15.1866  15.9744  16.7303  16.8747

          k = 0.3333 0.3333 0.1141 ( 31639 PWs)   bands (ev):

   -66.4543 -66.4540 -66.4539 -66.4536 -30.8003 -30.8001 -30.7941 -30.7907
   -30.7753 -30.7696 -30.7433 -30.7389 -30.7250 -30.7240 -30.7072 -30.7045
   -20.6202 -20.6202 -20.6202 -20.6202 -20.6101 -20.6100 -20.6096 -20.6095
   -20.6060 -20.6059 -20.6055 -20.6054 -20.5926 -20.5926 -20.5916 -20.5915
   -20.5915 -20.5915 -20.5871 -20.5871 -20.5847 -20.5837 -20.5835 -20.5826
   -20.5822 -20.5815 -20.5810 -20.5803  -9.8446  -9.5850  -9.5383  -9.1690
    -9.0640  -8.9229  -8.4125  -8.4001  -8.0825  -8.0535  -7.9811  -7.9584
     1.0083   1.0249   1.3716   1.4429   1.9686   1.9842   2.3519   2.6548
     3.5392   3.6332   3.7268   3.7796   3.9598   4.5230   4.6641   4.7125
     4.7672   4.7861   4.9095   5.1386   5.6589   5.6864   5.7931   5.8427
     5.8896   6.2069   6.2849   6.4414   6.4668   6.6901   6.8607   6.9620
     6.9685   7.0990   7.7943   7.9837   9.7515  10.6892  11.5312  11.5570
    12.0990  12.2969  12.3846  12.4764  12.5215  13.1088  13.3190  13.8978
    14.0207  14.8915  15.1576  16.1313  16.6882  16.9574

          k = 0.3333 0.3333 0.2283 ( 31655 PWs)   bands (ev):

   -66.4542 -66.4540 -66.4539 -66.4537 -30.7934 -30.7914 -30.7888 -30.7880
   -30.7753 -30.7693 -30.7548 -30.7508 -30.7254 -30.7245 -30.7066 -30.7051
   -20.6202 -20.6202 -20.6202 -20.6202 -20.6101 -20.6100 -20.6096 -20.6096
   -20.6060 -20.6060 -20.6055 -20.6054 -20.5916 -20.5916 -20.5915 -20.5915
   -20.5915 -20.5914 -20.5883 -20.5883 -20.5845 -20.5837 -20.5835 -20.5829
   -20.5819 -20.5813 -20.5812 -20.5805  -9.7413  -9.5726  -9.4346  -9.2046
    -8.9371  -8.8396  -8.4691  -8.3922  -8.3462  -8.2881  -7.9763  -7.9632
     1.0207   1.0246   1.8756   1.9625   2.1516   2.1580   2.5642   2.8768
     3.3149   3.4180   3.5954   3.6204   4.1355   4.1531   4.2003   4.5534
     4.6435   4.7335   4.7442   4.9182   5.1162   5.5140   5.8533   5.8691
     6.0681   6.1947   6.3651   6.6455   6.6485   6.8437   6.8825   6.9481
     7.0403   7.1024   7.6040   7.7304  10.3095  11.0190  11.5176  11.5537
    11.6628  12.0111  12.4389  12.4846  12.4962  13.0058  13.2411  13.6673
    14.5011  15.0597  15.6296  16.5448  16.5462  17.3508

          k = 0.3333 0.3333-0.3424 ( 31634 PWs)   bands (ev):

   -66.4541 -66.4541 -66.4538 -66.4538 -30.7924 -30.7924 -30.7776 -30.7776
   -30.7713 -30.7713 -30.7645 -30.7645 -30.7251 -30.7251 -30.7059 -30.7059
   -20.6202 -20.6202 -20.6202 -20.6202 -20.6101 -20.6101 -20.6096 -20.6096
   -20.6060 -20.6060 -20.6055 -20.6055 -20.5915 -20.5915 -20.5915 -20.5915
   -20.5899 -20.5899 -20.5899 -20.5899 -20.5841 -20.5841 -20.5832 -20.5832
   -20.5816 -20.5816 -20.5809 -20.5809  -9.6393  -9.6393  -9.2868  -9.2868
    -8.7065  -8.7064  -8.6429  -8.6429  -8.3743  -8.3743  -7.9698  -7.9698
     1.0237   1.0237   1.9495   1.9495   2.8995   2.8995   2.9217   2.9217
     3.1375   3.1375   3.3315   3.3315   3.6040   3.6040   4.4239   4.4239
     4.6568   4.6568   4.7699   4.7699   5.1965   5.1965   5.8634   5.8634
     6.1568   6.1568   6.4896   6.4896   6.8714   6.8714   6.9980   6.9980
     7.2834   7.2834   7.3614   7.3614  10.9898  10.9898  11.5032  11.5032
    11.5520  11.5520  12.4879  12.4879  12.6917  12.6917  13.4202  13.4202
    14.8591  14.8591  16.2354  16.2354  16.9757  16.9757

          k = 0.3333 0.4444 0.0000 ( 31628 PWs)   bands (ev):

   -66.4542 -66.4541 -66.4538 -66.4537 -30.8046 -30.8045 -30.7926 -30.7882
   -30.7860 -30.7807 -30.7369 -30.7355 -30.7154 -30.7130 -30.7092 -30.7062
   -20.6202 -20.6202 -20.6202 -20.6202 -20.6102 -20.6102 -20.6100 -20.6100
   -20.6056 -20.6055 -20.6054 -20.6053 -20.5930 -20.5930 -20.5916 -20.5915
   -20.5915 -20.5915 -20.5866 -20.5866 -20.5847 -20.5843 -20.5833 -20.5830
   -20.5819 -20.5817 -20.5805 -20.5803  -9.8317  -9.7442  -9.4677  -9.3427
    -9.0831  -9.0350  -8.1958  -8.1854  -8.0442  -8.0264  -7.9605  -7.9520
     1.0504   1.1269   1.1397   1.2457   1.4703   1.5104   2.3108   2.4176
     3.8982   3.9892   4.0359   4.0809   4.1990   4.4529   4.4799   4.5242
     5.1511   5.2477   5.2708   5.4411   5.4783   5.5235   5.6245   5.6611
     6.2622   6.2803   6.3009   6.4071   6.4204   6.5474   6.5878   6.7476
     6.7692   6.9191   7.9770   8.0468   9.6840  10.0670  11.9466  11.9692
    12.2637  12.2776  12.2978  12.4040  12.6919  12.9832  13.7114  13.8939
    13.9173  14.1967  15.4294  15.9842  16.4085  16.9259

          k = 0.3333 0.4444 0.1141 ( 31654 PWs)   bands (ev):

   -66.4542 -66.4541 -66.4538 -66.4537 -30.8003 -30.8002 -30.7923 -30.7883
   -30.7858 -30.7807 -30.7413 -30.7400 -30.7154 -30.7132 -30.7090 -30.7064
   -20.6202 -20.6202 -20.6202 -20.6202 -20.6102 -20.6102 -20.6100 -20.6100
   -20.6056 -20.6055 -20.6054 -20.6053 -20.5926 -20.5926 -20.5915 -20.5915
   -20.5915 -20.5915 -20.5870 -20.5870 -20.5846 -20.5842 -20.5834 -20.5831
   -20.5818 -20.5816 -20.5806 -20.5804  -9.7861  -9.6929  -9.4777  -9.3525
    -9.0468  -9.0042  -8.1985  -8.1938  -8.0853  -8.0554  -8.0424  -8.0123
     1.1118   1.1395   1.3237   1.4504   1.4697   1.5637   2.3844   2.4926
     3.7681   3.8002   4.0073   4.0333   4.2602   4.4336   4.4756   4.5796
     4.9744   5.0058   5.1560   5.2131   5.5172   5.6265   5.7158   5.7626
     6.0138   6.2494   6.3248   6.4316   6.5258   6.5881   6.6615   6.7613
     6.7704   6.8470   7.9010   7.9623   9.8869  10.2246  11.9456  11.9672
    12.1351  12.2166  12.2698  12.3055  12.7290  13.0170  13.6047  13.8176
    14.1620  14.4971  15.3980  15.9494  16.5574  17.0527

          k = 0.3333 0.4444 0.2283 ( 31665 PWs)   bands (ev):

   -66.4541 -66.4540 -66.4539 -66.4538 -30.7917 -30.7912 -30.7899 -30.7857
   -30.7853 -30.7795 -30.7535 -30.7523 -30.7151 -30.7138 -30.7085 -30.7070
   -20.6202 -20.6202 -20.6202 -20.6202 -20.6102 -20.6102 -20.6100 -20.6100
   -20.6055 -20.6055 -20.6054 -20.6053 -20.5916 -20.5915 -20.5915 -20.5915
   -20.5915 -20.5914 -20.5882 -20.5882 -20.5844 -20.5840 -20.5836 -20.5833
   -20.5816 -20.5813 -20.5809 -20.5806  -9.6792  -9.5711  -9.5105  -9.3856
    -8.9209  -8.8925  -8.3748  -8.3533  -8.1883  -8.1640  -8.0375  -8.0233
     1.1330   1.1390   1.4507   1.4679   2.1227   2.1419   2.6041   2.7205
     3.3490   3.3976   3.9940   4.0215   4.1893   4.2163   4.4022   4.4292
     4.5145   4.7669   5.0522   5.1752   5.3700   5.4209   5.6381   5.7182
     6.1364   6.2731   6.3939   6.5038   6.5661   6.7081   6.7750   6.7941
     6.8796   6.9318   7.6726   7.7129  10.4046  10.6518  11.6775  11.8047
    11.9566  11.9692  12.2731  12.2877  12.8494  13.1252  13.3477  13.5790
    14.6810  15.1050  15.2927  15.8309  16.9593  17.4048

          k = 0.3333 0.4444-0.3424 ( 31672 PWs)   bands (ev):

   -66.4540 -66.4540 -66.4539 -66.4539 -30.7908 -30.7908 -30.7851 -30.7851
   -30.7702 -30.7702 -30.7684 -30.7684 -30.7145 -30.7145 -30.7078 -30.7078
   -20.6202 -20.6202 -20.6202 -20.6202 -20.6102 -20.6102 -20.6100 -20.6100
   -20.6055 -20.6055 -20.6053 -20.6053 -20.5915 -20.5915 -20.5915 -20.5915
   -20.5899 -20.5899 -20.5899 -20.5898 -20.5840 -20.5840 -20.5837 -20.5837
   -20.5812 -20.5812 -20.5810 -20.5810  -9.5759  -9.5759  -9.4551  -9.4550
    -8.6821  -8.6820  -8.6643  -8.6643  -8.1798  -8.1797  -8.0307  -8.0306
     1.1375   1.1376   1.4637   1.4638   2.9046   2.9060   2.9152   2.9172
     3.1654   3.1673   3.2390   3.2404   4.0028   4.0149   4.4210   4.4376
     4.7704   4.7783   5.0451   5.0665   5.2249   5.2319   5.6563   5.6630
     6.2328   6.2352   6.5120   6.5174   6.5990   6.6039   6.8021   6.8047
     7.3047   7.3079   7.3278   7.3317  11.0562  11.0583  11.2294  11.2317
    11.9570  11.9660  12.2749  12.2852  13.0595  13.0657  13.3187  13.3256
    15.0720  15.0771  15.5748  15.5805  17.3383  17.3516

          k = 0.4444 0.4444 0.0000 ( 31608 PWs)   bands (ev):

   -66.4542 -66.4542 -66.4537 -66.4537 -30.8040 -30.8038 -30.7954 -30.7931
   -30.7915 -30.7887 -30.7361 -30.7357 -30.7087 -30.7065 -30.7057 -30.7034
   -20.6202 -20.6202 -20.6202 -20.6202 -20.6105 -20.6104 -20.6104 -20.6103
   -20.6052 -20.6051 -20.6051 -20.6050 -20.5930 -20.5930 -20.5915 -20.5915
   -20.5914 -20.5914 -20.5865 -20.5865 -20.5848 -20.5847 -20.5834 -20.5833
   -20.5817 -20.5816 -20.5803 -20.5802  -9.8390  -9.8077  -9.4941  -9.4518
    -9.0939  -9.0793  -8.0510  -8.0320  -7.9958  -7.9689  -7.9636  -7.9554
     0.9848   1.0216   1.0594   1.1375   1.2056   1.2518   2.2682   2.3056
     4.0461   4.0638   4.2645   4.3316   4.4872   4.4929   4.5231   4.6289
     5.3108   5.3329   5.3609   5.4062   5.6052   5.6418   5.7437   5.7812
     6.0982   6.1887   6.2400   6.2835   6.2900   6.4115   6.4337   6.4780
     6.8982   6.9738   8.0450   8.0677   9.5455   9.6926  12.1696  12.1931
    12.2615  12.2758  12.2795  12.3151  12.9807  13.0843  13.7838  13.9025
    13.9185  13.9960  15.2592  15.4623  16.6562  16.8582

          k = 0.4444 0.4444 0.1141 ( 31629 PWs)   bands (ev):

   -66.4542 -66.4541 -66.4538 -66.4537 -30.7997 -30.7993 -30.7952 -30.7929
   -30.7917 -30.7887 -30.7407 -30.7403 -30.7085 -30.7063 -30.7060 -30.7036
   -20.6202 -20.6202 -20.6202 -20.6202 -20.6105 -20.6104 -20.6104 -20.6104
   -20.6052 -20.6051 -20.6051 -20.6050 -20.5926 -20.5926 -20.5915 -20.5915
   -20.5914 -20.5914 -20.5870 -20.5869 -20.5847 -20.5846 -20.5835 -20.5834
   -20.5816 -20.5815 -20.5804 -20.5803  -9.7954  -9.7622  -9.5037  -9.4613
    -9.0554  -9.0426  -8.0849  -8.0745  -8.0492  -8.0178  -7.9940  -7.9708
     1.0075   1.0216   1.1118   1.1374   1.4452   1.4571   2.3416   2.3799
     3.8022   3.8220   4.2762   4.3293   4.4799   4.5181   4.5570   4.6920
     5.0139   5.0298   5.4299   5.5403   5.6102   5.7005   5.7497   5.7842
     6.0510   6.0862   6.1911   6.2351   6.3106   6.4503   6.5289   6.5837
     6.8277   6.8620   7.9602   7.9800   9.7708   9.8956  12.0957  12.1297
    12.1745  12.1921  12.2794  12.3009  13.0140  13.1170  13.8178  13.8971
    14.0386  14.1700  15.2286  15.4304  16.8326  17.0368

          k = 0.4444 0.4444 0.2283 ( 31685 PWs)   bands (ev):

   -66.4541 -66.4540 -66.4539 -66.4538 -30.7944 -30.7925 -30.7922 -30.7915
   -30.7870 -30.7854 -30.7531 -30.7527 -30.7080 -30.7065 -30.7057 -30.7042
   -20.6202 -20.6202 -20.6202 -20.6202 -20.6104 -20.6104 -20.6104 -20.6104
   -20.6052 -20.6051 -20.6051 -20.6051 -20.5915 -20.5915 -20.5914 -20.5914
   -20.5914 -20.5914 -20.5882 -20.5882 -20.5845 -20.5844 -20.5838 -20.5837
   -20.5813 -20.5812 -20.5806 -20.5805  -9.6940  -9.6563  -9.5350  -9.4927
    -8.9233  -8.9149  -8.3574  -8.3525  -8.0443  -8.0298  -7.9892  -7.9758
     1.0180   1.0214   1.1313   1.1369   2.1398   2.1511   2.5577   2.6019
     3.3428   3.3635   4.1955   4.2078   4.2915   4.3248   4.4834   4.5101
     4.7445   4.8769   5.3285   5.4504   5.6205   5.7029   5.7939   5.8145
     5.9785   6.0728   6.1278   6.2155   6.3886   6.5147   6.6679   6.7138
     6.8681   6.8856   7.7089   7.7221  10.3269  10.4128  11.6441  11.6854
    12.1792  12.1890  12.2861  12.2966  13.1225  13.2222  13.5768  13.6625
    14.5330  14.6945  15.1256  15.3231  17.3128  17.6112

          k = 0.4444 0.4444-0.3424 ( 31626 PWs)   bands (ev):

   -66.4540 -66.4540 -66.4539 -66.4539 -30.7935 -30.7935 -30.7914 -30.7914
   -30.7701 -30.7701 -30.7696 -30.7696 -30.7073 -30.7073 -30.7049 -30.7049
   -20.6202 -20.6202 -20.6202 -20.6202 -20.6104 -20.6104 -20.6104 -20.6104
   -20.6051 -20.6051 -20.6051 -20.6051 -20.5915 -20.5915 -20.5915 -20.5915
   -20.5898 -20.5898 -20.5898 -20.5898 -20.5841 -20.5841 -20.5840 -20.5840
   -20.5810 -20.5810 -20.5809 -20.5809  -9.5968  -9.5968  -9.5556  -9.5556
    -8.6764  -8.6764  -8.6712  -8.6712  -8.0373  -8.0373  -7.9825  -7.9825
     1.0207   1.0207   1.1355   1.1355   2.9019   2.9019   2.9077   2.9077
     3.1451   3.1451   3.1700   3.1700   4.3077   4.3077   4.4954   4.4954
     5.0298   5.0298   5.1564   5.1564   5.6430   5.6430   5.8070   5.8070
     6.0424   6.0424   6.1759   6.1759   6.5097   6.5097   6.6078   6.6078
     7.3160   7.3160   7.3248   7.3248  11.0076  11.0076  11.0655  11.0655
    12.1845  12.1845  12.2919  12.2919  13.3164  13.3164  13.4111  13.4111
    14.9128  14.9128  15.0991  15.0991  17.6614  17.6615

     the Fermi energy is     8.4769 ev

!    total energy              =   -3130.52824945 Ry
     Harris-Foulkes estimate   =   -3130.52824945 Ry
     estimated scf accuracy    <          2.9E-09 Ry

     The total energy is the sum of the following terms:

     one-electron contribution =   -2396.71233998 Ry
     hartree contribution      =    1314.98757475 Ry
     xc contribution           =    -482.85744768 Ry
     ewald contribution        =   -1565.94603653 Ry
     smearing contrib. (-TS)   =      -0.00000000 Ry

     convergence has been achieved in  12 iterations

     Writing output data file chempot_0.save/
 
     init_run     :      8.31s CPU      8.71s WALL (       1 calls)
     electrons    :    360.03s CPU    364.09s WALL (       1 calls)

     Called by init_run:
     wfcinit      :      7.30s CPU      7.61s WALL (       1 calls)
     potinit      :      0.38s CPU      0.39s WALL (       1 calls)
     hinit0       :      0.48s CPU      0.52s WALL (       1 calls)

     Called by electrons:
     c_bands      :    307.69s CPU    311.33s WALL (      12 calls)
     sum_band     :     46.06s CPU     46.22s WALL (      12 calls)
     v_of_rho     :      0.86s CPU      0.88s WALL (      13 calls)
     mix_rho      :      1.12s CPU      1.28s WALL (      12 calls)

     Called by c_bands:
     init_us_2    :      2.41s CPU      2.52s WALL (      50 calls)
     cegterg      :    204.78s CPU    208.36s WALL (      24 calls)

     Called by sum_band:

     Called by *egterg:
     h_psi        :    173.21s CPU    174.82s WALL (      95 calls)
     g_psi        :      0.87s CPU      0.88s WALL (      69 calls)
     cdiaghg      :      2.06s CPU      2.08s WALL (      93 calls)

     Called by h_psi:
     h_psi:pot    :    172.61s CPU    172.94s WALL (      95 calls)
     h_psi:calbec :     13.95s CPU     14.12s WALL (      95 calls)
     vloc_psi     :    143.10s CPU    143.22s WALL (      95 calls)
     add_vuspsi   :     15.56s CPU     15.60s WALL (      95 calls)

     General routines
     calbec       :     13.95s CPU     14.12s WALL (      95 calls)
     fft          :      0.35s CPU      0.37s WALL (      39 calls)
     ffts         :      0.11s CPU      0.11s WALL (      12 calls)
     fftw         :    147.91s CPU    147.97s WALL (   15504 calls)
 
     Parallel routines
 
     PWSCF        :   6m10.10s CPU   6m14.90s WALL

 
   This run was terminated on:  14:37:18  17Dec2019            

=------------------------------------------------------------------------------=
   JOB DONE.
=------------------------------------------------------------------------------=
