
     Program PWSCF v.6.2 (svn rev. 14038) starts on 12Mar2020 at 19:23:42 

     This program is part of the open-source Quantum ESPRESSO suite
     for quantum simulation of materials; please cite
         "P. Giannozzi et al., J. Phys.:Condens. Matter 21 395502 (2009);
         "P. Giannozzi et al., J. Phys.:Condens. Matter 29 465901 (2017);
          URL http://www.quantum-espresso.org", 
     in publications or presentations arising from this work. More details at
     http://www.quantum-espresso.org/quote

     Parallel version (MPI), running on    40 processors

     MPI processes distributed on     5 nodes
     K-points division:     npool     =      40
     Reading input from rscf.in

     Current dimensions of program PWSCF are:
     Max number of different atomic species (ntypx) = 10
     Max number of k-points (npk) =  40000
     Max angular momentum in pseudopotentials (lmaxx) =  3

     Subspace diagonalization in iterative solution of the eigenvalue problem:
     a serial algorithm will be used

 
     G-vector sticks info
     --------------------
     sticks:   dense  smooth     PW     G-vecs:    dense   smooth      PW
     Sum        7747    7747   2077               498127   498127   69057
 


     bravais-lattice index     =            0
     lattice parameter (alat)  =      13.8397  a.u.
     unit-cell volume          =    2804.9816 (a.u.)^3
     number of atoms/cell      =           32
     number of atomic types    =            2
     number of electrons       =       368.00
     number of Kohn-Sham states=          221
     kinetic-energy cutoff     =     120.0000  Ry
     charge density cutoff     =     480.0000  Ry
     convergence threshold     =      1.0E-08
     mixing beta               =       0.7000
     number of iterations used =            8  plain     mixing
     Exchange-correlation      = SLA PW NOGX NOGC ( 1  4  0  0 0 0)
     nstep                     =           50


     celldm(1)=  13.839685  celldm(2)=   0.000000  celldm(3)=   0.000000
     celldm(4)=   0.000000  celldm(5)=   0.000000  celldm(6)=   0.000000

     crystal axes: (cart. coord. in units of alat)
               a(1) = (   1.000000   0.000000   0.000000 )  
               a(2) = (   0.000000   1.058160   0.000000 )  
               a(3) = (   0.000000   0.000000   1.000000 )  

     reciprocal axes: (cart. coord. in units 2 pi/alat)
               b(1) = (  1.000000  0.000000  0.000000 )  
               b(2) = (  0.000000  0.945037  0.000000 )  
               b(3) = (  0.000000  0.000000  1.000000 )  


     PseudoPot. # 1 for W  read from file:
     /cluster/scratch/mnoe/QE/pps/W_ONCV_LDA-4.0.upf
     MD5 check sum: ba0307d5d4cd419d6f1d13dc49d7c13a
     Pseudo is Norm-conserving + core correction, Zval = 28.0
     Generated using ONCVPSP code by D. R. Hamann
     Using radial grid of 1380 points,  8 beta functions with: 
                l(1) =   0
                l(2) =   0
                l(3) =   1
                l(4) =   1
                l(5) =   2
                l(6) =   2
                l(7) =   3
                l(8) =   3

     PseudoPot. # 2 for O  read from file:
     /cluster/scratch/mnoe/QE/pps/O_ONCV_LDA-3.0.upf
     MD5 check sum: a1bd6164e7280c17a38c229939bfbd54
     Pseudo is Norm-conserving + core correction, Zval =  6.0
     Generated using ONCVPSP code by D. R. Hamann
     Using radial grid of  926 points,  5 beta functions with: 
                l(1) =   0
                l(2) =   0
                l(3) =   1
                l(4) =   1
                l(5) =   2

     atomic species   valence    mass     pseudopotential
        W             28.00   183.84000     W ( 1.00)
        O              6.00    15.99940     O ( 1.00)

      8 Sym. Ops., with inversion, found ( 6 have fractional translation)



   Cartesian axes

     site n.     atom                  positions (alat units)
         1           W   tau(   1) = (   0.2476900   0.2972049   0.0021800  )
         2           W   tau(   2) = (   0.7523100   0.7609552   0.9978200  )
         3           W   tau(   3) = (   0.2523100   0.2318751   0.5021800  )
         4           W   tau(   4) = (   0.7476900   0.8262849   0.4978200  )
         5           W   tau(   5) = (   0.7523100   0.2972049   0.4978200  )
         6           W   tau(   6) = (   0.2476900   0.7609552   0.5021800  )
         7           W   tau(   7) = (   0.7476900   0.2318751   0.9978200  )
         8           W   tau(   8) = (   0.2523100   0.8262849   0.0021800  )
         9           O   tau(   9) = (   0.2457300   0.0085184   0.0006800  )
        10           O   tau(  10) = (   0.7542700   1.0496417   0.9993200  )
        11           O   tau(  11) = (   0.2542700   0.5205617   0.5006800  )
        12           O   tau(  12) = (   0.7457300   0.5375984   0.4993200  )
        13           O   tau(  13) = (   0.7542700   0.0085184   0.4993200  )
        14           O   tau(  14) = (   0.2457300   1.0496417   0.5006800  )
        15           O   tau(  15) = (   0.7457300   0.5205617   0.9993200  )
        16           O   tau(  16) = (   0.2542700   0.5375984   0.0006800  )
        17           O   tau(  17) = (   0.5006300   0.2599053   0.4519619  )
        18           O   tau(  18) = (   0.4993700   0.7982548   0.5480381  )
        19           O   tau(  19) = (   0.9993700   0.2691747   0.9519619  )
        20           O   tau(  20) = (   0.0006300   0.7889853   0.0480381  )
        21           O   tau(  21) = (   0.4993700   0.2599053   0.0480381  )
        22           O   tau(  22) = (   0.5006300   0.7982548   0.9519619  )
        23           O   tau(  23) = (   0.0006300   0.2691747   0.5480381  )
        24           O   tau(  24) = (   0.9993700   0.7889853   0.4519619  )
        25           O   tau(  25) = (   0.7019619   0.2635242   0.7490400  )
        26           O   tau(  26) = (   0.2980381   0.7946359   0.2509600  )
        27           O   tau(  27) = (   0.7980381   0.2655559   0.2490400  )
        28           O   tau(  28) = (   0.2019619   0.7926043   0.7509600  )
        29           O   tau(  29) = (   0.2980381   0.2635242   0.7509600  )
        30           O   tau(  30) = (   0.7019619   0.7946359   0.2490400  )
        31           O   tau(  31) = (   0.2019619   0.2655559   0.2509600  )
        32           O   tau(  32) = (   0.7980381   0.7926043   0.7490400  )

     number of k points=    64  gaussian smearing, width (Ry)=  0.0007
                       cart. coord. in units 2pi/alat
        k(    1) = (   0.0000000   0.0000000   0.0000000), wk =   0.0092593
        k(    2) = (   0.0000000   0.0000000   0.1666667), wk =   0.0185185
        k(    3) = (   0.0000000   0.0000000   0.3333333), wk =   0.0185185
        k(    4) = (   0.0000000   0.0000000  -0.5000000), wk =   0.0092593
        k(    5) = (   0.0000000   0.1575061   0.0000000), wk =   0.0185185
        k(    6) = (   0.0000000   0.1575061   0.1666667), wk =   0.0370370
        k(    7) = (   0.0000000   0.1575061   0.3333333), wk =   0.0370370
        k(    8) = (   0.0000000   0.1575061  -0.5000000), wk =   0.0185185
        k(    9) = (   0.0000000   0.3150122   0.0000000), wk =   0.0185185
        k(   10) = (   0.0000000   0.3150122   0.1666667), wk =   0.0370370
        k(   11) = (   0.0000000   0.3150122   0.3333333), wk =   0.0370370
        k(   12) = (   0.0000000   0.3150122  -0.5000000), wk =   0.0185185
        k(   13) = (   0.0000000  -0.4725183   0.0000000), wk =   0.0092593
        k(   14) = (   0.0000000  -0.4725183   0.1666667), wk =   0.0185185
        k(   15) = (   0.0000000  -0.4725183   0.3333333), wk =   0.0185185
        k(   16) = (   0.0000000  -0.4725183  -0.5000000), wk =   0.0092593
        k(   17) = (   0.1666667   0.0000000   0.1666667), wk =   0.0370370
        k(   18) = (   0.1666667   0.0000000   0.3333333), wk =   0.0370370
        k(   19) = (   0.1666667   0.0000000  -0.5000000), wk =   0.0185185
        k(   20) = (   0.1666667   0.1575061   0.1666667), wk =   0.0740741
        k(   21) = (   0.1666667   0.1575061   0.3333333), wk =   0.0740741
        k(   22) = (   0.1666667   0.1575061  -0.5000000), wk =   0.0370370
        k(   23) = (   0.1666667   0.3150122   0.1666667), wk =   0.0740741
        k(   24) = (   0.1666667   0.3150122   0.3333333), wk =   0.0740741
        k(   25) = (   0.1666667   0.3150122  -0.5000000), wk =   0.0370370
        k(   26) = (   0.1666667  -0.4725183   0.1666667), wk =   0.0370370
        k(   27) = (   0.1666667  -0.4725183   0.3333333), wk =   0.0370370
        k(   28) = (   0.1666667  -0.4725183  -0.5000000), wk =   0.0185185
        k(   29) = (   0.3333333   0.0000000   0.3333333), wk =   0.0370370
        k(   30) = (   0.3333333   0.0000000  -0.5000000), wk =   0.0185185
        k(   31) = (   0.3333333   0.1575061   0.3333333), wk =   0.0740741
        k(   32) = (   0.3333333   0.1575061  -0.5000000), wk =   0.0370370
        k(   33) = (   0.3333333   0.3150122   0.3333333), wk =   0.0740741
        k(   34) = (   0.3333333   0.3150122  -0.5000000), wk =   0.0370370
        k(   35) = (   0.3333333  -0.4725183   0.3333333), wk =   0.0370370
        k(   36) = (   0.3333333  -0.4725183  -0.5000000), wk =   0.0185185
        k(   37) = (  -0.5000000   0.0000000  -0.5000000), wk =   0.0092593
        k(   38) = (  -0.5000000   0.1575061  -0.5000000), wk =   0.0185185
        k(   39) = (  -0.5000000   0.3150122  -0.5000000), wk =   0.0185185
        k(   40) = (  -0.5000000  -0.4725183  -0.5000000), wk =   0.0092593
        k(   41) = (   0.1666667   0.0000000   0.0000000), wk =   0.0185185
        k(   42) = (   0.3333333   0.0000000   0.0000000), wk =   0.0185185
        k(   43) = (  -0.5000000   0.0000000   0.0000000), wk =   0.0092593
        k(   44) = (   0.1666667  -0.1575061   0.0000000), wk =   0.0370370
        k(   45) = (   0.3333333  -0.1575061   0.0000000), wk =   0.0370370
        k(   46) = (  -0.5000000  -0.1575061   0.0000000), wk =   0.0185185
        k(   47) = (   0.1666667  -0.3150122   0.0000000), wk =   0.0370370
        k(   48) = (   0.3333333  -0.3150122   0.0000000), wk =   0.0370370
        k(   49) = (  -0.5000000  -0.3150122   0.0000000), wk =   0.0185185
        k(   50) = (   0.1666667   0.4725183   0.0000000), wk =   0.0185185
        k(   51) = (   0.3333333   0.4725183   0.0000000), wk =   0.0185185
        k(   52) = (  -0.5000000   0.4725183   0.0000000), wk =   0.0092593
        k(   53) = (   0.3333333   0.0000000   0.1666667), wk =   0.0370370
        k(   54) = (  -0.5000000   0.0000000   0.1666667), wk =   0.0185185
        k(   55) = (   0.3333333  -0.1575061   0.1666667), wk =   0.0740741
        k(   56) = (  -0.5000000  -0.1575061   0.1666667), wk =   0.0370370
        k(   57) = (   0.3333333  -0.3150122   0.1666667), wk =   0.0740741
        k(   58) = (  -0.5000000  -0.3150122   0.1666667), wk =   0.0370370
        k(   59) = (   0.3333333   0.4725183   0.1666667), wk =   0.0370370
        k(   60) = (  -0.5000000   0.4725183   0.1666667), wk =   0.0185185
        k(   61) = (  -0.5000000   0.0000000   0.3333333), wk =   0.0185185
        k(   62) = (  -0.5000000  -0.1575061   0.3333333), wk =   0.0370370
        k(   63) = (  -0.5000000  -0.3150122   0.3333333), wk =   0.0370370
        k(   64) = (  -0.5000000   0.4725183   0.3333333), wk =   0.0185185

     Dense  grid:   498127 G-vectors     FFT dimensions: ( 100, 108, 100)

     Estimated max dynamical RAM per process >       3.15 GB

     Estimated total dynamical RAM >     125.81 GB

     Initial potential from superposition of free atoms

     starting charge  367.99656, renormalised to  368.00000
     Starting wfc are  232 randomized atomic wfcs

     total cpu time spent up to now is       69.1 secs

     Self-consistent Calculation

     iteration #  1     ecut=   120.00 Ry     beta= 0.70
     Davidson diagonalization with overlap
     ethr =  1.00E-02,  avg # of iterations =  5.0

     total cpu time spent up to now is      251.6 secs

     total energy              =   -6253.99833980 Ry
     Harris-Foulkes estimate   =   -6264.58811513 Ry
     estimated scf accuracy    <      13.41296412 Ry

     iteration #  2     ecut=   120.00 Ry     beta= 0.70
     Davidson diagonalization with overlap
     ethr =  3.64E-03,  avg # of iterations =  3.5

     total cpu time spent up to now is      428.2 secs

     total energy              =   -6250.86949347 Ry
     Harris-Foulkes estimate   =   -6270.76815315 Ry
     estimated scf accuracy    <      53.44049051 Ry

     iteration #  3     ecut=   120.00 Ry     beta= 0.70
     Davidson diagonalization with overlap
     ethr =  3.64E-03,  avg # of iterations =  3.3

     total cpu time spent up to now is      594.2 secs

     total energy              =   -6261.08341794 Ry
     Harris-Foulkes estimate   =   -6261.38527889 Ry
     estimated scf accuracy    <       0.98212689 Ry

     iteration #  4     ecut=   120.00 Ry     beta= 0.70
     Davidson diagonalization with overlap
     ethr =  2.67E-04,  avg # of iterations =  3.1

     total cpu time spent up to now is      732.2 secs

     total energy              =   -6261.09658430 Ry
     Harris-Foulkes estimate   =   -6261.16826288 Ry
     estimated scf accuracy    <       0.24519186 Ry

     iteration #  5     ecut=   120.00 Ry     beta= 0.70
     Davidson diagonalization with overlap
     ethr =  6.66E-05,  avg # of iterations =  4.4

     total cpu time spent up to now is      875.6 secs

     total energy              =   -6261.09047404 Ry
     Harris-Foulkes estimate   =   -6261.12593526 Ry
     estimated scf accuracy    <       0.07753549 Ry

     iteration #  6     ecut=   120.00 Ry     beta= 0.70
     Davidson diagonalization with overlap
     ethr =  2.11E-05,  avg # of iterations =  5.1

     total cpu time spent up to now is     1029.9 secs

     total energy              =   -6261.10773228 Ry
     Harris-Foulkes estimate   =   -6261.10972863 Ry
     estimated scf accuracy    <       0.00544285 Ry

     iteration #  7     ecut=   120.00 Ry     beta= 0.70
     Davidson diagonalization with overlap
     ethr =  1.48E-06,  avg # of iterations =  4.5

     total cpu time spent up to now is     1180.5 secs

     total energy              =   -6261.10839630 Ry
     Harris-Foulkes estimate   =   -6261.10848202 Ry
     estimated scf accuracy    <       0.00018017 Ry

     iteration #  8     ecut=   120.00 Ry     beta= 0.70
     Davidson diagonalization with overlap
     ethr =  4.90E-08,  avg # of iterations =  3.0

     total cpu time spent up to now is     1352.5 secs

     total energy              =   -6261.10845623 Ry
     Harris-Foulkes estimate   =   -6261.10846000 Ry
     estimated scf accuracy    <       0.00001613 Ry

     iteration #  9     ecut=   120.00 Ry     beta= 0.70
     Davidson diagonalization with overlap
     ethr =  4.38E-09,  avg # of iterations =  2.0

     total cpu time spent up to now is     1494.6 secs

     total energy              =   -6261.10845552 Ry
     Harris-Foulkes estimate   =   -6261.10845805 Ry
     estimated scf accuracy    <       0.00001028 Ry

     iteration # 10     ecut=   120.00 Ry     beta= 0.70
     Davidson diagonalization with overlap
     ethr =  2.79E-09,  avg # of iterations =  1.7

     total cpu time spent up to now is     1623.8 secs

     total energy              =   -6261.10845501 Ry
     Harris-Foulkes estimate   =   -6261.10845624 Ry
     estimated scf accuracy    <       0.00000286 Ry

     iteration # 11     ecut=   120.00 Ry     beta= 0.70
     Davidson diagonalization with overlap
     ethr =  7.76E-10,  avg # of iterations =  3.0

     total cpu time spent up to now is     1766.1 secs

     total energy              =   -6261.10845564 Ry
     Harris-Foulkes estimate   =   -6261.10845569 Ry
     estimated scf accuracy    <       0.00000012 Ry

     iteration # 12     ecut=   120.00 Ry     beta= 0.70
     Davidson diagonalization with overlap
     ethr =  3.13E-11,  avg # of iterations =  2.1

     total cpu time spent up to now is     1911.7 secs

     total energy              =   -6261.10845565 Ry
     Harris-Foulkes estimate   =   -6261.10845566 Ry
     estimated scf accuracy    <       0.00000002 Ry

     iteration # 13     ecut=   120.00 Ry     beta= 0.70
     Davidson diagonalization with overlap
     ethr =  6.34E-12,  avg # of iterations =  2.9

     total cpu time spent up to now is     2074.1 secs

     End of self-consistent calculation

          k = 0.0000 0.0000 0.0000 ( 62239 PWs)   bands (ev):

   -66.1730 -66.1726 -66.1720 -66.1720 -66.1716 -66.1716 -66.1709 -66.1705
   -30.5558 -30.5521 -30.5519 -30.5484 -30.5296 -30.5282 -30.5259 -30.5258
   -30.5242 -30.5228 -30.5206 -30.5205 -30.4952 -30.4931 -30.4927 -30.4907
   -30.4271 -30.4264 -30.4245 -30.4237 -30.4227 -30.4220 -30.4200 -30.4192
   -20.3317 -20.3317 -20.3316 -20.3316 -20.3316 -20.3316 -20.3315 -20.3315
   -20.3130 -20.3127 -20.3127 -20.3125 -20.3086 -20.3084 -20.3083 -20.3082
   -20.3080 -20.3079 -20.3078 -20.3074 -20.3074 -20.3072 -20.3071 -20.3070
   -20.3069 -20.3069 -20.3068 -20.3067 -20.3062 -20.3062 -20.3059 -20.3059
   -20.3000 -20.2999 -20.2996 -20.2995 -20.2995 -20.2992 -20.2990 -20.2990
   -20.2972 -20.2972 -20.2970 -20.2970 -20.2969 -20.2969 -20.2968 -20.2967
   -20.2915 -20.2915 -20.2910 -20.2909 -20.2909 -20.2909 -20.2904 -20.2904
    -9.9705  -9.7114  -9.5285  -9.5267  -9.2915  -9.2882  -9.0943  -9.0816
    -9.0460  -8.8677  -8.8530  -8.8521  -7.8307  -7.7871  -7.7839  -7.7694
    -7.7685  -7.7607  -7.7601  -7.7164  -7.6430  -7.6412  -7.6212  -7.6200
     1.1181   1.1183   1.2163   1.2199   1.2292   1.2336   1.3561   1.5793
     1.6409   1.6423   1.6478   1.8300   2.3491   2.4236   2.5752   2.5755
     2.7205   2.7206   4.1318   4.1359   4.3236   4.3296   4.7812   4.7817
     4.8095   4.8108   4.8623   4.8706   5.0385   5.0395   5.0604   5.4684
     5.4719   5.5041   5.5111   5.5376   5.5379   5.5759   5.5834   5.8455
     5.8489   5.8820   5.8826   5.9070   5.9815   6.0324   6.0345   6.1030
     6.1043   6.2534   6.2553   6.5331   6.5357   6.8296   6.8338   6.8538
     6.8606   6.8632   7.0000   7.0265   7.0769   7.0799   7.3529   7.3568
     7.3891   7.3929   7.8159   7.8298   8.0799   8.0835   8.1517   8.1554
     9.2131   9.2159   9.9428   9.9443   9.9713   9.9731  12.2631  12.2769
    12.2799  12.2989  12.3450  12.3487  12.4776  12.4804  12.9355  12.9528
    13.2353  13.2435  13.3926  13.3978  13.7864  14.1288  14.1537  14.1607
    14.1661  14.3385  14.3662  14.9019  15.4246  15.4361  15.4491  16.0887
    16.0890  16.8704  17.0946  17.0970  17.4928

          k = 0.0000 0.0000 0.1667 ( 62262 PWs)   bands (ev):

   -66.1729 -66.1725 -66.1720 -66.1719 -66.1716 -66.1715 -66.1710 -66.1706
   -30.5558 -30.5524 -30.5521 -30.5487 -30.5279 -30.5255 -30.5233 -30.5232
   -30.5209 -30.5188 -30.5181 -30.5136 -30.4945 -30.4931 -30.4925 -30.4911
   -30.4338 -30.4312 -30.4293 -30.4267 -30.4261 -30.4234 -30.4222 -30.4195
   -20.3317 -20.3316 -20.3316 -20.3316 -20.3316 -20.3316 -20.3315 -20.3315
   -20.3130 -20.3128 -20.3127 -20.3125 -20.3085 -20.3084 -20.3082 -20.3081
   -20.3081 -20.3078 -20.3078 -20.3074 -20.3074 -20.3072 -20.3071 -20.3071
   -20.3070 -20.3069 -20.3068 -20.3067 -20.3063 -20.3061 -20.3060 -20.3059
   -20.2999 -20.2997 -20.2996 -20.2992 -20.2992 -20.2991 -20.2990 -20.2988
   -20.2971 -20.2971 -20.2969 -20.2969 -20.2968 -20.2968 -20.2967 -20.2967
   -20.2920 -20.2915 -20.2914 -20.2914 -20.2911 -20.2910 -20.2908 -20.2905
    -9.9221  -9.6570  -9.5432  -9.4610  -9.3019  -9.2002  -9.0548  -9.0539
    -9.0392  -8.8575  -8.8564  -8.8272  -7.9115  -7.8965  -7.8328  -7.7765
    -7.7734  -7.7731  -7.7651  -7.7521  -7.7507  -7.7198  -7.6505  -7.6291
     1.2050   1.2125   1.2231   1.2395   1.4291   1.4328   1.4928   1.6344
     1.6402   1.6896   1.7529   1.9390   2.4374   2.5150   2.5847   2.6643
     2.7119   2.8083   4.0800   4.1336   4.3154   4.3332   4.3460   4.4229
     4.6749   4.7712   4.8537   4.8551   4.8656   5.0275   5.0422   5.2796
     5.3288   5.4427   5.4928   5.5268   5.5915   5.5980   5.6262   5.6289
     5.7205   5.8026   5.8405   5.9197   5.9936   6.0845   6.1035   6.1139
     6.2710   6.3974   6.4765   6.5251   6.6950   6.7287   6.8018   6.8291
     6.8321   6.8554   6.9679   6.9955   7.0182   7.0889   7.1202   7.1228
     7.1744   7.2355   7.8260   7.8292   8.0429   8.0988   8.1120   8.1526
     9.5704   9.5986   9.9448   9.9692  10.2123  10.2573  12.1938  12.2430
    12.2604  12.3300  12.3480  12.3747  12.4828  12.5762  12.9362  12.9911
    13.0359  13.2365  13.2906  13.3926  13.9064  14.0083  14.0287  14.1272
    14.1674  14.3605  14.4634  15.0157  15.4150  15.4637  15.4949  16.0611
    16.4082  16.8282  17.0415  17.2891  17.5437

          k = 0.0000 0.0000 0.3333 ( 62268 PWs)   bands (ev):

   -66.1727 -66.1723 -66.1722 -66.1718 -66.1717 -66.1713 -66.1712 -66.1708
   -30.5555 -30.5534 -30.5518 -30.5497 -30.5269 -30.5246 -30.5242 -30.5219
   -30.5072 -30.5036 -30.5000 -30.4950 -30.4943 -30.4923 -30.4903 -30.4892
   -30.4519 -30.4497 -30.4473 -30.4451 -30.4253 -30.4231 -30.4226 -30.4203
   -20.3317 -20.3316 -20.3316 -20.3316 -20.3316 -20.3316 -20.3315 -20.3315
   -20.3130 -20.3128 -20.3127 -20.3126 -20.3083 -20.3082 -20.3081 -20.3080
   -20.3079 -20.3077 -20.3077 -20.3076 -20.3075 -20.3073 -20.3073 -20.3072
   -20.3070 -20.3068 -20.3068 -20.3067 -20.3065 -20.3062 -20.3061 -20.3060
   -20.2999 -20.2997 -20.2993 -20.2991 -20.2987 -20.2986 -20.2984 -20.2983
   -20.2975 -20.2974 -20.2972 -20.2972 -20.2960 -20.2960 -20.2958 -20.2957
   -20.2932 -20.2927 -20.2927 -20.2923 -20.2914 -20.2910 -20.2909 -20.2906
    -9.8056  -9.5941  -9.5327  -9.3435  -9.2998  -9.0856  -8.9512  -8.9400
    -8.8883  -8.8691  -8.7960  -8.7226  -8.2214  -8.2193  -8.1235  -8.1051
    -7.8095  -7.7833  -7.7546  -7.7460  -7.7292  -7.7245  -7.6758  -7.6542
     1.2316   1.2438   1.2549   1.2743   1.5594   1.5847   1.6183   1.6236
     2.1994   2.2387   2.4051   2.4856   2.6093   2.6937   2.6978   2.7827
     2.9067   3.0392   3.7133   3.7988   3.8458   3.9411   4.1818   4.2365
     4.2688   4.4769   4.5313   4.7818   4.8205   4.8224   4.9127   4.9809
     5.1258   5.1440   5.1695   5.3493   5.4346   5.4547   5.6589   5.6763
     5.7615   5.7664   5.8136   5.9795   6.0194   6.1488   6.2408   6.2834
     6.3007   6.4045   6.4895   6.5590   6.5654   6.5782   6.6365   6.7263
     6.8195   6.8492   6.8586   6.9777   7.0058   7.0436   7.0829   7.0980
     7.3126   7.3506   7.7507   7.7714   7.9177   7.9727   8.1352   8.1541
     9.9449   9.9629  10.3075  10.3719  10.8393  10.9385  11.8095  11.8515
    12.0782  12.4726  12.4785  12.4931  12.5167  12.5846  12.6799  12.8415
    12.9365  13.1118  13.1720  13.3988  13.6708  13.6879  14.0828  14.1226
    14.2158  14.3423  14.7832  15.3035  15.3053  15.6246  15.9063  15.9759
    16.2868  17.2701  17.4216  17.5850  17.8751

          k = 0.0000 0.0000-0.5000 ( 62264 PWs)   bands (ev):

   -66.1725 -66.1725 -66.1721 -66.1721 -66.1714 -66.1714 -66.1711 -66.1711
   -30.5545 -30.5545 -30.5508 -30.5508 -30.5255 -30.5255 -30.5232 -30.5232
   -30.4967 -30.4967 -30.4952 -30.4952 -30.4753 -30.4753 -30.4748 -30.4748
   -30.4712 -30.4712 -30.4700 -30.4700 -30.4242 -30.4242 -30.4215 -30.4215
   -20.3317 -20.3317 -20.3316 -20.3316 -20.3316 -20.3316 -20.3315 -20.3315
   -20.3129 -20.3129 -20.3127 -20.3127 -20.3082 -20.3082 -20.3078 -20.3078
   -20.3078 -20.3078 -20.3075 -20.3075 -20.3075 -20.3075 -20.3075 -20.3075
   -20.3069 -20.3069 -20.3067 -20.3067 -20.3065 -20.3065 -20.3060 -20.3060
   -20.2998 -20.2998 -20.2992 -20.2992 -20.2980 -20.2980 -20.2980 -20.2980
   -20.2977 -20.2977 -20.2977 -20.2977 -20.2947 -20.2947 -20.2944 -20.2944
   -20.2943 -20.2943 -20.2940 -20.2940 -20.2912 -20.2912 -20.2907 -20.2907
    -9.6831  -9.6831  -9.4180  -9.4180  -9.1573  -9.1573  -8.8919  -8.8919
    -8.5973  -8.5973  -8.5646  -8.5645  -8.5539  -8.5538  -8.4718  -8.4718
    -7.7970  -7.7970  -7.7418  -7.7418  -7.7108  -7.7108  -7.6890  -7.6890
     1.2413   1.2413   1.2721   1.2721   1.5998   1.5998   1.6066   1.6066
     2.6406   2.6406   2.9490   2.9490   3.0790   3.0790   3.1318   3.1319
     3.2292   3.2292   3.2898   3.2898   3.4147   3.4147   3.7518   3.7518
     3.8799   3.8800   4.4009   4.4009   4.7629   4.7629   4.8816   4.8816
     5.2340   5.2340   5.2898   5.2898   5.2994   5.2994   5.7237   5.7237
     5.7501   5.7501   5.9577   5.9577   6.1591   6.1591   6.2435   6.2435
     6.3049   6.3049   6.4290   6.4290   6.4944   6.4944   6.4994   6.4994
     6.7848   6.7848   6.8469   6.8469   7.0646   7.0646   7.4738   7.4738
     7.5328   7.5328   7.6900   7.6900   7.7159   7.7159   8.1513   8.1513
     9.9539   9.9539  11.1168  11.1168  11.1802  11.1802  11.5483  11.5483
    11.7478  11.7478  12.5244  12.5244  12.7000  12.7000  12.7940  12.7940
    12.9257  12.9257  13.2411  13.2411  13.4472  13.4472  14.1149  14.1149
    14.3022  14.3022  15.0985  15.0985  15.7384  15.7384  15.8275  15.8275
    16.6806  16.6806  17.8616  17.8616  18.1981

          k = 0.0000 0.1575 0.0000 ( 62231 PWs)   bands (ev):

   -66.1729 -66.1726 -66.1719 -66.1719 -66.1716 -66.1716 -66.1709 -66.1706
   -30.5520 -30.5483 -30.5481 -30.5446 -30.5294 -30.5279 -30.5262 -30.5259
   -30.5240 -30.5225 -30.5209 -30.5207 -30.4991 -30.4970 -30.4966 -30.4945
   -30.4269 -30.4262 -30.4246 -30.4239 -30.4225 -30.4218 -30.4202 -30.4194
   -20.3317 -20.3317 -20.3316 -20.3316 -20.3316 -20.3316 -20.3315 -20.3315
   -20.3127 -20.3124 -20.3124 -20.3121 -20.3086 -20.3085 -20.3083 -20.3081
   -20.3080 -20.3080 -20.3079 -20.3077 -20.3075 -20.3074 -20.3074 -20.3071
   -20.3070 -20.3069 -20.3068 -20.3066 -20.3063 -20.3062 -20.3060 -20.3060
   -20.3000 -20.2999 -20.2995 -20.2995 -20.2994 -20.2992 -20.2991 -20.2990
   -20.2972 -20.2972 -20.2970 -20.2970 -20.2969 -20.2969 -20.2968 -20.2967
   -20.2915 -20.2915 -20.2910 -20.2910 -20.2909 -20.2909 -20.2905 -20.2904
    -9.9443  -9.7221  -9.4974  -9.4954  -9.2984  -9.2951  -9.0934  -9.0825
    -8.9725  -8.8188  -8.8093  -8.8086  -7.9244  -7.8693  -7.8686  -7.8231
    -7.7854  -7.7841  -7.7626  -7.7618  -7.6416  -7.6401  -7.6228  -7.6215
     1.1181   1.1183   1.2221   1.2260   1.2292   1.2336   1.4604   1.5787
     1.8229   1.8768   1.8780   2.0316   2.3539   2.4185   2.6463   2.6466
     2.7877   2.7879   3.9966   4.0011   4.0714   4.0765   4.7830   4.7839
     4.8040   4.8044   4.8057   4.9314   4.9449   5.0035   5.0046   5.2837
     5.2858   5.4512   5.4513   5.6085   5.6096   5.6310   5.6548   5.6637
     5.8141   5.8159   5.9178   5.9196   5.9462   6.0354   6.0367   6.1091
     6.1096   6.2444   6.2482   6.5550   6.5581   6.8347   6.8553   6.8586
     6.8643   6.8919   6.8925   6.9897   6.9906   6.9914   7.3606   7.3640
     7.3891   7.3923   7.8207   7.8292   8.0397   8.0425   8.0715   8.0740
     9.2133   9.2159  10.1467  10.1472  10.1474  10.1476  12.1496  12.1547
    12.2952  12.2967  12.3224  12.3248  12.3442  12.3461  12.9380  12.9525
    13.2703  13.2772  13.4016  13.4063  14.0257  14.0566  14.0583  14.0705
    14.1718  14.6209  14.6284  15.0575  15.4250  15.4347  15.8536  16.0540
    16.0546  16.5660  17.2246  17.2271  17.5220

          k = 0.0000 0.1575 0.1667 ( 62237 PWs)   bands (ev):

   -66.1729 -66.1725 -66.1720 -66.1719 -66.1717 -66.1715 -66.1710 -66.1706
   -30.5520 -30.5486 -30.5483 -30.5449 -30.5276 -30.5258 -30.5232 -30.5229
   -30.5212 -30.5189 -30.5181 -30.5137 -30.4982 -30.4970 -30.4963 -30.4949
   -30.4336 -30.4314 -30.4291 -30.4269 -30.4259 -30.4236 -30.4221 -30.4197
   -20.3317 -20.3317 -20.3316 -20.3316 -20.3316 -20.3316 -20.3315 -20.3315
   -20.3127 -20.3124 -20.3124 -20.3121 -20.3085 -20.3084 -20.3083 -20.3081
   -20.3080 -20.3080 -20.3078 -20.3077 -20.3075 -20.3075 -20.3074 -20.3071
   -20.3071 -20.3069 -20.3068 -20.3067 -20.3064 -20.3062 -20.3061 -20.3060
   -20.2999 -20.2997 -20.2996 -20.2993 -20.2992 -20.2991 -20.2991 -20.2988
   -20.2971 -20.2971 -20.2969 -20.2969 -20.2968 -20.2968 -20.2967 -20.2967
   -20.2919 -20.2915 -20.2915 -20.2914 -20.2911 -20.2910 -20.2908 -20.2905
    -9.8949  -9.6677  -9.5119  -9.4257  -9.3090  -9.2072  -9.0527  -9.0401
    -8.9813  -8.8131  -8.8101  -8.7877  -7.9266  -7.9106  -7.9099  -7.8690
    -7.8520  -7.8337  -7.7750  -7.7728  -7.7524  -7.7517  -7.6493  -7.6306
     1.2093   1.2125   1.2306   1.2395   1.4661   1.4926   1.5738   1.7521
     1.8305   1.8711   1.8922   2.0787   2.4429   2.5095   2.6554   2.7375
     2.7796   2.8759   3.9727   4.0142   4.0647   4.1076   4.3601   4.4207
     4.7186   4.7326   4.7861   4.8461   4.8554   4.9392   5.0094   5.2413
     5.2451   5.2880   5.3041   5.4697   5.5699   5.5766   5.6452   5.7109
     5.7172   5.7751   5.8535   5.8654   5.8954   6.0946   6.1013   6.1469
     6.2001   6.3880   6.4499   6.5473   6.7208   6.7921   6.8082   6.8244
     6.8368   6.8970   6.9485   6.9544   7.0013   7.0059   7.1203   7.1227
     7.1915   7.2357   7.8287   7.8291   8.0037   8.0360   8.0437   8.0727
     9.5754   9.5978  10.1471  10.1492  10.3814  10.4005  12.1351  12.2110
    12.2284  12.2437  12.3271  12.3280  12.3471  12.4646  12.9399  12.9918
    13.0744  13.2692  13.2971  13.3996  13.9084  13.9375  14.0385  14.0564
    14.2784  14.6233  14.7690  15.1583  15.4631  15.4956  15.8204  16.0269
    16.3713  16.7229  16.9505  17.3994  17.5881

          k = 0.0000 0.1575 0.3333 ( 62284 PWs)   bands (ev):

   -66.1727 -66.1723 -66.1722 -66.1718 -66.1717 -66.1713 -66.1712 -66.1708
   -30.5517 -30.5495 -30.5480 -30.5458 -30.5266 -30.5249 -30.5239 -30.5222
   -30.5080 -30.5051 -30.5002 -30.4981 -30.4962 -30.4952 -30.4930 -30.4917
   -30.4518 -30.4499 -30.4472 -30.4452 -30.4251 -30.4229 -30.4228 -30.4205
   -20.3317 -20.3316 -20.3316 -20.3316 -20.3316 -20.3316 -20.3315 -20.3315
   -20.3127 -20.3125 -20.3124 -20.3122 -20.3083 -20.3082 -20.3081 -20.3081
   -20.3079 -20.3078 -20.3078 -20.3077 -20.3076 -20.3076 -20.3073 -20.3072
   -20.3072 -20.3070 -20.3068 -20.3067 -20.3066 -20.3063 -20.3061 -20.3060
   -20.2998 -20.2997 -20.2993 -20.2991 -20.2987 -20.2986 -20.2984 -20.2983
   -20.2975 -20.2974 -20.2972 -20.2972 -20.2960 -20.2960 -20.2958 -20.2957
   -20.2932 -20.2927 -20.2927 -20.2923 -20.2914 -20.2910 -20.2909 -20.2906
    -9.7761  -9.5628  -9.5429  -9.3513  -9.2500  -9.0128  -8.9473  -8.9380
    -8.8898  -8.8265  -8.7627  -8.6976  -8.2268  -8.2172  -8.1356  -8.1029
    -7.9015  -7.8785  -7.8533  -7.8276  -7.7460  -7.7261  -7.6748  -7.6557
     1.2428   1.2548   1.2600   1.2742   1.7580   1.7827   1.8612   1.8685
     2.1981   2.2547   2.4059   2.5079   2.6793   2.7017   2.7518   2.7884
     2.9811   3.1011   3.7127   3.7941   3.8361   3.8907   4.0748   4.1070
     4.2412   4.3352   4.5491   4.7258   4.7529   4.7960   4.7974   4.8817
     5.0406   5.0984   5.1203   5.1621   5.3673   5.3986   5.4662   5.6364
     5.7045   5.7607   5.8244   5.8762   5.9595   6.1241   6.1822   6.2382
     6.3300   6.5119   6.5540   6.5638   6.6260   6.6719   6.6992   6.7796
     6.8179   6.8312   6.9147   6.9481   6.9902   7.0196   7.0556   7.0861
     7.3062   7.3448   7.7548   7.7698   7.8839   7.9135   8.0638   8.0751
    10.1423  10.1482  10.3159  10.3741  10.9546  11.0308  11.8110  11.8492
    12.0375  12.3386  12.4420  12.4796  12.5051  12.5482  12.6351  12.7360
    12.9260  13.1152  13.1900  13.3977  13.5752  13.5993  14.0440  14.0526
    14.4806  14.6074  15.1331  15.4205  15.6140  15.7151  15.9266  15.9443
    16.4099  17.1895  17.2252  17.4730  17.8156

          k = 0.0000 0.1575-0.5000 ( 62234 PWs)   bands (ev):

   -66.1724 -66.1724 -66.1721 -66.1721 -66.1714 -66.1714 -66.1711 -66.1711
   -30.5507 -30.5507 -30.5470 -30.5470 -30.5253 -30.5253 -30.5235 -30.5235
   -30.5002 -30.5002 -30.4986 -30.4986 -30.4756 -30.4756 -30.4750 -30.4750
   -30.4713 -30.4713 -30.4702 -30.4702 -30.4240 -30.4240 -30.4216 -30.4216
   -20.3317 -20.3317 -20.3316 -20.3316 -20.3316 -20.3316 -20.3315 -20.3315
   -20.3126 -20.3126 -20.3123 -20.3123 -20.3082 -20.3082 -20.3080 -20.3080
   -20.3078 -20.3078 -20.3078 -20.3078 -20.3075 -20.3075 -20.3075 -20.3075
   -20.3070 -20.3070 -20.3068 -20.3068 -20.3066 -20.3066 -20.3061 -20.3061
   -20.2998 -20.2997 -20.2992 -20.2992 -20.2980 -20.2980 -20.2980 -20.2980
   -20.2977 -20.2977 -20.2977 -20.2977 -20.2947 -20.2947 -20.2944 -20.2944
   -20.2943 -20.2943 -20.2941 -20.2941 -20.2912 -20.2912 -20.2908 -20.2908
    -9.6521  -9.6521  -9.4268  -9.4268  -9.0902  -9.0902  -8.8542  -8.8542
    -8.6006  -8.6006  -8.5620  -8.5620  -8.5573  -8.5573  -8.4640  -8.4640
    -7.8915  -7.8915  -7.8415  -7.8415  -7.7101  -7.7101  -7.6906  -7.6906
     1.2568   1.2568   1.2720   1.2720   1.7890   1.7890   1.8714   1.8714
     2.7079   2.7079   2.9645   2.9645   3.0717   3.0717   3.1725   3.1725
     3.2371   3.2371   3.2873   3.2873   3.4045   3.4046   3.7562   3.7562
     3.9307   3.9307   4.2183   4.2183   4.6338   4.6338   4.7510   4.7510
     5.0816   5.0816   5.2703   5.2703   5.2737   5.2737   5.4917   5.4917
     5.7187   5.7187   5.8529   5.8529   6.1562   6.1562   6.3026   6.3026
     6.3180   6.3180   6.4501   6.4501   6.4896   6.4896   6.6800   6.6800
     6.8541   6.8541   6.8625   6.8625   6.9723   6.9723   7.4853   7.4853
     7.5271   7.5271   7.6654   7.6654   7.6847   7.6848   8.0744   8.0744
    10.1482  10.1482  11.1218  11.1218  11.1779  11.1779  11.6132  11.6132
    11.8091  11.8091  12.3930  12.3930  12.6740  12.6740  12.8026  12.8026
    12.8632  12.8632  13.1447  13.1447  13.4203  13.4203  14.0479  14.0479
    14.5727  14.5727  15.4730  15.4730  15.8029  15.8029  15.8740  15.8740
    16.7219  16.7219  17.6649  17.6649  18.1788

          k = 0.0000 0.3150 0.0000 ( 62175 PWs)   bands (ev):

   -66.1729 -66.1727 -66.1719 -66.1719 -66.1717 -66.1717 -66.1708 -66.1706
   -30.5419 -30.5380 -30.5377 -30.5341 -30.5290 -30.5274 -30.5270 -30.5258
   -30.5236 -30.5218 -30.5216 -30.5211 -30.5095 -30.5076 -30.5070 -30.5052
   -30.4264 -30.4258 -30.4251 -30.4244 -30.4220 -30.4213 -30.4206 -30.4199
   -20.3317 -20.3317 -20.3316 -20.3316 -20.3316 -20.3316 -20.3315 -20.3315
   -20.3117 -20.3114 -20.3114 -20.3111 -20.3091 -20.3088 -20.3087 -20.3084
   -20.3084 -20.3082 -20.3080 -20.3080 -20.3079 -20.3078 -20.3076 -20.3075
   -20.3069 -20.3067 -20.3067 -20.3065 -20.3065 -20.3063 -20.3062 -20.3061
   -20.2999 -20.2998 -20.2996 -20.2994 -20.2994 -20.2994 -20.2992 -20.2992
   -20.2972 -20.2972 -20.2970 -20.2970 -20.2970 -20.2969 -20.2968 -20.2967
   -20.2914 -20.2914 -20.2911 -20.2911 -20.2908 -20.2908 -20.2905 -20.2905
    -9.8804  -9.7549  -9.4278  -9.4253  -9.3206  -9.3174  -9.0911  -9.0848
    -8.7650  -8.6686  -8.6669  -8.6666  -8.1667  -8.1218  -8.1214  -8.0945
    -7.7807  -7.7799  -7.7675  -7.7667  -7.6376  -7.6363  -7.6268  -7.6255
     1.1181   1.1182   1.2270   1.2292   1.2311   1.2335   1.5458   1.5761
     2.3672   2.3909   2.4045   2.5363   2.5381   2.6996   2.8555   2.8568
     2.9837   2.9855   3.6157   3.6208   3.6600   3.6653   4.1511   4.4746
     4.4768   4.7584   4.7889   4.7902   4.8153   4.8167   5.0675   5.0690
     5.0997   5.1016   5.3717   5.3727   5.6153   5.6159   5.6615   5.6629
     5.8734   5.8741   5.8902   5.8925   6.0290   6.0293   6.0591   6.1287
     6.1296   6.2072   6.2134   6.5114   6.6178   6.6198   6.8403   6.8406
     6.8927   6.9660   7.1010   7.1014   7.1119   7.1134   7.3708   7.3720
     7.3927   7.3939   7.8202   7.8247   7.8394   7.8396   7.8651   7.8662
     9.2138   9.2154  10.6111  10.6133  10.6579  10.6588  11.7696  11.7748
    11.8948  11.8969  12.3186  12.3210  12.3408  12.3424  12.9434  12.9513
    13.3811  13.3848  13.4668  13.4712  13.8230  13.8247  13.8504  13.8562
    14.8086  15.2101  15.2112  15.4262  15.4316  15.6305  15.9355  15.9368
    16.0049  16.8557  17.2353  17.6729  17.6758

          k = 0.0000 0.3150 0.1667 ( 62260 PWs)   bands (ev):

   -66.1728 -66.1726 -66.1719 -66.1718 -66.1717 -66.1716 -66.1709 -66.1707
   -30.5419 -30.5383 -30.5380 -30.5344 -30.5268 -30.5266 -30.5232 -30.5222
   -30.5220 -30.5191 -30.5185 -30.5140 -30.5079 -30.5073 -30.5063 -30.5055
   -30.4332 -30.4319 -30.4287 -30.4274 -30.4255 -30.4241 -30.4216 -30.4202
   -20.3317 -20.3317 -20.3316 -20.3316 -20.3316 -20.3316 -20.3315 -20.3315
   -20.3117 -20.3114 -20.3114 -20.3111 -20.3091 -20.3088 -20.3087 -20.3084
   -20.3083 -20.3082 -20.3079 -20.3079 -20.3079 -20.3078 -20.3075 -20.3075
   -20.3069 -20.3068 -20.3066 -20.3066 -20.3065 -20.3063 -20.3063 -20.3061
   -20.2998 -20.2997 -20.2995 -20.2993 -20.2993 -20.2992 -20.2990 -20.2989
   -20.2971 -20.2971 -20.2969 -20.2969 -20.2969 -20.2968 -20.2967 -20.2967
   -20.2918 -20.2916 -20.2914 -20.2913 -20.2911 -20.2911 -20.2908 -20.2906
    -9.8288  -9.7006  -9.4415  -9.3468  -9.3319  -9.2300  -9.0497  -9.0426
    -8.7735  -8.6717  -8.6631  -8.6545  -8.1671  -8.1313  -8.1184  -8.1017
    -7.9054  -7.8914  -7.7712  -7.7693  -7.7588  -7.7568  -7.6456  -7.6346
     1.2116   1.2124   1.2366   1.2393   1.4853   1.4920   1.7089   1.7490
     2.3927   2.4567   2.4951   2.5121   2.5379   2.6862   2.8633   2.9613
     2.9763   3.0822   3.6219   3.6563   3.6608   3.7020   4.1426   4.3810
     4.3862   4.4891   4.4993   4.7613   4.7870   4.8429   4.8674   4.8954
     5.0626   5.1066   5.1620   5.2816   5.4252   5.4458   5.6085   5.6181
     5.6758   5.7529   5.7814   5.8558   6.0383   6.0904   6.1039   6.1215
     6.2380   6.4045   6.4052   6.5776   6.6089   6.8276   6.8663   6.9152
     6.9561   6.9654   7.0678   7.0931   7.0964   7.0982   7.1242   7.1327
     7.2352   7.2484   7.8093   7.8201   7.8229   7.8402   7.8470   7.8585
     9.5839   9.5951  10.6182  10.6587  10.7969  10.8285  11.7737  11.8668
    11.8980  11.9744  12.2219  12.2381  12.3712  12.4006  12.9542  12.9892
    13.1935  13.3501  13.3726  13.4624  13.6703  13.7222  13.8220  13.8470
    14.9395  15.2034  15.4229  15.4590  15.5012  15.7021  15.9111  16.1677
    16.2437  16.8192  17.3023  17.3510  17.7906

          k = 0.0000 0.3150 0.3333 ( 62269 PWs)   bands (ev):

   -66.1726 -66.1724 -66.1721 -66.1719 -66.1716 -66.1714 -66.1711 -66.1709
   -30.5415 -30.5393 -30.5377 -30.5353 -30.5258 -30.5257 -30.5232 -30.5230
   -30.5128 -30.5117 -30.5084 -30.5066 -30.5004 -30.4984 -30.4955 -30.4950
   -30.4515 -30.4503 -30.4468 -30.4457 -30.4246 -30.4233 -30.4224 -30.4210
   -20.3317 -20.3316 -20.3316 -20.3316 -20.3316 -20.3316 -20.3316 -20.3315
   -20.3117 -20.3115 -20.3114 -20.3112 -20.3091 -20.3088 -20.3088 -20.3085
   -20.3081 -20.3080 -20.3079 -20.3078 -20.3077 -20.3076 -20.3076 -20.3072
   -20.3072 -20.3070 -20.3069 -20.3067 -20.3066 -20.3064 -20.3063 -20.3061
   -20.2997 -20.2995 -20.2994 -20.2992 -20.2987 -20.2987 -20.2984 -20.2983
   -20.2975 -20.2974 -20.2972 -20.2972 -20.2960 -20.2959 -20.2959 -20.2958
   -20.2931 -20.2928 -20.2926 -20.2924 -20.2913 -20.2910 -20.2909 -20.2907
    -9.7056  -9.5748  -9.4914  -9.3760  -9.1334  -8.9726  -8.9168  -8.8945
    -8.8074  -8.6893  -8.6392  -8.6020  -8.2629  -8.2317  -8.2101  -8.1280
    -8.1129  -8.0960  -8.0863  -8.0212  -7.7421  -7.7304  -7.6710  -7.6599
     1.2510   1.2546   1.2700   1.2739   2.1364   2.1941   2.2618   2.4027
     2.4045   2.5148   2.5390   2.7068   2.7575   2.7576   2.8842   2.9614
     3.2071   3.2907   3.5973   3.6279   3.7104   3.7395   3.7918   3.8020
     4.1186   4.3010   4.3898   4.4131   4.4957   4.5609   4.6055   4.7503
     4.7768   4.8434   4.9914   5.0858   5.1295   5.1875   5.2021   5.3515
     5.3703   5.5538   5.6701   5.8162   6.1252   6.1689   6.1979   6.2428
     6.4088   6.5723   6.6137   6.6211   6.6711   6.7907   6.7967   6.8070
     6.8884   6.9518   7.0255   7.0549   7.0722   7.1291   7.1644   7.1829
     7.2780   7.3316   7.7328   7.7443   7.7560   7.7629   7.8433   7.8576
    10.3326  10.3520  10.6346  10.6566  11.2671  11.3073  11.7579  11.8196
    11.8427  11.9292  12.1634  12.2074  12.5336  12.5969  12.6311  12.6886
    12.8774  13.1376  13.1532  13.3689  13.4556  13.4740  13.8253  13.8414
    15.0856  15.1810  15.5707  15.8372  15.9239  15.9390  16.0162  16.6823
    16.6935  16.8111  17.0649  17.5309  17.6602

          k = 0.0000 0.3150-0.5000 ( 62306 PWs)   bands (ev):

   -66.1724 -66.1724 -66.1722 -66.1722 -66.1713 -66.1713 -66.1712 -66.1712
   -30.5405 -30.5405 -30.5366 -30.5366 -30.5245 -30.5245 -30.5243 -30.5243
   -30.5100 -30.5100 -30.5084 -30.5084 -30.4760 -30.4760 -30.4754 -30.4754
   -30.4714 -30.4714 -30.4706 -30.4706 -30.4235 -30.4235 -30.4221 -30.4221
   -20.3317 -20.3317 -20.3316 -20.3316 -20.3316 -20.3316 -20.3315 -20.3315
   -20.3116 -20.3116 -20.3113 -20.3113 -20.3090 -20.3090 -20.3087 -20.3087
   -20.3080 -20.3080 -20.3078 -20.3078 -20.3076 -20.3076 -20.3073 -20.3073
   -20.3072 -20.3072 -20.3069 -20.3069 -20.3065 -20.3065 -20.3062 -20.3062
   -20.2996 -20.2996 -20.2993 -20.2993 -20.2980 -20.2980 -20.2980 -20.2980
   -20.2977 -20.2977 -20.2977 -20.2977 -20.2946 -20.2946 -20.2944 -20.2944
   -20.2943 -20.2943 -20.2941 -20.2941 -20.2911 -20.2911 -20.2909 -20.2909
    -9.5797  -9.5797  -9.4550  -9.4550  -8.9099  -8.9098  -8.7468  -8.7468
    -8.6128  -8.6128  -8.5954  -8.5954  -8.5217  -8.5217  -8.4321  -8.4321
    -8.1258  -8.1258  -8.0864  -8.0864  -7.7062  -7.7062  -7.6948  -7.6948
     1.2673   1.2673   1.2717   1.2717   2.3898   2.3898   2.5230   2.5230
     2.9007   2.9007   3.0097   3.0097   3.0490   3.0490   3.2317   3.2317
     3.2800   3.2800   3.3013   3.3014   3.3660   3.3660   3.6200   3.6200
     4.0563   4.0563   4.1053   4.1053   4.1120   4.1120   4.3584   4.3584
     4.8136   4.8136   4.9296   4.9296   5.1475   5.1475   5.2471   5.2471
     5.3831   5.3831   5.7421   5.7421   6.2658   6.2658   6.3151   6.3151
     6.4384   6.4385   6.4871   6.4871   6.5245   6.5246   6.7521   6.7521
     7.0463   7.0463   7.0610   7.0610   7.0996   7.0996   7.5001   7.5001
     7.5120   7.5120   7.5682   7.5682   7.5929   7.5929   7.8510   7.8510
    10.6390  10.6390  11.1342  11.1342  11.1725  11.1725  11.6825  11.6825
    11.9958  11.9958  12.1231  12.1231  12.5465  12.5465  12.6312  12.6312
    12.8246  12.8246  12.9577  12.9577  13.4490  13.4490  13.8335  13.8335
    15.1426  15.1426  15.7167  15.7167  16.2891  16.2892  16.4338  16.4338
    16.8846  16.8846  17.2849  17.2849  17.9733

          k = 0.0000-0.4725 0.0000 ( 62212 PWs)   bands (ev):

   -66.1728 -66.1728 -66.1718 -66.1718 -66.1718 -66.1718 -66.1707 -66.1707
   -30.5312 -30.5312 -30.5276 -30.5276 -30.5258 -30.5258 -30.5252 -30.5252
   -30.5217 -30.5217 -30.5198 -30.5198 -30.5196 -30.5196 -30.5184 -30.5184
   -30.4258 -30.4258 -30.4251 -30.4251 -30.4214 -30.4214 -30.4206 -30.4205
   -20.3317 -20.3317 -20.3316 -20.3316 -20.3316 -20.3316 -20.3315 -20.3315
   -20.3104 -20.3104 -20.3101 -20.3101 -20.3100 -20.3100 -20.3097 -20.3097
   -20.3083 -20.3083 -20.3081 -20.3081 -20.3078 -20.3078 -20.3077 -20.3077
   -20.3067 -20.3067 -20.3066 -20.3065 -20.3065 -20.3065 -20.3062 -20.3062
   -20.2998 -20.2998 -20.2995 -20.2995 -20.2993 -20.2993 -20.2993 -20.2993
   -20.2972 -20.2972 -20.2970 -20.2970 -20.2970 -20.2970 -20.2967 -20.2967
   -20.2913 -20.2913 -20.2912 -20.2912 -20.2908 -20.2908 -20.2906 -20.2906
    -9.8099  -9.8099  -9.3628  -9.3628  -9.3599  -9.3599  -9.0880  -9.0880
    -8.4697  -8.4697  -8.4211  -8.4211  -8.4208  -8.4208  -8.4160  -8.4160
    -7.7747  -7.7747  -7.7728  -7.7728  -7.6323  -7.6323  -7.6309  -7.6309
     1.1182   1.1182   1.2287   1.2287   1.2329   1.2329   1.5687   1.5687
     2.3857   2.3857   3.1726   3.1726   3.1891   3.1891   3.2658   3.2658
     3.2818   3.2819   3.2857   3.2857   3.4813   3.4813   3.4848   3.4848
     3.6846   3.6846   4.7986   4.7986   4.7998   4.7998   5.2270   5.2270
     5.2313   5.2313   5.3469   5.3469   5.3492   5.3492   5.7412   5.7412
     5.7428   5.7428   5.9921   5.9921   5.9967   5.9967   6.1596   6.1596
     6.1635   6.1635   6.2521   6.2521   6.7144   6.7144   6.7156   6.7156
     6.9300   6.9300   7.3637   7.3637   7.3663   7.3663   7.4769   7.4769
     7.4773   7.4773   7.5428   7.5428   7.5431   7.5431   7.8265   7.8265
     9.2146   9.2146  11.2088  11.2088  11.2130  11.2130  11.2928  11.2928
    11.2981  11.2981  12.3333  12.3333  12.3354  12.3354  12.9483  12.9483
    13.5708  13.5708  13.5766  13.5766  13.6245  13.6245  13.6291  13.6291
    15.4103  15.4103  15.4290  15.4290  15.6811  15.6811  15.6829  15.6829
    16.5139  16.5139  17.9834  17.9835  18.0940

          k = 0.0000-0.4725 0.1667 ( 62246 PWs)   bands (ev):

   -66.1727 -66.1727 -66.1718 -66.1718 -66.1717 -66.1717 -66.1708 -66.1708
   -30.5306 -30.5306 -30.5262 -30.5262 -30.5258 -30.5258 -30.5239 -30.5239
   -30.5200 -30.5200 -30.5188 -30.5188 -30.5173 -30.5173 -30.5136 -30.5136
   -30.4325 -30.4325 -30.4280 -30.4280 -30.4248 -30.4248 -30.4209 -30.4209
   -20.3317 -20.3317 -20.3316 -20.3316 -20.3316 -20.3316 -20.3315 -20.3315
   -20.3104 -20.3104 -20.3101 -20.3101 -20.3101 -20.3101 -20.3098 -20.3098
   -20.3082 -20.3082 -20.3080 -20.3080 -20.3077 -20.3077 -20.3077 -20.3077
   -20.3068 -20.3068 -20.3066 -20.3066 -20.3065 -20.3065 -20.3063 -20.3063
   -20.2997 -20.2997 -20.2994 -20.2993 -20.2993 -20.2993 -20.2990 -20.2990
   -20.2971 -20.2971 -20.2969 -20.2969 -20.2969 -20.2968 -20.2967 -20.2967
   -20.2917 -20.2917 -20.2912 -20.2912 -20.2912 -20.2912 -20.2907 -20.2907
    -9.7565  -9.7565  -9.3752  -9.3752  -9.2749  -9.2749  -9.0461  -9.0461
    -8.4751  -8.4751  -8.4277  -8.4277  -8.4163  -8.4163  -8.4152  -8.4152
    -7.8991  -7.8991  -7.7665  -7.7665  -7.7619  -7.7619  -7.6401  -7.6401
     1.2122   1.2122   1.2387   1.2387   1.4904   1.4904   1.7398   1.7398
     2.4759   2.4760   3.1837   3.1837   3.2018   3.2018   3.2636   3.2636
     3.2802   3.2802   3.3244   3.3244   3.4808   3.4808   3.5313   3.5313
     3.7103   3.7103   4.4016   4.4016   4.8509   4.8509   4.9773   4.9774
     5.1448   5.1448   5.2078   5.2078   5.3589   5.3589   5.4765   5.4765
     5.7139   5.7139   5.7601   5.7601   6.1028   6.1029   6.1126   6.1126
     6.3814   6.3814   6.4046   6.4046   6.7048   6.7048   6.9014   6.9014
     6.9938   6.9938   7.1198   7.1198   7.1840   7.1840   7.4630   7.4630
     7.4840   7.4840   7.5128   7.5128   7.5304   7.5304   7.8315   7.8315
     9.5906   9.5906  11.2178  11.2178  11.2903  11.2903  11.3396  11.3396
    11.4174  11.4174  12.2313  12.2313  12.3870  12.3870  12.9762  12.9762
    13.3911  13.3911  13.4906  13.4906  13.5839  13.5839  13.6208  13.6209
    15.4103  15.4103  15.6309  15.6309  15.6648  15.6648  15.9599  15.9599
    16.5776  16.5776  17.9010  17.9011  18.0512

          k = 0.0000-0.4725 0.3333 ( 62268 PWs)   bands (ev):

   -66.1725 -66.1725 -66.1720 -66.1720 -66.1715 -66.1715 -66.1710 -66.1710
   -30.5297 -30.5297 -30.5271 -30.5271 -30.5240 -30.5239 -30.5226 -30.5226
   -30.5209 -30.5209 -30.5198 -30.5198 -30.5004 -30.5004 -30.4957 -30.4957
   -30.4509 -30.4509 -30.4463 -30.4463 -30.4240 -30.4239 -30.4217 -30.4217
   -20.3317 -20.3317 -20.3316 -20.3316 -20.3316 -20.3316 -20.3315 -20.3315
   -20.3104 -20.3103 -20.3102 -20.3102 -20.3101 -20.3101 -20.3099 -20.3099
   -20.3080 -20.3080 -20.3078 -20.3078 -20.3078 -20.3078 -20.3075 -20.3075
   -20.3070 -20.3070 -20.3068 -20.3068 -20.3064 -20.3064 -20.3063 -20.3063
   -20.2996 -20.2996 -20.2994 -20.2994 -20.2987 -20.2987 -20.2984 -20.2983
   -20.2975 -20.2975 -20.2972 -20.2972 -20.2959 -20.2959 -20.2959 -20.2959
   -20.2929 -20.2929 -20.2925 -20.2925 -20.2911 -20.2911 -20.2908 -20.2908
    -9.6305  -9.6305  -9.4223  -9.4223  -9.0291  -9.0291  -8.9029  -8.9029
    -8.5134  -8.5134  -8.4604  -8.4604  -8.4108  -8.4108  -8.3949  -8.3949
    -8.1922  -8.1922  -8.0807  -8.0807  -7.7364  -7.7363  -7.6655  -7.6655
     1.2537   1.2537   1.2729   1.2729   2.1847   2.1847   2.3838   2.3838
     2.7385   2.7385   3.1925   3.1925   3.2296   3.2296   3.2506   3.2506
     3.2668   3.2668   3.4052   3.4052   3.4672   3.4672   3.6803   3.6803
     3.7626   3.7626   3.7813   3.7813   4.4765   4.4765   4.6343   4.6343
     4.7826   4.7826   4.8294   4.8294   5.1685   5.1685   5.2593   5.2593
     5.3973   5.3973   5.6370   5.6371   6.1694   6.1694   6.2422   6.2422
     6.5145   6.5145   6.6450   6.6450   6.6768   6.6768   6.8214   6.8214
     6.9789   6.9789   7.1860   7.1860   7.1902   7.1902   7.4391   7.4391
     7.4713   7.4713   7.5033   7.5033   7.5082   7.5082   7.7707   7.7707
    10.3466  10.3466  11.2320  11.2321  11.2718  11.2718  11.7223  11.7223
    11.7679  11.7679  11.8370  11.8371  12.5567  12.5567  12.7590  12.7591
    12.9151  12.9151  13.2078  13.2078  13.5902  13.5902  13.6143  13.6143
    15.4395  15.4395  15.6112  15.6112  16.2497  16.2497  16.6808  16.6808
    16.7997  16.7997  17.3830  17.3830  17.8845

          k = 0.0000-0.4725-0.5000 ( 62284 PWs)   bands (ev):

   -66.1723 -66.1723 -66.1723 -66.1723 -66.1713 -66.1713 -66.1712 -66.1712
   -30.5284 -30.5284 -30.5284 -30.5284 -30.5225 -30.5225 -30.5225 -30.5225
   -30.5211 -30.5211 -30.5211 -30.5211 -30.4759 -30.4759 -30.4758 -30.4758
   -30.4711 -30.4711 -30.4711 -30.4711 -30.4228 -30.4228 -30.4228 -30.4228
   -20.3316 -20.3316 -20.3316 -20.3316 -20.3316 -20.3316 -20.3316 -20.3316
   -20.3103 -20.3103 -20.3103 -20.3103 -20.3100 -20.3100 -20.3100 -20.3100
   -20.3079 -20.3079 -20.3079 -20.3079 -20.3074 -20.3074 -20.3074 -20.3074
   -20.3071 -20.3071 -20.3071 -20.3071 -20.3064 -20.3064 -20.3064 -20.3064
   -20.2995 -20.2995 -20.2995 -20.2995 -20.2980 -20.2980 -20.2980 -20.2980
   -20.2977 -20.2977 -20.2977 -20.2977 -20.2945 -20.2945 -20.2945 -20.2945
   -20.2942 -20.2942 -20.2942 -20.2942 -20.2910 -20.2910 -20.2910 -20.2910
    -9.5064  -9.5064  -9.5064  -9.5064  -8.7027  -8.7027  -8.7027  -8.7027
    -8.6464  -8.6463  -8.6463  -8.6463  -8.3806  -8.3806  -8.3806  -8.3806
    -8.3274  -8.3274  -8.3274  -8.3274  -7.7006  -7.7006  -7.7006  -7.7006
     1.2706   1.2706   1.2706   1.2706   2.9837   2.9837   2.9837   2.9837
     3.1292   3.1292   3.1292   3.1292   3.2166   3.2166   3.2166   3.2166
     3.2641   3.2641   3.2641   3.2641   3.4295   3.4295   3.4295   3.4295
     3.6106   3.6106   3.6106   3.6106   4.3017   4.3018   4.3018   4.3018
     4.4142   4.4142   4.4142   4.4142   5.2129   5.2129   5.2129   5.2129
     5.5001   5.5001   5.5002   5.5002   6.3086   6.3086   6.3086   6.3086
     6.4875   6.4875   6.4875   6.4875   6.6257   6.6257   6.6258   6.6258
     7.2927   7.2927   7.2927   7.2927   7.3765   7.3765   7.3765   7.3765
     7.4613   7.4613   7.4613   7.4613   7.5828   7.5828   7.5828   7.5828
    11.1313  11.1313  11.1313  11.1313  11.2735  11.2735  11.2735  11.2735
    12.2690  12.2691  12.2691  12.2691  12.2968  12.2968  12.2968  12.2968
    12.8605  12.8605  12.8605  12.8605  13.6025  13.6025  13.6025  13.6025
    15.5263  15.5263  15.5263  15.5263  16.8813  16.8813  16.8813  16.8814
    17.3491  17.3491  17.3491  17.3492  17.4761

          k = 0.1667 0.0000 0.1667 ( 62234 PWs)   bands (ev):

   -66.1728 -66.1724 -66.1720 -66.1720 -66.1716 -66.1716 -66.1711 -66.1707
   -30.5558 -30.5525 -30.5524 -30.5491 -30.5230 -30.5217 -30.5193 -30.5185
   -30.5182 -30.5165 -30.5142 -30.5136 -30.4937 -30.4929 -30.4924 -30.4915
   -30.4335 -30.4329 -30.4310 -30.4302 -30.4296 -30.4289 -30.4270 -30.4262
   -20.3317 -20.3316 -20.3316 -20.3316 -20.3316 -20.3316 -20.3316 -20.3315
   -20.3130 -20.3128 -20.3128 -20.3125 -20.3085 -20.3083 -20.3082 -20.3081
   -20.3080 -20.3079 -20.3077 -20.3074 -20.3073 -20.3072 -20.3072 -20.3070
   -20.3070 -20.3069 -20.3068 -20.3068 -20.3063 -20.3062 -20.3060 -20.3060
   -20.2998 -20.2996 -20.2994 -20.2993 -20.2991 -20.2989 -20.2987 -20.2985
   -20.2970 -20.2969 -20.2969 -20.2968 -20.2968 -20.2968 -20.2967 -20.2966
   -20.2921 -20.2919 -20.2915 -20.2915 -20.2914 -20.2913 -20.2910 -20.2909
    -9.8713  -9.5977  -9.4776  -9.4760  -9.2141  -9.2109  -9.0642  -9.0147
    -9.0016  -8.8486  -8.8316  -8.8306  -7.9043  -7.9028  -7.8841  -7.8833
    -7.8413  -7.8062  -7.7758  -7.7706  -7.7656  -7.7586  -7.7420  -7.7232
     1.3838   1.3844   1.4312   1.4335   1.4369   1.4990   1.5030   1.6322
     1.6867   1.6889   1.8437   2.0156   2.5281   2.6105   2.6727   2.6732
     2.7865   2.8154   4.0749   4.0882   4.2814   4.2825   4.4544   4.4551
     4.4886   4.4895   4.6810   4.6838   4.7275   4.8099   5.0214   5.2236
     5.2708   5.2990   5.3543   5.4959   5.4999   5.6122   5.6133   5.7030
     5.7032   5.7376   5.7382   5.7789   5.8402   6.0047   6.3215   6.4275
     6.4353   6.4931   6.5122   6.6505   6.6722   6.6882   6.7128   6.7280
     6.7285   6.8325   6.8336   6.8590   6.8872   6.9835   6.9850   7.0939
     7.2665   7.3253   7.8232   7.8243   8.0443   8.0868   8.1100   8.1130
     9.8061   9.8688  10.2084  10.2140  10.2201  10.3090  12.2472  12.2526
    12.2757  12.2780  12.3080  12.3480  12.5665  12.5690  12.9624  12.9771
    13.0306  13.0872  13.1802  13.3558  13.9550  13.9800  14.0042  14.0562
    14.0743  14.4552  14.4638  15.1404  15.3817  15.5554  15.5695  16.3751
    16.3756  17.0002  17.0011  17.1811  17.5922

          k = 0.1667 0.0000 0.3333 ( 62265 PWs)   bands (ev):

   -66.1726 -66.1723 -66.1721 -66.1718 -66.1717 -66.1714 -66.1713 -66.1709
   -30.5555 -30.5534 -30.5521 -30.5500 -30.5208 -30.5189 -30.5169 -30.5149
   -30.5070 -30.5035 -30.4997 -30.4953 -30.4936 -30.4927 -30.4901 -30.4894
   -30.4516 -30.4494 -30.4476 -30.4454 -30.4320 -30.4298 -30.4293 -30.4270
   -20.3317 -20.3316 -20.3316 -20.3316 -20.3316 -20.3316 -20.3316 -20.3315
   -20.3130 -20.3128 -20.3128 -20.3126 -20.3082 -20.3082 -20.3080 -20.3080
   -20.3079 -20.3077 -20.3077 -20.3075 -20.3074 -20.3073 -20.3072 -20.3072
   -20.3070 -20.3069 -20.3068 -20.3067 -20.3065 -20.3062 -20.3062 -20.3060
   -20.2996 -20.2995 -20.2991 -20.2991 -20.2986 -20.2985 -20.2982 -20.2980
   -20.2974 -20.2973 -20.2971 -20.2971 -20.2961 -20.2959 -20.2958 -20.2956
   -20.2932 -20.2927 -20.2927 -20.2923 -20.2918 -20.2915 -20.2913 -20.2911
    -9.7481  -9.5275  -9.4589  -9.3158  -9.2535  -9.0962  -8.9549  -8.9141
    -8.8651  -8.8430  -8.7918  -8.7285  -8.2111  -8.2096  -8.1392  -8.1164
    -7.8747  -7.8592  -7.8124  -7.8059  -7.7766  -7.7732  -7.7574  -7.7324
     1.4265   1.4303   1.5190   1.5306   1.5749   1.6150   1.6292   1.6851
     2.2060   2.2452   2.3903   2.4761   2.6957   2.7720   2.8099   2.8960
     2.9125   3.0416   3.7646   3.8549   3.8711   3.9197   4.1684   4.2463
     4.2686   4.4609   4.5156   4.5601   4.6286   4.6762   4.7306   4.8807
     4.9669   5.0241   5.0660   5.1757   5.2650   5.3654   5.5576   5.6484
     5.7234   5.7383   5.7825   5.8479   5.8579   6.0094   6.1276   6.1654
     6.4242   6.4496   6.5187   6.5701   6.5978   6.6382   6.6872   6.7001
     6.7912   6.8589   6.8659   6.8807   7.1132   7.1176   7.1388   7.2021
     7.3210   7.3754   7.7591   7.7733   7.9358   7.9749   8.1008   8.1122
    10.2034  10.2156  10.4625  10.5145  10.8472  10.9564  11.8659  11.9037
    12.1282  12.4034  12.4218  12.5021  12.5360  12.5679  12.7320  12.8210
    12.9137  13.0158  13.0667  13.2730  13.6472  13.6633  13.9864  14.0113
    14.2495  14.4367  14.7688  15.2756  15.4512  15.8299  16.0038  16.2799
    16.4346  17.2408  17.4649  17.5374  17.6323

          k = 0.1667 0.0000-0.5000 ( 62322 PWs)   bands (ev):

   -66.1724 -66.1724 -66.1720 -66.1720 -66.1715 -66.1715 -66.1711 -66.1711
   -30.5545 -30.5545 -30.5512 -30.5512 -30.5196 -30.5196 -30.5161 -30.5161
   -30.4960 -30.4960 -30.4954 -30.4954 -30.4751 -30.4751 -30.4745 -30.4745
   -30.4715 -30.4715 -30.4703 -30.4703 -30.4309 -30.4309 -30.4282 -30.4282
   -20.3317 -20.3317 -20.3316 -20.3316 -20.3316 -20.3316 -20.3315 -20.3315
   -20.3129 -20.3129 -20.3127 -20.3127 -20.3081 -20.3081 -20.3079 -20.3079
   -20.3077 -20.3077 -20.3076 -20.3076 -20.3075 -20.3075 -20.3074 -20.3073
   -20.3069 -20.3069 -20.3067 -20.3067 -20.3065 -20.3065 -20.3061 -20.3061
   -20.2995 -20.2995 -20.2991 -20.2991 -20.2979 -20.2979 -20.2979 -20.2979
   -20.2976 -20.2976 -20.2975 -20.2975 -20.2947 -20.2947 -20.2944 -20.2944
   -20.2943 -20.2943 -20.2940 -20.2940 -20.2917 -20.2917 -20.2912 -20.2912
    -9.6193  -9.6193  -9.3321  -9.3321  -9.1704  -9.1704  -8.8638  -8.8638
    -8.5913  -8.5913  -8.5879  -8.5879  -8.5357  -8.5357  -8.4746  -8.4746
    -7.8407  -7.8407  -7.8273  -7.8273  -7.7836  -7.7836  -7.7450  -7.7450
     1.4278   1.4278   1.5366   1.5366   1.5972   1.5972   1.6785   1.6785
     2.7207   2.7207   2.9645   2.9645   3.0508   3.0508   3.1695   3.1695
     3.2535   3.2535   3.3677   3.3677   3.4665   3.4665   3.7677   3.7677
     3.8725   3.8725   4.3736   4.3736   4.5580   4.5580   4.8493   4.8493
     4.9926   4.9926   5.0115   5.0115   5.2217   5.2217   5.6434   5.6434
     5.7652   5.7652   5.8142   5.8142   5.8702   5.8702   5.9954   5.9954
     6.3550   6.3550   6.4639   6.4639   6.6845   6.6845   6.7226   6.7226
     6.7931   6.7931   6.9512   6.9512   7.0042   7.0042   7.5187   7.5187
     7.5565   7.5565   7.7013   7.7013   7.7222   7.7222   8.1114   8.1114
    10.2204  10.2204  11.1948  11.1948  11.2586  11.2586  11.5705  11.5705
    11.7590  11.7590  12.5905  12.5905  12.6489  12.6489  12.6902  12.6902
    12.9032  12.9032  13.2179  13.2179  13.3329  13.3329  13.9962  13.9962
    14.3777  14.3777  15.0754  15.0755  15.8905  15.8905  16.1053  16.1053
    16.7858  16.7858  17.8796  17.8796  17.9177

          k = 0.1667 0.1575 0.1667 ( 62255 PWs)   bands (ev):

   -66.1728 -66.1725 -66.1719 -66.1719 -66.1716 -66.1716 -66.1710 -66.1707
   -30.5520 -30.5487 -30.5486 -30.5452 -30.5229 -30.5216 -30.5196 -30.5186
   -30.5182 -30.5163 -30.5145 -30.5138 -30.4973 -30.4967 -30.4961 -30.4953
   -30.4334 -30.4327 -30.4312 -30.4304 -30.4294 -30.4287 -30.4272 -30.4264
   -20.3317 -20.3316 -20.3316 -20.3316 -20.3316 -20.3316 -20.3315 -20.3315
   -20.3127 -20.3124 -20.3124 -20.3122 -20.3085 -20.3084 -20.3082 -20.3081
   -20.3081 -20.3080 -20.3078 -20.3075 -20.3075 -20.3074 -20.3073 -20.3071
   -20.3070 -20.3069 -20.3069 -20.3067 -20.3063 -20.3063 -20.3061 -20.3061
   -20.2997 -20.2996 -20.2994 -20.2993 -20.2991 -20.2989 -20.2988 -20.2985
   -20.2970 -20.2969 -20.2969 -20.2968 -20.2968 -20.2968 -20.2967 -20.2966
   -20.2920 -20.2918 -20.2916 -20.2915 -20.2914 -20.2913 -20.2910 -20.2909
    -9.8428  -9.6085  -9.4424  -9.4406  -9.2213  -9.2181  -9.0139  -9.0037
    -8.9894  -8.8021  -8.7921  -8.7912  -7.9318  -7.9067  -7.9052  -7.8974
    -7.8944  -7.8496  -7.8493  -7.8461  -7.8029  -7.7706  -7.7616  -7.7439
     1.3839   1.3843   1.4699   1.4730   1.4989   1.5026   1.6070   1.8313
     1.8427   1.8868   1.8881   2.1224   2.5346   2.6054   2.7455   2.7458
     2.8576   2.8798   3.9728   4.0017   4.0881   4.0907   4.4277   4.4299
     4.4914   4.4928   4.6889   4.7102   4.7289   4.7796   4.8073   5.1864
     5.1998   5.2519   5.2571   5.3310   5.3382   5.5724   5.5733   5.6446
     5.7230   5.7257   5.7958   5.8068   5.8072   5.8890   6.3347   6.3596
     6.3626   6.4838   6.5034   6.6438   6.6534   6.7084   6.7632   6.7918
     6.7933   6.8323   6.8611   6.8621   6.9480   6.9640   6.9675   7.1001
     7.2704   7.3242   7.8238   7.8250   7.9913   8.0331   8.0355   8.0372
     9.8213   9.8664  10.3623  10.3826  10.3853  10.4462  12.1916  12.2304
    12.2580  12.2614  12.2642  12.2680  12.4302  12.4318  12.9541  12.9967
    13.0697  13.1049  13.1893  13.3622  13.8868  13.8976  13.9050  13.9697
    14.3789  14.7625  14.7651  15.2699  15.5562  15.5686  15.7887  16.3397
    16.3406  16.8485  17.1020  17.1031  17.6394

          k = 0.1667 0.1575 0.3333 ( 62260 PWs)   bands (ev):

   -66.1726 -66.1723 -66.1721 -66.1718 -66.1717 -66.1714 -66.1712 -66.1709
   -30.5517 -30.5496 -30.5483 -30.5462 -30.5207 -30.5191 -30.5168 -30.5152
   -30.5077 -30.5048 -30.4998 -30.4973 -30.4965 -30.4955 -30.4929 -30.4917
   -30.4515 -30.4496 -30.4475 -30.4455 -30.4318 -30.4296 -30.4294 -30.4272
   -20.3317 -20.3316 -20.3316 -20.3316 -20.3316 -20.3316 -20.3316 -20.3315
   -20.3127 -20.3125 -20.3124 -20.3122 -20.3083 -20.3081 -20.3081 -20.3081
   -20.3080 -20.3078 -20.3078 -20.3076 -20.3075 -20.3075 -20.3072 -20.3072
   -20.3072 -20.3070 -20.3068 -20.3068 -20.3066 -20.3063 -20.3062 -20.3061
   -20.2996 -20.2995 -20.2991 -20.2991 -20.2986 -20.2985 -20.2982 -20.2980
   -20.2974 -20.2973 -20.2971 -20.2971 -20.2961 -20.2959 -20.2959 -20.2957
   -20.2932 -20.2927 -20.2927 -20.2923 -20.2918 -20.2915 -20.2913 -20.2911
    -9.7165  -9.4925  -9.4694  -9.2668  -9.2610  -9.0237  -8.9624  -8.9033
    -8.8663  -8.8041  -8.7583  -8.7032  -8.2165  -8.2075  -8.1521  -8.1141
    -7.9015  -7.8913  -7.8709  -7.8630  -7.8368  -7.8341  -7.8009  -7.7786
     1.4829   1.4975   1.5188   1.5303   1.7692   1.7815   1.8541   1.8829
     2.2047   2.2609   2.3910   2.4961   2.7673   2.8041   2.8525   2.8953
     2.9861   3.1009   3.7609   3.8446   3.8639   3.8824   4.0747   4.1466
     4.2413   4.3443   4.5274   4.5704   4.6395   4.6693   4.7041   4.7494
     4.8735   4.8877   4.9246   5.1439   5.1748   5.2114   5.3165   5.6126
     5.6211   5.6697   5.7392   5.7906   5.8435   5.8614   6.1202   6.1638
     6.3599   6.5200   6.5225   6.6414   6.7017   6.7048   6.7333   6.7519
     6.8405   6.8646   6.9012   6.9379   7.1053   7.1124   7.1322   7.2106
     7.3122   7.3695   7.7606   7.7708   7.8899   7.9159   8.0345   8.0387
    10.3331  10.3810  10.4851  10.5295  10.9618  11.0464  11.8667  11.9004
    12.0978  12.3817  12.4173  12.4280  12.4529  12.5515  12.6717  12.7025
    12.9100  13.0462  13.0490  13.2763  13.5427  13.5675  13.8982  13.9246
    14.5839  14.7435  15.1219  15.5397  15.6995  15.8246  16.0158  16.2482
    16.5383  17.2000  17.2504  17.5196  17.5804

          k = 0.1667 0.1575-0.5000 ( 62292 PWs)   bands (ev):

   -66.1724 -66.1724 -66.1720 -66.1720 -66.1715 -66.1715 -66.1711 -66.1711
   -30.5508 -30.5508 -30.5474 -30.5473 -30.5196 -30.5196 -30.5163 -30.5163
   -30.4993 -30.4993 -30.4988 -30.4988 -30.4754 -30.4754 -30.4747 -30.4747
   -30.4716 -30.4716 -30.4705 -30.4705 -30.4307 -30.4307 -30.4284 -30.4284
   -20.3317 -20.3317 -20.3316 -20.3316 -20.3316 -20.3316 -20.3315 -20.3315
   -20.3126 -20.3126 -20.3123 -20.3123 -20.3082 -20.3082 -20.3080 -20.3080
   -20.3078 -20.3078 -20.3077 -20.3077 -20.3075 -20.3075 -20.3074 -20.3074
   -20.3070 -20.3070 -20.3068 -20.3068 -20.3066 -20.3066 -20.3062 -20.3062
   -20.2995 -20.2995 -20.2991 -20.2991 -20.2979 -20.2979 -20.2979 -20.2979
   -20.2976 -20.2976 -20.2975 -20.2975 -20.2947 -20.2947 -20.2944 -20.2944
   -20.2944 -20.2944 -20.2941 -20.2941 -20.2916 -20.2916 -20.2912 -20.2912
    -9.5852  -9.5852  -9.3413  -9.3413  -9.1038  -9.1038  -8.8289  -8.8289
    -8.5942  -8.5942  -8.5903  -8.5903  -8.5343  -8.5343  -8.4672  -8.4672
    -7.8936  -7.8936  -7.8542  -7.8542  -7.8353  -7.8353  -7.8081  -7.8081
     1.4951   1.4951   1.5363   1.5363   1.7960   1.7960   1.8796   1.8796
     2.7873   2.7873   2.9818   2.9818   3.0591   3.0591   3.1892   3.1892
     3.2571   3.2571   3.3739   3.3739   3.4582   3.4582   3.7743   3.7743
     3.9232   3.9233   4.2250   4.2250   4.5705   4.5705   4.6470   4.6470
     4.9100   4.9100   4.9729   4.9729   5.0684   5.0684   5.4385   5.4385
     5.7029   5.7029   5.7432   5.7432   5.8600   5.8600   5.8724   5.8724
     6.4737   6.4737   6.6186   6.6186   6.6561   6.6561   6.7718   6.7718
     6.8866   6.8866   6.9074   6.9074   7.0343   7.0343   7.5199   7.5199
     7.5511   7.5511   7.6719   7.6719   7.6905   7.6906   8.0398   8.0398
    10.3816  10.3816  11.2004  11.2004  11.2575  11.2575  11.6371  11.6371
    11.8199  11.8199  12.4578  12.4578  12.6296  12.6296  12.6828  12.6828
    12.8809  12.8809  13.1147  13.1147  13.2795  13.2795  13.9073  13.9073
    14.6957  14.6957  15.4550  15.4550  16.0037  16.0037  16.0843  16.0843
    16.8176  16.8176  17.6843  17.6843  17.9458

          k = 0.1667 0.3150 0.1667 ( 62249 PWs)   bands (ev):

   -66.1727 -66.1725 -66.1719 -66.1719 -66.1717 -66.1717 -66.1710 -66.1708
   -30.5419 -30.5385 -30.5383 -30.5347 -30.5231 -30.5215 -30.5210 -30.5189
   -30.5181 -30.5157 -30.5154 -30.5140 -30.5068 -30.5062 -30.5059 -30.5057
   -30.4329 -30.4322 -30.4316 -30.4309 -30.4290 -30.4283 -30.4276 -30.4269
   -20.3317 -20.3317 -20.3316 -20.3316 -20.3316 -20.3316 -20.3315 -20.3315
   -20.3117 -20.3114 -20.3114 -20.3112 -20.3091 -20.3088 -20.3088 -20.3085
   -20.3083 -20.3081 -20.3079 -20.3078 -20.3078 -20.3077 -20.3075 -20.3074
   -20.3069 -20.3068 -20.3067 -20.3067 -20.3065 -20.3064 -20.3063 -20.3062
   -20.2997 -20.2996 -20.2994 -20.2992 -20.2992 -20.2990 -20.2988 -20.2986
   -20.2970 -20.2970 -20.2969 -20.2968 -20.2968 -20.2968 -20.2967 -20.2966
   -20.2919 -20.2917 -20.2917 -20.2915 -20.2913 -20.2913 -20.2911 -20.2910
    -9.7739  -9.6419  -9.3633  -9.3610  -9.2447  -9.2417  -9.0115  -9.0051
    -8.7826  -8.6594  -8.6590  -8.6577  -8.1693  -8.1280  -8.1277  -8.1084
    -7.8958  -7.8945  -7.8813  -7.8802  -7.7992  -7.7853  -7.7582  -7.7478
     1.3839   1.3841   1.4911   1.4946   1.4983   1.5020   1.7882   1.8392
     2.3940   2.5124   2.5140   2.5503   2.5813   2.6796   2.9668   2.9679
     3.0700   3.0798   3.6588   3.6633   3.6730   3.7213   4.1352   4.4240
     4.4249   4.4450   4.4460   4.5404   4.5439   4.7506   4.7562   4.8516
     4.8971   4.8998   5.1053   5.1334   5.3382   5.3773   5.4233   5.4236
     5.6368   5.6603   5.7313   5.7325   5.8073   5.8078   6.3691   6.3784
     6.4205   6.4723   6.4878   6.6177   6.6876   6.7149   6.8541   6.8560
     6.9140   6.9150   6.9917   7.0040   7.0909   7.1048   7.1067   7.1375
     7.2951   7.3298   7.8047   7.8074   7.8137   7.8215   7.8296   7.8606
     9.8420   9.8615  10.7720  10.8220  10.8301  10.8432  11.8445  11.8912
    11.9727  11.9740  12.2699  12.2709  12.3036  12.3044  12.9595  13.0088
    13.1913  13.2004  13.2549  13.4116  13.6563  13.6626  13.6696  13.7618
    15.0920  15.4131  15.4168  15.5600  15.5658  15.7738  16.2162  16.2175
    16.2909  16.7845  17.3608  17.4422  17.4434

          k = 0.1667 0.3150 0.3333 ( 62265 PWs)   bands (ev):

   -66.1725 -66.1723 -66.1720 -66.1718 -66.1717 -66.1715 -66.1712 -66.1710
   -30.5415 -30.5394 -30.5380 -30.5357 -30.5208 -30.5207 -30.5164 -30.5159
   -30.5123 -30.5104 -30.5070 -30.5067 -30.5001 -30.4982 -30.4958 -30.4951
   -30.4512 -30.4500 -30.4472 -30.4460 -30.4313 -30.4300 -30.4291 -30.4277
   -20.3317 -20.3316 -20.3316 -20.3316 -20.3316 -20.3316 -20.3316 -20.3315
   -20.3117 -20.3115 -20.3114 -20.3113 -20.3091 -20.3089 -20.3088 -20.3086
   -20.3080 -20.3080 -20.3078 -20.3077 -20.3077 -20.3076 -20.3075 -20.3073
   -20.3072 -20.3070 -20.3068 -20.3067 -20.3067 -20.3065 -20.3063 -20.3062
   -20.2995 -20.2994 -20.2992 -20.2992 -20.2986 -20.2985 -20.2982 -20.2981
   -20.2974 -20.2973 -20.2971 -20.2971 -20.2960 -20.2959 -20.2958 -20.2957
   -20.2931 -20.2928 -20.2926 -20.2924 -20.2917 -20.2915 -20.2914 -20.2912
    -9.6409  -9.5025  -9.4124  -9.2871  -9.1506  -8.9884  -8.8874  -8.8720
    -8.8169  -8.6754  -8.6347  -8.6069  -8.2544  -8.2465  -8.2009  -8.1270
    -8.1191  -8.1064  -8.0839  -8.0264  -7.8676  -7.8546  -7.7978  -7.7863
     1.5096   1.5180   1.5232   1.5298   2.1417   2.2008   2.2515   2.3884
     2.4026   2.5120   2.5221   2.6969   2.8277   2.8936   2.9835   3.0610
     3.2092   3.2877   3.6350   3.6489   3.7086   3.7399   3.8407   3.9196
     4.1133   4.3039   4.3875   4.4117   4.4820   4.5575   4.5702   4.6061
     4.6609   4.7894   4.8191   4.8772   4.9075   4.9620   5.1222   5.1428
     5.3113   5.3279   5.4559   5.6129   5.7573   5.8148   6.1494   6.1650
     6.5099   6.5963   6.6218   6.7432   6.8022   6.8260   6.9179   6.9633
     7.0008   7.0205   7.0443   7.0581   7.1290   7.1548   7.1856   7.2591
     7.2855   7.3539   7.7319   7.7364   7.7538   7.7676   7.8207   7.8466
    10.4582  10.4926  10.8204  10.8301  11.2776  11.3205  11.8419  11.8714
    11.8816  12.0367  12.1661  12.1975  12.4333  12.5198  12.6452  12.6967
    12.8702  13.0532  13.1113  13.3200  13.3290  13.3564  13.6663  13.7091
    15.2842  15.3942  15.7951  15.9331  15.9960  16.0728  16.1405  16.6650
    16.7420  16.8688  17.0671  17.5668  17.6929

          k = 0.1667 0.3150-0.5000 ( 62264 PWs)   bands (ev):

   -66.1723 -66.1723 -66.1721 -66.1721 -66.1714 -66.1714 -66.1712 -66.1712
   -30.5405 -30.5405 -30.5369 -30.5369 -30.5204 -30.5204 -30.5165 -30.5165
   -30.5088 -30.5088 -30.5081 -30.5081 -30.4757 -30.4757 -30.4751 -30.4751
   -30.4717 -30.4717 -30.4709 -30.4709 -30.4302 -30.4302 -30.4289 -30.4289
   -20.3317 -20.3317 -20.3316 -20.3316 -20.3316 -20.3316 -20.3315 -20.3315
   -20.3116 -20.3116 -20.3114 -20.3114 -20.3090 -20.3090 -20.3087 -20.3087
   -20.3079 -20.3079 -20.3077 -20.3077 -20.3075 -20.3075 -20.3074 -20.3073
   -20.3072 -20.3072 -20.3070 -20.3069 -20.3066 -20.3066 -20.3063 -20.3063
   -20.2994 -20.2994 -20.2992 -20.2992 -20.2979 -20.2979 -20.2979 -20.2979
   -20.2976 -20.2976 -20.2975 -20.2975 -20.2947 -20.2947 -20.2945 -20.2944
   -20.2943 -20.2943 -20.2941 -20.2941 -20.2916 -20.2916 -20.2913 -20.2913
    -9.5053  -9.5053  -9.3707  -9.3707  -8.9255  -8.9255  -8.7290  -8.7290
    -8.6153  -8.6153  -8.6004  -8.6004  -8.5111  -8.5110  -8.4359  -8.4359
    -8.1234  -8.1234  -8.0925  -8.0925  -7.8326  -7.8326  -7.8203  -7.8203
     1.5265   1.5265   1.5356   1.5356   2.3918   2.3918   2.5027   2.5027
     2.9643   2.9643   3.0429   3.0429   3.0586   3.0586   3.2385   3.2385
     3.2736   3.2736   3.4014   3.4014   3.4261   3.4261   3.6627   3.6627
     4.0607   4.0607   4.1031   4.1031   4.1060   4.1060   4.3661   4.3661
     4.7352   4.7352   4.8027   4.8027   4.9861   4.9861   5.0146   5.0146
     5.0996   5.0996   5.5238   5.5238   5.8610   5.8610   5.8798   5.8798
     6.6578   6.6578   6.7784   6.7784   6.8157   6.8157   6.8501   6.8501
     7.0192   7.0192   7.0697   7.0697   7.1709   7.1709   7.5129   7.5129
     7.5345   7.5345   7.5735   7.5736   7.6027   7.6027   7.8309   7.8309
    10.8047  10.8047  11.2129  11.2129  11.2570  11.2570  11.7462  11.7462
    12.0058  12.0058  12.1581  12.1581  12.5300  12.5300  12.5986  12.5986
    12.7774  12.7774  12.9063  12.9063  13.2806  13.2806  13.6826  13.6826
    15.3553  15.3553  15.9989  15.9989  16.3472  16.3472  16.4381  16.4381
    16.9473  16.9473  17.3254  17.3254  17.8914

          k = 0.1667-0.4725 0.1667 ( 62220 PWs)   bands (ev):

   -66.1726 -66.1726 -66.1718 -66.1718 -66.1718 -66.1718 -66.1709 -66.1709
   -30.5294 -30.5294 -30.5260 -30.5259 -30.5259 -30.5257 -30.5204 -30.5204
   -30.5189 -30.5188 -30.5162 -30.5162 -30.5140 -30.5140 -30.5124 -30.5124
   -30.4323 -30.4323 -30.4316 -30.4315 -30.4284 -30.4284 -30.4275 -30.4275
   -20.3317 -20.3317 -20.3316 -20.3316 -20.3316 -20.3316 -20.3315 -20.3315
   -20.3104 -20.3104 -20.3101 -20.3101 -20.3101 -20.3101 -20.3098 -20.3098
   -20.3081 -20.3081 -20.3079 -20.3079 -20.3078 -20.3077 -20.3076 -20.3076
   -20.3068 -20.3067 -20.3067 -20.3066 -20.3066 -20.3066 -20.3063 -20.3063
   -20.2996 -20.2996 -20.2993 -20.2993 -20.2991 -20.2991 -20.2987 -20.2987
   -20.2970 -20.2970 -20.2969 -20.2968 -20.2968 -20.2968 -20.2967 -20.2966
   -20.2918 -20.2918 -20.2916 -20.2916 -20.2913 -20.2913 -20.2911 -20.2911
    -9.6990  -9.6990  -9.2905  -9.2904  -9.2878  -9.2876  -9.0083  -9.0083
    -8.4824  -8.4824  -8.4224  -8.4220  -8.4218  -8.4215  -8.4151  -8.4150
    -7.8898  -7.8895  -7.8878  -7.8875  -7.7930  -7.7929  -7.7530  -7.7530
     1.3839   1.3840   1.4963   1.4968   1.5000   1.5005   1.8282   1.8283
     2.5692   2.5693   3.1932   3.1959   3.2076   3.2138   3.2634   3.2643
     3.2835   3.2846   3.3624   3.3649   3.5252   3.5279   3.5304   3.5336
     3.7297   3.7300   4.4453   4.4473   4.4889   4.4908   4.9324   4.9341
     5.0111   5.0117   5.1258   5.1281   5.1696   5.1718   5.4207   5.4210
     5.4615   5.4617   5.7393   5.7420   5.7708   5.7728   6.4273   6.4418
     6.4464   6.4636   6.5295   6.5307   6.6916   6.6940   6.8887   6.8892
     6.9000   6.9019   7.0679   7.0682   7.2530   7.2533   7.4646   7.4651
     7.4736   7.4754   7.4910   7.4930   7.5399   7.5399   7.8277   7.8279
     9.8542   9.8543  11.3178  11.3196  11.3701  11.3736  11.4090  11.4130
    11.4141  11.4163  12.2741  12.2753  12.2952  12.2963  12.9886  12.9887
    13.3883  13.3907  13.4004  13.4044  13.4225  13.4242  13.5519  13.5521
    15.5609  15.5611  15.7083  15.7093  15.9366  15.9387  15.9472  15.9485
    16.6349  16.6351  17.9104  17.9247  17.9317

          k = 0.1667-0.4725 0.3333 ( 62252 PWs)   bands (ev):

   -66.1725 -66.1724 -66.1719 -66.1719 -66.1716 -66.1716 -66.1711 -66.1711
   -30.5286 -30.5286 -30.5266 -30.5266 -30.5243 -30.5242 -30.5214 -30.5213
   -30.5162 -30.5162 -30.5140 -30.5140 -30.5001 -30.5001 -30.4960 -30.4960
   -30.4506 -30.4506 -30.4466 -30.4466 -30.4307 -30.4307 -30.4284 -30.4284
   -20.3317 -20.3317 -20.3316 -20.3316 -20.3316 -20.3316 -20.3315 -20.3315
   -20.3104 -20.3104 -20.3102 -20.3102 -20.3101 -20.3101 -20.3099 -20.3099
   -20.3079 -20.3079 -20.3077 -20.3077 -20.3076 -20.3076 -20.3075 -20.3075
   -20.3070 -20.3070 -20.3069 -20.3068 -20.3065 -20.3065 -20.3064 -20.3064
   -20.2994 -20.2994 -20.2993 -20.2993 -20.2986 -20.2986 -20.2981 -20.2981
   -20.2974 -20.2973 -20.2971 -20.2971 -20.2960 -20.2960 -20.2958 -20.2958
   -20.2930 -20.2929 -20.2925 -20.2925 -20.2916 -20.2916 -20.2913 -20.2913
    -9.5610  -9.5609  -9.3364  -9.3362  -9.0461  -9.0458  -8.8773  -8.8773
    -8.5255  -8.5249  -8.4535  -8.4517  -8.4089  -8.4078  -8.4004  -8.4004
    -8.1838  -8.1830  -8.0902  -8.0895  -7.8619  -7.8615  -7.7925  -7.7922
     1.5156   1.5165   1.5276   1.5288   2.1911   2.1918   2.3708   2.3719
     2.8408   2.8447   3.2021   3.2061   3.2270   3.2376   3.2487   3.2555
     3.2744   3.2995   3.4236   3.4582   3.5036   3.5283   3.6597   3.6684
     3.7640   3.7773   3.8453   3.9076   4.4484   4.4956   4.5815   4.5863
     4.6533   4.7124   4.7496   4.7850   4.9758   4.9822   4.9945   5.0714
     5.1523   5.2082   5.3175   5.4027   5.7651   5.7825   6.1594   6.1634
     6.5894   6.5962   6.6924   6.7084   6.8447   6.8521   6.9990   7.0569
     7.0684   7.0943   7.1696   7.1910   7.2081   7.2142   7.4356   7.4440
     7.4616   7.4712   7.4817   7.4980   7.5073   7.5297   7.7734   7.7741
    10.4820  10.4850  11.3498  11.3633  11.3877  11.3974  11.7270  11.7389
    11.7468  11.7680  11.8798  11.9297  12.4350  12.4882  12.7485  12.7774
    12.9118  12.9414  13.1023  13.1887  13.4016  13.4281  13.4533  13.5106
    15.6762  15.6937  15.8814  15.8967  16.2854  16.3114  16.6562  16.6806
    16.8328  16.8374  17.4107  17.4465  17.8575

          k = 0.1667-0.4725-0.5000 ( 62232 PWs)   bands (ev):

   -66.1722 -66.1722 -66.1722 -66.1722 -66.1713 -66.1713 -66.1713 -66.1713
   -30.5276 -30.5276 -30.5276 -30.5276 -30.5227 -30.5227 -30.5227 -30.5227
   -30.5151 -30.5151 -30.5151 -30.5151 -30.4755 -30.4755 -30.4755 -30.4755
   -30.4714 -30.4714 -30.4714 -30.4714 -30.4296 -30.4296 -30.4295 -30.4295
   -20.3316 -20.3316 -20.3316 -20.3316 -20.3316 -20.3316 -20.3316 -20.3316
   -20.3103 -20.3103 -20.3103 -20.3103 -20.3100 -20.3100 -20.3100 -20.3100
   -20.3078 -20.3078 -20.3078 -20.3077 -20.3074 -20.3074 -20.3074 -20.3074
   -20.3072 -20.3072 -20.3072 -20.3072 -20.3065 -20.3065 -20.3065 -20.3064
   -20.2993 -20.2993 -20.2993 -20.2993 -20.2979 -20.2979 -20.2979 -20.2979
   -20.2976 -20.2976 -20.2976 -20.2976 -20.2946 -20.2946 -20.2946 -20.2946
   -20.2942 -20.2942 -20.2942 -20.2942 -20.2915 -20.2915 -20.2914 -20.2914
    -9.4254  -9.4254  -9.4253  -9.4253  -8.7259  -8.7259  -8.7234  -8.7233
    -8.6287  -8.6287  -8.6245  -8.6245  -8.3801  -8.3801  -8.3751  -8.3750
    -8.3325  -8.3325  -8.3285  -8.3285  -7.8270  -7.8270  -7.8266  -7.8266
     1.5328   1.5328   1.5341   1.5341   2.9839   2.9839   2.9899   2.9899
     3.1152   3.1152   3.1461   3.1461   3.2148   3.2148   3.2427   3.2427
     3.2861   3.2861   3.3714   3.3714   3.4559   3.4559   3.4866   3.4866
     3.6335   3.6335   3.6483   3.6483   4.2986   4.2986   4.3070   4.3070
     4.4032   4.4033   4.4096   4.4096   4.8560   4.8560   5.0228   5.0228
     5.1395   5.1395   5.2932   5.2932   5.8625   5.8625   5.8740   5.8740
     6.7395   6.7395   6.7690   6.7690   6.8483   6.8483   6.8813   6.8813
     7.2754   7.2754   7.3194   7.3194   7.3621   7.3621   7.3943   7.3943
     7.4505   7.4505   7.4830   7.4830   7.5806   7.5806   7.6091   7.6091
    11.1853  11.1853  11.2170  11.2170  11.3763  11.3763  11.4353  11.4353
    12.2528  12.2528  12.2795  12.2795  12.2993  12.2993  12.3106  12.3106
    12.7537  12.7537  12.8225  12.8225  13.4172  13.4172  13.4627  13.4627
    15.7898  15.7898  15.8086  15.8086  16.9339  16.9339  16.9438  16.9438
    17.3541  17.3542  17.3691  17.3691  17.4558

          k = 0.3333 0.0000 0.3333 ( 62316 PWs)   bands (ev):

   -66.1725 -66.1721 -66.1720 -66.1720 -66.1716 -66.1716 -66.1714 -66.1711
   -30.5551 -30.5531 -30.5530 -30.5509 -30.5073 -30.5061 -30.5057 -30.5002
   -30.4991 -30.4982 -30.4971 -30.4957 -30.4939 -30.4906 -30.4894 -30.4870
   -30.4513 -30.4501 -30.4490 -30.4482 -30.4478 -30.4474 -30.4460 -30.4451
   -20.3317 -20.3316 -20.3316 -20.3316 -20.3316 -20.3316 -20.3316 -20.3315
   -20.3130 -20.3128 -20.3128 -20.3127 -20.3081 -20.3081 -20.3079 -20.3078
   -20.3078 -20.3078 -20.3076 -20.3075 -20.3074 -20.3073 -20.3072 -20.3071
   -20.3070 -20.3070 -20.3069 -20.3068 -20.3065 -20.3064 -20.3063 -20.3063
   -20.2993 -20.2991 -20.2988 -20.2988 -20.2986 -20.2986 -20.2977 -20.2977
   -20.2974 -20.2970 -20.2963 -20.2963 -20.2961 -20.2960 -20.2955 -20.2953
   -20.2935 -20.2930 -20.2929 -20.2928 -20.2927 -20.2924 -20.2923 -20.2922
    -9.6081  -9.3669  -9.3660  -9.2741  -9.1326  -9.0013  -8.9985  -8.7900
    -8.7761  -8.7749  -8.7436  -8.7421  -8.2489  -8.1929  -8.1876  -8.1871
    -8.1762  -8.1758  -8.0700  -8.0510  -7.7927  -7.7673  -7.7672  -7.7420
     1.5140   1.5541   1.5543   1.5964   2.1012   2.1076   2.2221   2.2251
     2.2610   2.2638   2.4746   2.5769   2.9264   2.9270   2.9651   3.0048
     3.1787   3.2067   3.7951   3.8008   3.8696   3.8775   4.0855   4.0855
     4.1420   4.1423   4.2103   4.3080   4.3938   4.3962   4.4640   4.4960
     4.8333   4.8442   4.8856   4.9401   5.0240   5.0257   5.1438   5.4098
     5.4134   5.4698   5.4711   5.6448   5.9087   5.9092   5.9116   6.0538
     6.4751   6.4866   6.5089   6.5098   6.5119   6.5536   6.5538   6.6287
     6.9907   7.1770   7.1787   7.1917   7.1928   7.2927   7.3390   7.3423
     7.3826   7.4918   7.7186   7.7249   7.9049   7.9797   7.9815   8.0240
    10.7104  10.8305  10.8518  10.8610  10.9330  11.1571  12.0375  12.0395
    12.0865  12.0879  12.1950  12.2798  12.5171  12.5211  12.7457  12.7931
    12.7980  12.7991  12.9437  13.0262  13.5595  13.6290  13.6311  13.7282
    14.4486  14.7209  14.7212  15.1801  15.8364  16.3677  16.4139  16.7825
    16.7828  17.2322  17.2331  17.8072  17.8314

          k = 0.3333 0.0000-0.5000 ( 62288 PWs)   bands (ev):

   -66.1722 -66.1722 -66.1718 -66.1718 -66.1717 -66.1717 -66.1713 -66.1713
   -30.5542 -30.5542 -30.5521 -30.5521 -30.5054 -30.5054 -30.4976 -30.4976
   -30.4964 -30.4964 -30.4914 -30.4914 -30.4745 -30.4745 -30.4736 -30.4736
   -30.4721 -30.4721 -30.4712 -30.4712 -30.4490 -30.4490 -30.4464 -30.4464
   -20.3317 -20.3317 -20.3316 -20.3316 -20.3316 -20.3316 -20.3315 -20.3315
   -20.3129 -20.3129 -20.3128 -20.3128 -20.3079 -20.3079 -20.3078 -20.3078
   -20.3077 -20.3077 -20.3076 -20.3076 -20.3076 -20.3075 -20.3071 -20.3071
   -20.3070 -20.3070 -20.3067 -20.3067 -20.3066 -20.3066 -20.3063 -20.3063
   -20.2991 -20.2991 -20.2988 -20.2988 -20.2982 -20.2982 -20.2981 -20.2981
   -20.2967 -20.2967 -20.2964 -20.2964 -20.2949 -20.2949 -20.2945 -20.2945
   -20.2944 -20.2944 -20.2940 -20.2940 -20.2928 -20.2928 -20.2924 -20.2924
    -9.4632  -9.4632  -9.2148  -9.2148  -9.0949  -9.0949  -8.7623  -8.7623
    -8.6408  -8.6408  -8.5700  -8.5700  -8.5119  -8.5119  -8.4782  -8.4782
    -8.1448  -8.1448  -8.1394  -8.1394  -7.7803  -7.7803  -7.7547  -7.7547
     1.5340   1.5340   1.5772   1.5772   2.2393   2.2393   2.2677   2.2677
     2.9131   2.9131   2.9999   2.9999   3.0340   3.0340   3.1884   3.1884
     3.2888   3.2888   3.5690   3.5690   3.6848   3.6848   3.8224   3.8224
     3.8583   3.8583   4.0426   4.0426   4.1773   4.1773   4.3305   4.3306
     4.6723   4.6723   4.8886   4.8886   5.0091   5.0091   5.0842   5.0842
[...]
   -20.3627 -20.3627 -20.3625 -20.3625 -20.3623 -20.3623 -20.3621 -20.3621
   -20.3548 -20.3548 -20.3546 -20.3546 -20.3534 -20.3534 -20.3534 -20.3534
   -20.3529 -20.3529 -20.3528 -20.3528 -20.3502 -20.3502 -20.3500 -20.3500
   -20.3498 -20.3498 -20.3496 -20.3496 -20.3471 -20.3471 -20.3468 -20.3468
    -9.5265  -9.5265  -9.3785  -9.3785  -8.9886  -8.9886  -8.7737  -8.7737
    -8.6355  -8.6355  -8.6136  -8.6136  -8.5398  -8.5398  -8.4661  -8.4661
    -8.1886  -8.1886  -8.1581  -8.1581  -7.8619  -7.8619  -7.8498  -7.8498
     1.5191   1.5191   1.5297   1.5297   2.3211   2.3211   2.4334   2.4334
     2.9357   2.9357   3.0200   3.0200   3.0394   3.0394   3.2202   3.2202
     3.2561   3.2561   3.3898   3.3898   3.4117   3.4117   3.6368   3.6368
     4.0129   4.0129   4.0432   4.0432   4.0863   4.0864   4.3247   4.3247
     4.6809   4.6809   4.7510   4.7510   4.9359   4.9359   4.9684   4.9684
     5.0712   5.0712   5.4649   5.4649   5.8269   5.8269   5.8418   5.8418
     6.6281   6.6281   6.7434   6.7434   6.7880   6.7880   6.8206   6.8206
     6.9769   6.9769   7.0279   7.0279   7.1316   7.1316   7.4745   7.4745
     7.5014   7.5014   7.5373   7.5373   7.5678   7.5678   7.7892   7.7892
    10.7572  10.7572  11.1539  11.1539  11.1964  11.1964  11.6913  11.6913
    11.9463  11.9463  12.1134  12.1134  12.4699  12.4699  12.5473  12.5473
    12.7099  12.7099  12.8457  12.8457  13.2091  13.2091  13.6216  13.6216
    15.2886  15.2886  15.8917  15.8917  16.3217  16.3217  16.4056  16.4056
    16.8467  16.8467  17.2662  17.2662  17.8371

          k = 0.3326 0.4734 0.1663 ( 62412 PWs)   bands (ev):

   -66.2254 -66.2254 -66.2250 -66.2250 -66.2246 -66.2246 -66.2241 -66.2241
   -30.5866 -30.5866 -30.5846 -30.5846 -30.5836 -30.5836 -30.5814 -30.5814
   -30.5599 -30.5598 -30.5574 -30.5574 -30.5421 -30.5421 -30.5380 -30.5380
   -30.4934 -30.4934 -30.4895 -30.4895 -30.4750 -30.4750 -30.4728 -30.4728
   -20.3872 -20.3872 -20.3872 -20.3872 -20.3871 -20.3871 -20.3871 -20.3871
   -20.3659 -20.3659 -20.3658 -20.3658 -20.3657 -20.3657 -20.3655 -20.3655
   -20.3637 -20.3637 -20.3634 -20.3634 -20.3632 -20.3632 -20.3629 -20.3629
   -20.3625 -20.3625 -20.3624 -20.3623 -20.3623 -20.3623 -20.3621 -20.3621
   -20.3549 -20.3549 -20.3545 -20.3545 -20.3540 -20.3540 -20.3533 -20.3533
   -20.3529 -20.3529 -20.3526 -20.3525 -20.3516 -20.3516 -20.3513 -20.3513
   -20.3485 -20.3485 -20.3480 -20.3480 -20.3470 -20.3470 -20.3468 -20.3468
    -9.5717  -9.5716  -9.3490  -9.3488  -9.0631  -9.0628  -8.8835  -8.8835
    -8.5958  -8.5950  -8.5162  -8.5147  -8.4765  -8.4756  -8.4662  -8.4661
    -8.2085  -8.2079  -8.1171  -8.1165  -7.8905  -7.8902  -7.8222  -7.8219
     1.5091   1.5098   1.5238   1.5248   2.1798   2.1805   2.3547   2.3561
     2.8476   2.8511   3.1533   3.1533   3.1829   3.1857   3.2054   3.2078
     3.2411   3.2625   3.3830   3.4238   3.4406   3.4734   3.6138   3.6235
     3.7073   3.7209   3.8391   3.9038   4.3944   4.4385   4.5526   4.5609
     4.6068   4.6668   4.7169   4.7403   4.9172   4.9466   4.9523   5.0052
     5.0869   5.1431   5.2831   5.3572   5.7258   5.7426   6.1335   6.1360
     6.5715   6.5784   6.6553   6.6695   6.8129   6.8189   6.9709   7.0276
     7.0479   7.0653   7.1267   7.1519   7.1734   7.1766   7.3906   7.4046
     7.4134   7.4370   7.4392   7.4557   7.4664   7.4909   7.7433   7.7442
    10.4290  10.4324  11.3066  11.3228  11.3399  11.3519  11.6850  11.6952
    11.7031  11.7200  11.8137  11.8663  12.3623  12.4150  12.6792  12.7064
    12.8507  12.8791  13.0357  13.1208  13.3325  13.3605  13.3829  13.4390
    15.5779  15.5949  15.7916  15.8078  16.2023  16.2267  16.5786  16.6042
    16.8137  16.8171  17.3716  17.4132  17.8374

          k =-0.4989 0.4734 0.1663 ( 62400 PWs)   bands (ev):

   -66.2252 -66.2252 -66.2252 -66.2252 -66.2244 -66.2244 -66.2244 -66.2244
   -30.5857 -30.5857 -30.5856 -30.5856 -30.5827 -30.5827 -30.5825 -30.5825
   -30.5586 -30.5586 -30.5586 -30.5586 -30.5179 -30.5179 -30.5177 -30.5177
   -30.5139 -30.5139 -30.5137 -30.5137 -30.4739 -30.4739 -30.4739 -30.4739
   -20.3872 -20.3872 -20.3872 -20.3872 -20.3871 -20.3871 -20.3871 -20.3871
   -20.3659 -20.3659 -20.3659 -20.3659 -20.3656 -20.3656 -20.3656 -20.3656
   -20.3636 -20.3636 -20.3635 -20.3635 -20.3628 -20.3628 -20.3628 -20.3628
   -20.3626 -20.3626 -20.3626 -20.3626 -20.3622 -20.3622 -20.3622 -20.3622
   -20.3547 -20.3547 -20.3547 -20.3547 -20.3534 -20.3534 -20.3534 -20.3534
   -20.3529 -20.3529 -20.3529 -20.3529 -20.3501 -20.3501 -20.3501 -20.3501
   -20.3497 -20.3497 -20.3497 -20.3497 -20.3469 -20.3469 -20.3469 -20.3469
    -9.4384  -9.4384  -9.4370  -9.4370  -8.7659  -8.7659  -8.7597  -8.7597
    -8.6523  -8.6523  -8.6460  -8.6459  -8.4415  -8.4415  -8.4308  -8.4308
    -8.3846  -8.3846  -8.3751  -8.3751  -7.8562  -7.8562  -7.8558  -7.8558
     1.5263   1.5263   1.5283   1.5283   2.9470   2.9470   2.9754   2.9754
     3.0869   3.0869   3.1063   3.1063   3.1711   3.1711   3.2282   3.2282
     3.2427   3.2427   3.3514   3.3514   3.4271   3.4271   3.4645   3.4645
     3.5536   3.5536   3.6353   3.6353   4.2453   4.2453   4.2628   4.2628
     4.3389   4.3389   4.3683   4.3683   4.8181   4.8181   4.9846   4.9846
     5.0894   5.0894   5.2406   5.2406   5.8281   5.8281   5.8393   5.8393
     6.7090   6.7090   6.7436   6.7436   6.8186   6.8186   6.8544   6.8544
     7.2356   7.2356   7.2714   7.2714   7.3162   7.3162   7.3611   7.3611
     7.4054   7.4054   7.4516   7.4516   7.5482   7.5482   7.5758   7.5758
    11.1323  11.1323  11.1608  11.1608  11.3286  11.3286  11.3841  11.3841
    12.1912  12.1912  12.2254  12.2254  12.2412  12.2412  12.2693  12.2693
    12.6821  12.6821  12.7505  12.7505  13.3491  13.3491  13.3945  13.3945
    15.6959  15.6959  15.7148  15.7148  16.8757  16.8757  16.8990  16.8990
    17.2941  17.2941  17.3213  17.3214  17.4056

          k =-0.4989 0.0000 0.3325 ( 62470 PWs)   bands (ev):

   -66.2252 -66.2252 -66.2248 -66.2248 -66.2247 -66.2247 -66.2243 -66.2243
   -30.6146 -30.6146 -30.6128 -30.6128 -30.5576 -30.5576 -30.5543 -30.5543
   -30.5405 -30.5405 -30.5393 -30.5393 -30.5180 -30.5180 -30.5160 -30.5160
   -30.5151 -30.5151 -30.5132 -30.5132 -30.4929 -30.4929 -30.4904 -30.4904
   -20.3872 -20.3872 -20.3872 -20.3872 -20.3872 -20.3872 -20.3871 -20.3871
   -20.3685 -20.3685 -20.3684 -20.3684 -20.3636 -20.3636 -20.3635 -20.3635
   -20.3632 -20.3632 -20.3631 -20.3631 -20.3629 -20.3629 -20.3629 -20.3629
   -20.3625 -20.3625 -20.3624 -20.3624 -20.3622 -20.3622 -20.3620 -20.3620
   -20.3544 -20.3544 -20.3543 -20.3543 -20.3536 -20.3536 -20.3536 -20.3536
   -20.3520 -20.3520 -20.3516 -20.3516 -20.3503 -20.3503 -20.3499 -20.3499
   -20.3499 -20.3499 -20.3495 -20.3495 -20.3484 -20.3484 -20.3478 -20.3478
    -9.5105  -9.5105  -9.2864  -9.2864  -9.1042  -9.1042  -8.8031  -8.8031
    -8.6549  -8.6549  -8.5865  -8.5865  -8.5282  -8.5282  -8.4984  -8.4984
    -8.1679  -8.1679  -8.1613  -8.1613  -7.8433  -7.8433  -7.8187  -7.8187
     1.4527   1.4527   1.4935   1.4935   2.2266   2.2266   2.2545   2.2545
     2.8781   2.8781   2.9707   2.9707   3.0074   3.0074   3.1640   3.1640
     3.2709   3.2709   3.5558   3.5558   3.6725   3.6725   3.8039   3.8039
     3.8151   3.8151   3.9957   3.9958   4.1381   4.1381   4.3145   4.3145
     4.6590   4.6590   4.8699   4.8699   4.9884   4.9884   5.0585   5.0585
     5.2137   5.2137   5.4737   5.4737   5.8720   5.8720   5.9619   5.9620
     6.3625   6.3625   6.3794   6.3794   6.4337   6.4337   6.5398   6.5398
     7.1210   7.1210   7.2586   7.2586   7.3440   7.3440   7.5144   7.5144
     7.5380   7.5380   7.6539   7.6539   7.7030   7.7030   7.9484   7.9484
    10.7938  10.7938  11.3574  11.3574  11.4375  11.4375  11.5518  11.5518
    11.7607  11.7608  12.1894  12.1894  12.3284  12.3284  12.5579  12.5579
    12.7773  12.7773  13.1351  13.1352  13.1739  13.1739  13.5945  13.5945
    14.5975  14.5975  14.9799  14.9799  16.2394  16.2394  16.6925  16.6925
    17.0395  17.0395  17.4388  17.4388  17.8868

          k =-0.4989-0.1578 0.3325 ( 62466 PWs)   bands (ev):

   -66.2252 -66.2252 -66.2248 -66.2248 -66.2247 -66.2247 -66.2244 -66.2244
   -30.6107 -30.6107 -30.6088 -30.6088 -30.5610 -30.5610 -30.5581 -30.5581
   -30.5407 -30.5407 -30.5395 -30.5395 -30.5179 -30.5179 -30.5160 -30.5160
   -30.5152 -30.5152 -30.5134 -30.5134 -30.4928 -30.4928 -30.4906 -30.4906
   -20.3872 -20.3872 -20.3872 -20.3872 -20.3872 -20.3872 -20.3871 -20.3871
   -20.3682 -20.3682 -20.3680 -20.3680 -20.3637 -20.3637 -20.3636 -20.3636
   -20.3634 -20.3634 -20.3631 -20.3631 -20.3629 -20.3629 -20.3629 -20.3629
   -20.3627 -20.3627 -20.3624 -20.3624 -20.3622 -20.3622 -20.3621 -20.3621
   -20.3544 -20.3544 -20.3543 -20.3543 -20.3536 -20.3536 -20.3536 -20.3536
   -20.3520 -20.3520 -20.3517 -20.3517 -20.3503 -20.3503 -20.3499 -20.3499
   -20.3499 -20.3499 -20.3495 -20.3495 -20.3483 -20.3483 -20.3479 -20.3479
    -9.4620  -9.4619  -9.2193  -9.2193  -9.1149  -9.1149  -8.7789  -8.7789
    -8.6629  -8.6629  -8.5842  -8.5842  -8.5267  -8.5267  -8.4947  -8.4947
    -8.1665  -8.1665  -8.1663  -8.1663  -7.9391  -7.9391  -7.9145  -7.9145
     1.6824   1.6824   1.7236   1.7236   2.2258   2.2258   2.2643   2.2643
     2.9262   2.9262   3.0043   3.0043   3.0258   3.0258   3.1739   3.1739
     3.2719   3.2719   3.5716   3.5716   3.6700   3.6700   3.7963   3.7963
     3.8616   3.8616   4.0264   4.0264   4.1382   4.1382   4.3219   4.3219
     4.5305   4.5305   4.6468   4.6468   4.9356   4.9356   4.9835   4.9835
     5.0317   5.0317   5.2619   5.2619   5.6534   5.6534   5.7376   5.7376
     6.4960   6.4960   6.5299   6.5299   6.5883   6.5883   6.7128   6.7128
     7.1247   7.1247   7.2501   7.2501   7.3430   7.3430   7.5095   7.5095
     7.5324   7.5324   7.6265   7.6265   7.6733   7.6733   7.8931   7.8931
    10.8991  10.8991  11.3738  11.3738  11.4484  11.4484  11.6139  11.6139
    11.8132  11.8132  12.2093  12.2093  12.3249  12.3249  12.5714  12.5714
    12.6516  12.6516  13.0150  13.0150  13.0548  13.0548  13.4877  13.4877
    14.9677  14.9677  15.3665  15.3665  16.3250  16.3250  16.6923  16.6923
    17.0436  17.0436  17.4520  17.4520  17.7432

          k =-0.4989-0.3156 0.3325 ( 62418 PWs)   bands (ev):

   -66.2251 -66.2251 -66.2249 -66.2249 -66.2246 -66.2246 -66.2244 -66.2244
   -30.6000 -30.6000 -30.5981 -30.5981 -30.5710 -30.5710 -30.5688 -30.5688
   -30.5409 -30.5409 -30.5400 -30.5400 -30.5176 -30.5176 -30.5163 -30.5163
   -30.5152 -30.5152 -30.5139 -30.5139 -30.4924 -30.4924 -30.4911 -30.4911
   -20.3872 -20.3872 -20.3872 -20.3872 -20.3872 -20.3872 -20.3871 -20.3871
   -20.3672 -20.3672 -20.3670 -20.3670 -20.3645 -20.3645 -20.3643 -20.3643
   -20.3635 -20.3635 -20.3631 -20.3631 -20.3629 -20.3629 -20.3628 -20.3628
   -20.3627 -20.3627 -20.3626 -20.3626 -20.3624 -20.3624 -20.3623 -20.3623
   -20.3544 -20.3544 -20.3543 -20.3543 -20.3536 -20.3536 -20.3536 -20.3536
   -20.3519 -20.3519 -20.3517 -20.3517 -20.3502 -20.3502 -20.3500 -20.3500
   -20.3498 -20.3498 -20.3496 -20.3496 -20.3482 -20.3482 -20.3480 -20.3480
    -9.3441  -9.3441  -9.1511  -9.1511  -9.0385  -9.0385  -8.7182  -8.7182
    -8.6782  -8.6782  -8.5794  -8.5794  -8.5165  -8.5165  -8.4749  -8.4749
    -8.2164  -8.2164  -8.1773  -8.1773  -8.1577  -8.1577  -8.1064  -8.1064
     2.1494   2.1494   2.2224   2.2224   2.3284   2.3284   2.4496   2.4496
     2.9973   2.9973   3.0447   3.0447   3.1385   3.1385   3.2128   3.2128
     3.3004   3.3004   3.5630   3.5630   3.6557   3.6557   3.7442   3.7442
     4.0022   4.0022   4.0425   4.0425   4.0884   4.0884   4.1897   4.1897
     4.2772   4.2772   4.4084   4.4084   4.5609   4.5609   4.7919   4.7919
     4.9063   4.9063   4.9556   4.9556   5.0036   5.0036   5.2446   5.2446
     6.8180   6.8180   6.8740   6.8740   6.9329   6.9329   6.9941   6.9941
     7.1318   7.1319   7.2310   7.2310   7.3500   7.3500   7.4643   7.4643
     7.5016   7.5016   7.5654   7.5654   7.5952   7.5952   7.7331   7.7331
    11.1781  11.1781  11.3999  11.3999  11.4825  11.4825  11.7876  11.7876
    11.9850  11.9850  12.2400  12.2400  12.2885  12.2885  12.3128  12.3128
    12.6311  12.6311  12.7278  12.7278  12.8104  12.8104  13.2286  13.2286
    15.8158  15.8158  16.3131  16.3131  16.5863  16.5863  16.6690  16.6690
    17.0736  17.0736  17.3371  17.3371  17.6074

          k =-0.4989 0.4734 0.3325 ( 62404 PWs)   bands (ev):

   -66.2250 -66.2250 -66.2250 -66.2250 -66.2245 -66.2245 -66.2245 -66.2245
   -30.5854 -30.5854 -30.5853 -30.5853 -30.5835 -30.5835 -30.5833 -30.5833
   -30.5406 -30.5406 -30.5405 -30.5405 -30.5171 -30.5171 -30.5168 -30.5168
   -30.5147 -30.5147 -30.5145 -30.5145 -30.4917 -30.4917 -30.4917 -30.4917
   -20.3872 -20.3872 -20.3872 -20.3872 -20.3871 -20.3871 -20.3871 -20.3871
   -20.3659 -20.3659 -20.3658 -20.3658 -20.3657 -20.3657 -20.3657 -20.3657
   -20.3633 -20.3633 -20.3633 -20.3633 -20.3628 -20.3628 -20.3628 -20.3628
   -20.3626 -20.3626 -20.3626 -20.3626 -20.3624 -20.3624 -20.3624 -20.3624
   -20.3544 -20.3544 -20.3543 -20.3543 -20.3536 -20.3536 -20.3536 -20.3536
   -20.3518 -20.3518 -20.3518 -20.3518 -20.3501 -20.3501 -20.3501 -20.3501
   -20.3497 -20.3497 -20.3497 -20.3497 -20.3481 -20.3481 -20.3481 -20.3481
    -9.2266  -9.2266  -9.2245  -9.2245  -8.8286  -8.8286  -8.8230  -8.8229
    -8.5951  -8.5951  -8.5890  -8.5890  -8.4352  -8.4351  -8.4260  -8.4260
    -8.3895  -8.3895  -8.3818  -8.3818  -8.1517  -8.1517  -8.1506  -8.1506
     2.2117   2.2117   2.2156   2.2156   2.9534   2.9534   2.9714   2.9714
     3.0789   3.0789   3.0871   3.0871   3.2219   3.2219   3.2458   3.2458
     3.3294   3.3294   3.3598   3.3598   3.5938   3.5938   3.6138   3.6138
     3.7216   3.7216   3.7767   3.7767   4.2044   4.2044   4.2321   4.2321
     4.2815   4.2815   4.3406   4.3406   4.4085   4.4085   4.5109   4.5109
     4.6073   4.6073   4.7558   4.7558   5.0145   5.0145   5.0299   5.0299
     6.9899   6.9899   7.0251   7.0251   7.1429   7.1429   7.1463   7.1463
     7.2361   7.2361   7.2765   7.2765   7.2990   7.2990   7.3632   7.3632
     7.4406   7.4406   7.5028   7.5028   7.5698   7.5699   7.5928   7.5928
    11.3641  11.3641  11.3958  11.3958  11.6820  11.6820  11.7506  11.7506
    12.1270  12.1270  12.1744  12.1744  12.2575  12.2575  12.2756  12.2756
    12.4299  12.4299  12.5334  12.5334  12.9054  12.9054  12.9819  12.9819
    16.4393  16.4393  16.4841  16.4841  17.0371  17.0371  17.0526  17.0526
    17.2961  17.2962  17.3503  17.3512  17.3751

     the Fermi energy is     8.9214 ev

!    total energy              =   -6261.10939777 Ry
     Harris-Foulkes estimate   =   -6261.10939777 Ry
     estimated scf accuracy    <          8.9E-11 Ry

     The total energy is the sum of the following terms:

     one-electron contribution =   -4733.18230807 Ry
     hartree contribution      =    2602.64882976 Ry
     xc contribution           =    -965.66902686 Ry
     ewald contribution        =   -3164.90689260 Ry
     smearing contrib. (-TS)   =      -0.00000000 Ry

     convergence has been achieved in  14 iterations

     Forces acting on atoms (cartesian axes, Ry/au):

     atom    1 type  1   force =    -0.00114700    0.00241941    0.00082068
     atom    2 type  1   force =     0.00114700   -0.00241941   -0.00082068
     atom    3 type  1   force =     0.00114700   -0.00241941    0.00082068
     atom    4 type  1   force =    -0.00114700    0.00241941   -0.00082068
     atom    5 type  1   force =     0.00114700    0.00241941   -0.00082068
     atom    6 type  1   force =    -0.00114700   -0.00241941    0.00082068
     atom    7 type  1   force =    -0.00114700   -0.00241941   -0.00082068
     atom    8 type  1   force =     0.00114700    0.00241941    0.00082068
     atom    9 type  2   force =    -0.00015046   -0.00117477    0.00007091
     atom   10 type  2   force =     0.00015046    0.00117477   -0.00007091
     atom   11 type  2   force =     0.00015046    0.00117477    0.00007091
     atom   12 type  2   force =    -0.00015046   -0.00117477   -0.00007091
     atom   13 type  2   force =     0.00015046   -0.00117477   -0.00007091
     atom   14 type  2   force =    -0.00015046    0.00117477    0.00007091
     atom   15 type  2   force =    -0.00015046    0.00117477   -0.00007091
     atom   16 type  2   force =     0.00015046   -0.00117477    0.00007091
     atom   17 type  2   force =    -0.00055927   -0.00000067   -0.00040589
     atom   18 type  2   force =     0.00055927    0.00000067    0.00040589
     atom   19 type  2   force =     0.00055927    0.00000067   -0.00040589
     atom   20 type  2   force =    -0.00055927   -0.00000067    0.00040589
     atom   21 type  2   force =     0.00055927   -0.00000067    0.00040589
     atom   22 type  2   force =    -0.00055927    0.00000067   -0.00040589
     atom   23 type  2   force =    -0.00055927    0.00000067    0.00040589
     atom   24 type  2   force =     0.00055927   -0.00000067   -0.00040589
     atom   25 type  2   force =    -0.00048247   -0.00034355    0.00050207
     atom   26 type  2   force =     0.00048247    0.00034355   -0.00050207
     atom   27 type  2   force =     0.00048247    0.00034355    0.00050207
     atom   28 type  2   force =    -0.00048247   -0.00034355   -0.00050207
     atom   29 type  2   force =     0.00048247   -0.00034355   -0.00050207
     atom   30 type  2   force =    -0.00048247    0.00034355    0.00050207
     atom   31 type  2   force =    -0.00048247    0.00034355   -0.00050207
     atom   32 type  2   force =     0.00048247   -0.00034355    0.00050207

     Total force =     0.000000     Total SCF correction =     0.000000


     Computing stress (Cartesian axis) and pressure

          total   stress  (Ry/bohr**3)                   (kbar)     P=    0.05
   0.00000058   0.00000000   0.00000000          0.08      0.00      0.00
   0.00000000  -0.00000021   0.00000000          0.00     -0.03      0.00
   0.00000000   0.00000000   0.00000060          0.00      0.00      0.09


     Writing output data file Landau_5.save
 
     init_run     :    114.21s CPU    117.16s WALL (       2 calls)
     electrons    :  12144.75s CPU  12402.86s WALL (       6 calls)
     update_pot   :    115.59s CPU    115.74s WALL (       4 calls)
     forces       :    214.32s CPU    216.60s WALL (       6 calls)
     stress       :   1896.48s CPU   1916.06s WALL (       6 calls)

     Called by init_run:
     wfcinit      :     89.41s CPU     92.09s WALL (       2 calls)
     potinit      :     10.78s CPU     10.85s WALL (       2 calls)

     Called by electrons:
     c_bands      :  10596.84s CPU  10843.62s WALL (      80 calls)
     sum_band     :   1491.76s CPU   1498.01s WALL (      80 calls)
     v_of_rho     :     12.25s CPU     12.42s WALL (      84 calls)
     mix_rho      :     29.85s CPU     33.88s WALL (      80 calls)

     Called by c_bands:
     init_us_2    :    142.02s CPU    146.17s WALL (     348 calls)
     cegterg      :   8954.11s CPU   9189.89s WALL (     160 calls)

     Called by sum_band:

     Called by *egterg:
     h_psi        :   6962.59s CPU   6992.21s WALL (     612 calls)
     g_psi        :     26.76s CPU     26.87s WALL (     448 calls)
     cdiaghg      :     85.99s CPU     86.20s WALL (     596 calls)

     Called by h_psi:
     h_psi:pot    :   6914.75s CPU   6942.71s WALL (     612 calls)
     h_psi:calbec :    788.49s CPU    807.06s WALL (     612 calls)
     vloc_psi     :   5298.91s CPU   5305.65s WALL (     612 calls)
     add_vuspsi   :    827.34s CPU    830.00s WALL (     612 calls)

     General routines
     calbec       :    909.47s CPU    928.14s WALL (     672 calls)
     fft          :      8.75s CPU      8.76s WALL (     386 calls)
     fftw         :   5186.15s CPU   5189.79s WALL (  205066 calls)
 
     Parallel routines
 
     PWSCF        :     4h 1m CPU        4h 6m WALL

 
   This run was terminated on:  23:29:59  12Mar2020            

=------------------------------------------------------------------------------=
   JOB DONE.
=------------------------------------------------------------------------------=
