
     Program PWSCF v.6.2 (svn rev. 14038) starts on 28Aug2019 at 15: 7:35 

     This program is part of the open-source Quantum ESPRESSO suite
     for quantum simulation of materials; please cite
         "P. Giannozzi et al., J. Phys.:Condens. Matter 21 395502 (2009);
         "P. Giannozzi et al., J. Phys.:Condens. Matter 29 465901 (2017);
          URL http://www.quantum-espresso.org", 
     in publications or presentations arising from this work. More details at
     http://www.quantum-espresso.org/quote

     Parallel version (MPI), running on    64 processors

     MPI processes distributed on    11 nodes
     K-points division:     npool     =      64
     Reading input from scf.in

     Current dimensions of program PWSCF are:
     Max number of different atomic species (ntypx) = 10
     Max number of k-points (npk) =  40000
     Max angular momentum in pseudopotentials (lmaxx) =  3

     Subspace diagonalization in iterative solution of the eigenvalue problem:
     a serial algorithm will be used

 
     G-vector sticks info
     --------------------
     sticks:   dense  smooth     PW     G-vecs:    dense   smooth      PW
     Sum        7609    7609   2033               492213   492213   68191
 


     bravais-lattice index     =            0
     lattice parameter (alat)  =      13.8182  a.u.
     unit-cell volume          =    2770.4882 (a.u.)^3
     number of atoms/cell      =           32
     number of atomic types    =            2
     number of electrons       =       368.52
     number of Kohn-Sham states=          221
     kinetic-energy cutoff     =     120.0000  Ry
     charge density cutoff     =     480.0000  Ry
     convergence threshold     =      1.0E-08
     mixing beta               =       0.7000
     number of iterations used =            8  plain     mixing
     Exchange-correlation      = SLA PW NOGX NOGC ( 1  4  0  0 0 0)

     celldm(1)=  13.818213  celldm(2)=   0.000000  celldm(3)=   0.000000
     celldm(4)=   0.000000  celldm(5)=   0.000000  celldm(6)=   0.000000

     crystal axes: (cart. coord. in units of alat)
               a(1) = (   1.000000   0.000000   0.000000 )  
               a(2) = (   0.000000   1.042439   0.000000 )  
               a(3) = (   0.000000   0.000000   1.007279 )  

     reciprocal axes: (cart. coord. in units 2 pi/alat)
               b(1) = (  1.000000  0.000000  0.000000 )  
               b(2) = (  0.000000  0.959288  0.000000 )  
               b(3) = (  0.000000  0.000000  0.992773 )  


     PseudoPot. # 1 for W  read from file:
     /cluster/scratch/mnoe/QE/pps/W_ONCV_LDA-4.0.upf
     MD5 check sum: ba0307d5d4cd419d6f1d13dc49d7c13a
     Pseudo is Norm-conserving + core correction, Zval = 28.0
     Generated using ONCVPSP code by D. R. Hamann
     Using radial grid of 1380 points,  8 beta functions with: 
                l(1) =   0
                l(2) =   0
                l(3) =   1
                l(4) =   1
                l(5) =   2
                l(6) =   2
                l(7) =   3
                l(8) =   3

     PseudoPot. # 2 for O  read from file:
     /cluster/scratch/mnoe/QE/pps/O_ONCV_LDA-3.0.upf
     MD5 check sum: b55cdb4f45ae2203d24ad12cf8d61a31
     Pseudo is Norm-conserving + core correction, Zval =  6.0
     Generated using ONCVPSP code by D. R. Hamann
     Using radial grid of  926 points,  5 beta functions with: 
                l(1) =   0
                l(2) =   0
                l(3) =   1
                l(4) =   1
                l(5) =   2

     atomic species   valence    mass     pseudopotential
        W             28.00   183.84000     W ( 1.00)
        O              6.00    15.99940     O ( 1.00)

      8 Sym. Ops., with inversion, found ( 6 have fractional translation)



   Cartesian axes

     site n.     atom                  positions (alat units)
         1           W   tau(   1) = (   0.2328900   0.2938219   0.0162776  )
         2           W   tau(   2) = (   0.7671100   0.7486174   0.9910015  )
         3           W   tau(   3) = (   0.2671100   0.2273977   0.5199172  )
         4           W   tau(   4) = (   0.7328900   0.8150416   0.4873619  )
         5           W   tau(   5) = (   0.7671100   0.2938219   0.4873619  )
         6           W   tau(   6) = (   0.2328900   0.7486174   0.5199172  )
         7           W   tau(   7) = (   0.7328900   0.2273977   0.9910015  )
         8           W   tau(   8) = (   0.2671100   0.8150416   0.0162776  )
         9           O   tau(   9) = (   0.2184300   0.0086731   0.0050666  )
        10           O   tau(  10) = (   0.7815700   1.0337662   1.0022126  )
        11           O   tau(  11) = (   0.2815700   0.5125466   0.5087062  )
        12           O   tau(  12) = (   0.7184300   0.5298927   0.4985730  )
        13           O   tau(  13) = (   0.7815700   0.0086731   0.4985730  )
        14           O   tau(  14) = (   0.2184300   1.0337662   0.5087062  )
        15           O   tau(  15) = (   0.7184300   0.5125466   1.0022126  )
        16           O   tau(  16) = (   0.2815700   0.5298927   0.0050666  )
        17           O   tau(  17) = (   0.5046800   0.2268556   0.4528123  )
        18           O   tau(  18) = (   0.4953200   0.8155837   0.5544668  )
        19           O   tau(  19) = (   0.9953200   0.2943640   0.9564519  )
        20           O   tau(  20) = (   0.0046799   0.7480753   0.0508273  )
        21           O   tau(  21) = (   0.4953200   0.2268556   0.0508273  )
        22           O   tau(  22) = (   0.5046800   0.8155837   0.9564519  )
        23           O   tau(  23) = (   0.0046799   0.2943640   0.5544668  )
        24           O   tau(  24) = (   0.9953200   0.7480753   0.4528123  )
        25           O   tau(  25) = (   0.6995400   0.2532398   0.7483178  )
        26           O   tau(  26) = (   0.3004600   0.7891995   0.2589614  )
        27           O   tau(  27) = (   0.8004600   0.2679799   0.2446782  )
        28           O   tau(  28) = (   0.1995400   0.7744594   0.7626009  )
        29           O   tau(  29) = (   0.3004600   0.2532398   0.7626009  )
        30           O   tau(  30) = (   0.6995400   0.7891995   0.2446782  )
        31           O   tau(  31) = (   0.1995400   0.2679799   0.2589614  )
        32           O   tau(  32) = (   0.8004600   0.7744594   0.7483178  )

     number of k points=    64  gaussian smearing, width (Ry)=  0.0007
                       cart. coord. in units 2pi/alat
        k(    1) = (   0.0000000   0.0000000   0.0000000), wk =   0.0092593
        k(    2) = (   0.0000000   0.0000000   0.1654622), wk =   0.0185185
        k(    3) = (   0.0000000   0.0000000   0.3309245), wk =   0.0185185
        k(    4) = (   0.0000000   0.0000000  -0.4963867), wk =   0.0092593
        k(    5) = (   0.0000000   0.1598814   0.0000000), wk =   0.0185185
        k(    6) = (   0.0000000   0.1598814   0.1654622), wk =   0.0370370
        k(    7) = (   0.0000000   0.1598814   0.3309245), wk =   0.0370370
        k(    8) = (   0.0000000   0.1598814  -0.4963867), wk =   0.0185185
        k(    9) = (   0.0000000   0.3197628   0.0000000), wk =   0.0185185
        k(   10) = (   0.0000000   0.3197628   0.1654622), wk =   0.0370370
        k(   11) = (   0.0000000   0.3197628   0.3309245), wk =   0.0370370
        k(   12) = (   0.0000000   0.3197628  -0.4963867), wk =   0.0185185
        k(   13) = (   0.0000000  -0.4796442   0.0000000), wk =   0.0092593
        k(   14) = (   0.0000000  -0.4796442   0.1654622), wk =   0.0185185
        k(   15) = (   0.0000000  -0.4796442   0.3309245), wk =   0.0185185
        k(   16) = (   0.0000000  -0.4796442  -0.4963867), wk =   0.0092593
        k(   17) = (   0.1666667   0.0000000   0.0000000), wk =   0.0185185
        k(   18) = (   0.1666667   0.0000000   0.1654622), wk =   0.0370370
        k(   19) = (   0.1666667   0.0000000   0.3309245), wk =   0.0370370
        k(   20) = (   0.1666667   0.0000000  -0.4963867), wk =   0.0185185
        k(   21) = (   0.1666667   0.1598814   0.0000000), wk =   0.0370370
        k(   22) = (   0.1666667   0.1598814   0.1654622), wk =   0.0740741
        k(   23) = (   0.1666667   0.1598814   0.3309245), wk =   0.0740741
        k(   24) = (   0.1666667   0.1598814  -0.4963867), wk =   0.0370370
        k(   25) = (   0.1666667   0.3197628   0.0000000), wk =   0.0370370
        k(   26) = (   0.1666667   0.3197628   0.1654622), wk =   0.0740741
        k(   27) = (   0.1666667   0.3197628   0.3309245), wk =   0.0740741
        k(   28) = (   0.1666667   0.3197628  -0.4963867), wk =   0.0370370
        k(   29) = (   0.1666667  -0.4796442   0.0000000), wk =   0.0185185
        k(   30) = (   0.1666667  -0.4796442   0.1654622), wk =   0.0370370
        k(   31) = (   0.1666667  -0.4796442   0.3309245), wk =   0.0370370
        k(   32) = (   0.1666667  -0.4796442  -0.4963867), wk =   0.0185185
        k(   33) = (   0.3333333   0.0000000   0.0000000), wk =   0.0185185
        k(   34) = (   0.3333333   0.0000000   0.1654622), wk =   0.0370370
        k(   35) = (   0.3333333   0.0000000   0.3309245), wk =   0.0370370
        k(   36) = (   0.3333333   0.0000000  -0.4963867), wk =   0.0185185
        k(   37) = (   0.3333333   0.1598814   0.0000000), wk =   0.0370370
        k(   38) = (   0.3333333   0.1598814   0.1654622), wk =   0.0740741
        k(   39) = (   0.3333333   0.1598814   0.3309245), wk =   0.0740741
        k(   40) = (   0.3333333   0.1598814  -0.4963867), wk =   0.0370370
        k(   41) = (   0.3333333   0.3197628   0.0000000), wk =   0.0370370
        k(   42) = (   0.3333333   0.3197628   0.1654622), wk =   0.0740741
        k(   43) = (   0.3333333   0.3197628   0.3309245), wk =   0.0740741
        k(   44) = (   0.3333333   0.3197628  -0.4963867), wk =   0.0370370
        k(   45) = (   0.3333333  -0.4796442   0.0000000), wk =   0.0185185
        k(   46) = (   0.3333333  -0.4796442   0.1654622), wk =   0.0370370
        k(   47) = (   0.3333333  -0.4796442   0.3309245), wk =   0.0370370
        k(   48) = (   0.3333333  -0.4796442  -0.4963867), wk =   0.0185185
        k(   49) = (  -0.5000000   0.0000000   0.0000000), wk =   0.0092593
        k(   50) = (  -0.5000000   0.0000000   0.1654622), wk =   0.0185185
        k(   51) = (  -0.5000000   0.0000000   0.3309245), wk =   0.0185185
        k(   52) = (  -0.5000000   0.0000000  -0.4963867), wk =   0.0092593
        k(   53) = (  -0.5000000   0.1598814   0.0000000), wk =   0.0185185
        k(   54) = (  -0.5000000   0.1598814   0.1654622), wk =   0.0370370
        k(   55) = (  -0.5000000   0.1598814   0.3309245), wk =   0.0370370
        k(   56) = (  -0.5000000   0.1598814  -0.4963867), wk =   0.0185185
        k(   57) = (  -0.5000000   0.3197628   0.0000000), wk =   0.0185185
        k(   58) = (  -0.5000000   0.3197628   0.1654622), wk =   0.0370370
        k(   59) = (  -0.5000000   0.3197628   0.3309245), wk =   0.0370370
        k(   60) = (  -0.5000000   0.3197628  -0.4963867), wk =   0.0185185
        k(   61) = (  -0.5000000  -0.4796442   0.0000000), wk =   0.0092593
        k(   62) = (  -0.5000000  -0.4796442   0.1654622), wk =   0.0185185
        k(   63) = (  -0.5000000  -0.4796442   0.3309245), wk =   0.0185185
        k(   64) = (  -0.5000000  -0.4796442  -0.4963867), wk =   0.0092593

     Dense  grid:   492213 G-vectors     FFT dimensions: ( 100, 108, 100)

     Estimated max dynamical RAM per process >       2.69 GB

     Estimated total dynamical RAM >     171.85 GB

     Initial potential from superposition of free atoms

     starting charge  367.99656, renormalised to  368.52000
     Starting wfc are  232 randomized atomic wfcs

     total cpu time spent up to now is       25.0 secs

     Self-consistent Calculation

     iteration #  1     ecut=   120.00 Ry     beta= 0.70
     Davidson diagonalization with overlap
     ethr =  1.00E-02,  avg # of iterations =  5.0

     total cpu time spent up to now is       98.6 secs

     total energy              =   -6253.53838746 Ry
     Harris-Foulkes estimate   =   -6264.24335284 Ry
     estimated scf accuracy    <      13.49845987 Ry

     iteration #  2     ecut=   120.00 Ry     beta= 0.70
     Davidson diagonalization with overlap
     ethr =  3.66E-03,  avg # of iterations =  3.5

     total cpu time spent up to now is      173.5 secs

     total energy              =   -6250.48707633 Ry
     Harris-Foulkes estimate   =   -6270.25818262 Ry
     estimated scf accuracy    <      52.68966471 Ry

     iteration #  3     ecut=   120.00 Ry     beta= 0.70
     Davidson diagonalization with overlap
     ethr =  3.66E-03,  avg # of iterations =  3.4

     total cpu time spent up to now is      244.5 secs

     total energy              =   -6260.70394832 Ry
     Harris-Foulkes estimate   =   -6260.97032921 Ry
     estimated scf accuracy    <       0.87551959 Ry

     iteration #  4     ecut=   120.00 Ry     beta= 0.70
     Davidson diagonalization with overlap
     ethr =  2.38E-04,  avg # of iterations =  2.6

     total cpu time spent up to now is      300.2 secs

     total energy              =   -6260.69978451 Ry
     Harris-Foulkes estimate   =   -6260.76987442 Ry
     estimated scf accuracy    <       0.21363143 Ry

     iteration #  5     ecut=   120.00 Ry     beta= 0.70
     Davidson diagonalization with overlap
     ethr =  5.80E-05,  avg # of iterations =  5.1

     total cpu time spent up to now is      362.0 secs

     total energy              =   -6260.70448376 Ry
     Harris-Foulkes estimate   =   -6260.73325293 Ry
     estimated scf accuracy    <       0.06434956 Ry

     iteration #  6     ecut=   120.00 Ry     beta= 0.70
     Davidson diagonalization with overlap
     ethr =  1.75E-05,  avg # of iterations =  5.8

     total cpu time spent up to now is      427.9 secs

     total energy              =   -6260.71840832 Ry
     Harris-Foulkes estimate   =   -6260.72078315 Ry
     estimated scf accuracy    <       0.00654611 Ry

     iteration #  7     ecut=   120.00 Ry     beta= 0.70
     Davidson diagonalization with overlap
     ethr =  1.78E-06,  avg # of iterations =  4.7

     total cpu time spent up to now is      488.2 secs

     total energy              =   -6260.71909644 Ry
     Harris-Foulkes estimate   =   -6260.71926081 Ry
     estimated scf accuracy    <       0.00032104 Ry

     iteration #  8     ecut=   120.00 Ry     beta= 0.70
     Davidson diagonalization with overlap
     ethr =  8.71E-08,  avg # of iterations =  3.2

     total cpu time spent up to now is      555.9 secs

     total energy              =   -6260.71919640 Ry
     Harris-Foulkes estimate   =   -6260.71921330 Ry
     estimated scf accuracy    <       0.00005845 Ry

     iteration #  9     ecut=   120.00 Ry     beta= 0.70
     Davidson diagonalization with overlap
     ethr =  1.59E-08,  avg # of iterations =  2.2

     total cpu time spent up to now is      616.3 secs

     total energy              =   -6260.71920019 Ry
     Harris-Foulkes estimate   =   -6260.71920666 Ry
     estimated scf accuracy    <       0.00002574 Ry

     iteration # 10     ecut=   120.00 Ry     beta= 0.70
     Davidson diagonalization with overlap
     ethr =  6.99E-09,  avg # of iterations =  1.1

     total cpu time spent up to now is      671.0 secs

     total energy              =   -6260.71919886 Ry
     Harris-Foulkes estimate   =   -6260.71920184 Ry
     estimated scf accuracy    <       0.00000689 Ry

     iteration # 11     ecut=   120.00 Ry     beta= 0.70
     Davidson diagonalization with overlap
     ethr =  1.87E-09,  avg # of iterations =  3.0

     total cpu time spent up to now is      730.5 secs

     total energy              =   -6260.71920034 Ry
     Harris-Foulkes estimate   =   -6260.71920039 Ry
     estimated scf accuracy    <       0.00000012 Ry

     iteration # 12     ecut=   120.00 Ry     beta= 0.70
     Davidson diagonalization with overlap
     ethr =  3.36E-11,  avg # of iterations =  2.0

     total cpu time spent up to now is      799.1 secs

     total energy              =   -6260.71920036 Ry
     Harris-Foulkes estimate   =   -6260.71920037 Ry
     estimated scf accuracy    <       0.00000003 Ry

     iteration # 13     ecut=   120.00 Ry     beta= 0.70
     Davidson diagonalization with overlap
     ethr =  7.45E-12,  avg # of iterations =  2.2

     total cpu time spent up to now is      860.9 secs

     End of self-consistent calculation

          k = 0.0000 0.0000 0.0000 ( 61539 PWs)   bands (ev):

   -65.8118 -65.8112 -65.8109 -65.8107 -65.8103 -65.8102 -65.8098 -65.8093
   -30.2509 -30.2427 -30.2422 -30.2334 -30.2089 -30.2013 -30.1949 -30.1895
   -30.1891 -30.1723 -30.1718 -30.1619 -30.1531 -30.1485 -30.1447 -30.1212
   -30.0938 -30.0923 -30.0845 -30.0799 -30.0683 -30.0604 -30.0597 -30.0519
   -19.9626 -19.9625 -19.9620 -19.9619 -19.9614 -19.9612 -19.9607 -19.9606
   -19.9479 -19.9476 -19.9474 -19.9470 -19.9469 -19.9469 -19.9464 -19.9461
   -19.9428 -19.9425 -19.9415 -19.9415 -19.9414 -19.9407 -19.9404 -19.9398
   -19.9397 -19.9392 -19.9391 -19.9387 -19.9370 -19.9367 -19.9364 -19.9361
   -19.9292 -19.9290 -19.9289 -19.9287 -19.9256 -19.9254 -19.9251 -19.9250
   -19.9149 -19.9147 -19.9138 -19.9137 -19.9093 -19.9093 -19.9084 -19.9084
   -19.9036 -19.9035 -19.9024 -19.9023 -19.9000 -19.8999 -19.8988 -19.8987
    -9.7221  -9.3935  -9.2745  -9.2650  -8.9624  -8.9195  -8.8570  -8.7353
    -8.7111  -8.6462  -8.5988  -8.5925  -7.7070  -7.6265  -7.5934  -7.5635
    -7.5492  -7.5444  -7.5420  -7.4864  -7.4622  -7.4306  -7.4222  -7.4106
     1.5750   1.5913   1.6326   1.6328   1.6658   1.6668   1.7272   1.8439
     1.8589   1.9468   1.9674   2.1726   2.6203   2.7211   2.7476   2.7997
     2.8897   2.9779   4.3174   4.4190   4.5679   4.8018   4.8409   4.9535
     5.0052   5.0267   5.0398   5.0440   5.3010   5.3579   5.4364   5.5730
     5.7080   5.7694   5.7813   5.7892   5.8806   5.8891   5.9491   6.0049
     6.0346   6.0447   6.0601   6.0788   6.1695   6.1852   6.2208   6.3156
     6.3555   6.4517   6.4954   6.7037   6.7297   6.9315   6.9748   7.0315
     7.0465   7.1193   7.1510   7.1768   7.1821   7.2361   7.3731   7.4156
     7.5074   7.5450   7.9079   7.9400   8.0928   8.1611   8.3140   8.3623
     9.9911  10.0294  10.3968  10.4026  10.4698  10.4815  12.3657  12.5020
    12.6078  12.6133  12.7791  12.7989  12.8170  12.9071  12.9559  12.9910
    13.4757  13.4819  13.5285  13.5968  13.8203  13.8976  14.2990  14.3054
    14.8462  14.8648  15.1255  15.1305  15.6584  15.7059  15.8798  16.1550
    16.2949  16.9634  17.0758  17.2529  17.8054

          k = 0.0000 0.0000 0.1655 ( 61491 PWs)   bands (ev):

   -65.8117 -65.8112 -65.8109 -65.8107 -65.8104 -65.8101 -65.8099 -65.8093
   -30.2502 -30.2432 -30.2413 -30.2338 -30.2062 -30.1975 -30.1953 -30.1864
   -30.1858 -30.1726 -30.1672 -30.1626 -30.1509 -30.1465 -30.1463 -30.1199
   -30.0986 -30.0974 -30.0899 -30.0843 -30.0679 -30.0609 -30.0601 -30.0530
   -19.9626 -19.9625 -19.9621 -19.9620 -19.9613 -19.9612 -19.9607 -19.9606
   -19.9479 -19.9475 -19.9475 -19.9470 -19.9470 -19.9468 -19.9464 -19.9461
   -19.9427 -19.9425 -19.9416 -19.9415 -19.9414 -19.9407 -19.9405 -19.9399
   -19.9396 -19.9392 -19.9391 -19.9387 -19.9369 -19.9366 -19.9364 -19.9361
   -19.9292 -19.9290 -19.9289 -19.9288 -19.9256 -19.9253 -19.9252 -19.9250
   -19.9145 -19.9144 -19.9134 -19.9134 -19.9097 -19.9097 -19.9088 -19.9087
   -19.9035 -19.9034 -19.9025 -19.9024 -19.8999 -19.8998 -19.8989 -19.8988
    -9.6768  -9.3384  -9.2922  -9.2095  -8.9353  -8.8784  -8.8660  -8.6975
    -8.6762  -8.6376  -8.5972  -8.5679  -7.7490  -7.7302  -7.6374  -7.5978
    -7.5821  -7.5819  -7.5382  -7.5353  -7.5031  -7.4895  -7.4385  -7.4194
     1.6455   1.6619   1.6869   1.7294   1.7562   1.7683   1.8389   1.8789
     1.9429   1.9744   2.1011   2.2740   2.7103   2.7561   2.8124   2.8818
     2.8851   3.0619   4.3057   4.3170   4.5823   4.6024   4.6565   4.7837
     4.8231   4.8310   5.0435   5.0826   5.1408   5.3176   5.4543   5.5352
     5.5782   5.6718   5.6794   5.8112   5.8211   5.8323   5.8957   5.8981
     5.9326   6.0455   6.0951   6.1181   6.1197   6.1892   6.2537   6.3556
     6.3594   6.6109   6.6626   6.7173   6.8605   6.9320   6.9342   6.9493
     7.0522   7.0594   7.1383   7.1714   7.2055   7.2316   7.2771   7.3044
     7.3405   7.3959   7.9328   7.9489   8.1100   8.1659   8.2648   8.3180
    10.1878  10.2757  10.3978  10.4794  10.6771  10.7379  12.4095  12.4562
    12.5544  12.6710  12.7328  12.8188  12.8352  12.9693  12.9940  12.9958
    13.3496  13.4950  13.5022  13.5430  13.8899  13.8984  14.1782  14.2089
    14.8886  14.9551  15.1213  15.2409  15.6768  15.7576  15.8491  16.2652
    16.4244  16.9989  17.1220  17.2432  17.8924

          k = 0.0000 0.0000 0.3309 ( 61500 PWs)   bands (ev):

   -65.8115 -65.8111 -65.8110 -65.8105 -65.8105 -65.8100 -65.8099 -65.8095
   -30.2483 -30.2444 -30.2394 -30.2351 -30.2016 -30.1965 -30.1886 -30.1773
   -30.1771 -30.1752 -30.1650 -30.1527 -30.1524 -30.1433 -30.1382 -30.1157
   -30.1120 -30.1119 -30.1044 -30.0955 -30.0669 -30.0632 -30.0590 -30.0552
   -19.9625 -19.9624 -19.9622 -19.9621 -19.9612 -19.9611 -19.9609 -19.9608
   -19.9478 -19.9476 -19.9474 -19.9471 -19.9469 -19.9467 -19.9465 -19.9462
   -19.9425 -19.9423 -19.9419 -19.9417 -19.9413 -19.9407 -19.9406 -19.9401
   -19.9395 -19.9392 -19.9389 -19.9387 -19.9368 -19.9365 -19.9365 -19.9362
   -19.9291 -19.9289 -19.9289 -19.9288 -19.9255 -19.9253 -19.9253 -19.9251
   -19.9135 -19.9134 -19.9125 -19.9124 -19.9108 -19.9107 -19.9098 -19.9098
   -19.9033 -19.9032 -19.9027 -19.9026 -19.8997 -19.8996 -19.8991 -19.8990
    -9.5649  -9.3470  -9.2057  -9.0798  -8.9839  -8.8966  -8.6453  -8.6404
    -8.6097  -8.5528  -8.5420  -8.4521  -7.9997  -7.9976  -7.8930  -7.8745
    -7.6401  -7.6100  -7.5199  -7.5162  -7.5120  -7.4979  -7.4601  -7.4437
     1.6497   1.6549   1.7379   1.7540   1.8074   1.8281   1.9022   1.9370
     2.5392   2.5914   2.6828   2.7793   2.7868   2.8790   2.9621   3.0728
     3.1202   3.2914   3.9386   4.0770   4.0850   4.1651   4.3497   4.4933
     4.6882   4.7375   4.7952   4.8834   4.9397   5.0589   5.1503   5.3818
     5.4149   5.4554   5.4915   5.5456   5.6966   5.7447   5.7968   5.8767
     6.0162   6.0593   6.0961   6.1344   6.2251   6.2527   6.3672   6.3921
     6.4629   6.6012   6.6086   6.6659   6.7688   6.7745   6.7936   6.9765
     7.0062   7.1268   7.1539   7.1731   7.1795   7.2360   7.3203   7.3705
     7.4220   7.5460   7.9044   7.9113   8.1040   8.1416   8.1664   8.1764
    10.3183  10.3820  10.8573  10.9906  11.2273  11.3333  12.1472  12.2517
    12.4489  12.5278  12.6741  12.7221  12.9407  12.9461  13.0173  13.1321
    13.2168  13.3607  13.4390  13.5507  13.8836  13.9047  13.9594  13.9694
    14.9870  15.1064  15.2515  15.5192  15.7489  15.8112  16.1332  16.1738
    16.4761  17.2020  17.6074  17.6280  17.7674

          k = 0.0000 0.0000-0.4964 ( 61484 PWs)   bands (ev):

   -65.8113 -65.8113 -65.8108 -65.8108 -65.8103 -65.8103 -65.8097 -65.8097
   -30.2462 -30.2462 -30.2371 -30.2371 -30.1985 -30.1985 -30.1803 -30.1803
   -30.1696 -30.1696 -30.1635 -30.1635 -30.1325 -30.1325 -30.1291 -30.1291
   -30.1229 -30.1229 -30.1074 -30.1074 -30.0653 -30.0653 -30.0573 -30.0573
   -19.9624 -19.9624 -19.9622 -19.9622 -19.9610 -19.9610 -19.9609 -19.9609
   -19.9477 -19.9477 -19.9472 -19.9472 -19.9467 -19.9467 -19.9465 -19.9465
   -19.9422 -19.9422 -19.9420 -19.9420 -19.9410 -19.9410 -19.9404 -19.9404
   -19.9393 -19.9393 -19.9388 -19.9388 -19.9366 -19.9366 -19.9363 -19.9363
   -19.9290 -19.9290 -19.9289 -19.9289 -19.9254 -19.9254 -19.9252 -19.9252
   -19.9122 -19.9122 -19.9121 -19.9121 -19.9112 -19.9112 -19.9111 -19.9111
   -19.9030 -19.9030 -19.9029 -19.9029 -19.8994 -19.8994 -19.8993 -19.8993
    -9.4411  -9.4411  -9.0726  -9.0726  -8.9624  -8.9624  -8.6263  -8.6263
    -8.3225  -8.3224  -8.3044  -8.3044  -8.2776  -8.2776  -8.2079  -8.2079
    -7.6268  -7.6268  -7.5091  -7.5091  -7.4892  -7.4892  -7.4776  -7.4776
     1.6508   1.6508   1.7511   1.7511   1.8178   1.8178   1.9313   1.9313
     2.8087   2.8087   3.2285   3.2285   3.3358   3.3358   3.3621   3.3621
     3.4748   3.4748   3.5365   3.5365   3.7867   3.7868   3.9980   3.9981
     4.0803   4.0803   4.7595   4.7595   4.8741   4.8741   5.2258   5.2258
     5.4481   5.4481   5.5792   5.5792   5.6056   5.6056   5.8371   5.8371
     6.0823   6.0823   6.1937   6.1937   6.2440   6.2440   6.4055   6.4055
     6.4572   6.4572   6.5364   6.5364   6.7281   6.7281   6.7984   6.7984
     6.9630   6.9630   7.1676   7.1676   7.2071   7.2071   7.6918   7.6918
     7.7210   7.7210   7.8144   7.8144   7.9204   7.9204   8.1594   8.1594
    10.3557  10.3557  11.5473  11.5473  11.6775  11.6775  11.8893  11.8893
    12.0464  12.0464  12.6617  12.6617  13.0334  13.0334  13.1667  13.1667
    13.1781  13.1781  13.5386  13.5386  13.7015  13.7015  13.9283  13.9283
    15.0707  15.0707  15.5544  15.5544  15.9402  15.9402  16.0160  16.0160
    16.8806  16.8806  18.0830  18.0831  18.3721

          k = 0.0000 0.1599 0.0000 ( 61494 PWs)   bands (ev):

   -65.8117 -65.8113 -65.8108 -65.8107 -65.8104 -65.8102 -65.8098 -65.8093
   -30.2473 -30.2390 -30.2384 -30.2291 -30.2107 -30.2027 -30.1972 -30.1896
   -30.1894 -30.1757 -30.1720 -30.1611 -30.1557 -30.1474 -30.1464 -30.1239
   -30.0937 -30.0925 -30.0844 -30.0805 -30.0679 -30.0611 -30.0593 -30.0526
   -19.9625 -19.9624 -19.9619 -19.9618 -19.9614 -19.9613 -19.9608 -19.9607
   -19.9479 -19.9476 -19.9474 -19.9470 -19.9470 -19.9469 -19.9464 -19.9461
   -19.9426 -19.9423 -19.9415 -19.9413 -19.9411 -19.9408 -19.9403 -19.9398
   -19.9397 -19.9391 -19.9391 -19.9386 -19.9373 -19.9369 -19.9367 -19.9364
   -19.9292 -19.9290 -19.9288 -19.9288 -19.9256 -19.9254 -19.9251 -19.9250
   -19.9148 -19.9147 -19.9138 -19.9137 -19.9093 -19.9093 -19.9084 -19.9084
   -19.9036 -19.9035 -19.9024 -19.9023 -19.9000 -19.8999 -19.8988 -19.8987
    -9.6893  -9.4071  -9.2305  -9.2251  -8.9706  -8.9297  -8.7813  -8.7331
    -8.7126  -8.6014  -8.5623  -8.5572  -7.7624  -7.6828  -7.6439  -7.6257
    -7.5994  -7.5925  -7.5520  -7.5440  -7.4604  -7.4395  -7.4315  -7.4136
     1.5754   1.5892   1.6333   1.6401   1.7020   1.7273   1.7987   1.9663
     2.0355   2.0764   2.1465   2.3072   2.6298   2.7137   2.8241   2.8830
     2.9615   3.0602   4.1768   4.2953   4.3054   4.4777   4.7710   4.9323
     4.9766   5.0350   5.0605   5.0882   5.2281   5.2429   5.3732   5.5252
     5.6216   5.7850   5.7964   5.8011   5.8032   5.9083   5.9262   5.9564
     5.9609   6.0228   6.0372   6.1124   6.1159   6.1947   6.2335   6.3024
     6.3265   6.4282   6.5381   6.7207   6.7989   6.9130   6.9495   7.0126
     7.1043   7.1191   7.1223   7.1438   7.1626   7.1670   7.3837   7.4138
     7.5230   7.5421   7.9069   7.9373   8.0875   8.1307   8.2738   8.2837
    10.0160  10.0321  10.5881  10.5977  10.6047  10.6261  12.3026  12.5091
    12.6169  12.6265  12.7205  12.7564  12.7853  12.7903  12.8253  12.9546
    13.4609  13.4823  13.5443  13.5525  13.9115  13.9292  14.2010  14.2130
    14.9617  15.0795  15.2566  15.2857  15.6534  15.6988  16.1366  16.2596
    16.2633  16.7211  17.2165  17.3907  17.8165

          k = 0.0000 0.1599 0.1655 ( 61487 PWs)   bands (ev):

   -65.8117 -65.8112 -65.8109 -65.8106 -65.8104 -65.8101 -65.8098 -65.8094
   -30.2465 -30.2394 -30.2375 -30.2296 -30.2083 -30.1992 -30.1976 -30.1865
   -30.1858 -30.1764 -30.1669 -30.1619 -30.1532 -30.1480 -30.1452 -30.1225
   -30.0986 -30.0975 -30.0898 -30.0851 -30.0675 -30.0608 -30.0605 -30.0537
   -19.9625 -19.9624 -19.9620 -19.9619 -19.9614 -19.9613 -19.9608 -19.9607
   -19.9479 -19.9476 -19.9474 -19.9470 -19.9470 -19.9468 -19.9464 -19.9461
   -19.9425 -19.9422 -19.9414 -19.9414 -19.9412 -19.9407 -19.9404 -19.9399
   -19.9396 -19.9391 -19.9390 -19.9386 -19.9372 -19.9369 -19.9367 -19.9364
   -19.9292 -19.9290 -19.9289 -19.9288 -19.9256 -19.9254 -19.9252 -19.9250
   -19.9145 -19.9144 -19.9134 -19.9134 -19.9097 -19.9097 -19.9088 -19.9087
   -19.9035 -19.9034 -19.9025 -19.9024 -19.8999 -19.8998 -19.8989 -19.8988
    -9.6427  -9.3521  -9.2484  -9.1654  -8.9457  -8.8866  -8.7903  -8.6960
    -8.6776  -8.5933  -8.5628  -8.5347  -7.7821  -7.7287  -7.6976  -7.6710
    -7.6438  -7.6052  -7.5806  -7.5580  -7.5379  -7.5366  -7.4480  -7.4224
     1.6819   1.6868   1.7016   1.7294   1.8514   1.8794   1.8816   2.0418
     2.1003   2.1068   2.1422   2.3679   2.7202   2.8043   2.8325   2.9542
     2.9693   3.1430   4.1855   4.2412   4.3472   4.4581   4.6089   4.6405
     4.7679   4.8721   5.0046   5.0222   5.0844   5.2371   5.3763   5.4390
     5.5189   5.5821   5.7397   5.7464   5.7520   5.8343   5.8833   5.9183
     5.9348   6.0157   6.0243   6.0910   6.1118   6.1552   6.2495   6.3094
     6.4145   6.5468   6.6756   6.7770   6.8920   6.9507   6.9651   7.0094
     7.0168   7.0763   7.1154   7.1590   7.1621   7.1847   7.2829   7.3111
     7.3706   7.3936   7.9307   7.9466   8.0961   8.1374   8.2269   8.2469
    10.2595  10.2836  10.5942  10.6243  10.7997  10.8514  12.3583  12.4571
    12.5580  12.6815  12.6915  12.7699  12.8255  12.8322  12.8759  12.9790
    13.3331  13.4580  13.4714  13.5456  13.9115  13.9744  14.0768  14.1206
    15.0181  15.1929  15.2696  15.3752  15.6695  15.7567  16.2295  16.2329
    16.4046  16.8774  17.1262  17.3645  17.8727

          k = 0.0000 0.1599 0.3309 ( 61474 PWs)   bands (ev):

   -65.8115 -65.8111 -65.8110 -65.8106 -65.8105 -65.8100 -65.8100 -65.8095
   -30.2446 -30.2406 -30.2354 -30.2310 -30.2040 -30.1989 -30.1910 -30.1791
   -30.1772 -30.1768 -30.1644 -30.1536 -30.1526 -30.1447 -30.1373 -30.1180
   -30.1121 -30.1120 -30.1042 -30.0966 -30.0665 -30.0628 -30.0597 -30.0559
   -19.9624 -19.9623 -19.9621 -19.9620 -19.9613 -19.9611 -19.9609 -19.9608
   -19.9478 -19.9475 -19.9474 -19.9471 -19.9468 -19.9467 -19.9465 -19.9463
   -19.9423 -19.9421 -19.9417 -19.9415 -19.9413 -19.9407 -19.9406 -19.9401
   -19.9395 -19.9392 -19.9389 -19.9387 -19.9371 -19.9368 -19.9368 -19.9365
   -19.9291 -19.9290 -19.9289 -19.9288 -19.9255 -19.9253 -19.9253 -19.9251
   -19.9135 -19.9134 -19.9125 -19.9124 -19.9108 -19.9107 -19.9098 -19.9098
   -19.9033 -19.9032 -19.9027 -19.9026 -19.8997 -19.8996 -19.8991 -19.8990
    -9.5275  -9.3041  -9.2193  -9.0226  -8.9952  -8.8217  -8.6488  -8.6197
    -8.5749  -8.5546  -8.5249  -8.4322  -8.0061  -7.9954  -7.9067  -7.8720
    -7.7125  -7.6916  -7.6202  -7.5979  -7.5362  -7.5150  -7.4714  -7.4467
     1.7024   1.7140   1.7377   1.7535   2.0015   2.0174   2.0947   2.1360
     2.5385   2.5959   2.6869   2.8012   2.8549   2.9436   2.9741   3.0671
     3.2048   3.3645   3.9491   4.0597   4.0878   4.1191   4.3610   4.4009
     4.4875   4.7001   4.7086   4.7616   4.8194   4.9841   5.0027   5.2475
     5.2694   5.4016   5.4515   5.4700   5.6616   5.7384   5.7867   5.9076
     5.9619   5.9946   6.0509   6.0509   6.0977   6.2633   6.2919   6.3469
     6.5317   6.5977   6.7341   6.7599   6.7712   6.8564   6.9383   6.9572
     7.0095   7.0995   7.1214   7.1562   7.1661   7.2058   7.3468   7.3688
     7.4353   7.5389   7.9029   7.9090   8.0765   8.1161   8.1231   8.1381
    10.5198  10.5847  10.8697  11.0028  11.3158  11.4041  12.1523  12.2488
    12.4633  12.5173  12.7005  12.7559  12.8535  12.8671  12.9450  13.0423
    13.0958  13.3363  13.4021  13.5199  13.7717  13.9035  13.9174  13.9932
    15.1379  15.2259  15.5645  15.6406  15.7944  16.0957  16.1395  16.1901
    16.6033  17.1759  17.3574  17.6588  17.8446

          k = 0.0000 0.1599-0.4964 ( 61512 PWs)   bands (ev):

   -65.8113 -65.8113 -65.8108 -65.8108 -65.8102 -65.8102 -65.8098 -65.8098
   -30.2425 -30.2425 -30.2330 -30.2330 -30.2009 -30.2009 -30.1836 -30.1836
   -30.1693 -30.1693 -30.1639 -30.1639 -30.1325 -30.1325 -30.1297 -30.1297
   -30.1224 -30.1224 -30.1092 -30.1092 -30.0649 -30.0649 -30.0581 -30.0581
   -19.9623 -19.9623 -19.9621 -19.9621 -19.9611 -19.9611 -19.9610 -19.9610
   -19.9476 -19.9476 -19.9473 -19.9473 -19.9467 -19.9467 -19.9465 -19.9465
   -19.9420 -19.9420 -19.9418 -19.9418 -19.9410 -19.9410 -19.9404 -19.9404
   -19.9393 -19.9393 -19.9388 -19.9388 -19.9369 -19.9369 -19.9366 -19.9366
   -19.9290 -19.9290 -19.9289 -19.9289 -19.9254 -19.9254 -19.9252 -19.9252
   -19.9122 -19.9122 -19.9121 -19.9121 -19.9112 -19.9112 -19.9111 -19.9111
   -19.9030 -19.9030 -19.9029 -19.9029 -19.8994 -19.8994 -19.8993 -19.8993
    -9.4003  -9.4003  -9.0852  -9.0852  -8.8921  -8.8921  -8.5919  -8.5919
    -8.3269  -8.3269  -8.2996  -8.2996  -8.2858  -8.2858  -8.2010  -8.2010
    -7.7054  -7.7054  -7.6109  -7.6109  -7.5037  -7.5037  -7.4806  -7.4806
     1.7091   1.7091   1.7507   1.7507   2.0164   2.0164   2.1266   2.1266
     2.8799   2.8799   3.2431   3.2431   3.3543   3.3543   3.3649   3.3649
     3.4715   3.4715   3.5717   3.5717   3.7747   3.7747   4.0102   4.0103
     4.1337   4.1337   4.6140   4.6140   4.6501   4.6501   5.0029   5.0030
     5.3315   5.3316   5.5476   5.5476   5.6017   5.6017   5.8314   5.8314
     5.9878   5.9878   6.0292   6.0292   6.2312   6.2312   6.4043   6.4043
     6.5329   6.5329   6.5910   6.5910   6.7929   6.7929   6.8825   6.8825
     7.0197   7.0197   7.1449   7.1449   7.1570   7.1570   7.6923   7.6923
     7.7188   7.7188   7.8048   7.8048   7.8919   7.8919   8.1304   8.1304
    10.5642  10.5642  11.5557  11.5557  11.6770  11.6770  11.9484  11.9484
    12.0929  12.0929  12.6872  12.6872  12.8880  12.8880  13.1030  13.1030
    13.1625  13.1625  13.4183  13.4183  13.6593  13.6593  13.9431  13.9431
    15.2015  15.2015  15.8981  15.8981  15.9874  15.9874  16.0779  16.0779
    16.9300  16.9300  17.9057  17.9058  18.2584

          k = 0.0000 0.3198 0.0000 ( 61480 PWs)   bands (ev):

   -65.8116 -65.8114 -65.8107 -65.8106 -65.8105 -65.8103 -65.8097 -65.8094
   -30.2380 -30.2291 -30.2283 -30.2177 -30.2166 -30.2076 -30.2043 -30.1901
   -30.1897 -30.1864 -30.1706 -30.1617 -30.1589 -30.1505 -30.1438 -30.1304
   -30.0935 -30.0928 -30.0841 -30.0820 -30.0667 -30.0629 -30.0582 -30.0544
   -19.9623 -19.9621 -19.9617 -19.9616 -19.9616 -19.9615 -19.9610 -19.9609
   -19.9479 -19.9477 -19.9473 -19.9471 -19.9470 -19.9469 -19.9463 -19.9462
   -19.9422 -19.9418 -19.9416 -19.9409 -19.9407 -19.9406 -19.9403 -19.9399
   -19.9394 -19.9390 -19.9389 -19.9385 -19.9380 -19.9376 -19.9375 -19.9372
   -19.9292 -19.9291 -19.9288 -19.9288 -19.9256 -19.9254 -19.9251 -19.9250
   -19.9148 -19.9148 -19.9138 -19.9137 -19.9093 -19.9093 -19.9084 -19.9084
   -19.9036 -19.9035 -19.9024 -19.9024 -19.8999 -19.8999 -19.8988 -19.8987
    -9.6086  -9.4486  -9.1347  -9.1267  -8.9973  -8.9627  -8.7283  -8.7168
    -8.5685  -8.4591  -8.4418  -8.4309  -7.9774  -7.9274  -7.8960  -7.8755
    -7.6242  -7.6199  -7.5538  -7.5486  -7.4557  -7.4411  -7.4402  -7.4215
     1.5769   1.5845   1.6354   1.6413   1.7226   1.7274   1.9242   1.9630
     2.5476   2.6567   2.6705   2.6936   2.7578   2.8780   3.0427   3.1553
     3.1659   3.3246   3.8008   3.8113   3.9778   3.9789   4.3182   4.6419
     4.7854   4.9173   4.9867   5.0033   5.0671   5.1285   5.2637   5.2819
     5.3722   5.3784   5.6759   5.7347   5.7756   5.8194   5.9380   6.0018
     6.0106   6.0149   6.0983   6.1113   6.1488   6.1988   6.2428   6.3202
     6.3534   6.3910   6.5558   6.6916   6.7796   6.8529   6.9938   7.0254
     7.0443   7.1102   7.2970   7.3060   7.3260   7.3454   7.4120   7.4153
     7.5436   7.5456   7.8767   7.9268   7.9968   8.0133   8.0585   8.1020
    10.0360  10.0372  10.9838  11.0676  11.1016  11.1016  12.0240  12.2915
    12.2975  12.3904  12.6164  12.6239  12.7429  12.7556  12.7975  12.9316
    13.4744  13.5246  13.5614  13.5848  13.7993  13.9356  13.9662  14.0042
    15.2278  15.5476  15.6106  15.6385  15.6864  15.9377  16.0659  16.1480
    16.2333  17.1963  17.4928  17.7019  17.8535

          k = 0.0000 0.3198 0.1655 ( 61484 PWs)   bands (ev):

   -65.8116 -65.8113 -65.8108 -65.8105 -65.8105 -65.8102 -65.8097 -65.8095
   -30.2370 -30.2293 -30.2274 -30.2182 -30.2147 -30.2054 -30.2042 -30.1880
   -30.1860 -30.1859 -30.1658 -30.1598 -30.1585 -30.1518 -30.1418 -30.1289
   -30.0984 -30.0978 -30.0894 -30.0869 -30.0663 -30.0625 -30.0593 -30.0555
   -19.9622 -19.9621 -19.9617 -19.9616 -19.9616 -19.9615 -19.9610 -19.9609
   -19.9478 -19.9476 -19.9474 -19.9471 -19.9470 -19.9469 -19.9464 -19.9462
   -19.9421 -19.9417 -19.9415 -19.9409 -19.9408 -19.9407 -19.9404 -19.9399
   -19.9394 -19.9390 -19.9388 -19.9385 -19.9379 -19.9376 -19.9375 -19.9372
   -19.9291 -19.9290 -19.9289 -19.9288 -19.9255 -19.9254 -19.9251 -19.9251
   -19.9145 -19.9144 -19.9134 -19.9134 -19.9097 -19.9097 -19.9088 -19.9087
   -19.9035 -19.9034 -19.9025 -19.9024 -19.8999 -19.8998 -19.8989 -19.8988
    -9.5589  -9.3943  -9.1453  -9.0638  -8.9794  -8.9140  -8.6922  -8.6815
    -8.5772  -8.4538  -8.4445  -8.4168  -7.9795  -7.9345  -7.8963  -7.8816
    -7.7244  -7.7067  -7.5764  -7.5679  -7.5522  -7.5445  -7.4490  -7.4303
     1.6870   1.6890   1.7239   1.7293   1.8809   1.8820   2.0504   2.0975
     2.5635   2.6666   2.7324   2.7573   2.7840   2.8840   3.0494   3.1591
     3.2369   3.4035   3.8117   3.8892   3.9629   3.9841   4.2920   4.5953
     4.6196   4.6644   4.7917   4.9678   5.0069   5.0711   5.1147   5.1389
     5.3160   5.4028   5.5107   5.5744   5.6183   5.7326   5.8028   5.8973
     5.9506   5.9514   6.0105   6.0961   6.1674   6.1802   6.1982   6.3191
     6.4992   6.5747   6.6701   6.7430   6.8081   6.9658   7.0151   7.1006
     7.1095   7.1448   7.2354   7.2590   7.2698   7.2824   7.3186   7.3737
     7.4270   7.4498   7.8969   7.9325   7.9928   8.0231   8.0359   8.0728
    10.2978  10.3016  11.1019  11.1147  11.1431  11.2295  12.1080  12.2829
    12.3634  12.3925  12.5620  12.5659  12.7886  12.8203  12.8329  12.9863
    13.3613  13.4313  13.4808  13.5314  13.7992  13.8313  13.9434  13.9593
    15.3099  15.5801  15.6455  15.7584  15.7771  15.9950  16.1162  16.3215
    16.4100  17.1624  17.5436  17.5511  17.7925

          k = 0.0000 0.3198 0.3309 ( 61501 PWs)   bands (ev):

   -65.8114 -65.8111 -65.8110 -65.8107 -65.8104 -65.8101 -65.8099 -65.8096
   -30.2348 -30.2305 -30.2247 -30.2196 -30.2112 -30.2061 -30.1986 -30.1895
   -30.1771 -30.1769 -30.1627 -30.1565 -30.1520 -30.1479 -30.1347 -30.1237
   -30.1123 -30.1123 -30.1034 -30.0993 -30.0653 -30.0616 -30.0615 -30.0577
   -19.9621 -19.9620 -19.9618 -19.9617 -19.9615 -19.9614 -19.9612 -19.9610
   -19.9477 -19.9475 -19.9475 -19.9472 -19.9468 -19.9467 -19.9465 -19.9463
   -19.9419 -19.9416 -19.9413 -19.9412 -19.9410 -19.9407 -19.9407 -19.9402
   -19.9392 -19.9390 -19.9387 -19.9385 -19.9378 -19.9375 -19.9374 -19.9372
   -19.9291 -19.9290 -19.9289 -19.9289 -19.9255 -19.9253 -19.9252 -19.9251
   -19.9135 -19.9135 -19.9125 -19.9125 -19.9108 -19.9107 -19.9098 -19.9098
   -19.9033 -19.9032 -19.9027 -19.9026 -19.8996 -19.8996 -19.8991 -19.8990
    -9.4360  -9.2620  -9.2022  -9.0313  -8.8826  -8.6789  -8.6116  -8.5824
    -8.5597  -8.4574  -8.4257  -8.3534  -8.0555  -8.0065  -7.9884  -7.9273
    -7.8985  -7.8695  -7.8643  -7.7887  -7.5410  -7.5230  -7.4733  -7.4547
     1.7293   1.7370   1.7451   1.7525   2.4420   2.5178   2.5362   2.6069
     2.6874   2.7214   2.7558   2.9425   3.0259   3.0327   3.0727   3.1516
     3.4542   3.5900   3.8439   3.8992   3.9614   3.9929   4.0511   4.1030
     4.3017   4.5061   4.5129   4.6299   4.6359   4.8083   4.8450   4.9828
     5.0029   5.1472   5.3142   5.4209   5.4467   5.4644   5.5031   5.6223
     5.6641   5.8523   5.8765   6.0536   6.2544   6.3065   6.3092   6.3506
     6.6401   6.6810   6.7418   6.8260   6.8334   6.9438   6.9711   6.9722
     7.1735   7.1799   7.2297   7.2771   7.2975   7.3437   7.4134   7.4158
     7.4529   7.5332   7.8831   7.8872   7.9594   7.9678   7.9882   8.0128
    10.8652  10.8960  11.0992  11.1867  11.5772  11.6628  12.1312  12.2356
    12.3628  12.3750  12.4110  12.5658  12.7830  12.8659  12.8952  12.9255
    12.9826  13.2513  13.2767  13.4937  13.5221  13.8077  13.8134  13.9302
    15.4249  15.5547  15.7389  16.0336  16.1848  16.2606  16.2774  16.9002
    17.0266  17.0444  17.0910  17.7456  17.8403

          k = 0.0000 0.3198-0.4964 ( 61490 PWs)   bands (ev):

   -65.8112 -65.8112 -65.8109 -65.8109 -65.8101 -65.8101 -65.8099 -65.8099
   -30.2324 -30.2324 -30.2219 -30.2219 -30.2082 -30.2082 -30.1931 -30.1931
   -30.1682 -30.1682 -30.1651 -30.1651 -30.1324 -30.1324 -30.1310 -30.1310
   -30.1208 -30.1208 -30.1135 -30.1135 -30.0637 -30.0637 -30.0598 -30.0598
   -19.9620 -19.9620 -19.9619 -19.9619 -19.9613 -19.9613 -19.9612 -19.9612
   -19.9476 -19.9476 -19.9474 -19.9474 -19.9467 -19.9466 -19.9465 -19.9465
   -19.9416 -19.9416 -19.9413 -19.9413 -19.9410 -19.9410 -19.9405 -19.9405
   -19.9391 -19.9391 -19.9386 -19.9386 -19.9376 -19.9376 -19.9373 -19.9373
   -19.9290 -19.9290 -19.9289 -19.9289 -19.9253 -19.9253 -19.9252 -19.9252
   -19.9122 -19.9122 -19.9121 -19.9121 -19.9112 -19.9112 -19.9111 -19.9111
   -19.9030 -19.9030 -19.9029 -19.9029 -19.8994 -19.8994 -19.8993 -19.8993
    -9.3017  -9.3017  -9.1253  -9.1253  -8.7009  -8.7009  -8.4855  -8.4855
    -8.3501  -8.3501  -8.3145  -8.3145  -8.2776  -8.2776  -8.1738  -8.1738
    -7.9285  -7.9285  -7.8583  -7.8583  -7.5070  -7.5070  -7.4886  -7.4886
     1.7408   1.7408   1.7497   1.7497   2.5784   2.5784   2.7276   2.7276
     3.0746   3.0746   3.2854   3.2854   3.3335   3.3335   3.4205   3.4205
     3.4593   3.4593   3.6777   3.6777   3.7236   3.7236   3.9392   3.9392
     4.2256   4.2256   4.2922   4.2922   4.3626   4.3626   4.5197   4.5197
     5.0938   5.0938   5.2717   5.2717   5.4239   5.4239   5.5322   5.5322
     5.6967   5.6967   5.9676   5.9676   6.3326   6.3326   6.4090   6.4090
     6.6552   6.6552   6.6873   6.6873   6.7821   6.7821   6.9144   6.9144
     7.2390   7.2390   7.2912   7.2913   7.3314   7.3314   7.6806   7.6806
     7.7109   7.7109   7.7466   7.7466   7.8062   7.8062   7.9938   7.9938
    11.0787  11.0787  11.5750  11.5750  11.6821  11.6821  12.1177  12.1177
    12.2501  12.2501  12.4914  12.4914  12.7153  12.7153  12.8578  12.8578
    13.1387  13.1387  13.1557  13.1557  13.6275  13.6275  13.8463  13.8463
    15.5041  15.5041  15.8984  15.8984  16.5290  16.5290  16.7745  16.7745
    17.0986  17.0986  17.5376  17.5377  18.0489

          k = 0.0000-0.4796 0.0000 ( 61446 PWs)   bands (ev):

   -65.8115 -65.8115 -65.8106 -65.8106 -65.8104 -65.8104 -65.8096 -65.8095
   -30.2264 -30.2264 -30.2171 -30.2171 -30.2156 -30.2156 -30.2021 -30.2021
   -30.1898 -30.1898 -30.1674 -30.1673 -30.1552 -30.1552 -30.1379 -30.1379
   -30.0932 -30.0931 -30.0833 -30.0833 -30.0649 -30.0649 -30.0564 -30.0564
   -19.9620 -19.9619 -19.9618 -19.9618 -19.9613 -19.9613 -19.9612 -19.9612
   -19.9478 -19.9478 -19.9472 -19.9472 -19.9470 -19.9470 -19.9463 -19.9462
   -19.9418 -19.9417 -19.9412 -19.9412 -19.9404 -19.9403 -19.9400 -19.9400
   -19.9388 -19.9388 -19.9385 -19.9384 -19.9384 -19.9384 -19.9380 -19.9380
   -19.9291 -19.9291 -19.9288 -19.9288 -19.9255 -19.9255 -19.9251 -19.9251
   -19.9148 -19.9148 -19.9138 -19.9137 -19.9093 -19.9093 -19.9084 -19.9084
   -19.9035 -19.9035 -19.9024 -19.9024 -19.8999 -19.8999 -19.8988 -19.8988
    -9.5187  -9.5187  -9.0501  -9.0501  -9.0267  -9.0267  -8.7225  -8.7225
    -8.2717  -8.2717  -8.2173  -8.2172  -8.2072  -8.2072  -8.1946  -8.1946
    -7.6231  -7.6231  -7.5527  -7.5527  -7.4489  -7.4489  -7.4318  -7.4318
     1.5800   1.5800   1.6384   1.6384   1.7270   1.7270   1.9544   1.9544
     2.6657   2.6657   3.1965   3.1965   3.3289   3.3289   3.3899   3.3899
     3.4192   3.4192   3.5805   3.5805   3.8147   3.8147   3.9371   3.9372
     4.0254   4.0254   4.9368   4.9368   5.0775   5.0775   5.4274   5.4275
     5.4938   5.4938   5.5968   5.5968   5.6159   5.6159   5.9912   5.9912
     6.0249   6.0249   6.0744   6.0744   6.2145   6.2145   6.2820   6.2820
     6.3857   6.3857   6.5325   6.5325   6.8704   6.8704   6.9304   6.9304
     7.0776   7.0776   7.4023   7.4023   7.5164   7.5164   7.6470   7.6470
     7.6798   7.6798   7.7368   7.7368   7.7886   7.7887   7.9519   7.9519
    10.0402  10.0402  11.5187  11.5187  11.6077  11.6077  11.7390  11.7390
    11.8421  11.8421  12.6205  12.6205  12.7782  12.7782  12.8540  12.8540
    13.5999  13.5999  13.6020  13.6020  13.7191  13.7191  13.8653  13.8653
    15.5607  15.5607  15.7867  15.7867  15.8951  15.8951  15.9402  15.9402
    16.8011  16.8011  18.2466  18.2473  18.3100

          k = 0.0000-0.4796 0.1655 ( 61484 PWs)   bands (ev):

   -65.8114 -65.8114 -65.8107 -65.8106 -65.8104 -65.8104 -65.8096 -65.8096
   -30.2251 -30.2251 -30.2165 -30.2165 -30.2148 -30.2148 -30.2027 -30.2027
   -30.1863 -30.1862 -30.1632 -30.1632 -30.1562 -30.1562 -30.1361 -30.1361
   -30.0982 -30.0982 -30.0884 -30.0884 -30.0646 -30.0646 -30.0576 -30.0576
   -19.9619 -19.9619 -19.9618 -19.9618 -19.9614 -19.9613 -19.9613 -19.9612
   -19.9477 -19.9477 -19.9473 -19.9472 -19.9469 -19.9469 -19.9463 -19.9463
   -19.9417 -19.9417 -19.9412 -19.9412 -19.9405 -19.9405 -19.9402 -19.9401
   -19.9388 -19.9388 -19.9384 -19.9384 -19.9383 -19.9383 -19.9380 -19.9380
   -19.9291 -19.9291 -19.9288 -19.9288 -19.9255 -19.9255 -19.9251 -19.9251
   -19.9145 -19.9144 -19.9134 -19.9134 -19.9097 -19.9097 -19.9088 -19.9088
   -19.9035 -19.9034 -19.9025 -19.9025 -19.8998 -19.8998 -19.8988 -19.8988
    -9.4660  -9.4660  -9.0446  -9.0446  -8.9702  -8.9702  -8.6869  -8.6869
    -8.2767  -8.2767  -8.2220  -8.2220  -8.2089  -8.2089  -8.1885  -8.1885
    -7.7179  -7.7179  -7.5714  -7.5714  -7.5514  -7.5514  -7.4406  -7.4406
     1.6881   1.6881   1.7286   1.7286   1.8829   1.8829   2.0883   2.0883
     2.7554   2.7554   3.2171   3.2171   3.3253   3.3253   3.3827   3.3827
     3.4831   3.4831   3.5695   3.5695   3.8244   3.8244   3.9562   3.9562
     4.0570   4.0570   4.6191   4.6191   5.0590   5.0590   5.2349   5.2349
     5.3348   5.3349   5.5169   5.5169   5.5861   5.5862   5.7450   5.7450
     5.9578   5.9578   6.0227   6.0227   6.1745   6.1745   6.2913   6.2913
     6.5667   6.5667   6.6418   6.6418   6.8656   6.8656   7.0720   7.0720
     7.1571   7.1571   7.2723   7.2723   7.3397   7.3397   7.6664   7.6664
     7.6723   7.6723   7.7248   7.7248   7.7728   7.7728   7.9679   7.9679
    10.3061  10.3061  11.6264  11.6264  11.6993  11.6993  11.7479  11.7479
    11.8647  11.8647  12.5577  12.5577  12.8115  12.8115  12.9360  12.9360
    13.4532  13.4532  13.5650  13.5650  13.6072  13.6072  13.8793  13.8793
    15.5663  15.5663  15.8889  15.8889  15.9789  15.9789  16.1476  16.1476
    16.8566  16.8566  18.0977  18.0978  18.2272

          k = 0.0000-0.4796 0.3309 ( 61516 PWs)   bands (ev):

   -65.8113 -65.8113 -65.8108 -65.8108 -65.8102 -65.8102 -65.8098 -65.8098
   -30.2223 -30.2223 -30.2176 -30.2176 -30.2110 -30.2109 -30.2043 -30.2043
   -30.1769 -30.1769 -30.1599 -30.1599 -30.1506 -30.1506 -30.1299 -30.1299
   -30.1124 -30.1124 -30.1018 -30.1018 -30.0635 -30.0635 -30.0598 -30.0598
   -19.9618 -19.9618 -19.9617 -19.9617 -19.9615 -19.9615 -19.9614 -19.9614
   -19.9476 -19.9476 -19.9473 -19.9473 -19.9468 -19.9468 -19.9464 -19.9464
   -19.9415 -19.9415 -19.9410 -19.9410 -19.9408 -19.9408 -19.9404 -19.9404
   -19.9386 -19.9386 -19.9384 -19.9384 -19.9382 -19.9382 -19.9380 -19.9380
   -19.9290 -19.9290 -19.9289 -19.9289 -19.9254 -19.9254 -19.9252 -19.9252
   -19.9135 -19.9135 -19.9125 -19.9125 -19.9107 -19.9107 -19.9098 -19.9098
   -19.9032 -19.9032 -19.9027 -19.9027 -19.8996 -19.8996 -19.8990 -19.8990
    -9.3365  -9.3364  -9.0998  -9.0998  -8.7498  -8.7498  -8.5682  -8.5682
    -8.3119  -8.3119  -8.2444  -8.2443  -8.2057  -8.2057  -8.1651  -8.1650
    -7.9721  -7.9721  -7.8480  -7.8480  -7.5332  -7.5332  -7.4650  -7.4650
     1.7355   1.7355   1.7509   1.7509   2.5285   2.5285   2.6684   2.6684
     3.0078   3.0078   3.2541   3.2541   3.3216   3.3216   3.4080   3.4080
     3.4951   3.4951   3.6542   3.6542   3.7892   3.7892   4.0297   4.0298
     4.0717   4.0717   4.1220   4.1220   4.6796   4.6797   4.8410   4.8411
     5.0077   5.0077   5.1090   5.1090   5.4846   5.4846   5.5376   5.5376
     5.6444   5.6444   5.9221   5.9221   6.3093   6.3093   6.3488   6.3488
     6.6763   6.6764   6.7708   6.7708   6.8654   6.8654   6.9933   6.9933
     7.2737   7.2737   7.3437   7.3437   7.3908   7.3908   7.6421   7.6421
     7.6822   7.6822   7.6992   7.6992   7.7492   7.7492   7.9316   7.9316
    10.9109  10.9109  11.7163  11.7163  11.7887  11.7887  11.9857  11.9857
    12.0999  12.0999  12.2552  12.2552  12.9057  12.9057  12.9388  12.9388
    13.0603  13.0603  13.2484  13.2484  13.6233  13.6233  13.8269  13.8269
    15.6239  15.6240  15.8452  15.8452  16.5097  16.5097  16.8312  16.8313
    17.0533  17.0533  17.6176  17.6176  18.0641

          k = 0.0000-0.4796-0.4964 ( 61500 PWs)   bands (ev):

   -65.8110 -65.8110 -65.8110 -65.8110 -65.8100 -65.8100 -65.8100 -65.8100
   -30.2197 -30.2197 -30.2196 -30.2196 -30.2071 -30.2071 -30.2071 -30.2071
   -30.1667 -30.1667 -30.1667 -30.1667 -30.1320 -30.1320 -30.1320 -30.1320
   -30.1178 -30.1178 -30.1178 -30.1178 -30.0619 -30.0619 -30.0619 -30.0619
   -19.9616 -19.9616 -19.9616 -19.9616 -19.9615 -19.9615 -19.9615 -19.9615
   -19.9475 -19.9475 -19.9475 -19.9475 -19.9466 -19.9466 -19.9466 -19.9466
   -19.9412 -19.9412 -19.9412 -19.9412 -19.9408 -19.9408 -19.9407 -19.9407
   -19.9385 -19.9385 -19.9385 -19.9385 -19.9381 -19.9381 -19.9381 -19.9381
   -19.9290 -19.9290 -19.9290 -19.9290 -19.9253 -19.9253 -19.9253 -19.9253
   -19.9121 -19.9121 -19.9121 -19.9121 -19.9112 -19.9112 -19.9112 -19.9112
   -19.9030 -19.9030 -19.9029 -19.9029 -19.8993 -19.8993 -19.8993 -19.8993
    -9.1984  -9.1984  -9.1984  -9.1984  -8.4699  -8.4698  -8.4698  -8.4698
    -8.3636  -8.3636  -8.3636  -8.3636  -8.1706  -8.1706  -8.1705  -8.1705
    -8.0858  -8.0858  -8.0858  -8.0858  -7.4990  -7.4990  -7.4990  -7.4990
     1.7477   1.7477   1.7477   1.7477   3.1765   3.1765   3.1765   3.1766
     3.2872   3.2872   3.2872   3.2872   3.4170   3.4170   3.4170   3.4170
     3.5080   3.5080   3.5080   3.5080   3.7673   3.7673   3.7673   3.7673
     3.9185   3.9185   3.9186   3.9186   4.5630   4.5630   4.5630   4.5630
     4.6816   4.6816   4.6816   4.6816   5.4913   5.4913   5.4913   5.4914
     5.7753   5.7753   5.7753   5.7753   6.3935   6.3935   6.3935   6.3935
     6.6982   6.6982   6.6982   6.6982   6.8237   6.8237   6.8237   6.8237
     7.4770   7.4770   7.4770   7.4771   7.5814   7.5814   7.5814   7.5814
     7.6749   7.6749   7.6749   7.6750   7.7858   7.7858   7.7858   7.7858
    11.5431  11.5431  11.5431  11.5431  11.8484  11.8484  11.8484  11.8485
    12.4864  12.4864  12.4864  12.4864  12.5588  12.5588  12.5588  12.5588
    13.0798  13.0798  13.0798  13.0798  13.6951  13.6951  13.6951  13.6951
    15.7416  15.7416  15.7416  15.7416  17.1377  17.1378  17.1378  17.1378
    17.5215  17.5215  17.5215  17.5215  17.6708

          k = 0.1667 0.0000 0.0000 ( 61466 PWs)   bands (ev):

   -65.8117 -65.8111 -65.8108 -65.8108 -65.8102 -65.8102 -65.8099 -65.8093
   -30.2501 -30.2426 -30.2419 -30.2339 -30.2079 -30.2017 -30.1919 -30.1872
   -30.1856 -30.1731 -30.1723 -30.1564 -30.1544 -30.1449 -30.1413 -30.1188
   -30.0960 -30.0945 -30.0840 -30.0792 -30.0742 -30.0659 -30.0640 -30.0560
   -19.9626 -19.9625 -19.9620 -19.9619 -19.9614 -19.9612 -19.9607 -19.9606
   -19.9479 -19.9476 -19.9474 -19.9471 -19.9469 -19.9469 -19.9465 -19.9461
   -19.9428 -19.9425 -19.9417 -19.9414 -19.9413 -19.9407 -19.9404 -19.9399
   -19.9396 -19.9391 -19.9391 -19.9387 -19.9369 -19.9367 -19.9363 -19.9361
   -19.9289 -19.9287 -19.9286 -19.9285 -19.9259 -19.9256 -19.9254 -19.9252
   -19.9148 -19.9147 -19.9139 -19.9138 -19.9093 -19.9092 -19.9084 -19.9084
   -19.9034 -19.9032 -19.9022 -19.9021 -19.9002 -19.9001 -19.8991 -19.8990
    -9.6778  -9.3443  -9.2847  -9.2215  -8.9785  -8.8684  -8.8363  -8.7069
    -8.6701  -8.6248  -8.6047  -8.5583  -7.7579  -7.6733  -7.6316  -7.5996
    -7.5925  -7.5548  -7.5544  -7.5267  -7.5066  -7.4914  -7.4719  -7.4315
     1.6281   1.6295   1.6318   1.6357   1.7340   1.7689   1.8402   1.8556
     1.9575   2.0720   2.1627   2.3126   2.6969   2.8067   2.8092   2.8373
     2.9658   2.9936   4.2519   4.3893   4.5298   4.5900   4.6816   4.7710
     4.8101   4.9669   4.9823   4.9892   5.0430   5.3303   5.4460   5.6244
     5.6732   5.7198   5.7476   5.7601   5.8023   5.8581   5.8611   5.9221
     6.0148   6.0261   6.0851   6.0993   6.1294   6.1597   6.2983   6.2994
     6.4497   6.5615   6.6326   6.6775   6.8985   6.9142   7.0082   7.0240
     7.0395   7.0498   7.0525   7.0881   7.1115   7.1739   7.3013   7.3061
     7.4037   7.4051   7.9334   7.9520   8.0736   8.1436   8.3256   8.3634
    10.2512  10.2878  10.4424  10.4811  10.6125  10.7132  12.3156  12.5384
    12.5616  12.6453  12.7243  12.7990  12.8406  12.9167  13.0432  13.0611
    13.3414  13.4409  13.5324  13.6009  13.8332  13.8803  14.2966  14.2984
    14.8253  14.8433  15.1290  15.2559  15.6830  15.6957  15.8336  16.1348
    16.5588  16.8591  17.1065  17.4243  17.8902

          k = 0.1667 0.0000 0.1655 ( 61474 PWs)   bands (ev):

   -65.8116 -65.8111 -65.8109 -65.8107 -65.8103 -65.8102 -65.8099 -65.8094
   -30.2493 -30.2423 -30.2418 -30.2343 -30.2050 -30.1979 -30.1923 -30.1832
   -30.1831 -30.1733 -30.1677 -30.1572 -30.1522 -30.1443 -30.1418 -30.1176
   -30.1006 -30.0992 -30.0894 -30.0836 -30.0739 -30.0659 -30.0652 -30.0573
   -19.9626 -19.9625 -19.9621 -19.9620 -19.9613 -19.9612 -19.9607 -19.9606
   -19.9478 -19.9475 -19.9474 -19.9470 -19.9469 -19.9469 -19.9465 -19.9462
   -19.9427 -19.9425 -19.9418 -19.9415 -19.9413 -19.9407 -19.9405 -19.9400
   -19.9396 -19.9391 -19.9391 -19.9387 -19.9369 -19.9366 -19.9364 -19.9361
   -19.9289 -19.9287 -19.9286 -19.9285 -19.9258 -19.9256 -19.9254 -19.9253
   -19.9144 -19.9143 -19.9135 -19.9134 -19.9096 -19.9096 -19.9088 -19.9088
   -19.9033 -19.9032 -19.9023 -19.9022 -19.9002 -19.9000 -19.8992 -19.8990
    -9.6310  -9.2852  -9.2389  -9.2291  -8.8947  -8.8778  -8.8522  -8.6666
    -8.6394  -8.6206  -8.5739  -8.5635  -7.7735  -7.7258  -7.6617  -7.6515
    -7.6333  -7.6104  -7.5836  -7.5717  -7.5351  -7.5103  -7.5040  -7.4943
     1.7149   1.7545   1.7588   1.8211   1.8305   1.8347   1.8831   1.9586
     1.9827   2.0731   2.2132   2.3679   2.7884   2.8443   2.8852   2.9061
     2.9902   3.0567   4.2461   4.3009   4.5428   4.5621   4.6722   4.6787
     4.7207   4.7594   4.8228   4.8678   5.0234   5.1462   5.4184   5.4677
     5.5379   5.6032   5.6038   5.7405   5.7716   5.7838   5.8339   5.9268
     5.9333   5.9611   5.9763   6.0425   6.0842   6.2774   6.3132   6.3278
     6.5560   6.6610   6.7774   6.8329   6.8501   6.8706   6.9272   6.9561
     6.9935   6.9953   7.0422   7.1129   7.1229   7.1375   7.1868   7.2530
     7.4024   7.4496   7.9431   7.9526   8.0918   8.1472   8.2819   8.3192
    10.3995  10.4372  10.6302  10.6837  10.6958  10.8163  12.3563  12.5197
    12.5740  12.5927  12.7530  12.7811  12.8493  12.9839  13.0381  13.0613
    13.2925  13.4489  13.4616  13.5584  13.8682  13.8775  14.1734  14.2038
    14.8563  14.9499  15.1236  15.3739  15.7363  15.7574  15.8111  16.3939
    16.5252  17.0198  17.1187  17.2830  17.9200

          k = 0.1667 0.0000 0.3309 ( 61474 PWs)   bands (ev):

   -65.8115 -65.8110 -65.8109 -65.8106 -65.8105 -65.8101 -65.8100 -65.8096
   -30.2475 -30.2436 -30.2398 -30.2356 -30.1995 -30.1936 -30.1891 -30.1758
   -30.1744 -30.1737 -30.1597 -30.1534 -30.1497 -30.1445 -30.1355 -30.1138
   -30.1134 -30.1130 -30.1037 -30.0944 -30.0728 -30.0686 -30.0643 -30.0600
   -19.9625 -19.9624 -19.9622 -19.9621 -19.9612 -19.9611 -19.9609 -19.9608
   -19.9477 -19.9475 -19.9474 -19.9470 -19.9469 -19.9467 -19.9466 -19.9463
   -19.9425 -19.9423 -19.9419 -19.9418 -19.9412 -19.9407 -19.9406 -19.9402
   -19.9395 -19.9392 -19.9390 -19.9388 -19.9367 -19.9365 -19.9364 -19.9362
   -19.9289 -19.9287 -19.9287 -19.9286 -19.9257 -19.9255 -19.9255 -19.9253
   -19.9135 -19.9134 -19.9126 -19.9125 -19.9107 -19.9107 -19.9099 -19.9098
   -19.9031 -19.9029 -19.9025 -19.9024 -19.8999 -19.8998 -19.8994 -19.8992
    -9.5153  -9.2933  -9.1407  -9.0983  -8.9098  -8.9020  -8.6571  -8.6113
    -8.5775  -8.5325  -8.5280  -8.4600  -7.9913  -7.9873  -7.9086  -7.8871
    -7.6923  -7.6484  -7.6224  -7.5723  -7.5500  -7.5261  -7.5229  -7.5027
     1.7248   1.7447   1.8000   1.8228   1.9695   1.9870   2.0528   2.0763
     2.5452   2.5974   2.6696   2.7776   2.8661   2.9543   3.0597   3.1411
     3.1805   3.2944   3.9581   4.1114   4.1351   4.1411   4.3417   4.5122
     4.5366   4.6894   4.7094   4.7523   4.9225   5.0157   5.0412   5.1213
     5.2071   5.3115   5.4042   5.4712   5.5150   5.5781   5.8316   5.8381
     5.9133   5.9465   6.0693   6.0744   6.1069   6.1791   6.2586   6.3180
     6.5844   6.6220   6.6645   6.7439   6.7619   6.8373   6.9453   6.9770
     6.9901   7.0824   7.0858   7.1150   7.2408   7.2551   7.4055   7.4106
     7.4644   7.5485   7.9153   7.9262   8.0926   8.1458   8.1527   8.1779
    10.5456  10.5673  11.0084  11.1260  11.2376  11.3643  12.2155  12.3051
    12.4417  12.5028  12.6222  12.6925  12.8815  12.9599  13.0706  13.1760
    13.1979  13.3404  13.3770  13.5356  13.8213  13.8789  13.9089  13.9926
    14.9684  15.1064  15.2403  15.6635  15.7175  15.9551  16.1457  16.4347
    16.6123  17.1650  17.5018  17.6352  17.7394

          k = 0.1667 0.0000-0.4964 ( 61466 PWs)   bands (ev):

   -65.8112 -65.8112 -65.8107 -65.8107 -65.8103 -65.8103 -65.8098 -65.8098
   -30.2454 -30.2454 -30.2376 -30.2376 -30.1958 -30.1958 -30.1809 -30.1809
   -30.1650 -30.1650 -30.1609 -30.1609 -30.1332 -30.1332 -30.1304 -30.1304
   -30.1216 -30.1216 -30.1059 -30.1059 -30.0711 -30.0711 -30.0625 -30.0625
   -19.9624 -19.9623 -19.9622 -19.9622 -19.9610 -19.9610 -19.9609 -19.9609
   -19.9476 -19.9476 -19.9472 -19.9472 -19.9468 -19.9468 -19.9465 -19.9465
   -19.9423 -19.9422 -19.9421 -19.9421 -19.9410 -19.9410 -19.9404 -19.9404
   -19.9393 -19.9393 -19.9388 -19.9388 -19.9366 -19.9366 -19.9363 -19.9363
   -19.9288 -19.9288 -19.9286 -19.9286 -19.9256 -19.9256 -19.9254 -19.9254
   -19.9121 -19.9121 -19.9120 -19.9120 -19.9113 -19.9113 -19.9112 -19.9112
   -19.9028 -19.9028 -19.9027 -19.9027 -19.8996 -19.8996 -19.8995 -19.8995
    -9.3883  -9.3883  -8.9956  -8.9956  -8.9781  -8.9781  -8.5947  -8.5947
    -8.3333  -8.3332  -8.3082  -8.3082  -8.2633  -8.2633  -8.2095  -8.2095
    -7.6713  -7.6713  -7.5929  -7.5929  -7.5446  -7.5446  -7.5138  -7.5138
     1.7326   1.7326   1.8113   1.8113   1.9880   1.9881   2.0831   2.0831
     2.8861   2.8861   3.2487   3.2488   3.3136   3.3137   3.4097   3.4097
     3.4744   3.4744   3.5995   3.5995   3.8386   3.8386   4.0212   4.0212
     4.0730   4.0730   4.5960   4.5960   4.8323   4.8323   5.1743   5.1743
     5.2283   5.2283   5.3231   5.3231   5.4603   5.4603   5.8673   5.8673
     5.9323   5.9324   6.0167   6.0167   6.1251   6.1251   6.2540   6.2540
     6.5332   6.5332   6.6922   6.6922   6.7637   6.7637   6.9868   6.9868
     7.0663   7.0663   7.1020   7.1020   7.1755   7.1755   7.7231   7.7231
     7.7526   7.7526   7.8351   7.8352   7.9215   7.9216   8.1406   8.1406
    10.5732  10.5732  11.6329  11.6329  11.7601  11.7601  11.9027  11.9027
    12.0652  12.0652  12.5884  12.5884  13.0560  13.0560  13.1072  13.1072
    13.2230  13.2230  13.5275  13.5275  13.6164  13.6164  13.9122  13.9122
    15.0636  15.0636  15.5320  15.5320  16.0734  16.0734  16.2350  16.2350
    16.9298  16.9298  18.0309  18.0309  18.1819

          k = 0.1667 0.1599 0.0000 ( 61481 PWs)   bands (ev):

   -65.8117 -65.8112 -65.8108 -65.8107 -65.8103 -65.8103 -65.8099 -65.8094
   -30.2465 -30.2389 -30.2380 -30.2296 -30.2097 -30.2031 -30.1945 -30.1872
   -30.1861 -30.1764 -30.1726 -30.1569 -30.1557 -30.1444 -30.1421 -30.1213
   -30.0959 -30.0946 -30.0839 -30.0799 -30.0738 -30.0666 -30.0636 -30.0568
   -19.9625 -19.9624 -19.9619 -19.9618 -19.9614 -19.9613 -19.9608 -19.9607
   -19.9478 -19.9476 -19.9473 -19.9471 -19.9470 -19.9469 -19.9465 -19.9461
   -19.9426 -19.9423 -19.9416 -19.9412 -19.9412 -19.9407 -19.9403 -19.9399
   -19.9396 -19.9391 -19.9391 -19.9387 -19.9372 -19.9369 -19.9367 -19.9364
   -19.9289 -19.9288 -19.9286 -19.9285 -19.9258 -19.9256 -19.9254 -19.9252
   -19.9148 -19.9147 -19.9139 -19.9138 -19.9093 -19.9092 -19.9084 -19.9084
   -19.9034 -19.9032 -19.9022 -19.9021 -19.9002 -19.9001 -19.8991 -19.8990
    -9.6440  -9.3578  -9.2450  -9.1732  -8.9869  -8.8467  -8.7926  -8.7003
    -8.6718  -8.5855  -8.5672  -8.5282  -7.7874  -7.6959  -7.6802  -7.6492
    -7.6408  -7.6098  -7.5955  -7.5693  -7.5399  -7.5222  -7.4702  -7.4410
     1.6285   1.6360   1.6413   1.6427   1.8802   1.8895   1.9550   2.0507
     2.0694   2.1647   2.1895   2.3910   2.7082   2.8017   2.8907   2.9153
     3.0490   3.0633   4.1419   4.2483   4.3588   4.5121   4.5493   4.6751
     4.7597   4.9119   4.9351   4.9916   5.0914   5.2418   5.3064   5.4963
     5.5926   5.6660   5.6936   5.7334   5.7626   5.8177   5.8689   5.9145
     5.9854   6.0372   6.0851   6.0991   6.1173   6.1629   6.1862   6.2997
     6.4432   6.5318   6.6446   6.7094   6.8732   6.9100   6.9876   6.9965
     7.0252   7.0658   7.1179   7.1611   7.1679   7.1714   7.2988   7.3036
     7.4038   7.4160   7.9294   7.9515   8.0679   8.1184   8.2747   8.2850
    10.2759  10.3070  10.5985  10.6044  10.7769  10.8582  12.2670  12.5630
    12.5724  12.6359  12.7055  12.7283  12.7765  12.8293  12.9060  13.0304
    13.3216  13.4523  13.5377  13.5514  13.8700  13.8899  14.1983  14.2073
    14.9839  15.0803  15.2953  15.3917  15.6877  15.6878  16.0807  16.2513
    16.5236  16.8594  17.0035  17.5199  17.8782

          k = 0.1667 0.1599 0.1655 ( 61510 PWs)   bands (ev):

   -65.8116 -65.8111 -65.8108 -65.8107 -65.8103 -65.8102 -65.8099 -65.8094
   -30.2457 -30.2385 -30.2379 -30.2301 -30.2070 -30.1995 -30.1949 -30.1834
   -30.1833 -30.1771 -30.1675 -30.1566 -30.1544 -30.1452 -30.1412 -30.1201
   -30.1005 -30.0993 -30.0893 -30.0844 -30.0734 -30.0663 -30.0651 -30.0581
   -19.9625 -19.9624 -19.9620 -19.9619 -19.9614 -19.9613 -19.9608 -19.9607
   -19.9478 -19.9475 -19.9474 -19.9470 -19.9470 -19.9469 -19.9465 -19.9462
   -19.9425 -19.9423 -19.9416 -19.9413 -19.9412 -19.9407 -19.9404 -19.9400
   -19.9395 -19.9391 -19.9390 -19.9387 -19.9372 -19.9369 -19.9367 -19.9364
   -19.9289 -19.9287 -19.9286 -19.9285 -19.9258 -19.9256 -19.9254 -19.9253
   -19.9144 -19.9143 -19.9135 -19.9134 -19.9096 -19.9096 -19.9088 -19.9088
   -19.9033 -19.9032 -19.9023 -19.9022 -19.9001 -19.9000 -19.8992 -19.8990
    -9.5956  -9.2989  -9.1912  -9.1850  -8.9031  -8.8628  -8.8021  -8.6627
    -8.6408  -8.5800  -8.5411  -8.5327  -7.8001  -7.7256  -7.7018  -7.6814
    -7.6531  -7.6438  -7.6370  -7.6160  -7.5918  -7.5505  -7.5406  -7.5224
     1.8060   1.8251   1.8533   1.8764   1.8898   1.8978   1.9631   2.0476
     2.1058   2.1849   2.2157   2.4331   2.8013   2.8963   2.9248   2.9705
     3.0617   3.1354   4.1490   4.2273   4.3637   4.4818   4.5645   4.6405
     4.6829   4.7227   4.8065   4.8579   4.9459   5.0524   5.2894   5.3788
     5.4841   5.5087   5.6110   5.6206   5.7074   5.7285   5.7461   5.8301
     5.9441   5.9807   6.0133   6.0693   6.1003   6.1287   6.2800   6.3263
     6.5806   6.5965   6.7769   6.8001   6.8765   6.9053   6.9493   6.9654
     7.0200   7.0402   7.0866   7.1091   7.1307   7.1849   7.2248   7.2699
     7.4137   7.4482   7.9394   7.9525   8.0774   8.1226   8.2326   8.2482
    10.4508  10.4955  10.7604  10.7900  10.8299  10.9313  12.3194  12.5220
    12.5879  12.6004  12.7146  12.7271  12.8371  12.8762  12.9051  13.0389
    13.2620  13.3930  13.4641  13.5385  13.8585  13.9117  14.0728  14.1190
    15.0424  15.2057  15.2978  15.4908  15.7383  15.7543  16.1812  16.3866
    16.4916  16.9872  17.1421  17.2595  17.9151

          k = 0.1667 0.1599 0.3309 ( 61470 PWs)   bands (ev):

   -65.8114 -65.8110 -65.8110 -65.8105 -65.8105 -65.8101 -65.8100 -65.8096
   -30.2437 -30.2397 -30.2359 -30.2315 -30.2020 -30.1962 -30.1915 -30.1796
   -30.1743 -30.1737 -30.1592 -30.1533 -30.1506 -30.1459 -30.1347 -30.1160
   -30.1135 -30.1131 -30.1035 -30.0956 -30.0724 -30.0682 -30.0651 -30.0608
   -19.9624 -19.9623 -19.9621 -19.9620 -19.9613 -19.9612 -19.9609 -19.9608
   -19.9477 -19.9475 -19.9474 -19.9471 -19.9469 -19.9467 -19.9466 -19.9463
   -19.9423 -19.9421 -19.9417 -19.9416 -19.9412 -19.9407 -19.9406 -19.9402
   -19.9394 -19.9392 -19.9389 -19.9387 -19.9370 -19.9368 -19.9367 -19.9365
   -19.9288 -19.9287 -19.9287 -19.9286 -19.9257 -19.9255 -19.9255 -19.9253
   -19.9135 -19.9134 -19.9126 -19.9125 -19.9107 -19.9107 -19.9099 -19.9098
   -19.9031 -19.9030 -19.9025 -19.9024 -19.8999 -19.8998 -19.8994 -19.8993
    -9.4759  -9.2468  -9.1546  -9.0416  -8.9135  -8.8350  -8.6660  -8.5844
    -8.5467  -8.5292  -8.5187  -8.4397  -7.9982  -7.9852  -7.9224  -7.8846
    -7.7267  -7.7014  -7.6445  -7.6228  -7.6114  -7.6037  -7.5650  -7.5513
     1.8725   1.8814   1.9607   1.9766   2.0186   2.0353   2.1284   2.1842
     2.5448   2.6020   2.6728   2.7894   2.9423   3.0175   3.0863   3.1751
     3.2206   3.3634   3.9671   4.0726   4.1259   4.1396   4.3725   4.4029
     4.4880   4.5730   4.6663   4.7178   4.7884   4.9291   4.9695   5.0591
     5.0911   5.1942   5.2764   5.3644   5.4337   5.5081   5.7036   5.7945
     5.8497   5.9177   6.0275   6.0537   6.0643   6.0844   6.1899   6.2444
     6.5549   6.7069   6.7498   6.8242   6.8571   6.8816   6.9386   6.9845
     7.0213   7.0761   7.1242   7.2004   7.2439   7.2803   7.3985   7.4249
     7.4697   7.5419   7.9158   7.9234   8.0616   8.1160   8.1208   8.1288
    10.7120  10.7304  11.0364  11.1393  11.3272  11.4290  12.2197  12.3006
    12.4471  12.5157  12.6563  12.7232  12.8263  12.9130  12.9671  13.0572
    13.0841  13.2735  13.3561  13.5166  13.7553  13.7711  13.9171  13.9582
    15.1736  15.2757  15.5593  15.7565  15.9440  16.0781  16.1823  16.4073
    16.7191  17.1470  17.4100  17.5739  17.7218

          k = 0.1667 0.1599-0.4964 ( 61516 PWs)   bands (ev):

   -65.8112 -65.8112 -65.8107 -65.8107 -65.8103 -65.8103 -65.8098 -65.8098
   -30.2416 -30.2416 -30.2335 -30.2335 -30.1984 -30.1984 -30.1841 -30.1841
   -30.1647 -30.1647 -30.1612 -30.1612 -30.1332 -30.1332 -30.1309 -30.1309
   -30.1211 -30.1211 -30.1077 -30.1077 -30.0706 -30.0706 -30.0632 -30.0632
   -19.9622 -19.9622 -19.9621 -19.9621 -19.9611 -19.9611 -19.9610 -19.9610
   -19.9476 -19.9476 -19.9472 -19.9472 -19.9467 -19.9467 -19.9465 -19.9465
   -19.9420 -19.9420 -19.9419 -19.9418 -19.9410 -19.9410 -19.9404 -19.9404
   -19.9393 -19.9393 -19.9388 -19.9388 -19.9369 -19.9369 -19.9366 -19.9366
   -19.9288 -19.9288 -19.9286 -19.9286 -19.9256 -19.9256 -19.9254 -19.9254
   -19.9121 -19.9121 -19.9120 -19.9120 -19.9113 -19.9113 -19.9112 -19.9112
   -19.9028 -19.9028 -19.9027 -19.9027 -19.8996 -19.8996 -19.8995 -19.8995
    -9.3446  -9.3445  -9.0086  -9.0086  -8.9082  -8.9082  -8.5630  -8.5630
    -8.3385  -8.3385  -8.3082  -8.3081  -8.2653  -8.2652  -8.2034  -8.2034
    -7.7174  -7.7174  -7.6269  -7.6269  -7.5975  -7.5974  -7.5782  -7.5782
     1.8768   1.8768   1.9776   1.9776   2.0301   2.0301   2.1791   2.1791
     2.9568   2.9568   3.2654   3.2654   3.3341   3.3342   3.4112   3.4112
     3.4744   3.4744   3.6321   3.6321   3.8269   3.8269   4.0370   4.0370
     4.1228   4.1229   4.5506   4.5506   4.6276   4.6276   4.9758   4.9758
     5.1158   5.1158   5.2732   5.2732   5.3621   5.3621   5.7731   5.7731
     5.9160   5.9160   5.9424   5.9424   6.0660   6.0660   6.1112   6.1112
     6.6508   6.6508   6.7944   6.7944   6.8457   6.8457   6.9712   6.9712
     7.0642   7.0642   7.1284   7.1284   7.2389   7.2389   7.7229   7.7229
     7.7502   7.7502   7.8157   7.8157   7.8919   7.8919   8.1146   8.1146
    10.7494  10.7494  11.6415  11.6415  11.7610  11.7610  11.9623  11.9623
    12.1102  12.1102  12.6182  12.6182  12.9399  12.9399  13.0427  13.0427
    13.1877  13.1877  13.4091  13.4091  13.5554  13.5554  13.9041  13.9041
    15.2480  15.2480  15.8816  15.8816  16.1489  16.1489  16.2465  16.2465
    16.9723  16.9723  17.8949  17.8949  18.1563

          k = 0.1667 0.3198 0.0000 ( 61503 PWs)   bands (ev):

   -65.8116 -65.8113 -65.8107 -65.8106 -65.8104 -65.8104 -65.8098 -65.8095
   -30.2370 -30.2292 -30.2275 -30.2182 -30.2154 -30.2080 -30.2021 -30.1880
   -30.1874 -30.1862 -30.1713 -30.1626 -30.1538 -30.1468 -30.1399 -30.1275
   -30.0957 -30.0949 -30.0835 -30.0814 -30.0726 -30.0685 -30.0625 -30.0586
   -19.9623 -19.9621 -19.9617 -19.9616 -19.9616 -19.9615 -19.9610 -19.9609
   -19.9478 -19.9476 -19.9473 -19.9471 -19.9470 -19.9469 -19.9464 -19.9462
   -19.9421 -19.9418 -19.9416 -19.9410 -19.9407 -19.9405 -19.9403 -19.9399
   -19.9393 -19.9390 -19.9389 -19.9386 -19.9379 -19.9376 -19.9375 -19.9372
   -19.9289 -19.9288 -19.9286 -19.9285 -19.9258 -19.9257 -19.9253 -19.9253
   -19.9148 -19.9147 -19.9138 -19.9138 -19.9093 -19.9092 -19.9084 -19.9084
   -19.9033 -19.9033 -19.9022 -19.9021 -19.9002 -19.9001 -19.8991 -19.8990
    -9.5611  -9.3991  -9.1540  -9.0588  -9.0144  -8.8805  -8.6912  -8.6765
    -8.5793  -8.4507  -8.4402  -8.4200  -7.9781  -7.9242  -7.9053  -7.8850
    -7.6911  -7.6774  -7.5945  -7.5796  -7.5490  -7.5315  -7.4654  -7.4507
     1.6306   1.6365   1.6412   1.6449   1.9441   1.9550   2.0993   2.1545
     2.5652   2.6623   2.7329   2.7457   2.7820   2.8608   3.1400   3.1669
     3.2682   3.3176   3.7989   3.8010   4.0289   4.0314   4.2981   4.5606
     4.6579   4.7410   4.8172   4.8725   4.9708   5.0267   5.1418   5.2169
     5.2622   5.2778   5.5791   5.6158   5.6360   5.7855   5.8174   5.8701
     5.9482   5.9923   6.0173   6.0842   6.1366   6.1547   6.2579   6.2962
     6.4509   6.5223   6.6124   6.7374   6.8177   7.0153   7.0439   7.0728
     7.1231   7.1399   7.2103   7.2680   7.2951   7.2961   7.3569   7.3597
     7.4361   7.4778   7.8909   7.9431   7.9830   8.0148   8.0601   8.0966
    10.3052  10.3206  10.9874  11.0435  11.2278  11.2778  12.0159  12.2931
    12.3825  12.4357  12.6312  12.6680  12.6717  12.6992  12.8657  12.9925
    13.3418  13.4834  13.5544  13.5659  13.7204  13.8255  13.9635  13.9951
    15.3756  15.5455  15.6110  15.6611  15.8071  15.9853  16.0349  16.3684
    16.4135  17.1584  17.4271  17.5774  17.9491

          k = 0.1667 0.3198 0.1655 ( 61499 PWs)   bands (ev):

   -65.8115 -65.8112 -65.8107 -65.8106 -65.8104 -65.8103 -65.8098 -65.8095
   -30.2360 -30.2283 -30.2277 -30.2187 -30.2134 -30.2053 -30.2025 -30.1882
   -30.1835 -30.1835 -30.1665 -30.1594 -30.1547 -30.1482 -30.1382 -30.1261
   -30.1003 -30.0996 -30.0888 -30.0862 -30.0722 -30.0681 -30.0640 -30.0600
   -19.9622 -19.9621 -19.9617 -19.9616 -19.9616 -19.9615 -19.9610 -19.9609
   -19.9478 -19.9476 -19.9473 -19.9471 -19.9470 -19.9469 -19.9464 -19.9463
   -19.9421 -19.9418 -19.9415 -19.9410 -19.9408 -19.9406 -19.9404 -19.9400
   -19.9393 -19.9390 -19.9388 -19.9385 -19.9379 -19.9376 -19.9375 -19.9372
   -19.9289 -19.9288 -19.9286 -19.9285 -19.9258 -19.9256 -19.9254 -19.9253
   -19.9144 -19.9143 -19.9135 -19.9135 -19.9096 -19.9096 -19.9088 -19.9088
   -19.9033 -19.9032 -19.9023 -19.9022 -19.9001 -19.9001 -19.8991 -19.8991
    -9.5090  -9.3411  -9.0838  -9.0772  -8.9314  -8.8975  -8.6570  -8.6454
    -8.5884  -8.4457  -8.4283  -8.4206  -7.9815  -7.9302  -7.9058  -7.8910
    -7.7218  -7.7099  -7.6545  -7.6477  -7.5937  -7.5761  -7.5478  -7.5316
     1.8116   1.8219   1.8824   1.8862   1.9503   1.9615   2.1407   2.2063
     2.5752   2.6634   2.7353   2.8128   2.8532   2.8982   3.1483   3.2415
     3.2697   3.3952   3.8055   3.8747   4.0222   4.0319   4.2773   4.5758
     4.6011   4.6623   4.7213   4.7570   4.8722   4.9740   5.0259   5.0711
     5.1292   5.2230   5.4102   5.4328   5.6102   5.6240   5.6336   5.6954
     5.8863   5.9029   5.9259   5.9616   6.0495   6.0553   6.3048   6.3183
     6.6062   6.6618   6.7567   6.8066   6.9403   7.0027   7.0165   7.0640
     7.0880   7.1308   7.1871   7.2103   7.2868   7.3015   7.3357   7.3741
     7.4715   7.4821   7.9020   7.9442   7.9766   8.0172   8.0361   8.0715
    10.5058  10.5281  11.1444  11.1744  11.2454  11.3144  12.0978  12.3404
    12.3897  12.4325  12.6171  12.6422  12.6662  12.7257  12.9206  13.0319
    13.2793  13.3877  13.4644  13.5084  13.6857  13.8225  13.8506  13.9355
    15.4733  15.6419  15.7350  15.7442  15.8219  16.0424  16.2920  16.3844
    16.5125  17.1274  17.4935  17.6099  17.6655

          k = 0.1667 0.3198 0.3309 ( 61498 PWs)   bands (ev):

   -65.8113 -65.8111 -65.8109 -65.8106 -65.8104 -65.8102 -65.8100 -65.8097
   -30.2338 -30.2294 -30.2252 -30.2201 -30.2095 -30.2040 -30.1991 -30.1901
   -30.1741 -30.1738 -30.1579 -30.1534 -30.1523 -30.1488 -30.1320 -30.1214
   -30.1136 -30.1134 -30.1027 -30.0983 -30.0711 -30.0671 -30.0668 -30.0627
   -19.9621 -19.9620 -19.9618 -19.9617 -19.9615 -19.9614 -19.9611 -19.9611
   -19.9476 -19.9475 -19.9474 -19.9472 -19.9469 -19.9468 -19.9466 -19.9464
   -19.9419 -19.9416 -19.9414 -19.9411 -19.9410 -19.9407 -19.9407 -19.9403
   -19.9392 -19.9390 -19.9387 -19.9386 -19.9377 -19.9375 -19.9375 -19.9372
   -19.9288 -19.9287 -19.9287 -19.9286 -19.9257 -19.9256 -19.9255 -19.9254
   -19.9134 -19.9134 -19.9126 -19.9125 -19.9107 -19.9107 -19.9099 -19.9099
   -19.9030 -19.9030 -19.9025 -19.9024 -19.8999 -19.8999 -19.8993 -19.8993
    -9.3795  -9.1981  -9.1353  -8.9509  -8.9027  -8.6973  -8.6255  -8.5525
    -8.5334  -8.4385  -8.4200  -8.3601  -8.0579  -8.0099  -7.9784  -7.9266
    -7.8999  -7.8790  -7.8683  -7.7953  -7.6458  -7.6287  -7.5795  -7.5625
     1.9492   1.9638   1.9747   1.9857   2.4475   2.5090   2.5421   2.6067
     2.6750   2.7204   2.7428   2.9224   3.0947   3.1374   3.1891   3.2565
     3.4660   3.5849   3.8355   3.9094   4.0015   4.0207   4.0974   4.1745
     4.2960   4.4772   4.5270   4.6139   4.6407   4.7272   4.8445   4.9270
     4.9480   5.0590   5.1051   5.1638   5.2114   5.2997   5.3961   5.4453
     5.5777   5.6019   5.6856   5.8796   5.9767   6.0508   6.2177   6.2375
     6.7166   6.7932   6.8063   6.9154   6.9829   7.0223   7.1084   7.1301
     7.1807   7.2222   7.2596   7.2793   7.3298   7.4021   7.4297   7.4499
     7.5067   7.5311   7.8966   7.9034   7.9389   7.9604   7.9978   8.0076
    10.9891  11.0134  11.2587  11.3144  11.5917  11.6764  12.2056  12.2603
    12.3535  12.4345  12.5025  12.5668  12.7472  12.8096  12.8789  12.9083
    13.0050  13.1875  13.2470  13.4885  13.4983  13.6025  13.8099  13.8311
    15.5934  15.6950  15.9147  16.1524  16.2568  16.2777  16.3664  16.9463
    16.9763  17.0528  17.1526  17.7255  17.8160

          k = 0.1667 0.3198-0.4964 ( 61486 PWs)   bands (ev):

   -65.8111 -65.8111 -65.8108 -65.8108 -65.8102 -65.8102 -65.8099 -65.8099
   -30.2313 -30.2313 -30.2224 -30.2224 -30.2062 -30.2062 -30.1936 -30.1936
   -30.1640 -30.1640 -30.1619 -30.1619 -30.1332 -30.1332 -30.1321 -30.1321
   -30.1194 -30.1194 -30.1119 -30.1119 -30.0694 -30.0694 -30.0652 -30.0652
   -19.9620 -19.9620 -19.9619 -19.9619 -19.9613 -19.9613 -19.9612 -19.9612
   -19.9475 -19.9475 -19.9473 -19.9473 -19.9467 -19.9467 -19.9466 -19.9466
   -19.9416 -19.9416 -19.9413 -19.9413 -19.9410 -19.9410 -19.9405 -19.9405
   -19.9391 -19.9390 -19.9386 -19.9386 -19.9376 -19.9376 -19.9373 -19.9373
   -19.9287 -19.9287 -19.9287 -19.9287 -19.9256 -19.9256 -19.9255 -19.9255
   -19.9121 -19.9121 -19.9121 -19.9121 -19.9112 -19.9112 -19.9112 -19.9112
   -19.9028 -19.9028 -19.9027 -19.9027 -19.8996 -19.8996 -19.8996 -19.8996
    -9.2383  -9.2383  -9.0500  -9.0500  -8.7189  -8.7188  -8.4639  -8.4639
    -8.3672  -8.3671  -8.3127  -8.3127  -8.2600  -8.2600  -8.1779  -8.1779
    -7.9246  -7.9246  -7.8657  -7.8657  -7.6132  -7.6132  -7.5955  -7.5955
     1.9682   1.9682   1.9840   1.9840   2.5839   2.5839   2.7082   2.7082
     3.1413   3.1413   3.3122   3.3122   3.3558   3.3558   3.4340   3.4340
     3.4752   3.4752   3.7258   3.7258   3.7758   3.7758   3.9872   3.9872
     4.2140   4.2140   4.2945   4.2945   4.3534   4.3534   4.5463   4.5463
     4.9902   4.9902   5.1239   5.1239   5.2718   5.2718   5.3230   5.3230
     5.4042   5.4042   5.7642   5.7642   6.0411   6.0411   6.0916   6.0916
     6.8106   6.8106   6.9244   6.9244   6.9755   6.9755   7.0526   7.0526
     7.2403   7.2403   7.2892   7.2892   7.4029   7.4029   7.7082   7.7082
     7.7337   7.7337   7.7513   7.7514   7.8081   7.8081   7.9882   7.9882
    11.2000  11.2000  11.6608  11.6608  11.7725  11.7725  12.1417  12.1417
    12.2653  12.2653  12.5367  12.5367  12.6759  12.6759  12.8590  12.8590
    13.0887  13.0887  13.1527  13.1527  13.5072  13.5072  13.7656  13.7656
    15.6655  15.6655  16.1076  16.1076  16.5969  16.5969  16.7607  16.7607
    17.1201  17.1201  17.5630  17.5630  18.0304

          k = 0.1667-0.4796 0.0000 ( 61550 PWs)   bands (ev):

   -65.8114 -65.8114 -65.8105 -65.8105 -65.8105 -65.8105 -65.8096 -65.8096
   -30.2253 -30.2253 -30.2173 -30.2173 -30.2142 -30.2142 -30.2027 -30.2027
   -30.1873 -30.1873 -30.1682 -30.1681 -30.1507 -30.1507 -30.1345 -30.1345
   -30.0953 -30.0953 -30.0827 -30.0827 -30.0707 -30.0707 -30.0608 -30.0607
   -19.9619 -19.9619 -19.9618 -19.9618 -19.9613 -19.9613 -19.9612 -19.9612
   -19.9477 -19.9477 -19.9472 -19.9472 -19.9470 -19.9470 -19.9463 -19.9463
   -19.9417 -19.9417 -19.9413 -19.9413 -19.9404 -19.9404 -19.9401 -19.9401
   -19.9388 -19.9388 -19.9384 -19.9384 -19.9384 -19.9384 -19.9381 -19.9381
   -19.9289 -19.9288 -19.9285 -19.9285 -19.9257 -19.9257 -19.9253 -19.9253
   -19.9147 -19.9147 -19.9138 -19.9138 -19.9093 -19.9092 -19.9085 -19.9084
   -19.9033 -19.9033 -19.9022 -19.9022 -19.9002 -19.9002 -19.8990 -19.8990
    -9.4696  -9.4696  -9.0684  -9.0684  -8.9486  -8.9486  -8.6833  -8.6833
    -8.2794  -8.2794  -8.2238  -8.2238  -8.1990  -8.1989  -8.1936  -8.1936
    -7.6879  -7.6879  -7.5878  -7.5878  -7.5416  -7.5416  -7.4586  -7.4586
     1.6337   1.6337   1.6425   1.6425   1.9537   1.9538   2.1438   2.1439
     2.7523   2.7523   3.1977   3.1977   3.3180   3.3180   3.3862   3.3862
     3.4963   3.4963   3.5956   3.5956   3.8274   3.8275   3.9622   3.9622
     4.0461   4.0461   4.6841   4.6841   4.8945   4.8945   5.2944   5.2944
     5.3848   5.3848   5.4970   5.4970   5.5639   5.5639   5.8132   5.8132
     5.9716   5.9716   5.9807   5.9807   6.1462   6.1462   6.2937   6.2937
     6.5536   6.5536   6.6007   6.6007   6.8970   6.8970   7.0872   7.0872
     7.1643   7.1643   7.2584   7.2584   7.3754   7.3754   7.6520   7.6520
     7.6909   7.6910   7.7365   7.7365   7.7832   7.7832   7.9689   7.9689
    10.3190  10.3190  11.5204  11.5204  11.6009  11.6009  11.8505  11.8505
    11.9270  11.9270  12.6713  12.6713  12.6761  12.6761  12.9349  12.9349
    13.4691  13.4691  13.5731  13.5731  13.7129  13.7129  13.8054  13.8054
    15.6507  15.6507  15.8273  15.8273  15.8822  15.8822  16.1715  16.1715
    16.8572  16.8572  18.0678  18.0678  18.3138

          k = 0.1667-0.4796 0.1655 ( 61514 PWs)   bands (ev):

   -65.8114 -65.8114 -65.8106 -65.8106 -65.8105 -65.8104 -65.8097 -65.8097
   -30.2239 -30.2239 -30.2158 -30.2156 -30.2146 -30.2144 -30.2032 -30.2032
   -30.1836 -30.1836 -30.1640 -30.1639 -30.1518 -30.1517 -30.1329 -30.1329
   -30.1000 -30.1000 -30.0878 -30.0878 -30.0703 -30.0703 -30.0622 -30.0622
   -19.9619 -19.9619 -19.9618 -19.9618 -19.9614 -19.9613 -19.9613 -19.9613
   -19.9477 -19.9477 -19.9472 -19.9472 -19.9470 -19.9470 -19.9464 -19.9464
   -19.9417 -19.9417 -19.9412 -19.9412 -19.9405 -19.9405 -19.9402 -19.9402
   -19.9387 -19.9387 -19.9384 -19.9384 -19.9383 -19.9383 -19.9381 -19.9380
   -19.9288 -19.9288 -19.9286 -19.9286 -19.9257 -19.9257 -19.9253 -19.9253
   -19.9144 -19.9144 -19.9135 -19.9135 -19.9096 -19.9096 -19.9088 -19.9088
   -19.9032 -19.9032 -19.9022 -19.9022 -19.9001 -19.9001 -19.8991 -19.8991
    -9.4137  -9.4137  -8.9895  -8.9888  -8.9667  -8.9664  -8.6510  -8.6509
    -8.2871  -8.2859  -8.2234  -8.2223  -8.2041  -8.2024  -8.1901  -8.1873
    -7.7197  -7.7182  -7.6531  -7.6529  -7.5869  -7.5866  -7.5411  -7.5408
     1.8128   1.8196   1.8839   1.8878   1.9585   1.9617   2.1920   2.1973
     2.8432   2.8467   3.2170   3.2191   3.3113   3.3548   3.3662   3.3963
     3.5115   3.5457   3.5731   3.6245   3.8409   3.8601   3.9654   3.9755
     4.0699   4.0718   4.6098   4.6598   4.7298   4.7635   5.1371   5.1609
     5.2705   5.2932   5.3118   5.3794   5.4079   5.4607   5.6864   5.6937
     5.7461   5.7724   5.8922   5.9487   6.0106   6.0223   6.3187   6.3211
[...]
    11.7510  11.7510  11.7510  11.7510  12.0039  12.0039  12.0039  12.0039
    12.3870  12.3870  12.3870  12.3870  12.5992  12.5992  12.5992  12.5992
    13.2880  13.2880  13.2880  13.2880  13.4921  13.4921  13.4921  13.4921
    15.6679  15.6679  15.6679  15.6679  17.0155  17.0155  17.0155  17.0155
    17.6121  17.6121  17.6121  17.6121  17.8488

          k =-0.5000 0.3198 0.0000 ( 61558 PWs)   bands (ev):

   -65.8111 -65.8111 -65.8108 -65.8108 -65.8102 -65.8102 -65.8099 -65.8099
   -30.2324 -30.2324 -30.2221 -30.2221 -30.2108 -30.2108 -30.1926 -30.1926
   -30.1770 -30.1770 -30.1715 -30.1715 -30.1203 -30.1203 -30.1189 -30.1189
   -30.1090 -30.1090 -30.1021 -30.1021 -30.0784 -30.0784 -30.0753 -30.0753
   -19.9622 -19.9622 -19.9616 -19.9616 -19.9616 -19.9616 -19.9609 -19.9609
   -19.9474 -19.9474 -19.9473 -19.9473 -19.9468 -19.9468 -19.9466 -19.9466
   -19.9420 -19.9420 -19.9414 -19.9414 -19.9406 -19.9406 -19.9402 -19.9402
   -19.9391 -19.9390 -19.9388 -19.9388 -19.9377 -19.9377 -19.9373 -19.9373
   -19.9273 -19.9273 -19.9272 -19.9272 -19.9269 -19.9269 -19.9268 -19.9268
   -19.9143 -19.9143 -19.9143 -19.9143 -19.9089 -19.9089 -19.9089 -19.9089
   -19.9018 -19.9018 -19.9018 -19.9018 -19.9007 -19.9007 -19.9007 -19.9006
    -9.3133  -9.3132  -9.1554  -9.1554  -8.7133  -8.7132  -8.4962  -8.4962
    -8.3211  -8.3211  -8.2968  -8.2968  -8.2364  -8.2364  -8.1565  -8.1565
    -7.9034  -7.9034  -7.8626  -7.8626  -7.5295  -7.5295  -7.5142  -7.5142
     1.6568   1.6568   1.6656   1.6656   2.5623   2.5623   2.7076   2.7076
     3.1809   3.1809   3.2202   3.2202   3.2854   3.2854   3.4153   3.4153
     3.5082   3.5082   3.7056   3.7056   3.8289   3.8289   3.9217   3.9217
     4.1516   4.1516   4.2679   4.2679   4.5117   4.5117   4.6494   4.6494
     5.0925   5.0926   5.1031   5.1031   5.3944   5.3944   5.5580   5.5580
     5.7006   5.7006   5.9644   5.9644   6.3336   6.3336   6.3624   6.3624
     6.6499   6.6499   6.7578   6.7578   6.7810   6.7810   6.9390   6.9390
     7.2389   7.2390   7.2693   7.2693   7.3081   7.3081   7.6480   7.6480
     7.6828   7.6828   7.8193   7.8193   7.8592   7.8592   8.0659   8.0659
    11.0149  11.0149  11.6034  11.6034  11.7017  11.7017  11.8458  11.8458
    12.2973  12.2973  12.5013  12.5013  12.8116  12.8117  12.9944  12.9944
    13.1043  13.1043  13.2749  13.2749  13.5505  13.5505  13.9496  13.9496
    15.4841  15.4841  15.8076  15.8076  16.5130  16.5130  16.7499  16.7499
    16.8758  16.8758  17.5432  17.5432  18.0308

          k =-0.5000 0.3198 0.1655 ( 61526 PWs)   bands (ev):

   -65.8111 -65.8110 -65.8108 -65.8108 -65.8103 -65.8103 -65.8100 -65.8100
   -30.2313 -30.2313 -30.2225 -30.2225 -30.2083 -30.2082 -30.1932 -30.1932
   -30.1723 -30.1723 -30.1683 -30.1683 -30.1220 -30.1220 -30.1210 -30.1210
   -30.1084 -30.1084 -30.1015 -30.1014 -30.0828 -30.0828 -30.0791 -30.0790
   -19.9622 -19.9622 -19.9617 -19.9617 -19.9615 -19.9615 -19.9610 -19.9610
   -19.9474 -19.9474 -19.9472 -19.9472 -19.9469 -19.9469 -19.9466 -19.9466
   -19.9420 -19.9419 -19.9414 -19.9414 -19.9407 -19.9407 -19.9403 -19.9403
   -19.9390 -19.9390 -19.9388 -19.9387 -19.9377 -19.9377 -19.9373 -19.9373
   -19.9273 -19.9273 -19.9272 -19.9272 -19.9269 -19.9269 -19.9269 -19.9268
   -19.9140 -19.9140 -19.9139 -19.9139 -19.9093 -19.9093 -19.9093 -19.9093
   -19.9018 -19.9017 -19.9017 -19.9017 -19.9008 -19.9008 -19.9007 -19.9007
    -9.2479  -9.2479  -9.0781  -9.0781  -8.7287  -8.7286  -8.4770  -8.4770
    -8.3406  -8.3406  -8.2896  -8.2896  -8.2257  -8.2257  -8.1598  -8.1597
    -7.9010  -7.9010  -7.8678  -7.8678  -7.6393  -7.6393  -7.6226  -7.6226
     1.8973   1.8973   1.9076   1.9076   2.5719   2.5719   2.6944   2.6944
     3.2031   3.2031   3.2752   3.2752   3.3016   3.3016   3.4484   3.4485
     3.5279   3.5279   3.7497   3.7497   3.8611   3.8611   3.9743   3.9743
     4.1420   4.1420   4.2805   4.2805   4.5030   4.5030   4.6333   4.6333
     4.9512   4.9512   5.0669   5.0669   5.2618   5.2618   5.3069   5.3070
     5.4288   5.4288   5.7459   5.7459   6.0109   6.0109   6.0640   6.0640
     6.8209   6.8209   6.9795   6.9795   7.0132   7.0132   7.0557   7.0557
     7.2146   7.2146   7.3001   7.3002   7.3502   7.3502   7.6536   7.6537
     7.6940   7.6940   7.8264   7.8264   7.8599   7.8599   8.0419   8.0420
    11.1655  11.1655  11.6653  11.6653  11.7747  11.7747  11.8970  11.8970
    12.3198  12.3198  12.5397  12.5397  12.8029  12.8029  12.9590  12.9590
    13.0999  13.0999  13.2475  13.2475  13.4164  13.4164  13.8262  13.8262
    15.6767  15.6767  16.0274  16.0274  16.5698  16.5698  16.7486  16.7486
    16.9322  16.9322  17.5812  17.5812  17.9830

          k =-0.5000 0.3198 0.3309 ( 61494 PWs)   bands (ev):

   -65.8109 -65.8109 -65.8106 -65.8106 -65.8104 -65.8104 -65.8102 -65.8101
   -30.2288 -30.2287 -30.2239 -30.2239 -30.2028 -30.2028 -30.1949 -30.1949
   -30.1594 -30.1594 -30.1582 -30.1582 -30.1288 -30.1288 -30.1285 -30.1285
   -30.1064 -30.1064 -30.0994 -30.0994 -30.0927 -30.0927 -30.0874 -30.0874
   -19.9621 -19.9621 -19.9618 -19.9618 -19.9614 -19.9614 -19.9611 -19.9611
   -19.9473 -19.9473 -19.9471 -19.9471 -19.9470 -19.9470 -19.9468 -19.9467
   -19.9418 -19.9418 -19.9414 -19.9413 -19.9409 -19.9409 -19.9406 -19.9405
   -19.9389 -19.9389 -19.9388 -19.9388 -19.9376 -19.9375 -19.9373 -19.9373
   -19.9273 -19.9272 -19.9272 -19.9272 -19.9269 -19.9269 -19.9269 -19.9269
   -19.9130 -19.9130 -19.9130 -19.9130 -19.9103 -19.9103 -19.9103 -19.9103
   -19.9015 -19.9015 -19.9015 -19.9015 -19.9010 -19.9010 -19.9009 -19.9009
    -9.0805  -9.0805  -8.8669  -8.8669  -8.7814  -8.7814  -8.4322  -8.4322
    -8.3846  -8.3846  -8.2653  -8.2653  -8.2033  -8.2032  -8.1648  -8.1648
    -7.9325  -7.9325  -7.9076  -7.9076  -7.8794  -7.8794  -7.8335  -7.8335
     2.4509   2.4509   2.5525   2.5525   2.6042   2.6042   2.7402   2.7402
     3.2456   3.2456   3.2795   3.2795   3.4305   3.4305   3.5034   3.5034
     3.6028   3.6028   3.8858   3.8858   3.9690   3.9690   4.0657   4.0657
     4.1282   4.1282   4.3165   4.3165   4.4274   4.4274   4.4776   4.4776
     4.6229   4.6229   4.7593   4.7593   4.9268   4.9268   5.0891   5.0891
     5.1675   5.1675   5.2750   5.2750   5.3225   5.3225   5.5799   5.5799
     7.0257   7.0258   7.0970   7.0970   7.2011   7.2011   7.2202   7.2202
     7.3813   7.3813   7.4645   7.4645   7.5098   7.5098   7.6700   7.6700
     7.7263   7.7263   7.8333   7.8333   7.8495   7.8495   7.9687   7.9687
    11.5626  11.5626  11.8490  11.8490  11.9636  11.9636  12.0307  12.0307
    12.4029  12.4029  12.6187  12.6187  12.6875  12.6875  12.7306  12.7306
    13.0339  13.0340  13.1295  13.1295  13.1479  13.1479  13.5101  13.5101
    16.1900  16.1901  16.5368  16.5368  16.7697  16.7697  16.8723  16.8723
    17.1241  17.1241  17.6319  17.6319  17.8378

          k =-0.5000 0.3198-0.4964 ( 61512 PWs)   bands (ev):

   -65.8107 -65.8107 -65.8107 -65.8106 -65.8104 -65.8104 -65.8104 -65.8104
   -30.2261 -30.2261 -30.2261 -30.2261 -30.1980 -30.1980 -30.1980 -30.1980
   -30.1439 -30.1439 -30.1439 -30.1439 -30.1412 -30.1412 -30.1412 -30.1412
   -30.1019 -30.1019 -30.1019 -30.1019 -30.0946 -30.0946 -30.0946 -30.0946
   -19.9619 -19.9619 -19.9619 -19.9619 -19.9613 -19.9613 -19.9613 -19.9613
   -19.9471 -19.9471 -19.9471 -19.9471 -19.9469 -19.9469 -19.9469 -19.9469
   -19.9415 -19.9415 -19.9415 -19.9415 -19.9408 -19.9408 -19.9408 -19.9408
   -19.9388 -19.9388 -19.9388 -19.9388 -19.9374 -19.9374 -19.9374 -19.9374
   -19.9272 -19.9272 -19.9272 -19.9272 -19.9269 -19.9269 -19.9269 -19.9269
   -19.9117 -19.9117 -19.9117 -19.9117 -19.9117 -19.9117 -19.9116 -19.9116
   -19.9013 -19.9013 -19.9013 -19.9013 -19.9012 -19.9012 -19.9012 -19.9012
    -8.8983  -8.8983  -8.8983  -8.8983  -8.5968  -8.5968  -8.5968  -8.5968
    -8.2742  -8.2742  -8.2742  -8.2742  -8.1504  -8.1503  -8.1503  -8.1503
    -8.1107  -8.1107  -8.1107  -8.1107  -7.8729  -7.8729  -7.8729  -7.8729
     2.5897   2.5897   2.5897   2.5898   3.1904   3.1904   3.1904   3.1904
     3.3099   3.3099   3.3099   3.3099   3.4644   3.4644   3.4644   3.4644
     3.6580   3.6580   3.6580   3.6580   4.0370   4.0370   4.0370   4.0370
     4.2294   4.2294   4.2294   4.2294   4.3415   4.3415   4.3415   4.3415
     4.5725   4.5725   4.5725   4.5725   4.7050   4.7050   4.7050   4.7050
     4.9791   4.9791   4.9791   4.9791   5.3503   5.3503   5.3503   5.3503
     7.0976   7.0976   7.0976   7.0976   7.2317   7.2317   7.2317   7.2317
     7.5498   7.5498   7.5498   7.5498   7.6782   7.6782   7.6782   7.6783
     7.7685   7.7685   7.7685   7.7685   7.8802   7.8802   7.8802   7.8802
    11.9554  11.9554  11.9554  11.9554  12.1484  12.1484  12.1484  12.1484
    12.3772  12.3772  12.3773  12.3773  12.6536  12.6536  12.6536  12.6536
    12.9601  12.9601  12.9601  12.9601  13.1964  13.1964  13.1964  13.1964
    16.5173  16.5173  16.5173  16.5173  17.1537  17.1537  17.1537  17.1537
    17.5514  17.5514  17.5514  17.5514  17.8681

          k =-0.5000-0.4796 0.0000 ( 61600 PWs)   bands (ev):

   -65.8110 -65.8110 -65.8110 -65.8110 -65.8101 -65.8101 -65.8101 -65.8101
   -30.2208 -30.2208 -30.2202 -30.2202 -30.2076 -30.2076 -30.2065 -30.2065
   -30.1754 -30.1754 -30.1747 -30.1747 -30.1198 -30.1198 -30.1192 -30.1192
   -30.1068 -30.1068 -30.1052 -30.1052 -30.0774 -30.0774 -30.0769 -30.0769
   -19.9619 -19.9619 -19.9619 -19.9619 -19.9613 -19.9613 -19.9613 -19.9612
   -19.9474 -19.9474 -19.9473 -19.9473 -19.9468 -19.9468 -19.9467 -19.9467
   -19.9416 -19.9416 -19.9416 -19.9416 -19.9404 -19.9403 -19.9403 -19.9403
   -19.9385 -19.9385 -19.9385 -19.9385 -19.9382 -19.9382 -19.9382 -19.9382
   -19.9273 -19.9273 -19.9272 -19.9272 -19.9269 -19.9269 -19.9269 -19.9269
   -19.9143 -19.9143 -19.9143 -19.9143 -19.9089 -19.9089 -19.9089 -19.9089
   -19.9018 -19.9018 -19.9018 -19.9018 -19.9007 -19.9007 -19.9007 -19.9007
    -9.2253  -9.2253  -9.2147  -9.2147  -8.4864  -8.4863  -8.4517  -8.4517
    -8.3676  -8.3676  -8.3362  -8.3362  -8.1804  -8.1804  -8.1075  -8.1074
    -8.1047  -8.1047  -8.0419  -8.0419  -7.5227  -7.5227  -7.5221  -7.5221
     1.6576   1.6576   1.6658   1.6658   3.0909   3.0909   3.1930   3.1930
     3.2290   3.2290   3.2580   3.2580   3.4340   3.4340   3.5066   3.5066
     3.5404   3.5404   3.6722   3.6722   3.6970   3.6970   3.8174   3.8174
     3.8327   3.8327   4.1849   4.1849   4.4793   4.4793   4.5719   4.5719
     4.6046   4.6046   4.6890   4.6891   5.4388   5.4388   5.5041   5.5042
     5.7211   5.7211   5.8102   5.8102   6.3533   6.3533   6.3630   6.3630
     6.7519   6.7519   6.7560   6.7560   6.8022   6.8022   6.8575   6.8575
     7.4205   7.4205   7.4464   7.4464   7.5120   7.5120   7.6467   7.6468
     7.7341   7.7341   7.7697   7.7697   7.7779   7.7779   7.8480   7.8480
    11.5326  11.5326  11.5536  11.5536  11.6673  11.6673  11.6920  11.6920
    12.4884  12.4884  12.5713  12.5713  12.5843  12.5843  12.7059  12.7059
    13.1456  13.1456  13.1546  13.1546  13.6640  13.6640  13.7345  13.7345
    15.7016  15.7016  15.7341  15.7341  16.9532  16.9533  17.1441  17.1441
    17.4322  17.4322  17.5338  17.5341  17.6097

          k =-0.5000-0.4796 0.1655 ( 61504 PWs)   bands (ev):

   -65.8109 -65.8109 -65.8109 -65.8109 -65.8101 -65.8101 -65.8101 -65.8101
   -30.2191 -30.2191 -30.2185 -30.2185 -30.2081 -30.2081 -30.2071 -30.2071
   -30.1713 -30.1713 -30.1706 -30.1706 -30.1217 -30.1217 -30.1212 -30.1212
   -30.1062 -30.1062 -30.1046 -30.1046 -30.0816 -30.0816 -30.0809 -30.0809
   -19.9619 -19.9618 -19.9618 -19.9618 -19.9613 -19.9613 -19.9613 -19.9613
   -19.9474 -19.9474 -19.9473 -19.9473 -19.9468 -19.9468 -19.9467 -19.9467
   -19.9415 -19.9415 -19.9415 -19.9415 -19.9405 -19.9405 -19.9404 -19.9404
   -19.9385 -19.9385 -19.9385 -19.9385 -19.9382 -19.9382 -19.9381 -19.9381
   -19.9273 -19.9272 -19.9272 -19.9272 -19.9269 -19.9269 -19.9269 -19.9269
   -19.9140 -19.9140 -19.9139 -19.9139 -19.9093 -19.9093 -19.9093 -19.9093
   -19.9017 -19.9017 -19.9017 -19.9017 -19.9008 -19.9007 -19.9007 -19.9007
    -9.1527  -9.1527  -9.1408  -9.1408  -8.5065  -8.5065  -8.4715  -8.4715
    -8.3522  -8.3521  -8.3188  -8.3188  -8.1772  -8.1772  -8.1179  -8.1179
    -8.0940  -8.0940  -8.0450  -8.0450  -7.6321  -7.6321  -7.6319  -7.6319
     1.8996   1.8996   1.9099   1.9099   3.1085   3.1085   3.2160   3.2160
     3.2262   3.2262   3.2877   3.2877   3.3944   3.3944   3.5148   3.5148
     3.5976   3.5977   3.7093   3.7094   3.7553   3.7553   3.8220   3.8220
     3.8993   3.8993   4.2038   4.2038   4.4859   4.4859   4.5586   4.5586
     4.6020   4.6021   4.6733   4.6734   5.1418   5.1418   5.3018   5.3018
     5.4197   5.4197   5.5550   5.5550   6.0102   6.0102   6.0403   6.0403
     6.8892   6.8892   6.9768   6.9768   7.0451   7.0451   7.0882   7.0882
     7.4107   7.4107   7.4543   7.4543   7.5486   7.5486   7.6340   7.6340
     7.7161   7.7161   7.7480   7.7480   7.8133   7.8133   7.8492   7.8492
    11.6096  11.6096  11.6642  11.6642  11.7237  11.7237  11.8089  11.8089
    12.5024  12.5024  12.5724  12.5724  12.5818  12.5818  12.7220  12.7220
    13.0767  13.0767  13.1412  13.1412  13.5289  13.5289  13.6048  13.6048
    15.9260  15.9260  15.9620  15.9620  17.0067  17.0068  17.1987  17.1987
    17.4328  17.4328  17.5488  17.5491  17.6125

          k =-0.5000-0.4796 0.3309 ( 61480 PWs)   bands (ev):

   -65.8108 -65.8107 -65.8107 -65.8107 -65.8103 -65.8103 -65.8103 -65.8103
   -30.2155 -30.2155 -30.2148 -30.2148 -30.2096 -30.2096 -30.2086 -30.2086
   -30.1593 -30.1593 -30.1588 -30.1588 -30.1287 -30.1287 -30.1286 -30.1285
   -30.1040 -30.1040 -30.1025 -30.1025 -30.0910 -30.0910 -30.0900 -30.0900
   -19.9617 -19.9617 -19.9617 -19.9617 -19.9614 -19.9614 -19.9614 -19.9614
   -19.9473 -19.9472 -19.9471 -19.9471 -19.9469 -19.9469 -19.9468 -19.9468
   -19.9414 -19.9413 -19.9413 -19.9413 -19.9407 -19.9407 -19.9407 -19.9407
   -19.9385 -19.9385 -19.9384 -19.9384 -19.9381 -19.9381 -19.9381 -19.9381
   -19.9272 -19.9272 -19.9272 -19.9272 -19.9269 -19.9269 -19.9269 -19.9269
   -19.9130 -19.9130 -19.9130 -19.9130 -19.9103 -19.9103 -19.9103 -19.9103
   -19.9015 -19.9015 -19.9015 -19.9015 -19.9010 -19.9009 -19.9009 -19.9009
    -8.9587  -8.9587  -8.9421  -8.9421  -8.5750  -8.5750  -8.5400  -8.5400
    -8.2987  -8.2987  -8.2644  -8.2644  -8.1695  -8.1695  -8.1293  -8.1293
    -8.0812  -8.0812  -8.0535  -8.0535  -7.8918  -7.8918  -7.8902  -7.8902
     2.5307   2.5307   2.5549   2.5549   3.1501   3.1501   3.2110   3.2110
     3.2589   3.2589   3.3551   3.3551   3.3719   3.3719   3.4893   3.4893
     3.6935   3.6935   3.7790   3.7790   3.8404   3.8404   3.8952   3.8952
     4.1145   4.1145   4.2605   4.2605   4.4663   4.4663   4.4843   4.4843
     4.5570   4.5570   4.6139   4.6139   4.7531   4.7531   4.8807   4.8807
     4.9583   4.9583   5.0927   5.0927   5.2714   5.2714   5.3206   5.3206
     7.1338   7.1338   7.2507   7.2507   7.3405   7.3406   7.3903   7.3903
     7.4252   7.4252   7.5104   7.5104   7.5907   7.5907   7.6248   7.6248
     7.6925   7.6925   7.7537   7.7537   7.8288   7.8288   7.8476   7.8476
    11.8439  11.8439  11.9141  11.9141  11.9729  11.9729  12.1063  12.1063
    12.5017  12.5017  12.5102  12.5102  12.6081  12.6081  12.7567  12.7567
    12.8214  12.8214  12.9496  12.9496  13.1954  13.1954  13.2726  13.2726
    16.5882  16.5882  16.6499  16.6499  17.1499  17.1499  17.3362  17.3362
    17.4158  17.4158  17.5749  17.5749  17.6184

          k =-0.5000-0.4796-0.4964 ( 61560 PWs)   bands (ev):

   -65.8105 -65.8105 -65.8105 -65.8105 -65.8105 -65.8105 -65.8105 -65.8105
   -30.2122 -30.2122 -30.2122 -30.2122 -30.2112 -30.2111 -30.2111 -30.2111
   -30.1439 -30.1439 -30.1439 -30.1439 -30.1413 -30.1413 -30.1413 -30.1413
   -30.1000 -30.1000 -30.1000 -30.1000 -30.0973 -30.0973 -30.0973 -30.0973
   -19.9616 -19.9616 -19.9616 -19.9616 -19.9616 -19.9616 -19.9616 -19.9616
   -19.9471 -19.9471 -19.9471 -19.9471 -19.9470 -19.9470 -19.9470 -19.9470
   -19.9411 -19.9411 -19.9411 -19.9411 -19.9410 -19.9410 -19.9410 -19.9410
   -19.9384 -19.9384 -19.9384 -19.9384 -19.9381 -19.9381 -19.9381 -19.9381
   -19.9272 -19.9272 -19.9272 -19.9272 -19.9269 -19.9269 -19.9269 -19.9269
   -19.9117 -19.9117 -19.9117 -19.9117 -19.9117 -19.9117 -19.9117 -19.9117
   -19.9013 -19.9013 -19.9013 -19.9013 -19.9012 -19.9012 -19.9012 -19.9012
    -8.7319  -8.7319  -8.7319  -8.7319  -8.6965  -8.6965  -8.6965  -8.6965
    -8.1932  -8.1931  -8.1931  -8.1931  -8.1383  -8.1382  -8.1382  -8.1382
    -8.1117  -8.1117  -8.1117  -8.1117  -8.0630  -8.0630  -8.0630  -8.0630
     3.0901   3.0901   3.0901   3.0901   3.1959   3.1959   3.1959   3.1959
     3.3799   3.3799   3.3799   3.3799   3.5089   3.5089   3.5090   3.5090
     3.5808   3.5808   3.5808   3.5808   3.7933   3.7933   3.7933   3.7933
     4.3650   4.3650   4.3650   4.3650   4.4110   4.4110   4.4110   4.4110
     4.5752   4.5752   4.5752   4.5752   4.6650   4.6650   4.6650   4.6650
     4.7490   4.7490   4.7490   4.7490   4.8470   4.8470   4.8470   4.8470
     7.2675   7.2675   7.2675   7.2675   7.4567   7.4567   7.4567   7.4568
     7.5335   7.5335   7.5335   7.5335   7.6040   7.6040   7.6040   7.6040
     7.7433   7.7433   7.7433   7.7433   7.8357   7.8357   7.8357   7.8357
    12.1625  12.1625  12.1625  12.1625  12.1964  12.1964  12.1964  12.1964
    12.4381  12.4381  12.4381  12.4381  12.6398  12.6399  12.6399  12.6399
    12.8024  12.8025  12.8025  12.8025  12.9371  12.9371  12.9371  12.9371
    17.2087  17.2087  17.2087  17.2087  17.3236  17.3236  17.3236  17.3236
    17.5704  17.5704  17.5704  17.5705  17.6806

     the Fermi energy is    10.3188 ev

!    total energy              =   -6260.71920036 Ry
     Harris-Foulkes estimate   =   -6260.71920036 Ry
     estimated scf accuracy    <          2.0E-09 Ry

     The total energy is the sum of the following terms:

     one-electron contribution =   -4658.79239606 Ry
     hartree contribution      =    2570.64840934 Ry
     xc contribution           =    -966.23196039 Ry
     ewald contribution        =   -3206.34322925 Ry
     smearing contrib. (-TS)   =      -0.00002400 Ry

     convergence has been achieved in  13 iterations

     Writing output data file Landau_37.save
 
     init_run     :     23.39s CPU     24.41s WALL (       1 calls)
     electrons    :    820.09s CPU    836.08s WALL (       1 calls)

     Called by init_run:
     wfcinit      :     19.97s CPU     20.83s WALL (       1 calls)
     potinit      :      1.41s CPU      1.45s WALL (       1 calls)

     Called by electrons:
     c_bands      :    711.05s CPU    726.13s WALL (      13 calls)
     sum_band     :    100.61s CPU    100.92s WALL (      13 calls)
     v_of_rho     :      1.94s CPU      1.96s WALL (      14 calls)
     mix_rho      :      3.97s CPU      4.35s WALL (      13 calls)

     Called by c_bands:
     init_us_2    :      7.93s CPU      8.59s WALL (      27 calls)
     cegterg      :    635.63s CPU    650.36s WALL (      13 calls)

     Called by sum_band:

     Called by *egterg:
     h_psi        :    497.48s CPU    499.40s WALL (      59 calls)
     g_psi        :      2.03s CPU      2.07s WALL (      45 calls)
     cdiaghg      :      8.23s CPU      8.29s WALL (      58 calls)

     Called by h_psi:
     h_psi:pot    :    493.42s CPU    495.21s WALL (      59 calls)
     h_psi:calbec :     60.39s CPU     61.43s WALL (      59 calls)
     vloc_psi     :    369.85s CPU    370.33s WALL (      59 calls)
     add_vuspsi   :     63.18s CPU     63.46s WALL (      59 calls)

     General routines
     calbec       :     60.39s CPU     61.43s WALL (      59 calls)
     fft          :      1.18s CPU      1.20s WALL (      56 calls)
     fftw         :    371.97s CPU    372.19s WALL (   16791 calls)
 
     Parallel routines
 
     PWSCF        : 14m 4.23s CPU    14m25.34s WALL

 
   This run was terminated on:  15:22: 1  28Aug2019            

=------------------------------------------------------------------------------=
   JOB DONE.
=------------------------------------------------------------------------------=
