
     Program PWSCF v.6.4.1 starts on 29Nov2019 at 17:42: 4 

     This program is part of the open-source Quantum ESPRESSO suite
     for quantum simulation of materials; please cite
         "P. Giannozzi et al., J. Phys.:Condens. Matter 21 395502 (2009);
         "P. Giannozzi et al., J. Phys.:Condens. Matter 29 465901 (2017);
          URL http://www.quantum-espresso.org", 
     in publications or presentations arising from this work. More details at
     http://www.quantum-espresso.org/quote

     Parallel version (MPI), running on    40 processors

     MPI processes distributed on     5 nodes
     K-points division:     npool     =      40
     Reading input from scf.in

     Current dimensions of program PWSCF are:
     Max number of different atomic species (ntypx) = 10
     Max number of k-points (npk) =  40000
     Max angular momentum in pseudopotentials (lmaxx) =  3

     Subspace diagonalization in iterative solution of the eigenvalue problem:
     a serial algorithm will be used

     Message from routine setup:
     using ibrav=0 with symmetry is DISCOURAGED, use correct ibrav instead
 
     G-vector sticks info
     --------------------
     sticks:   dense  smooth     PW     G-vecs:    dense   smooth      PW
     Sum        3777    3777   1033               254189   254189   35901
 


     bravais-lattice index     =            0
     lattice parameter (alat)  =       9.9544  a.u.
     unit-cell volume          =    1431.4879 (a.u.)^3
     number of atoms/cell      =           16
     number of atomic types    =            2
     number of electrons       =       184.18
     number of Kohn-Sham states=          111
     kinetic-energy cutoff     =     120.0000  Ry
     charge density cutoff     =     480.0000  Ry
     convergence threshold     =      1.0E-08
     mixing beta               =       0.7000
     number of iterations used =            8  plain     mixing
     Exchange-correlation      = SLA PW NOGX NOGC ( 1  4  0  0 0 0)

     celldm(1)=   9.954439  celldm(2)=   0.000000  celldm(3)=   0.000000
     celldm(4)=   0.000000  celldm(5)=   0.000000  celldm(6)=   0.000000

     crystal axes: (cart. coord. in units of alat)
               a(1) = (   1.000000   0.000000   0.000000 )  
               a(2) = (   0.000000   1.000000   0.000000 )  
               a(3) = (   0.000000   0.000000   1.451234 )  

     reciprocal axes: (cart. coord. in units 2 pi/alat)
               b(1) = (  1.000000  0.000000  0.000000 )  
               b(2) = (  0.000000  1.000000  0.000000 )  
               b(3) = (  0.000000  0.000000  0.689069 )  


     PseudoPot. # 1 for W  read from file:
     /cluster/scratch/mnoe/QE/pps/W_ONCV_LDA-4.0.upf
     MD5 check sum: ba0307d5d4cd419d6f1d13dc49d7c13a
     Pseudo is Norm-conserving + core correction, Zval = 28.0
     Generated using ONCVPSP code by D. R. Hamann
     Using radial grid of 1380 points,  8 beta functions with: 
                l(1) =   0
                l(2) =   0
                l(3) =   1
                l(4) =   1
                l(5) =   2
                l(6) =   2
                l(7) =   3
                l(8) =   3

     PseudoPot. # 2 for O  read from file:
     /cluster/scratch/mnoe/QE/pps/O_ONCV_LDA-3.0.upf
     MD5 check sum: b55cdb4f45ae2203d24ad12cf8d61a31
     Pseudo is Norm-conserving + core correction, Zval =  6.0
     Generated using ONCVPSP code by D. R. Hamann
     Using radial grid of  926 points,  5 beta functions with: 
                l(1) =   0
                l(2) =   0
                l(3) =   1
                l(4) =   1
                l(5) =   2

     atomic species   valence    mass     pseudopotential
        W             28.00   183.84000     W ( 1.00)
        O              6.00    15.99940     O ( 1.00)

     16 Sym. Ops., with inversion, found (14 have fractional translation)



   Cartesian axes

     site n.     atom                  positions (alat units)
         1           W   tau(   1) = (   0.2500000   0.2500000   0.3042259  )
         2           W   tau(   2) = (   0.7500000   0.7500000   1.1470078  )
         3           W   tau(   3) = (   0.7500000   0.7500000   0.4213910  )
         4           W   tau(   4) = (   0.2500000   0.2500000   1.0298426  )
         5           O   tau(   5) = (   0.2500000   0.2500000   0.6902188  )
         6           O   tau(   6) = (   0.7500000   0.7500000   0.7610148  )
         7           O   tau(   7) = (   0.7500000   0.7500000   0.0353980  )
         8           O   tau(   8) = (   0.2500000   0.2500000   1.4158357  )
         9           O   tau(   9) = (   0.4932953   0.5067046   0.3628084  )
        10           O   tau(  10) = (   0.5067047   0.4932954   1.0884252  )
        11           O   tau(  11) = (   0.0067047   0.9932954   0.3628084  )
        12           O   tau(  12) = (   0.9932953   0.0067047   1.0884252  )
        13           O   tau(  13) = (   0.9932954   0.4932953   0.3628084  )
        14           O   tau(  14) = (   0.0067047   0.5067047   1.0884252  )
        15           O   tau(  15) = (   0.5067046   0.0067047   0.3628084  )
        16           O   tau(  16) = (   0.4932954   0.9932953   1.0884252  )

     number of k points=    60  gaussian smearing, width (Ry)=  0.0007
                       cart. coord. in units 2pi/alat
        k(    1) = (   0.0000000   0.0000000   0.0000000), wk =   0.0041152
        k(    2) = (   0.0000000   0.0000000   0.1148448), wk =   0.0082305
        k(    3) = (   0.0000000   0.0000000   0.2296896), wk =   0.0082305
        k(    4) = (   0.0000000   0.0000000  -0.3445345), wk =   0.0041152
        k(    5) = (   0.0000000   0.1111111   0.0000000), wk =   0.0164609
        k(    6) = (   0.0000000   0.1111111   0.1148448), wk =   0.0329218
        k(    7) = (   0.0000000   0.1111111   0.2296896), wk =   0.0329218
        k(    8) = (   0.0000000   0.1111111  -0.3445345), wk =   0.0164609
        k(    9) = (   0.0000000   0.2222222   0.0000000), wk =   0.0164609
        k(   10) = (   0.0000000   0.2222222   0.1148448), wk =   0.0329218
        k(   11) = (   0.0000000   0.2222222   0.2296896), wk =   0.0329218
        k(   12) = (   0.0000000   0.2222222  -0.3445345), wk =   0.0164609
        k(   13) = (   0.0000000   0.3333333   0.0000000), wk =   0.0164609
        k(   14) = (   0.0000000   0.3333333   0.1148448), wk =   0.0329218
        k(   15) = (   0.0000000   0.3333333   0.2296896), wk =   0.0329218
        k(   16) = (   0.0000000   0.3333333  -0.3445345), wk =   0.0164609
        k(   17) = (   0.0000000   0.4444444   0.0000000), wk =   0.0164609
        k(   18) = (   0.0000000   0.4444444   0.1148448), wk =   0.0329218
        k(   19) = (   0.0000000   0.4444444   0.2296896), wk =   0.0329218
        k(   20) = (   0.0000000   0.4444444  -0.3445345), wk =   0.0164609
        k(   21) = (   0.1111111   0.1111111   0.0000000), wk =   0.0164609
        k(   22) = (   0.1111111   0.1111111   0.1148448), wk =   0.0329218
        k(   23) = (   0.1111111   0.1111111   0.2296896), wk =   0.0329218
        k(   24) = (   0.1111111   0.1111111  -0.3445345), wk =   0.0164609
        k(   25) = (   0.1111111   0.2222222   0.0000000), wk =   0.0329218
        k(   26) = (   0.1111111   0.2222222   0.1148448), wk =   0.0658436
        k(   27) = (   0.1111111   0.2222222   0.2296896), wk =   0.0658436
        k(   28) = (   0.1111111   0.2222222  -0.3445345), wk =   0.0329218
        k(   29) = (   0.1111111   0.3333333   0.0000000), wk =   0.0329218
        k(   30) = (   0.1111111   0.3333333   0.1148448), wk =   0.0658436
        k(   31) = (   0.1111111   0.3333333   0.2296896), wk =   0.0658436
        k(   32) = (   0.1111111   0.3333333  -0.3445345), wk =   0.0329218
        k(   33) = (   0.1111111   0.4444444   0.0000000), wk =   0.0329218
        k(   34) = (   0.1111111   0.4444444   0.1148448), wk =   0.0658436
        k(   35) = (   0.1111111   0.4444444   0.2296896), wk =   0.0658436
        k(   36) = (   0.1111111   0.4444444  -0.3445345), wk =   0.0329218
        k(   37) = (   0.2222222   0.2222222   0.0000000), wk =   0.0164609
        k(   38) = (   0.2222222   0.2222222   0.1148448), wk =   0.0329218
        k(   39) = (   0.2222222   0.2222222   0.2296896), wk =   0.0329218
        k(   40) = (   0.2222222   0.2222222  -0.3445345), wk =   0.0164609
        k(   41) = (   0.2222222   0.3333333   0.0000000), wk =   0.0329218
        k(   42) = (   0.2222222   0.3333333   0.1148448), wk =   0.0658436
        k(   43) = (   0.2222222   0.3333333   0.2296896), wk =   0.0658436
        k(   44) = (   0.2222222   0.3333333  -0.3445345), wk =   0.0329218
        k(   45) = (   0.2222222   0.4444444   0.0000000), wk =   0.0329218
        k(   46) = (   0.2222222   0.4444444   0.1148448), wk =   0.0658436
        k(   47) = (   0.2222222   0.4444444   0.2296896), wk =   0.0658436
        k(   48) = (   0.2222222   0.4444444  -0.3445345), wk =   0.0329218
        k(   49) = (   0.3333333   0.3333333   0.0000000), wk =   0.0164609
        k(   50) = (   0.3333333   0.3333333   0.1148448), wk =   0.0329218
        k(   51) = (   0.3333333   0.3333333   0.2296896), wk =   0.0329218
        k(   52) = (   0.3333333   0.3333333  -0.3445345), wk =   0.0164609
        k(   53) = (   0.3333333   0.4444444   0.0000000), wk =   0.0329218
        k(   54) = (   0.3333333   0.4444444   0.1148448), wk =   0.0658436
        k(   55) = (   0.3333333   0.4444444   0.2296896), wk =   0.0658436
        k(   56) = (   0.3333333   0.4444444  -0.3445345), wk =   0.0329218
        k(   57) = (   0.4444444   0.4444444   0.0000000), wk =   0.0164609
        k(   58) = (   0.4444444   0.4444444   0.1148448), wk =   0.0329218
        k(   59) = (   0.4444444   0.4444444   0.2296896), wk =   0.0329218
        k(   60) = (   0.4444444   0.4444444  -0.3445345), wk =   0.0164609

     Dense  grid:   254189 G-vectors     FFT dimensions: (  72,  72, 108)

     Estimated max dynamical RAM per process >     904.50 MB

     Estimated total dynamical RAM >      35.33 GB

     Initial potential from superposition of free atoms

     starting charge  183.99828, renormalised to  184.18000
     Starting wfcs are  116 randomized atomic wfcs

     total cpu time spent up to now is        8.6 secs

     Self-consistent Calculation

     iteration #  1     ecut=   120.00 Ry     beta= 0.70
     Davidson diagonalization with overlap
     ethr =  1.00E-02,  avg # of iterations =  4.8

     total cpu time spent up to now is       36.2 secs

     total energy              =   -3126.69318718 Ry
     Harris-Foulkes estimate   =   -3132.21331295 Ry
     estimated scf accuracy    <       6.95880435 Ry

     iteration #  2     ecut=   120.00 Ry     beta= 0.70
     Davidson diagonalization with overlap
     ethr =  3.78E-03,  avg # of iterations =  3.4

     total cpu time spent up to now is       62.7 secs

     total energy              =   -3125.07553881 Ry
     Harris-Foulkes estimate   =   -3135.50645978 Ry
     estimated scf accuracy    <      28.08244817 Ry

     iteration #  3     ecut=   120.00 Ry     beta= 0.70
     Davidson diagonalization with overlap
     ethr =  3.78E-03,  avg # of iterations =  3.2

     total cpu time spent up to now is       87.3 secs

     total energy              =   -3130.39425359 Ry
     Harris-Foulkes estimate   =   -3130.53172631 Ry
     estimated scf accuracy    <       0.47029427 Ry

     iteration #  4     ecut=   120.00 Ry     beta= 0.70
     Davidson diagonalization with overlap
     ethr =  2.55E-04,  avg # of iterations =  2.5

     total cpu time spent up to now is      108.1 secs

     total energy              =   -3130.37735107 Ry
     Harris-Foulkes estimate   =   -3130.42397379 Ry
     estimated scf accuracy    <       0.11703641 Ry

     iteration #  5     ecut=   120.00 Ry     beta= 0.70
     Davidson diagonalization with overlap
     ethr =  6.35E-05,  avg # of iterations =  4.1

     total cpu time spent up to now is      131.1 secs

     total energy              =   -3130.39255140 Ry
     Harris-Foulkes estimate   =   -3130.40170648 Ry
     estimated scf accuracy    <       0.02349568 Ry

     iteration #  6     ecut=   120.00 Ry     beta= 0.70
     Davidson diagonalization with overlap
     ethr =  1.28E-05,  avg # of iterations =  3.9

     total cpu time spent up to now is      153.8 secs

     total energy              =   -3130.39621990 Ry
     Harris-Foulkes estimate   =   -3130.39796015 Ry
     estimated scf accuracy    <       0.00455832 Ry

     iteration #  7     ecut=   120.00 Ry     beta= 0.70
     Davidson diagonalization with overlap
     ethr =  2.47E-06,  avg # of iterations =  3.3

     total cpu time spent up to now is      175.4 secs

     total energy              =   -3130.39686474 Ry
     Harris-Foulkes estimate   =   -3130.39689488 Ry
     estimated scf accuracy    <       0.00004619 Ry

     iteration #  8     ecut=   120.00 Ry     beta= 0.70
     Davidson diagonalization with overlap
     ethr =  2.51E-08,  avg # of iterations =  3.2

     total cpu time spent up to now is      202.5 secs

     total energy              =   -3130.39689299 Ry
     Harris-Foulkes estimate   =   -3130.39689999 Ry
     estimated scf accuracy    <       0.00003462 Ry

     iteration #  9     ecut=   120.00 Ry     beta= 0.70
     Davidson diagonalization with overlap
     ethr =  1.88E-08,  avg # of iterations =  2.0

     total cpu time spent up to now is      222.3 secs

     total energy              =   -3130.39688884 Ry
     Harris-Foulkes estimate   =   -3130.39689481 Ry
     estimated scf accuracy    <       0.00001646 Ry

     iteration # 10     ecut=   120.00 Ry     beta= 0.70
     Davidson diagonalization with overlap
     ethr =  8.94E-09,  avg # of iterations =  2.0

     total cpu time spent up to now is      242.8 secs

     total energy              =   -3130.39689106 Ry
     Harris-Foulkes estimate   =   -3130.39689128 Ry
     estimated scf accuracy    <       0.00000043 Ry

     iteration # 11     ecut=   120.00 Ry     beta= 0.70
     Davidson diagonalization with overlap
     ethr =  2.35E-10,  avg # of iterations =  3.2

     total cpu time spent up to now is      266.8 secs

     total energy              =   -3130.39689116 Ry
     Harris-Foulkes estimate   =   -3130.39689118 Ry
     estimated scf accuracy    <       0.00000003 Ry

     iteration # 12     ecut=   120.00 Ry     beta= 0.70
     Davidson diagonalization with overlap
     ethr =  1.81E-11,  avg # of iterations =  2.0

     total cpu time spent up to now is      289.3 secs

     End of self-consistent calculation

          k = 0.0000 0.0000 0.0000 ( 31799 PWs)   bands (ev):

   -66.4567 -66.4562 -66.4555 -66.4550 -30.8286 -30.8245 -30.7752 -30.7752
   -30.7711 -30.7711 -30.7572 -30.7544 -30.6987 -30.6987 -30.6954 -30.6954
   -20.6201 -20.6201 -20.6200 -20.6200 -20.6045 -20.6045 -20.6006 -20.6005
   -20.6004 -20.6004 -20.5990 -20.5990 -20.5990 -20.5990 -20.5978 -20.5977
   -20.5974 -20.5974 -20.5972 -20.5972 -20.5950 -20.5950 -20.5936 -20.5936
   -20.5915 -20.5915 -20.5903 -20.5903 -10.2430  -9.8310  -9.5043  -9.1963
    -9.1720  -9.1267  -8.0820  -7.9687  -7.9687  -7.9595  -7.9440  -7.9440
     0.9220   0.9271   0.9274   1.1145   1.2541   1.3444   2.2699   2.2699
     2.3391   2.4528   3.8748   3.8748   4.5274   4.5274   4.7987   5.3683
     5.3683   5.4774   5.4774   5.6343   5.6343   5.7532   5.7653   6.3836
     6.3836   6.6471   6.9365   6.9703   6.9755   6.9755   6.9899   6.9899
     8.0782   8.0782   8.1648   8.1749   8.7196   8.7266   9.3297   9.3297
    12.2316  12.2316  13.0481  13.0481  13.2922  13.5090  13.5214  13.8982
    13.9010  13.9448  13.9448  14.4583  15.3471  16.1589  16.9640

          k = 0.0000 0.0000 0.1148 ( 31811 PWs)   bands (ev):

   -66.4567 -66.4563 -66.4555 -66.4551 -30.8239 -30.8199 -30.7749 -30.7749
   -30.7714 -30.7714 -30.7620 -30.7591 -30.6985 -30.6985 -30.6956 -30.6956
   -20.6201 -20.6201 -20.6200 -20.6200 -20.6041 -20.6040 -20.6006 -20.6005
   -20.6004 -20.6004 -20.5990 -20.5990 -20.5990 -20.5990 -20.5982 -20.5982
   -20.5974 -20.5974 -20.5972 -20.5972 -20.5949 -20.5949 -20.5937 -20.5937
   -20.5914 -20.5914 -20.5904 -20.5904 -10.2012  -9.8467  -9.4219  -9.1947
    -9.1736  -9.0844  -8.1938  -8.0814  -7.9671  -7.9671  -7.9457  -7.9457
     0.9271   0.9274   1.1140   1.2535   1.3011   1.4955   2.3415   2.3415
     2.3465   2.4450   3.6898   3.6898   4.5479   4.5869   4.5869   5.3171
     5.3171   5.3792   5.3814   5.3814   5.7965   5.8341   5.8341   6.3960
     6.3960   6.6657   6.7772   6.9163   6.9749   6.9749   6.9850   6.9850
     7.9905   7.9905   8.1654   8.1743   8.7204   8.7264   9.5793   9.5793
    12.0587  12.0587  13.0801  13.0801  13.5099  13.5207  13.5715  13.8479
    13.8479  13.8986  13.9010  14.6848  15.7666  15.8705  16.9895

          k = 0.0000 0.0000 0.2297 ( 31786 PWs)   bands (ev):

   -66.4566 -66.4564 -66.4554 -66.4552 -30.8109 -30.8071 -30.7752 -30.7741
   -30.7741 -30.7721 -30.7721 -30.7720 -30.6979 -30.6979 -30.6962 -30.6962
   -20.6201 -20.6201 -20.6200 -20.6200 -20.6029 -20.6029 -20.6005 -20.6005
   -20.6005 -20.6004 -20.5995 -20.5995 -20.5990 -20.5990 -20.5990 -20.5990
   -20.5974 -20.5974 -20.5972 -20.5972 -20.5946 -20.5946 -20.5939 -20.5939
   -20.5912 -20.5912 -20.5906 -20.5906 -10.0977  -9.8961  -9.1903  -9.1880
    -9.1781  -8.9478  -8.4802  -8.3796  -7.9626  -7.9626  -7.9502  -7.9502
     0.9272   0.9274   1.2294   1.2512   1.9195   2.2073   2.3669   2.4238
     2.5510   2.5510   3.2917   3.2917   3.8347   4.4216   4.7587   4.7587
     5.1814   5.1814   5.4126   5.4126   5.7027   5.7027   5.9243   6.4259
     6.7171   6.7785   6.7785   6.8618   6.9736   6.9736   6.9840   6.9840
     7.7265   7.7265   8.1673   8.1725   8.7222   8.7257  10.1818  10.1818
    11.5811  11.5811  13.1842  13.1842  13.5123  13.5185  13.6174  13.6174
    13.8995  13.9010  14.1211  15.3079  15.3519  16.7724  16.8129

          k = 0.0000 0.0000-0.3445 ( 31810 PWs)   bands (ev):

   -66.4565 -66.4565 -66.4553 -66.4553 -30.7931 -30.7931 -30.7896 -30.7896
   -30.7731 -30.7731 -30.7731 -30.7731 -30.6970 -30.6970 -30.6970 -30.6970
   -20.6201 -20.6201 -20.6200 -20.6200 -20.6012 -20.6012 -20.6012 -20.6012
   -20.6005 -20.6005 -20.6005 -20.6005 -20.5990 -20.5990 -20.5990 -20.5990
   -20.5973 -20.5973 -20.5973 -20.5973 -20.5943 -20.5943 -20.5943 -20.5943
   -20.5909 -20.5909 -20.5909 -20.5909  -9.9829  -9.9829  -9.1842  -9.1842
    -8.8462  -8.8462  -8.7043  -8.7043  -7.9564  -7.9564  -7.9564  -7.9564
     0.9274   0.9274   1.2457   1.2457   2.3952   2.3952   2.8624   2.8624
     2.8810   2.8810   2.8810   2.8810   3.2653   3.2653   4.9923   4.9923
     4.9923   4.9923   5.5018   5.5018   5.5018   5.5018   6.1332   6.1332
     6.7886   6.7886   6.9710   6.9710   6.9711   6.9711   7.3053   7.3053
     7.3053   7.3053   8.1699   8.1699   8.7242   8.7242  10.9074  10.9074
    10.9074  10.9074  13.3699  13.3699  13.3699  13.3699  13.5155  13.5155
    13.9005  13.9005  14.7038  14.7038  16.1733  16.1733  18.0957

          k = 0.0000 0.1111 0.0000 ( 31815 PWs)   bands (ev):

   -66.4567 -66.4562 -66.4556 -66.4551 -30.8287 -30.8248 -30.7736 -30.7729
   -30.7688 -30.7686 -30.7564 -30.7547 -30.7010 -30.7008 -30.6977 -30.6976
   -20.6201 -20.6201 -20.6200 -20.6200 -20.6045 -20.6045 -20.6008 -20.6007
   -20.6006 -20.6005 -20.5991 -20.5989 -20.5987 -20.5987 -20.5979 -20.5976
   -20.5974 -20.5974 -20.5972 -20.5972 -20.5949 -20.5949 -20.5936 -20.5935
   -20.5916 -20.5916 -20.5905 -20.5904 -10.2075  -9.7853  -9.5127  -9.1660
    -9.1416  -9.1153  -8.0983  -8.0329  -8.0151  -7.9964  -7.9904  -7.9624
     0.9364   1.0389   1.0403   1.1068   1.3743   1.4516   2.3012   2.3056
     2.4141   2.5267   3.8543   3.8754   4.3606   4.4160   4.7936   5.2298
     5.2502   5.3922   5.4360   5.6416   5.6430   5.7781   5.9475   6.3179
     6.3222   6.6339   6.6399   6.7511   6.7876   6.8834   6.9354   6.9611
     8.0415   8.0609   8.1027   8.1165   9.0627   9.0656   9.4777   9.5256
    12.2572  12.2711  12.9239  12.9243  13.4324  13.4380  13.4413  13.8093
    13.8640  14.1352  14.1818  14.5480  15.3164  16.3126  16.9985

          k = 0.0000 0.1111 0.1148 ( 31789 PWs)   bands (ev):

   -66.4567 -66.4562 -66.4555 -66.4551 -30.8240 -30.8201 -30.7736 -30.7726
   -30.7691 -30.7689 -30.7610 -30.7594 -30.7008 -30.7006 -30.6979 -30.6978
   -20.6201 -20.6201 -20.6200 -20.6200 -20.6041 -20.6041 -20.6008 -20.6007
   -20.6006 -20.6005 -20.5991 -20.5989 -20.5987 -20.5987 -20.5983 -20.5980
   -20.5974 -20.5974 -20.5972 -20.5972 -20.5948 -20.5948 -20.5936 -20.5936
   -20.5915 -20.5915 -20.5905 -20.5905 -10.1644  -9.8011  -9.4304  -9.1643
    -9.1433  -9.0743  -8.2021  -8.0889  -8.0311  -8.0135  -8.0014  -7.9921
     1.0390   1.0403   1.1574   1.3181   1.3735   1.5469   2.3734   2.3761
     2.4220   2.5195   3.6810   3.7010   4.4227   4.4766   4.5410   5.2219
     5.2321   5.2627   5.2710   5.3872   5.8000   5.8204   5.9864   6.3325
     6.3468   6.6155   6.6342   6.7564   6.7671   6.8304   6.9339   6.9665
     7.9570   7.9740   8.1041   8.1171   9.0632   9.0640   9.7001   9.7418
    12.0855  12.1008  12.9563  12.9627  13.4381  13.4385  13.7122  13.7289
    13.7650  14.1357  14.1668  14.7660  15.7358  16.0082  17.0485

          k = 0.0000 0.1111 0.2297 ( 31798 PWs)   bands (ev):

   -66.4566 -66.4563 -66.4554 -66.4552 -30.8111 -30.8073 -30.7773 -30.7723
   -30.7719 -30.7698 -30.7697 -30.7696 -30.7002 -30.7000 -30.6985 -30.6984
   -20.6201 -20.6201 -20.6200 -20.6200 -20.6029 -20.6029 -20.6007 -20.6007
   -20.6006 -20.6005 -20.5997 -20.5996 -20.5989 -20.5987 -20.5987 -20.5987
   -20.5973 -20.5973 -20.5972 -20.5972 -20.5946 -20.5946 -20.5939 -20.5939
   -20.5913 -20.5913 -20.5908 -20.5907 -10.0575  -9.8509  -9.1966  -9.1599
    -9.1478  -8.9412  -8.4870  -8.3822  -8.0263  -8.0117  -8.0090  -7.9967
     1.0393   1.0400   1.3411   1.3706   1.9219   2.1915   2.4407   2.4959
     2.5853   2.5966   3.2954   3.3156   3.8317   4.4230   4.6055   4.6536
     5.0785   5.1061   5.2708   5.2914   5.5899   5.5990   6.0978   6.4750
     6.6322   6.6382   6.7520   6.7710   6.8061   6.8592   6.9336   6.9785
     7.7005   7.7163   8.1079   8.1153   9.0633   9.0637  10.2584  10.2903
    11.6134  11.6324  13.0611  13.0728  13.4129  13.4341  13.5362  13.5368
    14.1370  14.1483  14.2652  15.4242  15.4421  16.7788  16.8478

          k = 0.0000 0.1111-0.3445 ( 31790 PWs)   bands (ev):

   -66.4565 -66.4565 -66.4553 -66.4553 -30.7935 -30.7935 -30.7898 -30.7898
   -30.7708 -30.7708 -30.7704 -30.7704 -30.6993 -30.6993 -30.6992 -30.6992
   -20.6201 -20.6201 -20.6200 -20.6200 -20.6013 -20.6013 -20.6012 -20.6012
   -20.6007 -20.6007 -20.6005 -20.6005 -20.5988 -20.5988 -20.5987 -20.5987
   -20.5973 -20.5973 -20.5973 -20.5973 -20.5942 -20.5942 -20.5942 -20.5942
   -20.5911 -20.5910 -20.5910 -20.5910  -9.9394  -9.9394  -9.1538  -9.1538
    -8.8547  -8.8547  -8.7019  -8.7019  -8.0195  -8.0195  -8.0029  -8.0029
     1.0397   1.0397   1.3636   1.3636   2.4683   2.4684   2.8594   2.8595
     2.8831   2.8831   2.9118   2.9118   3.2850   3.2850   4.8634   4.8634
     4.9004   4.9004   5.3605   5.3605   5.3768   5.3768   6.2684   6.2684
     6.6314   6.6314   6.8451   6.8451   6.9320   6.9320   7.2856   7.2856
     7.3051   7.3051   8.1120   8.1120   9.0636   9.0636  10.9545  10.9545
    10.9789  10.9789  13.2398  13.2398  13.2650  13.2650  13.4624  13.4624
    14.1400  14.1400  14.8434  14.8434  16.2489  16.2489  17.4213

          k = 0.0000 0.2222 0.0000 ( 31787 PWs)   bands (ev):

   -66.4566 -66.4561 -66.4557 -66.4552 -30.8288 -30.8254 -30.7696 -30.7663
   -30.7623 -30.7618 -30.7555 -30.7537 -30.7077 -30.7070 -30.7043 -30.7041
   -20.6201 -20.6201 -20.6200 -20.6200 -20.6046 -20.6046 -20.6011 -20.6010
   -20.6008 -20.6007 -20.5991 -20.5985 -20.5982 -20.5981 -20.5981 -20.5974
   -20.5973 -20.5972 -20.5972 -20.5971 -20.5947 -20.5947 -20.5934 -20.5933
   -20.5919 -20.5919 -20.5908 -20.5907 -10.1074  -9.6510  -9.5398  -9.0777
    -9.0768  -9.0526  -8.2485  -8.2067  -8.1442  -8.1196  -8.0363  -7.9709
     0.9607   1.0867   1.3585   1.3650   1.7100   1.7640   2.3902   2.4078
     2.6406   2.7502   3.7720   3.8290   4.0406   4.1484   4.7797   4.8602
     4.8772   5.1635   5.3072   5.6598   5.6707   5.8108   5.9186   5.9425
     6.1560   6.2249   6.3509   6.4431   6.6837   6.9069   6.9643   6.9952
     7.9316   7.9528   7.9531   8.0054   9.7269   9.7443   9.8624   9.9929
    12.3350  12.3840  12.6117  12.6422  13.1077  13.1167  13.6403  13.6438
    13.7645  14.8176  14.8180  14.8321  15.2231  16.7185  17.0982

          k = 0.0000 0.2222 0.1148 ( 31777 PWs)   bands (ev):

   -66.4566 -66.4561 -66.4556 -66.4552 -30.8241 -30.8207 -30.7707 -30.7660
   -30.7626 -30.7620 -30.7602 -30.7572 -30.7075 -30.7068 -30.7045 -30.7043
   -20.6201 -20.6201 -20.6200 -20.6200 -20.6042 -20.6042 -20.6011 -20.6010
   -20.6008 -20.6007 -20.5993 -20.5985 -20.5985 -20.5982 -20.5981 -20.5976
   -20.5973 -20.5973 -20.5972 -20.5971 -20.5946 -20.5946 -20.5935 -20.5934
   -20.5918 -20.5918 -20.5909 -20.5908 -10.0600  -9.6671  -9.4580  -9.0752
    -9.0542  -9.0411  -8.2939  -8.2044  -8.1425  -8.1251  -8.1213  -8.0714
     1.2092   1.3307   1.3590   1.3646   1.7085   1.7945   2.4643   2.4769
     2.6475   2.7436   3.6368   3.6975   4.1037   4.2107   4.5212   4.8688
     4.8854   4.9789   5.0905   5.4024   5.6598   5.7638   5.9223   5.9413
     6.2203   6.2701   6.3779   6.6450   6.6587   6.9005   6.9798   7.0045
     7.8664   7.9109   7.9435   7.9685   9.7289   9.7364  10.0335  10.1512
    12.1698  12.2245  12.6484  12.6769  13.1066  13.1163  13.5387  13.5408
    14.0681  14.8183  14.8290  15.0065  15.6413  16.3671  17.0866

          k = 0.0000 0.2222 0.2297 ( 31806 PWs)   bands (ev):

   -66.4565 -66.4562 -66.4555 -66.4553 -30.8114 -30.8080 -30.7781 -30.7730
   -30.7653 -30.7633 -30.7625 -30.7622 -30.7068 -30.7064 -30.7051 -30.7049
   -20.6201 -20.6201 -20.6200 -20.6200 -20.6030 -20.6030 -20.6011 -20.6010
   -20.6007 -20.6007 -20.6000 -20.5997 -20.5985 -20.5982 -20.5982 -20.5981
   -20.5973 -20.5973 -20.5972 -20.5972 -20.5944 -20.5944 -20.5937 -20.5937
   -20.5917 -20.5916 -20.5911 -20.5910  -9.9423  -9.7186  -9.2258  -9.0708
    -9.0586  -8.9193  -8.5268  -8.3877  -8.1977  -8.1626  -8.1381  -8.1258
     1.3602   1.3635   1.6346   1.7033   1.9294   2.1784   2.6580   2.6860
     2.6870   2.7369   3.2981   3.3668   3.8240   4.2999   4.3905   4.4109
     4.8339   4.8704   4.9162   4.9224   5.2889   5.3591   5.9185   5.9365
     6.4464   6.6052   6.7054   6.7543   6.8253   6.8851   7.0210   7.0354
     7.6352   7.6819   7.9470   7.9586   9.7311   9.7332  10.4874  10.5878
    11.7166  11.7835  12.7658  12.7945  13.0953  13.1109  13.2964  13.3040
    14.6541  14.8191  14.8239  15.6266  15.8020  16.6727  17.0516

          k = 0.0000 0.2222-0.3445 ( 31778 PWs)   bands (ev):

   -66.4564 -66.4564 -66.4554 -66.4554 -30.7941 -30.7941 -30.7905 -30.7905
   -30.7643 -30.7643 -30.7630 -30.7630 -30.7060 -30.7060 -30.7056 -30.7056
   -20.6201 -20.6201 -20.6200 -20.6200 -20.6015 -20.6014 -20.6013 -20.6013
   -20.6010 -20.6010 -20.6007 -20.6007 -20.5984 -20.5984 -20.5982 -20.5981
   -20.5973 -20.5973 -20.5972 -20.5972 -20.5941 -20.5941 -20.5940 -20.5940
   -20.5914 -20.5914 -20.5913 -20.5913  -9.8130  -9.8130  -9.0647  -9.0647
    -8.8868  -8.8868  -8.6931  -8.6931  -8.1861  -8.1861  -8.1320  -8.1319
     1.3618   1.3618   1.6904   1.6905   2.6823   2.6823   2.8559   2.8559
     2.8944   2.8944   2.9925   2.9925   3.3338   3.3338   4.5835   4.5835
     4.6577   4.6577   5.0166   5.0167   5.0264   5.0264   5.9287   5.9287
     6.5372   6.5372   6.8558   6.8558   7.0096   7.0096   7.2497   7.2497
     7.3052   7.3052   7.9527   7.9527   9.7323   9.7323  11.1020  11.1020
    11.1848  11.1848  12.9528  12.9528  13.0060  13.0060  13.1604  13.1604
    14.8206  14.8206  15.2235  15.2235  16.4574  16.4574  17.4426

          k = 0.0000 0.3333 0.0000 ( 31793 PWs)   bands (ev):

   -66.4564 -66.4559 -66.4558 -66.4553 -30.8286 -30.8263 -30.7650 -30.7570
   -30.7561 -30.7523 -30.7515 -30.7479 -30.7179 -30.7163 -30.7144 -30.7140
   -20.6201 -20.6201 -20.6200 -20.6200 -20.6047 -20.6047 -20.6013 -20.6012
   -20.6010 -20.6009 -20.5991 -20.5984 -20.5981 -20.5977 -20.5976 -20.5973
   -20.5973 -20.5972 -20.5971 -20.5971 -20.5943 -20.5943 -20.5932 -20.5930
   -20.5924 -20.5923 -20.5914 -20.5912  -9.9630  -9.5921  -9.4375  -9.0035
    -8.9350  -8.9108  -8.5256  -8.4426  -8.3302  -8.3058  -8.0303  -7.9837
     0.9831   1.0599   1.8369   1.8624   2.1910   2.2048   2.5206   2.5520
     3.0269   3.1306   3.5696   3.5974   3.7415   3.8389   4.3060   4.3669
     4.7661   4.8642   5.1584   5.1818   5.1980   5.6587   5.7172   5.8488
     6.0181   6.0817   6.1274   6.4599   6.7884   6.9950   7.0648   7.2780
     7.7167   7.7168   7.7765   7.9049  10.3831  10.4560  10.4869  10.5776
    12.1370  12.2186  12.4814  12.5877  12.5973  12.6041  13.3392  13.3987
    14.1656  15.0640  15.2676  15.7590  15.7608  17.1331  17.2224

          k = 0.0000 0.3333 0.1148 ( 31793 PWs)   bands (ev):

   -66.4564 -66.4560 -66.4558 -66.4554 -30.8240 -30.8216 -30.7677 -30.7615
   -30.7559 -30.7525 -30.7517 -30.7498 -30.7177 -30.7163 -30.7146 -30.7142
   -20.6201 -20.6201 -20.6200 -20.6200 -20.6043 -20.6042 -20.6013 -20.6012
   -20.6010 -20.6009 -20.5993 -20.5987 -20.5981 -20.5977 -20.5976 -20.5973
   -20.5973 -20.5973 -20.5972 -20.5971 -20.5942 -20.5942 -20.5932 -20.5931
   -20.5923 -20.5923 -20.5915 -20.5913  -9.9080  -9.5121  -9.4540  -8.9745
    -8.9334  -8.9124  -8.5499  -8.4385  -8.3286  -8.3075  -8.1328  -8.0911
     1.2379   1.3139   1.8388   1.8609   2.1879   2.2156   2.5947   2.6155
     3.0318   3.1247   3.4954   3.5372   3.8062   3.9018   4.3205   4.3814
     4.4921   4.6823   4.9010   5.1372   5.1563   5.4072   5.4335   5.6737
     6.1967   6.2608   6.4704   6.5402   6.7965   6.9887   7.0775   7.2703
     7.7056   7.7068   7.7288   7.8489  10.4394  10.4629  10.5436  10.6852
    12.1799  12.2445  12.3529  12.4362  12.5919  12.6004  13.2228  13.2860
    14.5115  15.4025  15.4845  15.7593  15.7606  16.7985  17.2382

          k = 0.0000 0.3333 0.2297 ( 31764 PWs)   bands (ev):

   -66.4563 -66.4561 -66.4557 -66.4555 -30.8113 -30.8089 -30.7778 -30.7741
   -30.7552 -30.7532 -30.7521 -30.7521 -30.7170 -30.7160 -30.7153 -30.7147
   -20.6201 -20.6201 -20.6200 -20.6200 -20.6031 -20.6031 -20.6013 -20.6012
   -20.6010 -20.6009 -20.6001 -20.5998 -20.5980 -20.5977 -20.5977 -20.5976
   -20.5973 -20.5972 -20.5972 -20.5971 -20.5941 -20.5940 -20.5935 -20.5933
   -20.5922 -20.5921 -20.5917 -20.5915  -9.7691  -9.5091  -9.2871  -8.9290
    -8.9169  -8.8742  -8.6748  -8.4245  -8.3873  -8.3241  -8.3119  -8.2946
     1.8439   1.8567   1.9051   1.9449   2.1768   2.3123   2.7965   2.8236
     3.0390   3.1091   3.2685   3.3439   3.8176   4.0058   4.0859   4.2409
     4.3770   4.4384   4.5675   4.6771   4.9292   5.0803   5.1522   5.1590
     6.6859   6.6988   6.7501   6.8103   6.8116   6.9676   7.1309   7.2364
     7.5253   7.6008   7.7245   7.7531  10.4604  10.4662  10.8589  11.0126
    11.8992  12.0223  12.3209  12.4220  12.5825  12.6125  12.9454  13.0097
    15.1916  15.7598  15.7603  15.9279  16.2856  16.4851  17.2268

          k = 0.0000 0.3333-0.3445 ( 31756 PWs)   bands (ev):

   -66.4562 -66.4562 -66.4556 -66.4556 -30.7942 -30.7942 -30.7915 -30.7915
   -30.7542 -30.7542 -30.7525 -30.7525 -30.7162 -30.7162 -30.7154 -30.7154
   -20.6201 -20.6201 -20.6200 -20.6200 -20.6016 -20.6016 -20.6015 -20.6015
   -20.6013 -20.6012 -20.6010 -20.6010 -20.5979 -20.5979 -20.5977 -20.5977
   -20.5973 -20.5973 -20.5972 -20.5972 -20.5938 -20.5938 -20.5936 -20.5936
   -20.5920 -20.5920 -20.5918 -20.5918  -9.6162  -9.6162  -8.9681  -8.9681
    -8.9229  -8.9229  -8.6733  -8.6733  -8.3914  -8.3914  -8.3181  -8.3180
     1.8506   1.8506   2.1464   2.1464   2.8094   2.8094   2.9107   2.9107
     3.0595   3.0595   3.1021   3.1021   3.3661   3.3661   4.2931   4.2931
     4.3325   4.3325   4.5470   4.5470   4.6288   4.6288   5.1462   5.1462
     6.7872   6.7872   6.9138   6.9138   7.1298   7.1298   7.1965   7.1965
     7.3088   7.3088   7.7316   7.7316  10.4651  10.4651  11.3587  11.3587
    11.5005  11.5005  12.4948  12.4948  12.6558  12.6558  12.7258  12.7258
    15.7528  15.7528  15.7642  15.7642  16.7466  16.7467  17.3260

          k = 0.0000 0.4444 0.0000 ( 31758 PWs)   bands (ev):

   -66.4562 -66.4560 -66.4557 -66.4555 -30.8281 -30.8273 -30.7615 -30.7589
   -30.7437 -30.7399 -30.7391 -30.7386 -30.7304 -30.7274 -30.7268 -30.7261
   -20.6201 -20.6201 -20.6200 -20.6200 -20.6047 -20.6047 -20.6013 -20.6012
   -20.6012 -20.6011 -20.5989 -20.5987 -20.5977 -20.5975 -20.5974 -20.5973
   -20.5973 -20.5972 -20.5970 -20.5970 -20.5937 -20.5937 -20.5931 -20.5931
   -20.5926 -20.5924 -20.5920 -20.5918  -9.8084  -9.6796  -9.1609  -8.8753
    -8.8457  -8.7511  -8.7275  -8.6817  -8.5421  -8.5178  -8.0160  -7.9995
     1.0063   1.0321   2.3614   2.4719   2.5808   2.6265   2.6425   2.7271
     3.1020   3.2071   3.5816   3.6132   3.6162   3.6807   3.7565   3.8801
     4.2717   4.3779   4.7694   4.8368   5.2835   5.5114   5.7786   5.8381
     5.9138   5.9368   6.1401   6.2671   7.1871   7.1889   7.2483   7.4359
     7.4704   7.5276   7.5503   7.7524  10.9620  11.1361  11.2011  11.2369
    11.6110  11.7189  11.9332  11.9632  12.7278  12.8345  13.0153  13.1170
    14.5349  14.8355  15.8706  16.5427  16.8121  16.8281  17.3303

          k = 0.0000 0.4444 0.1148 ( 31760 PWs)   bands (ev):

   -66.4562 -66.4560 -66.4558 -66.4556 -30.8235 -30.8226 -30.7653 -30.7632
   -30.7434 -30.7402 -30.7394 -30.7393 -30.7302 -30.7276 -30.7270 -30.7263
   -20.6201 -20.6201 -20.6200 -20.6200 -20.6043 -20.6043 -20.6013 -20.6013
   -20.6012 -20.6011 -20.5992 -20.5990 -20.5977 -20.5974 -20.5974 -20.5973
   -20.5972 -20.5972 -20.5971 -20.5971 -20.5937 -20.5936 -20.5931 -20.5930
   -20.5926 -20.5925 -20.5921 -20.5919  -9.7430  -9.6049  -9.1783  -8.8650
    -8.8567  -8.7496  -8.7290  -8.6725  -8.5405  -8.5195  -8.1221  -8.1071
     1.2623   1.2881   2.3719   2.4670   2.6008   2.6651   2.7030   2.7225
     3.0837   3.1777   3.5851   3.6588   3.6722   3.6887   3.7907   3.9102
     4.2466   4.3757   4.5109   4.5861   4.9241   5.1314   5.4862   5.5681
     6.2474   6.3208   6.3401   6.4211   7.1742   7.1812   7.2536   7.4224
     7.4675   7.4949   7.5310   7.7105  11.0265  11.1800  11.2170  11.2748
    11.6612  11.7755  11.9339  11.9713  12.5834  12.6945  12.8843  12.9910
    14.9177  15.2379  15.9683  16.6024  16.8124  16.8302  17.1362

          k = 0.0000 0.4444 0.2297 ( 31749 PWs)   bands (ev):

   -66.4561 -66.4559 -66.4559 -66.4557 -30.8108 -30.8099 -30.7768 -30.7755
   -30.7428 -30.7409 -30.7402 -30.7398 -30.7295 -30.7277 -30.7277 -30.7268
   -20.6201 -20.6201 -20.6200 -20.6200 -20.6032 -20.6031 -20.6013 -20.6013
   -20.6012 -20.6011 -20.6001 -20.6000 -20.5977 -20.5974 -20.5974 -20.5974
   -20.5973 -20.5972 -20.5972 -20.5972 -20.5935 -20.5934 -20.5930 -20.5930
   -20.5927 -20.5927 -20.5924 -20.5921  -9.5718  -9.3999  -9.2406  -8.9435
    -8.7887  -8.7452  -8.7333  -8.6384  -8.5361  -8.5239  -8.3755  -8.3506
     1.9496   1.9623   2.3979   2.4520   2.6678   2.6776   2.7897   2.8727
     3.0246   3.0722   3.5867   3.6556   3.8296   3.8429   3.8539   3.9166
     3.9948   4.0218   4.3376   4.3721   4.4554   4.6264   4.7567   4.8932
     6.7293   6.7440   6.7473   6.7879   7.1185   7.1507   7.2791   7.3554
     7.3570   7.4759   7.4870   7.5945  11.1479  11.1969  11.3421  11.5011
    11.8056  11.8648  12.0068  12.0112  12.2264  12.3335  12.5611  12.6743
    15.7518  16.1891  16.3189  16.7651  16.7656  16.8162  16.8574

          k = 0.0000 0.4444-0.3445 ( 31774 PWs)   bands (ev):

   -66.4560 -66.4560 -66.4558 -66.4558 -30.7936 -30.7936 -30.7926 -30.7926
   -30.7418 -30.7418 -30.7402 -30.7402 -30.7286 -30.7286 -30.7274 -30.7274
   -20.6201 -20.6201 -20.6200 -20.6200 -20.6016 -20.6016 -20.6016 -20.6016
   -20.6013 -20.6013 -20.6012 -20.6012 -20.5976 -20.5976 -20.5974 -20.5974
   -20.5973 -20.5973 -20.5972 -20.5972 -20.5933 -20.5933 -20.5931 -20.5931
   -20.5927 -20.5927 -20.5924 -20.5924  -9.3745  -9.3745  -9.1360  -9.1360
    -8.7393  -8.7393  -8.6330  -8.6330  -8.5496  -8.5496  -8.5300  -8.5300
     2.4276   2.4276   2.5777   2.5777   2.7667   2.7667   2.9194   2.9194
     3.0026   3.0026   3.2333   3.2333   3.6472   3.6472   4.0893   4.0893
     4.1452   4.1452   4.2011   4.2011   4.3036   4.3036   4.3990   4.3990
     6.9807   6.9807   7.0479   7.0479   7.1127   7.1127   7.1541   7.1541
     7.3602   7.3602   7.5095   7.5095  11.1863  11.1863  11.6768  11.6768
    11.8866  11.8866  11.9500  11.9500  12.2024  12.2024  12.3049  12.3049
    16.3449  16.3449  16.7990  16.7990  16.8711  16.8711  17.1690

          k = 0.1111 0.1111 0.0000 ( 31807 PWs)   bands (ev):

   -66.4567 -66.4562 -66.4556 -66.4551 -30.8287 -30.8250 -30.7757 -30.7716
   -30.7677 -30.7615 -30.7552 -30.7550 -30.7078 -30.7047 -30.6982 -30.6949
   -20.6201 -20.6201 -20.6200 -20.6200 -20.6046 -20.6045 -20.6008 -20.6007
   -20.6006 -20.6006 -20.5992 -20.5992 -20.5985 -20.5982 -20.5980 -20.5974
   -20.5974 -20.5973 -20.5972 -20.5970 -20.5950 -20.5947 -20.5936 -20.5934
   -20.5919 -20.5914 -20.5908 -20.5903 -10.1773  -9.7487  -9.5217  -9.1561
    -9.1048  -9.0807  -8.1886  -8.1699  -8.0490  -7.9751  -7.9652  -7.9500
     0.9267   1.0313   1.0669   1.1008   1.6012   1.6488   2.2622   2.4049
     2.4879   2.5991   3.8037   3.8704   4.0843   4.5330   4.7882   4.9040
     5.2701   5.3168   5.4376   5.6208   5.6778   5.7906   6.0016   6.1466
     6.3647   6.5396   6.5523   6.5682   6.7458   6.8143   6.8787   6.9614
     7.9748   8.0317   8.0524   8.0717   9.3457   9.3530   9.3552   9.9162
    12.2291  12.3647  12.6033  13.0453  13.3320  13.3445  13.4849  13.6222
    13.9452  14.3140  14.4092  14.6378  15.2826  16.5007  17.0342

          k = 0.1111 0.1111 0.1148 ( 31804 PWs)   bands (ev):

   -66.4566 -66.4562 -66.4556 -66.4551 -30.8240 -30.8203 -30.7754 -30.7719
   -30.7686 -30.7618 -30.7597 -30.7589 -30.7076 -30.7049 -30.6980 -30.6951
   -20.6201 -20.6201 -20.6200 -20.6200 -20.6041 -20.6041 -20.6008 -20.6008
   -20.6006 -20.6006 -20.5992 -20.5992 -20.5987 -20.5984 -20.5982 -20.5977
   -20.5975 -20.5973 -20.5972 -20.5970 -20.5949 -20.5946 -20.5937 -20.5935
   -20.5918 -20.5914 -20.5909 -20.5904 -10.1332  -9.7644  -9.4395  -9.1443
    -9.1066  -9.0510  -8.2413  -8.1681  -8.1244  -8.0722  -7.9735  -7.9517
     1.0158   1.0312   1.2182   1.3469   1.6000   1.6891   2.3335   2.4733
     2.4983   2.5921   3.6671   3.6903   4.1433   4.5333   4.5935   4.9133
     5.0633   5.2846   5.3259   5.3942   5.7141   5.8297   6.0380   6.2423
     6.3586   6.5495   6.5567   6.5952   6.7425   6.8338   6.8679   6.8908
     7.9014   7.9765   8.0347   8.0571   9.3464   9.3491   9.6031  10.0788
    12.0588  12.1981  12.6469  13.0758  13.3385  13.3388  13.5284  13.7314
    13.8493  14.3058  14.4380  14.8511  15.7012  16.1709  17.1184

          k = 0.1111 0.1111 0.2297 ( 31801 PWs)   bands (ev):

   -66.4566 -66.4563 -66.4555 -66.4552 -30.8111 -30.8075 -30.7767 -30.7747
   -30.7726 -30.7725 -30.7631 -30.7624 -30.7071 -30.7055 -30.6974 -30.6957
   -20.6201 -20.6201 -20.6200 -20.6200 -20.6029 -20.6029 -20.6008 -20.6008
   -20.6006 -20.6006 -20.5997 -20.5996 -20.5992 -20.5992 -20.5982 -20.5980
   -20.5975 -20.5974 -20.5971 -20.5970 -20.5946 -20.5944 -20.5940 -20.5937
   -20.5917 -20.5912 -20.5911 -20.5906 -10.0238  -9.8142  -9.2064  -9.1293
    -9.1117  -8.9311  -8.5002  -8.3851  -8.1627  -8.1404  -7.9689  -7.9564
     1.0279   1.0308   1.5530   1.5959   1.9248   2.1924   2.5131   2.5308
     2.5846   2.6952   3.2912   3.3320   3.8288   4.3355   4.4152   4.7640
     4.8782   4.9479   5.1588   5.3272   5.3658   5.6844   6.1423   6.4929
     6.5369   6.5492   6.6610   6.7311   6.7709   6.8040   6.9185   6.9493
     7.6705   7.7104   8.0422   8.0534   9.3478   9.3491  10.1968  10.5261
    11.5851  11.7466  12.7729  13.1734  13.2419  13.3402  13.3830  13.6225
    14.1169  14.2874  14.6026  15.5083  15.6070  16.7382  16.9361

          k = 0.1111 0.1111-0.3445 ( 31778 PWs)   bands (ev):

   -66.4564 -66.4564 -66.4553 -66.4553 -30.7936 -30.7936 -30.7901 -30.7901
   -30.7737 -30.7736 -30.7631 -30.7631 -30.7063 -30.7063 -30.6966 -30.6965
   -20.6201 -20.6201 -20.6200 -20.6200 -20.6014 -20.6014 -20.6013 -20.6013
   -20.6007 -20.6007 -20.6006 -20.6006 -20.5992 -20.5992 -20.5981 -20.5981
   -20.5974 -20.5974 -20.5971 -20.5971 -20.5943 -20.5943 -20.5940 -20.5940
   -20.5914 -20.5914 -20.5909 -20.5909  -9.9035  -9.9035  -9.1194  -9.1194
    -8.8653  -8.8653  -8.6988  -8.6987  -8.1542  -8.1542  -7.9626  -7.9626
     1.0300   1.0300   1.5867   1.5867   2.5397   2.5397   2.8605   2.8605
     2.8793   2.8793   2.9337   2.9337   3.3054   3.3054   4.6194   4.6194
     4.9837   4.9837   5.0545   5.0545   5.4594   5.4594   6.3018   6.3018
     6.5463   6.5463   6.7178   6.7178   6.9326   6.9326   7.2846   7.2847
     7.2909   7.2909   8.0485   8.0485   9.3488   9.3488  10.9161  10.9161
    11.1358  11.1359  12.9835  12.9835  13.3167  13.3167  13.4057  13.4057
    14.2515  14.2515  15.0431  15.0431  16.3378  16.3378  17.4503

          k = 0.1111 0.2222 0.0000 ( 31814 PWs)   bands (ev):

   -66.4566 -66.4561 -66.4557 -66.4552 -30.8287 -30.8255 -30.7743 -30.7697
   -30.7619 -30.7559 -30.7509 -30.7499 -30.7180 -30.7151 -30.7000 -30.6968
   -20.6201 -20.6201 -20.6200 -20.6200 -20.6046 -20.6046 -20.6010 -20.6010
   -20.6008 -20.6007 -20.5993 -20.5991 -20.5982 -20.5982 -20.5976 -20.5975
   -20.5974 -20.5971 -20.5970 -20.5968 -20.5949 -20.5943 -20.5936 -20.5930
   -20.5924 -20.5915 -20.5913 -20.5904 -10.0915  -9.6410  -9.5507  -9.1262
    -8.9972  -8.9781  -8.4154  -8.3797  -8.0574  -8.0340  -8.0021  -7.9730
     0.9520   1.0839   1.1655   1.1987   2.0852   2.0917   2.2902   2.5445
     2.7102   2.8185   3.5899   3.7361   3.8950   4.3809   4.4047   4.7752
     5.0914   5.1225   5.3039   5.6174   5.7147   5.8124   5.9000   6.0220
     6.1129   6.2407   6.2485   6.3244   6.7211   6.8155   6.8558   7.1495
     7.8292   7.8609   7.8736   8.0477   9.5321   9.9478   9.9669  10.4662
    12.1465  12.2858  12.5344  12.9310  13.0468  13.0546  13.3537  13.6711
    13.8611  14.7781  14.9031  15.0779  15.1795  16.9728  17.1321

          k = 0.1111 0.2222 0.1148 ( 31784 PWs)   bands (ev):

   -66.4565 -66.4561 -66.4557 -66.4552 -30.8240 -30.8209 -30.7742 -30.7700
   -30.7647 -30.7605 -30.7514 -30.7511 -30.7179 -30.7153 -30.6998 -30.6970
   -20.6201 -20.6201 -20.6200 -20.6200 -20.6042 -20.6042 -20.6010 -20.6010
   -20.6008 -20.6007 -20.5993 -20.5991 -20.5985 -20.5985 -20.5976 -20.5975
   -20.5975 -20.5972 -20.5970 -20.5968 -20.5948 -20.5942 -20.5937 -20.5931
   -20.5923 -20.5914 -20.5914 -20.5905 -10.0439  -9.6564  -9.4694  -9.1015
    -8.9996  -8.9646  -8.4361  -8.3769  -8.1525  -8.0884  -8.0323  -8.0073
     1.1197   1.1652   1.2623   1.3655   2.0826   2.1040   2.3622   2.6113
     2.7174   2.8120   3.5169   3.6875   3.8347   4.3960   4.4677   4.5123
     4.8327   5.1295   5.1533   5.4157   5.5244   5.8082   5.9515   6.0212
     6.2297   6.2725   6.3333   6.4619   6.7182   6.7844   6.8554   7.1471
     7.7772   7.8566   7.8625   7.9706   9.7379   9.9487   9.9734  10.5808
    12.0824  12.2323  12.3776  12.9551  13.0433  13.0608  13.2443  13.7636
    13.9318  14.7672  15.0664  15.1461  15.5951  16.5642  17.1590

          k = 0.1111 0.2222 0.2297 ( 31800 PWs)   bands (ev):

   -66.4565 -66.4562 -66.4556 -66.4553 -30.8112 -30.8081 -30.7776 -30.7732
   -30.7717 -30.7707 -30.7526 -30.7517 -30.7174 -30.7159 -30.6992 -30.6976
   -20.6201 -20.6201 -20.6200 -20.6200 -20.6030 -20.6030 -20.6010 -20.6010
   -20.6008 -20.6008 -20.5999 -20.5997 -20.5991 -20.5989 -20.5976 -20.5976
   -20.5975 -20.5974 -20.5969 -20.5969 -20.5946 -20.5940 -20.5939 -20.5934
   -20.5922 -20.5916 -20.5913 -20.5907  -9.9263  -9.7062  -9.2394  -9.0495
    -9.0068  -8.8903  -8.5776  -8.3911  -8.3682  -8.2916  -8.0276  -8.0142
     1.1580   1.1644   1.9049   1.9479   2.0739   2.2576   2.5750   2.7308
     2.7954   2.8185   3.2825   3.3253   3.8231   4.0240   4.3204   4.4525
     4.6436   4.6739   5.0022   5.0333   5.1644   5.5496   5.9953   6.0181
     6.3508   6.5526   6.6352   6.7037   6.7478   6.8027   6.9854   7.1293
     7.5867   7.6806   7.8654   7.8886   9.9478   9.9507  10.3046  10.9174
    11.6284  11.9597  12.3732  12.9286  13.0115  13.0653  13.1211  13.5314
    14.3730  14.7293  15.2239  15.7568  16.0239  16.6107  17.1804

          k = 0.1111 0.2222-0.3445 ( 31784 PWs)   bands (ev):

   -66.4563 -66.4563 -66.4554 -66.4554 -30.7938 -30.7938 -30.7907 -30.7907
   -30.7716 -30.7716 -30.7524 -30.7524 -30.7167 -30.7167 -30.6984 -30.6984
   -20.6201 -20.6201 -20.6200 -20.6200 -20.6015 -20.6015 -20.6014 -20.6014
   -20.6009 -20.6009 -20.6007 -20.6007 -20.5991 -20.5991 -20.5976 -20.5976
   -20.5975 -20.5975 -20.5969 -20.5969 -20.5943 -20.5943 -20.5937 -20.5937
   -20.5919 -20.5919 -20.5910 -20.5910  -9.7983  -9.7983  -9.0205  -9.0205
    -8.9068  -8.9067  -8.6866  -8.6866  -8.3500  -8.3499  -8.0211  -8.0211
     1.1626   1.1627   2.0533   2.0535   2.7423   2.7436   2.8540   2.8575
     2.8941   2.8975   2.9825   2.9889   3.3322   3.3333   4.3170   4.3219
     4.6096   4.6118   4.8663   4.8806   5.2628   5.2759   6.0114   6.0116
     6.4632   6.4705   6.6793   6.6849   7.0607   7.0613   7.2482   7.2512
     7.2802   7.2830   7.8754   7.8758   9.9519   9.9522  10.9802  10.9822
    11.4183  11.4202  12.6196  12.6286  13.0269  13.0590  13.2727  13.2960
    14.6284  14.6312  15.5383  15.5419  16.5899  16.5900  17.4861

          k = 0.1111 0.3333 0.0000 ( 31811 PWs)   bands (ev):

   -66.4564 -66.4559 -66.4558 -66.4553 -30.8284 -30.8263 -30.7695 -30.7633
   -30.7576 -30.7574 -30.7397 -30.7383 -30.7300 -30.7277 -30.7061 -30.7030
   -20.6201 -20.6201 -20.6200 -20.6200 -20.6047 -20.6047 -20.6012 -20.6011
   -20.6010 -20.6010 -20.5992 -20.5988 -20.5985 -20.5979 -20.5977 -20.5975
   -20.5972 -20.5968 -20.5967 -20.5967 -20.5947 -20.5937 -20.5935 -20.5929
   -20.5926 -20.5919 -20.5918 -20.5908  -9.9647  -9.6062  -9.4685  -9.0691
    -8.8284  -8.8160  -8.6907  -8.6098  -8.1835  -8.1758  -8.0274  -7.9851
     0.9822   1.0601   1.4978   1.5151   2.3823   2.5392   2.6371   2.6645
     3.1005   3.1493   3.1966   3.5755   3.8183   3.8493   4.1198   4.6839
     4.7682   4.8831   5.0635   5.3517   5.4544   5.6204   5.7060   5.8143
     6.0157   6.0167   6.1968   6.6091   6.6127   6.8345   6.9251   7.4310
     7.6045   7.6168   7.6419   7.9775   9.9486  10.6345  10.6564  11.0637
    11.6465  12.3640  12.5591  12.5963  12.6422  12.7926  13.0558  13.6579
    14.0197  15.0021  15.3369  15.5074  15.9343  17.2555  17.2993

          k = 0.1111 0.3333 0.1148 ( 31774 PWs)   bands (ev):

   -66.4564 -66.4560 -66.4558 -66.4554 -30.8238 -30.8217 -30.7702 -30.7636
   -30.7618 -30.7607 -30.7400 -30.7385 -30.7301 -30.7279 -30.7059 -30.7032
   -20.6201 -20.6201 -20.6200 -20.6200 -20.6042 -20.6042 -20.6012 -20.6011
   -20.6010 -20.6010 -20.5994 -20.5988 -20.5987 -20.5981 -20.5977 -20.5976
   -20.5972 -20.5969 -20.5967 -20.5967 -20.5946 -20.5936 -20.5936 -20.5929
   -20.5927 -20.5920 -20.5918 -20.5908  -9.9109  -9.5276  -9.4835  -9.0433
    -8.8318  -8.8099  -8.7065  -8.6045  -8.1988  -8.1817  -8.1217  -8.0876
     1.2298   1.3055   1.4971   1.5386   2.4529   2.5598   2.6509   2.6928
     3.1023   3.1280   3.1913   3.6169   3.7004   3.8812   4.1849   4.4872
     4.6905   4.7182   4.8341   5.2964   5.3523   5.3738   5.4577   5.7423
     6.2193   6.2737   6.3521   6.6262   6.6628   6.8286   6.9473   7.4094
     7.5832   7.6104   7.6220   7.9049  10.1049  10.6347  10.6579  11.1456
    11.7093  12.2017  12.5432  12.5884  12.6473  12.6988  12.9303  13.5527
    14.3221  15.3995  15.4894  15.4941  15.9735  16.9671  17.2844

          k = 0.1111 0.3333 0.2297 ( 31780 PWs)   bands (ev):

   -66.4563 -66.4560 -66.4557 -66.4555 -30.8111 -30.8090 -30.7776 -30.7743
   -30.7649 -30.7642 -30.7402 -30.7391 -30.7298 -30.7285 -30.7054 -30.7038
   -20.6201 -20.6201 -20.6200 -20.6200 -20.6031 -20.6031 -20.6012 -20.6012
   -20.6010 -20.6010 -20.6001 -20.5998 -20.5987 -20.5985 -20.5977 -20.5977
   -20.5971 -20.5970 -20.5968 -20.5967 -20.5944 -20.5938 -20.5935 -20.5929
   -20.5928 -20.5923 -20.5916 -20.5911  -9.7768  -9.5337  -9.3084  -8.9627
    -8.8434  -8.7844  -8.7796  -8.5853  -8.3946  -8.3655  -8.1765  -8.1567
     1.4765   1.4949   1.9385   2.0343   2.5985   2.6264   2.6935   2.8286
     3.0410   3.1125   3.1777   3.3424   3.8288   3.8296   3.9940   4.1482
     4.3679   4.6420   4.6909   4.7307   4.7731   5.2155   5.3544   5.4198
     6.6021   6.6667   6.6917   6.7281   6.8055   6.8148   7.0467   7.3325
     7.4504   7.5558   7.6238   7.7200  10.5076  10.6347  10.6904  11.3949
    11.7494  11.9097  12.2488  12.5384  12.5742  12.6573  12.8116  13.2992
    14.8763  15.4222  15.8738  16.2338  16.3814  16.5327  17.3248

          k = 0.1111 0.3333-0.3445 ( 31752 PWs)   bands (ev):

   -66.4562 -66.4562 -66.4556 -66.4556 -30.7939 -30.7939 -30.7916 -30.7916
   -30.7649 -30.7649 -30.7398 -30.7398 -30.7292 -30.7292 -30.7046 -30.7046
   -20.6201 -20.6201 -20.6200 -20.6200 -20.6015 -20.6015 -20.6015 -20.6015
   -20.6012 -20.6012 -20.6009 -20.6009 -20.5987 -20.5987 -20.5977 -20.5977
   -20.5971 -20.5971 -20.5968 -20.5968 -20.5941 -20.5941 -20.5932 -20.5932
   -20.5926 -20.5925 -20.5913 -20.5913  -9.6324  -9.6324  -9.0106  -9.0104
    -8.8750  -8.8746  -8.6537  -8.6533  -8.5327  -8.5324  -8.1687  -8.1686
     1.4902   1.4905   2.5608   2.5609   2.7868   2.7871   2.9073   2.9172
     2.9916   3.0025   3.1619   3.1624   3.2798   3.2828   4.1454   4.1525
     4.2474   4.2498   4.5644   4.5977   4.8570   4.8848   5.3623   5.3631
     6.6936   6.7033   6.7655   6.7754   7.1543   7.1552   7.1845   7.1934
     7.2682   7.2746   7.6399   7.6420  10.6291  10.6315  11.1588  11.1670
    11.7899  11.7947  12.2034  12.2192  12.5729  12.6100  13.0116  13.0327
    15.2441  15.2512  16.1551  16.1637  16.9635  16.9730  17.3250

          k = 0.1111 0.4444 0.0000 ( 31758 PWs)   bands (ev):

   -66.4562 -66.4560 -66.4557 -66.4555 -30.8280 -30.8272 -30.7637 -30.7597
   -30.7533 -30.7518 -30.7421 -30.7410 -30.7275 -30.7250 -30.7157 -30.7128
   -20.6201 -20.6201 -20.6200 -20.6200 -20.6047 -20.6047 -20.6013 -20.6012
   -20.6012 -20.6011 -20.5990 -20.5988 -20.5983 -20.5980 -20.5976 -20.5975
   -20.5970 -20.5968 -20.5966 -20.5966 -20.5943 -20.5938 -20.5930 -20.5930
   -20.5925 -20.5924 -20.5919 -20.5913  -9.8227  -9.6967  -9.2417  -8.9756
    -8.9707  -8.8167  -8.6158  -8.6111  -8.3890  -8.3860  -8.0152  -7.9998
     1.0078   1.0337   1.9800   1.9901   2.4532   2.5264   2.5734   2.6551
     3.1810   3.5776   3.6323   3.6324   3.6825   3.8247   3.9374   4.1476
     4.3281   4.6290   4.7983   4.9354   5.3094   5.4849   5.6992   5.7516
     5.9870   6.0391   6.1805   6.3631   6.9978   7.0467   7.1148   7.3226
     7.3368   7.3687   7.6746   7.8551  10.4861  11.0573  11.3251  11.3631
    11.6433  11.9795  12.0279  12.2014  12.5394  12.7724  13.0746  13.3804
    14.4080  14.7448  15.9198  16.3936  16.6009  16.8665  17.2274

          k = 0.1111 0.4444 0.1148 ( 31752 PWs)   bands (ev):

   -66.4562 -66.4560 -66.4558 -66.4556 -30.8233 -30.8226 -30.7663 -30.7637
   -30.7536 -30.7535 -30.7426 -30.7412 -30.7275 -30.7253 -30.7156 -30.7130
   -20.6201 -20.6201 -20.6200 -20.6200 -20.6043 -20.6043 -20.6013 -20.6012
   -20.6012 -20.6011 -20.5992 -20.5990 -20.5983 -20.5980 -20.5978 -20.5976
   -20.5970 -20.5968 -20.5966 -20.5966 -20.5942 -20.5937 -20.5931 -20.5930
   -20.5926 -20.5924 -20.5919 -20.5914  -9.7599  -9.6244  -9.2564  -8.9903
    -8.9512  -8.8056  -8.6206  -8.6078  -8.3938  -8.3867  -8.1204  -8.1066
     1.2629   1.2884   1.9871   1.9880   2.4679   2.5667   2.5960   2.7104
     3.1601   3.5104   3.6309   3.6785   3.7029   3.8849   3.9563   4.1567
     4.2731   4.5430   4.6335   4.7021   4.9904   5.1091   5.5287   5.6325
     6.1927   6.2350   6.4010   6.5246   6.9967   7.0404   7.1241   7.3127
     7.3260   7.3639   7.6342   7.7961  10.5978  11.1327  11.3240  11.3688
    11.7024  11.9751  12.0278  12.2510  12.3875  12.6318  12.9440  13.2635
    14.7586  15.1296  16.0264  16.3660  16.6640  16.8940  17.1429

          k = 0.1111 0.4444 0.2297 ( 31767 PWs)   bands (ev):

   -66.4561 -66.4559 -66.4559 -66.4557 -30.8106 -30.8099 -30.7768 -30.7756
   -30.7550 -30.7541 -30.7429 -30.7418 -30.7272 -30.7258 -30.7151 -30.7136
   -20.6201 -20.6201 -20.6200 -20.6200 -20.6031 -20.6031 -20.6013 -20.6012
   -20.6012 -20.6012 -20.6001 -20.6000 -20.5983 -20.5981 -20.5980 -20.5978
   -20.5969 -20.5968 -20.5967 -20.5967 -20.5940 -20.5936 -20.5933 -20.5929
   -20.5928 -20.5923 -20.5921 -20.5916  -9.5988  -9.4301  -9.3084  -9.0483
    -8.8808  -8.7631  -8.6423  -8.5958  -8.4584  -8.3799  -8.3667  -8.3107
     1.8707   1.9478   1.9814   2.0984   2.5133   2.5449   2.8007   2.8671
     3.0812   3.2852   3.6494   3.6682   3.8721   3.9005   4.0185   4.0645
     4.0657   4.2129   4.2665   4.5685   4.6502   4.6966   4.8452   5.0645
     6.6599   6.6921   6.7681   6.8023   6.9812   7.0157   7.1679   7.2494
     7.2857   7.3723   7.5086   7.6222  10.9193  11.3008  11.3206  11.4478
    11.8738  11.9131  12.0314  12.0446  12.2804  12.4008  12.6177  12.9769
    15.4749  16.0020  16.2540  16.3714  16.8630  16.9290  17.0239

          k = 0.1111 0.4444-0.3445 ( 31770 PWs)   bands (ev):

   -66.4560 -66.4560 -66.4558 -66.4558 -30.7934 -30.7934 -30.7926 -30.7926
   -30.7548 -30.7548 -30.7425 -30.7424 -30.7266 -30.7266 -30.7144 -30.7144
   -20.6201 -20.6201 -20.6200 -20.6200 -20.6016 -20.6016 -20.6016 -20.6016
   -20.6012 -20.6012 -20.6011 -20.6011 -20.5983 -20.5982 -20.5979 -20.5979
   -20.5968 -20.5968 -20.5967 -20.5967 -20.5937 -20.5937 -20.5932 -20.5932
   -20.5925 -20.5925 -20.5919 -20.5919  -9.4220  -9.4220  -9.1970  -9.1969
    -8.7401  -8.7397  -8.6511  -8.6511  -8.5542  -8.5541  -8.3662  -8.3661
     1.9677   1.9680   2.4920   2.4922   2.8086   2.8086   2.8672   2.8683
     3.1293   3.1346   3.2542   3.2556   3.6791   3.6863   4.0857   4.0882
     4.1926   4.2340   4.2840   4.3009   4.4534   4.4787   4.7143   4.7150
     6.9037   6.9123   6.9348   6.9421   7.0822   7.0851   7.1209   7.1350
     7.3092   7.3166   7.4252   7.4307  11.2640  11.2878  11.4572  11.4864
    11.7732  11.7957  11.9906  12.0381  12.2383  12.2506  12.6468  12.6631
    15.9829  15.9966  16.6230  16.6599  16.8268  16.8815  17.2007

          k = 0.2222 0.2222 0.0000 ( 31773 PWs)   bands (ev):

   -66.4565 -66.4560 -66.4558 -66.4553 -30.8283 -30.8259 -30.7770 -30.7729
   -30.7593 -30.7569 -30.7394 -30.7378 -30.7304 -30.7282 -30.6970 -30.6937
   -20.6201 -20.6201 -20.6200 -20.6200 -20.6046 -20.6046 -20.6009 -20.6009
   -20.6009 -20.6009 -20.5996 -20.5996 -20.5984 -20.5982 -20.5979 -20.5975
   -20.5971 -20.5967 -20.5966 -20.5966 -20.5950 -20.5937 -20.5937 -20.5930
   -20.5926 -20.5919 -20.5913 -20.5903 -10.0427  -9.6001  -9.5855  -9.1364
    -8.8475  -8.8238  -8.6697  -8.6012  -8.0443  -7.9912  -7.9793  -7.9651
     0.9394   1.0601   1.0750   1.1242   2.2435   2.5603   2.6422   2.6950
     2.9161   3.0211   3.1513   3.5657   3.8603   3.9074   4.5457   4.7689
     5.0414   5.1108   5.2329   5.5852   5.7170   5.7253   5.9270   5.9680
     6.0304   6.0501   6.1693   6.4043   6.4411   6.6422   6.9671   7.4168
     7.5999   7.6545   7.6553   8.0665   9.4015  10.4477  10.4734  11.0562
    11.6333  12.2403  12.7708  12.8598  12.8695  13.0403  13.0523  13.6126
    13.9464  14.8103  15.0453  15.1535  15.6405  17.2210  17.3129

          k = 0.2222 0.2222 0.1148 ( 31775 PWs)   bands (ev):

   -66.4565 -66.4560 -66.4557 -66.4553 -30.8236 -30.8213 -30.7768 -30.7732
   -30.7636 -30.7613 -30.7397 -30.7380 -30.7305 -30.7284 -30.6968 -30.6939
   -20.6201 -20.6201 -20.6200 -20.6200 -20.6042 -20.6042 -20.6009 -20.6009
   -20.6009 -20.6009 -20.5996 -20.5996 -20.5987 -20.5986 -20.5979 -20.5977
   -20.5971 -20.5967 -20.5966 -20.5966 -20.5950 -20.5938 -20.5936 -20.5930
   -20.5926 -20.5920 -20.5913 -20.5903  -9.9942  -9.6142  -9.5064  -9.1060
    -8.8516  -8.8169  -8.6841  -8.5962  -8.1503  -8.0932  -7.9894  -7.9669
     1.0333   1.0600   1.2630   1.3617   2.3155   2.5807   2.6869   2.6905
     2.9220   3.0145   3.1277   3.6139   3.7251   3.8923   4.4953   4.6042
     4.7456   5.1167   5.1174   5.3351   5.4573   5.8172   5.9080   6.0309
     6.1030   6.1998   6.3423   6.4026   6.4412   6.7117   6.8487   7.3954
     7.5920   7.6353   7.6472   7.9811   9.6367  10.4488  10.4739  11.1366
    11.6989  12.0713  12.6254  12.8489  12.8612  12.9399  13.0750  13.8481
    13.8546  14.7907  15.3231  15.4489  15.7240  16.9040  17.3492

          k = 0.2222 0.2222 0.2297 ( 31782 PWs)   bands (ev):

   -66.4564 -66.4561 -66.4556 -66.4554 -30.8108 -30.8085 -30.7760 -30.7759
   -30.7740 -30.7738 -30.7398 -30.7386 -30.7303 -30.7290 -30.6962 -30.6945
   -20.6201 -20.6201 -20.6200 -20.6200 -20.6030 -20.6030 -20.6009 -20.6009
   -20.6009 -20.6009 -20.5997 -20.5997 -20.5996 -20.5996 -20.5979 -20.5979
   -20.5970 -20.5968 -20.5966 -20.5966 -20.5947 -20.5940 -20.5935 -20.5929
   -20.5928 -20.5922 -20.5911 -20.5906  -9.8751  -9.6605  -9.2854  -9.0129
    -8.8661  -8.7853  -8.7558  -8.5784  -8.3972  -8.3563  -7.9847  -7.9717
     1.0544   1.0595   1.9339   2.0589   2.5252   2.6470   2.6603   2.8249
     2.9358   2.9954   3.0511   3.2988   3.8198   3.8322   4.0046   4.1436
     4.6862   4.7369   4.7754   5.0301   5.1556   5.5992   6.0099   6.0317
     6.2864   6.2974   6.4212   6.6084   6.7408   6.8062   6.9476   7.3190
     7.4638   7.5887   7.6493   7.7642  10.2033  10.4513  10.4853  11.3846
    11.5938  11.9038  12.2470  12.5883  12.8631  12.8727  13.1834  13.6187
    14.2764  14.7216  15.6769  16.1591  16.4169  16.4290  17.5466

          k = 0.2222 0.2222-0.3445 ( 31764 PWs)   bands (ev):

   -66.4562 -66.4562 -66.4555 -66.4555 -30.7933 -30.7933 -30.7912 -30.7912
   -30.7750 -30.7750 -30.7393 -30.7393 -30.7297 -30.7297 -30.6954 -30.6954
   -20.6201 -20.6201 -20.6200 -20.6200 -20.6015 -20.6015 -20.6015 -20.6015
   -20.6008 -20.6008 -20.6008 -20.6007 -20.5996 -20.5996 -20.5979 -20.5979
   -20.5969 -20.5969 -20.5966 -20.5966 -20.5943 -20.5943 -20.5932 -20.5932
   -20.5925 -20.5925 -20.5908 -20.5908  -9.7485  -9.7485  -8.9839  -8.9839
    -8.9070  -8.9070  -8.6575  -8.6575  -8.5283  -8.5282  -7.9782  -7.9782
     1.0582   1.0582   2.5878   2.5878   2.8091   2.8091   2.8419   2.8419
     2.9756   2.9756   3.0059   3.0059   3.2367   3.2367   4.1473   4.1473
     4.2559   4.2560   4.9444   4.9444   5.2972   5.2972   6.0298   6.0298
     6.3645   6.3645   6.4465   6.4465   7.1484   7.1484   7.2193   7.2193
     7.2425   7.2425   7.6736   7.6736  10.4495  10.4495  10.9427  10.9427
    11.7835  11.7835  12.2144  12.2144  12.8657  12.8657  13.3707  13.3707
    14.5684  14.5684  16.0056  16.0056  16.9577  16.9577  17.4553

          k = 0.2222 0.3333 0.0000 ( 31770 PWs)   bands (ev):

   -66.4564 -66.4559 -66.4559 -66.4554 -30.8280 -30.8265 -30.7757 -30.7712
   -30.7591 -30.7576 -30.7426 -30.7419 -30.7266 -30.7241 -30.6986 -30.6954
   -20.6201 -20.6201 -20.6200 -20.6200 -20.6047 -20.6046 -20.6010 -20.6010
   -20.6010 -20.6009 -20.5996 -20.5996 -20.5987 -20.5983 -20.5980 -20.5976
   -20.5968 -20.5965 -20.5963 -20.5963 -20.5950 -20.5939 -20.5934 -20.5930
   -20.5925 -20.5920 -20.5914 -20.5904  -9.9615  -9.6495  -9.5113  -9.1149
    -8.9311  -8.8043  -8.6381  -8.6246  -8.0522  -8.0519  -8.0101  -7.9890
     0.9725   1.0590   1.1754   1.2224   2.2710   2.4519   2.5691   2.6741
     3.2071   3.3620   3.3671   3.6569   3.8472   3.9250   4.4253   4.7908
     4.8198   4.9015   5.0913   5.5635   5.6026   5.6067   5.6860   5.7566
     6.0237   6.0573   6.3292   6.3442   6.4791   6.6750   6.8478   7.3190
     7.3453   7.3839   7.6586   8.0414   9.5762  11.0311  11.0450  11.0867
    11.6441  12.2705  12.5520  12.5678  12.7700  12.9176  13.0761  13.7696
    13.8673  14.8135  15.1408  15.5502  16.3093  17.2279  17.3756

          k = 0.2222 0.3333 0.1148 ( 31769 PWs)   bands (ev):

   -66.4563 -66.4559 -66.4559 -66.4554 -30.8233 -30.8218 -30.7756 -30.7715
   -30.7629 -30.7621 -30.7432 -30.7421 -30.7266 -30.7243 -30.6984 -30.6956
   -20.6201 -20.6201 -20.6200 -20.6200 -20.6042 -20.6042 -20.6010 -20.6010
   -20.6010 -20.6009 -20.5997 -20.5996 -20.5989 -20.5984 -20.5983 -20.5978
   -20.5968 -20.5965 -20.5964 -20.5963 -20.5949 -20.5939 -20.5935 -20.5929
   -20.5926 -20.5920 -20.5914 -20.5905  -9.9101  -9.5755  -9.5243  -9.0843
    -8.9437  -8.7943  -8.6441  -8.6208  -8.1470  -8.1033  -8.0502  -8.0235
     1.1252   1.1752   1.2793   1.3689   2.3439   2.4662   2.5621   2.7334
     3.1988   3.3473   3.3575   3.7131   3.7180   3.9017   4.4858   4.5160
     4.7861   4.8179   4.8343   5.1863   5.5303   5.5964   5.6881   5.7972
     6.0675   6.3170   6.3666   6.3924   6.4756   6.7233   6.7966   7.3229
     7.3383   7.3666   7.6166   7.9577   9.7846  11.0317  11.0540  11.1628
    11.7032  12.1032  12.5465  12.5584  12.6398  12.9163  12.9809  13.7675
    14.0274  15.1147  15.1901  15.7101  16.3899  17.1017  17.4089

          k = 0.2222 0.3333 0.2297 ( 31762 PWs)   bands (ev):

   -66.4562 -66.4560 -66.4558 -66.4555 -30.8105 -30.8091 -30.7773 -30.7747
   -30.7724 -30.7722 -30.7437 -30.7427 -30.7263 -30.7249 -30.6978 -30.6962
   -20.6201 -20.6201 -20.6200 -20.6200 -20.6031 -20.6030 -20.6011 -20.6010
   -20.6010 -20.6009 -20.6000 -20.5998 -20.5995 -20.5993 -20.5983 -20.5981
   -20.5967 -20.5965 -20.5964 -20.5963 -20.5947 -20.5940 -20.5934 -20.5929
   -20.5928 -20.5922 -20.5912 -20.5907  -9.7844  -9.5679  -9.3759  -8.9947
    -8.9798  -8.7550  -8.6723  -8.6072  -8.4010  -8.3661  -8.0453  -8.0313
     1.1667   1.1744   1.9388   2.0603   2.5122   2.5392   2.5620   2.8992
     3.1380   3.2475   3.3465   3.3823   3.8865   3.9131   4.0008   4.1063
     4.5589   4.6411   4.7741   4.8456   4.8616   5.4115   5.6934   5.7335
     6.3165   6.4385   6.4611   6.6434   6.7081   6.8158   6.9364   7.2734
     7.3083   7.3671   7.4813   7.7173  10.3149  11.0314  11.0566  11.4103
    11.6488  11.8910  12.2504  12.5439  12.5709  12.6116  13.0746  13.5284
    14.4987  15.0253  16.0338  16.1237  16.7447  16.7909  17.3172

          k = 0.2222 0.3333-0.3445 ( 31760 PWs)   bands (ev):

   -66.4561 -66.4561 -66.4557 -66.4556 -30.7931 -30.7931 -30.7918 -30.7918
   -30.7731 -30.7731 -30.7434 -30.7433 -30.7257 -30.7257 -30.6970 -30.6970
   -20.6201 -20.6201 -20.6200 -20.6200 -20.6016 -20.6016 -20.6015 -20.6015
   -20.6009 -20.6009 -20.6008 -20.6008 -20.5995 -20.5995 -20.5982 -20.5982
   -20.5966 -20.5966 -20.5964 -20.5964 -20.5943 -20.5943 -20.5932 -20.5932
   -20.5925 -20.5925 -20.5909 -20.5909  -9.6542  -9.6542  -9.1374  -9.1373
    -8.7962  -8.7960  -8.6416  -8.6415  -8.5616  -8.5615  -8.0385  -8.0385
     1.1723   1.1725   2.4855   2.4855   2.8318   2.8329   2.8619   2.8653
     3.0680   3.0722   3.2180   3.2251   3.3486   3.3495   4.1324   4.1336
     4.2922   4.2923   4.7337   4.7556   5.0595   5.0821   5.7032   5.7051
     6.4106   6.4161   6.5484   6.5536   7.1075   7.1092   7.1381   7.1511
     7.2358   7.2416   7.4443   7.4484  10.9365  10.9468  11.0918  11.1053
    11.8034  11.8068  12.2074  12.2083  12.5582  12.5680  13.2660  13.2738
    14.8361  14.8397  16.4420  16.4445  16.8813  16.8892  17.4249

          k = 0.2222 0.4444 0.0000 ( 31791 PWs)   bands (ev):

   -66.4562 -66.4561 -66.4557 -66.4556 -30.8275 -30.8270 -30.7706 -30.7648
   -30.7638 -30.7554 -30.7546 -30.7513 -30.7145 -30.7116 -30.7048 -30.7016
   -20.6201 -20.6201 -20.6200 -20.6200 -20.6047 -20.6046 -20.6011 -20.6011
   -20.6011 -20.6010 -20.5994 -20.5992 -20.5991 -20.5987 -20.5978 -20.5977
   -20.5966 -20.5965 -20.5962 -20.5961 -20.5948 -20.5944 -20.5934 -20.5930
   -20.5923 -20.5918 -20.5912 -20.5907  -9.8556  -9.7438  -9.3670  -9.1699
    -9.0595  -8.9595  -8.4064  -8.4054  -8.2013  -8.1931  -8.0127  -8.0008
     1.0095   1.0369   1.4994   1.5233   1.9806   1.9867   2.3700   2.5246
     3.5783   3.7884   3.8233   3.8320   3.9235   4.1542   4.3325   4.4041
     4.5137   4.9471   5.1439   5.1604   5.4279   5.4397   5.5920   5.6263
     6.0909   6.1919   6.2802   6.5636   6.6781   6.6994   6.8335   7.0065
     7.0352   7.0724   7.8433   7.9689   9.9813  10.5057  11.6053  11.6299
    12.1103  12.1224  12.2205  12.3721  12.5377  12.6282  13.3809  13.6629
    14.1051  14.4870  15.7590  16.0758  16.5547  16.7109  16.9950

          k = 0.2222 0.4444 0.1148 ( 31777 PWs)   bands (ev):

   -66.4562 -66.4560 -66.4557 -66.4556 -30.8229 -30.8224 -30.7710 -30.7659
   -30.7651 -30.7594 -30.7548 -30.7536 -30.7144 -30.7118 -30.7046 -30.7018
   -20.6201 -20.6201 -20.6200 -20.6200 -20.6042 -20.6042 -20.6011 -20.6011
   -20.6011 -20.6010 -20.5995 -20.5992 -20.5992 -20.5987 -20.5982 -20.5980
   -20.5966 -20.5965 -20.5962 -20.5961 -20.5947 -20.5943 -20.5935 -20.5931
   -20.5923 -20.5918 -20.5913 -20.5908  -9.7984  -9.6782  -9.3794  -9.1821
    -9.0334  -8.9413  -8.4155  -8.4030  -8.2138  -8.1994  -8.1132  -8.1001
     1.2514   1.2843   1.4987   1.5496   1.9846   1.9880   2.4441   2.5972
     3.5344   3.6858   3.7876   3.8698   3.8986   4.2117   4.3347   4.3418
     4.5239   4.7222   4.8641   5.0869   5.1651   5.2376   5.6371   5.7384
     6.0930   6.1741   6.4970   6.6508   6.6921   6.6939   6.8533   6.9994
     7.0333   7.0720   7.7825   7.8937  10.1398  10.6210  11.6044  11.6289
    12.1149  12.1196  12.2160  12.2548  12.3877  12.6669  13.2615  13.5551
    14.4006  14.8273  15.7271  16.2039  16.5147  16.7960  17.0635

          k = 0.2222 0.4444 0.2297 ( 31767 PWs)   bands (ev):

   -66.4561 -66.4559 -66.4558 -66.4557 -30.8102 -30.8097 -30.7768 -30.7758
   -30.7658 -30.7657 -30.7560 -30.7554 -30.7139 -30.7124 -30.7040 -30.7024
   -20.6201 -20.6201 -20.6200 -20.6200 -20.6031 -20.6031 -20.6011 -20.6011
   -20.6011 -20.6011 -20.6000 -20.5999 -20.5991 -20.5988 -20.5987 -20.5985
   -20.5965 -20.5964 -20.5963 -20.5962 -20.5944 -20.5941 -20.5937 -20.5934
   -20.5921 -20.5916 -20.5915 -20.5910  -9.6571  -9.5099  -9.4220  -9.2264
    -8.9385  -8.8712  -8.4914  -8.4197  -8.3955  -8.3196  -8.1939  -8.1726
     1.4757   1.4965   1.8586   1.9777   2.0443   2.1032   2.6677   2.8147
     3.3160   3.3323   3.7787   3.7917   4.0804   4.0915   4.1392   4.2852
     4.3140   4.4496   4.5615   4.6800   5.0675   5.0749   5.1809   5.3875
     6.4562   6.5880   6.6700   6.7270   6.7534   6.8049   6.9653   6.9777
     7.0231   7.1072   7.5948   7.6693  10.5732  10.9532  11.5881  11.6265
    11.7845  11.9616  12.1270  12.1515  12.3891  12.7905  12.9691  13.2946
    14.9719  15.5411  15.6189  16.3787  16.5667  17.0468  17.2602

          k = 0.2222 0.4444-0.3445 ( 31772 PWs)   bands (ev):

   -66.4560 -66.4560 -66.4558 -66.4558 -30.7929 -30.7929 -30.7925 -30.7925
   -30.7664 -30.7664 -30.7560 -30.7560 -30.7132 -30.7132 -30.7032 -30.7032
   -20.6201 -20.6201 -20.6200 -20.6200 -20.6016 -20.6016 -20.6015 -20.6015
   -20.6011 -20.6011 -20.6010 -20.6010 -20.5991 -20.5991 -20.5986 -20.5986
   -20.5964 -20.5964 -20.5963 -20.5963 -20.5941 -20.5941 -20.5937 -20.5937
   -20.5918 -20.5918 -20.5913 -20.5913  -9.5122  -9.5121  -9.3311  -9.3310
    -8.7394  -8.7392  -8.6991  -8.6990  -8.3804  -8.3803  -8.1857  -8.1856
     1.4916   1.4918   1.9632   1.9634   2.8529   2.8533   2.8613   2.8630
     3.1594   3.1642   3.2513   3.2526   3.7775   3.7897   4.2394   4.2498
     4.4472   4.4523   4.6734   4.6773   4.7460   4.7611   5.2208   5.2226
     6.6165   6.6166   6.7524   6.7535   6.9030   6.9103   6.9621   6.9676
     7.2825   7.2870   7.3312   7.3365  11.1555  11.1623  11.4339  11.4410
    11.6263  11.6423  12.1278  12.1441  12.6366  12.6443  13.0051  13.0139
    15.3885  15.3952  16.0906  16.1013  16.9420  16.9615  17.3150

          k = 0.3333 0.3333 0.0000 ( 31760 PWs)   bands (ev):

   -66.4563 -66.4560 -66.4558 -66.4555 -30.8274 -30.8266 -30.7786 -30.7745
   -30.7639 -30.7570 -30.7551 -30.7511 -30.7140 -30.7111 -30.6956 -30.6924
   -20.6201 -20.6201 -20.6200 -20.6200 -20.6046 -20.6046 -20.6011 -20.6011
   -20.6008 -20.6007 -20.6001 -20.6001 -20.5991 -20.5988 -20.5979 -20.5976
   -20.5965 -20.5963 -20.5960 -20.5959 -20.5951 -20.5944 -20.5936 -20.5930
   -20.5923 -20.5914 -20.5911 -20.5902  -9.9376  -9.7204  -9.5124  -9.1529
    -9.1259  -8.9553  -8.4128  -8.4112  -8.0278  -8.0092  -7.9950  -7.9821
     0.9589   1.0524   1.0605   1.1376   1.9786   1.9840   2.2261   2.5268
     3.5679   3.6651   3.7932   3.8400   3.9452   4.4930   4.5657   4.7704
     4.8219   4.9526   5.1653   5.4690   5.4867   5.5230   5.7803   5.8060
     6.1007   6.1158   6.2306   6.2321   6.4037   6.6119   6.9371   6.9724
     6.9809   7.0597   7.8398   8.0615   9.4429  10.5078  11.4912  11.5185
    12.1799  12.2386  12.4531  12.4629  12.5414  13.0230  13.3809  13.6646
    13.9476  14.5058  15.0203  15.8864  16.5836  16.7392  17.3691

          k = 0.3333 0.3333 0.1148 ( 31729 PWs)   bands (ev):

   -66.4563 -66.4559 -66.4558 -66.4555 -30.8227 -30.8220 -30.7783 -30.7747
   -30.7659 -30.7617 -30.7553 -30.7537 -30.7139 -30.7113 -30.6954 -30.6926
   -20.6201 -20.6201 -20.6200 -20.6200 -20.6042 -20.6041 -20.6011 -20.6010
   -20.6008 -20.6007 -20.6001 -20.6001 -20.5992 -20.5988 -20.5984 -20.5980
   -20.5965 -20.5963 -20.5961 -20.5960 -20.5950 -20.5943 -20.5937 -20.5931
   -20.5922 -20.5914 -20.5911 -20.5903  -9.8873  -9.6542  -9.5243  -9.1643
    -9.0931  -8.9375  -8.4221  -8.4088  -8.1372  -8.1055  -8.0074  -7.9840
     1.0355   1.0604   1.2796   1.3523   1.9818   1.9861   2.2995   2.6008
     3.5586   3.6601   3.6846   3.7530   3.9078   4.5026   4.6215   4.7099
     4.7703   4.7798   4.8657   5.1007   5.6426   5.6433   5.8019   5.8085
     5.8580   6.2225   6.2613   6.3696   6.4283   6.6726   6.8556   6.9737
     6.9749   7.0582   7.7785   7.9740   9.6756  10.6250  11.4915  11.5173
    12.0710  12.2247  12.3731  12.4545  12.4756  13.0559  13.2613  13.8487
    13.9098  14.8418  14.9923  16.0491  16.5429  16.8310  17.4853

          k = 0.3333 0.3333 0.2297 ( 31783 PWs)   bands (ev):

   -66.4562 -66.4559 -66.4559 -66.4556 -30.8099 -30.8093 -30.7775 -30.7755
   -30.7755 -30.7746 -30.7564 -30.7559 -30.7134 -30.7119 -30.6948 -30.6932
   -20.6201 -20.6201 -20.6200 -20.6200 -20.6031 -20.6030 -20.6011 -20.6010
   -20.6007 -20.6007 -20.6001 -20.6001 -20.5998 -20.5996 -20.5988 -20.5986
   -20.5964 -20.5962 -20.5961 -20.5960 -20.5948 -20.5942 -20.5939 -20.5934
   -20.5921 -20.5916 -20.5910 -20.5905  -9.7657  -9.5639  -9.4850  -9.2063
    -8.9784  -8.8677  -8.4996  -8.4039  -8.4012  -8.3225  -8.0025  -7.9890
     1.0552   1.0600   1.8547   1.9749   2.0677   2.1020   2.5147   2.8232
     3.2793   3.3736   3.6161   3.6465   4.0858   4.1061   4.1430   4.5416
     4.6417   4.7153   4.7370   4.8754   5.0740   5.4767   5.8168   5.8444
     6.0692   6.2032   6.3449   6.6166   6.6392   6.8129   6.8705   6.9492
     7.0300   7.0795   7.5882   7.7183  10.2470  10.9601  11.4759  11.5144
    11.6266  11.9731  12.3711  12.4577  12.4664  12.9599  13.1691  13.6125
    14.3658  14.8978  15.5528  16.4073  16.4536  17.2054  17.2193

          k = 0.3333 0.3333-0.3445 ( 31794 PWs)   bands (ev):

   -66.4560 -66.4560 -66.4557 -66.4557 -30.7923 -30.7923 -30.7920 -30.7920
   -30.7765 -30.7765 -30.7565 -30.7565 -30.7127 -30.7127 -30.6940 -30.6940
   -20.6201 -20.6201 -20.6200 -20.6200 -20.6016 -20.6016 -20.6013 -20.6013
   -20.6008 -20.6008 -20.6007 -20.6007 -20.6001 -20.6001 -20.5988 -20.5988
   -20.5963 -20.5963 -20.5961 -20.5961 -20.5944 -20.5944 -20.5937 -20.5937
   -20.5918 -20.5918 -20.5908 -20.5908  -9.6431  -9.6431  -9.3074  -9.3074
    -8.7573  -8.7573  -8.6925  -8.6924  -8.3856  -8.3856  -7.9957  -7.9957
     1.0589   1.0589   1.9604   1.9604   2.8550   2.8550   2.8632   2.8632
     3.0676   3.0676   3.2689   3.2689   3.6284   3.6284   4.3918   4.3919
     4.6626   4.6626   4.7366   4.7366   5.1510   5.1510   5.8292   5.8292
     6.1613   6.1613   6.4746   6.4746   6.8751   6.8751   6.9720   6.9720
     7.2650   7.2650   7.3458   7.3458  10.9423  10.9423  11.4508  11.4508
    11.5125  11.5125  12.4612  12.4612  12.6293  12.6293  13.3585  13.3585
    14.7053  14.7053  16.1174  16.1174  16.8577  16.8577  17.6624

          k = 0.3333 0.4444 0.0000 ( 31740 PWs)   bands (ev):

   -66.4562 -66.4561 -66.4557 -66.4556 -30.8270 -30.8268 -30.7770 -30.7725
   -30.7715 -30.7658 -30.7560 -30.7545 -30.7039 -30.7007 -30.6974 -30.6942
   -20.6201 -20.6201 -20.6200 -20.6200 -20.6046 -20.6046 -20.6010 -20.6010
   -20.6009 -20.6008 -20.5999 -20.5999 -20.5995 -20.5994 -20.5978 -20.5977
   -20.5964 -20.5963 -20.5958 -20.5958 -20.5951 -20.5948 -20.5936 -20.5934
   -20.5917 -20.5914 -20.5907 -20.5903  -9.8844  -9.8061  -9.4533  -9.3314
    -9.1066  -9.0532  -8.2124  -8.2031  -8.0674  -8.0548  -8.0071  -8.0024
     0.9983   1.0351   1.1728   1.2263   1.4957   1.5218   2.2582   2.3646
     3.8946   3.9635   4.0516   4.0701   4.1361   4.4443   4.4891   4.4956
     5.1176   5.2152   5.2341   5.4435   5.4509   5.4929   5.5877   5.6620
     6.2066   6.2689   6.3125   6.3342   6.3860   6.5594   6.6042   6.7064
     6.7473   6.9118   7.9645   8.0366   9.6057   9.9957  11.9118  11.9344
    12.2384  12.2570  12.2735  12.3705  12.6210  12.9160  13.6639  13.8058
    13.8696  14.1317  15.2673  15.8309  16.3146  16.8179  17.1600

          k = 0.3333 0.4444 0.1148 ( 31776 PWs)   bands (ev):

   -66.4562 -66.4560 -66.4557 -66.4556 -30.8223 -30.8221 -30.7769 -30.7728
   -30.7717 -30.7660 -30.7607 -30.7587 -30.7037 -30.7009 -30.6972 -30.6944
   -20.6201 -20.6201 -20.6200 -20.6200 -20.6042 -20.6041 -20.6010 -20.6010
   -20.6009 -20.6008 -20.6000 -20.5999 -20.5996 -20.5994 -20.5983 -20.5981
   -20.5963 -20.5962 -20.5959 -20.5958 -20.5950 -20.5947 -20.5937 -20.5935
   -20.5917 -20.5913 -20.5908 -20.5904  -9.8320  -9.7482  -9.4646  -9.3426
    -9.0751  -9.0272  -8.2222  -8.2104  -8.1381  -8.1020  -8.0656  -8.0372
     1.1280   1.1727   1.2623   1.3683   1.4951   1.5491   2.3326   2.4402
     3.7406   3.7670   4.0215   4.0495   4.2011   4.4490   4.4819   4.5296
     4.9295   4.9556   5.1233   5.1937   5.4815   5.5909   5.7220   5.7723
     5.9694   6.2219   6.3095   6.4077   6.4911   6.5986   6.6564   6.7215
     6.7522   6.8396   7.8884   7.9517   9.8133  10.1554  11.9102  11.9331
    12.1063  12.1983  12.2459  12.2632  12.6579  12.9500  13.5543  13.7675
    14.0645  14.4236  15.2370  15.7972  16.4717  16.9545  17.2406

          k = 0.3333 0.4444 0.2297 ( 31779 PWs)   bands (ev):

   -66.4561 -66.4560 -66.4558 -66.4557 -30.8095 -30.8094 -30.7775 -30.7764
   -30.7735 -30.7723 -30.7666 -30.7663 -30.7031 -30.7015 -30.6966 -30.6950
   -20.6201 -20.6201 -20.6200 -20.6200 -20.6030 -20.6029 -20.6010 -20.6010
   -20.6008 -20.6008 -20.6001 -20.5999 -20.5999 -20.5994 -20.5994 -20.5990
   -20.5962 -20.5961 -20.5960 -20.5959 -20.5947 -20.5945 -20.5940 -20.5938
   -20.5915 -20.5912 -20.5910 -20.5906  -9.7058  -9.6062  -9.5027  -9.3812
    -8.9630  -8.9302  -8.4305  -8.4119  -8.2048  -8.1825  -8.0605  -8.0460
     1.1647   1.1720   1.4722   1.4929   2.0400   2.0560   2.5543   2.6688
     3.3107   3.3574   4.0129   4.0404   4.1310   4.1583   4.3749   4.4383
     4.5014   4.7134   5.0217   5.1435   5.3304   5.3904   5.6025   5.6943
     6.1384   6.2849   6.3851   6.4794   6.5755   6.6933   6.7493   6.7729
     6.8544   6.9085   7.6588   7.7003  10.3423  10.5902  11.6399  11.7673
    11.9239  11.9313  12.2465  12.2557  12.7800  13.0606  13.2893  13.5230
    14.5572  15.0027  15.1358  15.6840  16.8708  17.3084  17.5042

          k = 0.3333 0.4444-0.3445 ( 31796 PWs)   bands (ev):

   -66.4559 -66.4559 -66.4558 -66.4558 -30.7921 -30.7921 -30.7921 -30.7921
   -30.7744 -30.7744 -30.7673 -30.7673 -30.7023 -30.7023 -30.6958 -30.6958
   -20.6201 -20.6201 -20.6200 -20.6200 -20.6015 -20.6015 -20.6013 -20.6013
   -20.6009 -20.6008 -20.6008 -20.6008 -20.5999 -20.5998 -20.5993 -20.5993
   -20.5961 -20.5961 -20.5960 -20.5960 -20.5943 -20.5943 -20.5941 -20.5941
   -20.5913 -20.5912 -20.5909 -20.5909  -9.5808  -9.5808  -9.4651  -9.4651
    -8.7372  -8.7371  -8.7186  -8.7186  -8.1963  -8.1963  -8.0535  -8.0535
     1.1702   1.1703   1.4881   1.4882   2.8581   2.8587   2.8629   2.8637
     3.0959   3.0967   3.1737   3.1743   4.0244   4.0301   4.4350   4.4433
     4.7295   4.7339   5.0035   5.0135   5.1950   5.1977   5.6251   5.6279
     6.2408   6.2417   6.5207   6.5229   6.5810   6.5832   6.7795   6.7806
     7.2873   7.2887   7.3108   7.3125  11.0079  11.0089  11.1789  11.1800
    11.9242  11.9283  12.2485  12.2533  12.9974  13.0004  13.2575  13.2608
    14.9269  14.9294  15.4438  15.4466  17.2235  17.2302  17.5478

          k = 0.4444 0.4444 0.0000 ( 31730 PWs)   bands (ev):

   -66.4562 -66.4561 -66.4557 -66.4556 -30.8266 -30.8266 -30.7796 -30.7776
   -30.7754 -30.7731 -30.7559 -30.7555 -30.6970 -30.6947 -30.6937 -30.6915
   -20.6201 -20.6201 -20.6200 -20.6200 -20.6045 -20.6045 -20.6008 -20.6008
   -20.6006 -20.6005 -20.6004 -20.6004 -20.6000 -20.6000 -20.5978 -20.5977
   -20.5962 -20.5962 -20.5957 -20.5957 -20.5952 -20.5951 -20.5937 -20.5936
   -20.5913 -20.5912 -20.5903 -20.5902  -9.8888  -9.8607  -9.4787  -9.4374
    -9.1198  -9.1033  -8.0735  -8.0580  -8.0208  -8.0164  -8.0036  -7.9931
     0.9761   1.0118   1.0581   1.1457   1.1712   1.2276   2.2168   2.2541
     4.0216   4.0372   4.2781   4.3420   4.4258   4.4963   4.5366   4.5719
     5.2690   5.2853   5.3252   5.3754   5.5664   5.6455   5.7376   5.7411
     6.1197   6.1952   6.2570   6.2580   6.3008   6.3365   6.3997   6.4056
     6.8903   6.9707   8.0348   8.0583   9.4641   9.6148  12.1453  12.1652
    12.2379  12.2581  12.2650  12.2816  12.9117  13.0178  13.6839  13.8150
    13.8702  13.9485  15.0893  15.2979  16.5670  16.7634  17.3386

          k = 0.4444 0.4444 0.1148 ( 31748 PWs)   bands (ev):

   -66.4561 -66.4561 -66.4557 -66.4556 -30.8219 -30.8219 -30.7793 -30.7774
   -30.7757 -30.7733 -30.7607 -30.7602 -30.6968 -30.6945 -30.6940 -30.6917
   -20.6201 -20.6201 -20.6200 -20.6200 -20.6041 -20.6041 -20.6008 -20.6008
   -20.6006 -20.6005 -20.6004 -20.6004 -20.6000 -20.6000 -20.5982 -20.5982
   -20.5962 -20.5962 -20.5957 -20.5957 -20.5951 -20.5950 -20.5938 -20.5937
   -20.5913 -20.5912 -20.5904 -20.5902  -9.8382  -9.8082  -9.4895  -9.4482
    -9.0864  -9.0718  -8.1371  -8.1298  -8.0716  -8.0424  -8.0189  -7.9950
     1.0361   1.0580   1.1291   1.1710   1.3533   1.3723   2.2912   2.3292
     3.7729   3.7914   4.2894   4.3417   4.4885   4.4922   4.5311   4.6348
     4.9640   4.9783   5.3867   5.4967   5.5704   5.7176   5.7445   5.7614
     6.0279   6.1101   6.1644   6.2502   6.2862   6.4216   6.4812   6.5389
     6.8191   6.8569   7.9495   7.9701   9.6957   9.8224  12.0680  12.1033
    12.1491  12.1641  12.2594  12.2755  12.9452  13.0508  13.7672  13.8479
    13.9303  14.0734  15.0600  15.2673  16.7547  16.9562  17.3960

          k = 0.4444 0.4444 0.2297 ( 31803 PWs)   bands (ev):

   -66.4560 -66.4560 -66.4558 -66.4557 -30.8091 -30.8091 -30.7785 -30.7777
   -30.7765 -30.7740 -30.7737 -30.7721 -30.6962 -30.6946 -30.6939 -30.6923
   -20.6201 -20.6201 -20.6200 -20.6200 -20.6029 -20.6029 -20.6008 -20.6008
   -20.6005 -20.6005 -20.6004 -20.6004 -20.6001 -20.6000 -20.5995 -20.5994
   -20.5961 -20.5960 -20.5958 -20.5958 -20.5948 -20.5947 -20.5940 -20.5940
   -20.5911 -20.5910 -20.5906 -20.5905  -9.7176  -9.6826  -9.5258  -9.4846
    -8.9681  -8.9583  -8.4164  -8.4117  -8.0665  -8.0518  -8.0139  -8.0001
     1.0534   1.0578   1.1634   1.1704   2.0534   2.0634   2.5100   2.5530
     3.3058   3.3260   4.1384   4.1484   4.3046   4.3354   4.4929   4.5203
     4.6842   4.8201   5.2814   5.4045   5.5825   5.6837   5.7549   5.7987
     5.9801   6.0910   6.1203   6.2282   6.3674   6.4899   6.6578   6.7014
     6.8366   6.8546   7.6961   7.7097  10.2646  10.3507  11.6072  11.6483
    12.1520  12.1610  12.2633  12.2721  13.0553  13.1577  13.5203  13.6077
    14.4008  14.5721  14.9614  15.1647  17.2313  17.5642  17.6657

          k = 0.4444 0.4444-0.3445 ( 31804 PWs)   bands (ev):

   -66.4559 -66.4559 -66.4559 -66.4559 -30.7917 -30.7916 -30.7914 -30.7914
   -30.7775 -30.7775 -30.7749 -30.7749 -30.6954 -30.6954 -30.6931 -30.6931
   -20.6201 -20.6200 -20.6200 -20.6200 -20.6013 -20.6013 -20.6012 -20.6012
   -20.6007 -20.6007 -20.6005 -20.6005 -20.6004 -20.6004 -20.6000 -20.6000
   -20.5959 -20.5959 -20.5959 -20.5959 -20.5944 -20.5944 -20.5944 -20.5944
   -20.5909 -20.5908 -20.5907 -20.5907  -9.5995  -9.5995  -9.5600  -9.5599
    -8.7336  -8.7335  -8.7281  -8.7280  -8.0594  -8.0594  -8.0070  -8.0070
     1.0568   1.0568   1.1688   1.1688   2.8587   2.8587   2.8615   2.8615
     3.0714   3.0714   3.0987   3.0987   4.3210   4.3210   4.5057   4.5057
     4.9768   4.9768   5.1043   5.1043   5.6088   5.6088   5.7724   5.7724
     6.0523   6.0523   6.1859   6.1859   6.4936   6.4936   6.5886   6.5886
     7.2971   7.2971   7.3057   7.3057  10.9589  10.9589  11.0159  11.0159
    12.1566  12.1566  12.2678  12.2678  13.2539  13.2539  13.3500  13.3500
    14.7593  14.7593  14.9527  14.9527  17.5379  17.5379  17.6964

     the Fermi energy is     9.0666 ev

!    total energy              =   -3130.39689116 Ry
     Harris-Foulkes estimate   =   -3130.39689116 Ry
     estimated scf accuracy    <          8.6E-10 Ry

     The total energy is the sum of the following terms:

     one-electron contribution =   -2400.69695391 Ry
     hartree contribution      =    1317.03815489 Ry
     xc contribution           =    -482.98298172 Ry
     ewald contribution        =   -1563.75507305 Ry
     smearing contrib. (-TS)   =      -0.00003738 Ry

     convergence has been achieved in  12 iterations

     Writing output data file Landau_25.save/
 
     init_run     :      7.73s CPU      8.31s WALL (       1 calls)
     electrons    :    274.72s CPU    280.78s WALL (       1 calls)

     Called by init_run:
     wfcinit      :      7.04s CPU      7.53s WALL (       1 calls)
     potinit      :      0.23s CPU      0.26s WALL (       1 calls)
     hinit0       :      0.36s CPU      0.40s WALL (       1 calls)

     Called by electrons:
     c_bands      :    230.54s CPU    236.03s WALL (      12 calls)
     sum_band     :     41.25s CPU     41.52s WALL (      12 calls)
     v_of_rho     :      0.79s CPU      0.82s WALL (      13 calls)
     mix_rho      :      1.80s CPU      1.98s WALL (      12 calls)

     Called by c_bands:
     init_us_2    :      2.95s CPU      3.05s WALL (      50 calls)
     cegterg      :    202.49s CPU    207.81s WALL (      24 calls)

     Called by sum_band:

     Called by *egterg:
     h_psi        :    175.93s CPU    178.63s WALL (      91 calls)
     g_psi        :      0.47s CPU      0.48s WALL (      65 calls)
     cdiaghg      :      1.73s CPU      1.79s WALL (      89 calls)

     Called by h_psi:
     h_psi:pot    :    175.21s CPU    176.28s WALL (      91 calls)
     h_psi:calbec :     11.30s CPU     11.64s WALL (      91 calls)
     vloc_psi     :    151.71s CPU    152.37s WALL (      91 calls)
     add_vuspsi   :     12.20s CPU     12.27s WALL (      91 calls)

     General routines
     calbec       :     11.30s CPU     11.64s WALL (      91 calls)
     fft          :      0.33s CPU      0.34s WALL (      39 calls)
     ffts         :      0.10s CPU      0.10s WALL (      12 calls)
     fftw         :    145.86s CPU    146.38s WALL (   15728 calls)
 
     Parallel routines
 
     PWSCF        :   4m43.50s CPU   4m50.55s WALL

 
   This run was terminated on:  17:46:55  29Nov2019            

=------------------------------------------------------------------------------=
   JOB DONE.
=------------------------------------------------------------------------------=
