
     Program PWSCF v.6.2 (svn rev. 14038) starts on 25Mar2020 at 19:49:58 

     This program is part of the open-source Quantum ESPRESSO suite
     for quantum simulation of materials; please cite
         "P. Giannozzi et al., J. Phys.:Condens. Matter 21 395502 (2009);
         "P. Giannozzi et al., J. Phys.:Condens. Matter 29 465901 (2017);
          URL http://www.quantum-espresso.org", 
     in publications or presentations arising from this work. More details at
     http://www.quantum-espresso.org/quote

     Parallel version (MPI), running on    40 processors

     MPI processes distributed on     5 nodes
     K-points division:     npool     =      40
     Reading input from scf.in

     Current dimensions of program PWSCF are:
     Max number of different atomic species (ntypx) = 10
     Max number of k-points (npk) =  40000
     Max angular momentum in pseudopotentials (lmaxx) =  3

     Subspace diagonalization in iterative solution of the eigenvalue problem:
     a serial algorithm will be used

 
     G-vector sticks info
     --------------------
     sticks:   dense  smooth     PW     G-vecs:    dense   smooth      PW
     Sum        7647    7647   2057               500379   500379   69391
 


     bravais-lattice index     =            0
     lattice parameter (alat)  =      14.0129  a.u.
     unit-cell volume          =    2817.9618 (a.u.)^3
     number of atoms/cell      =           32
     number of atomic types    =            2
     number of electrons       =       368.60
     number of Kohn-Sham states=          221
     kinetic-energy cutoff     =     120.0000  Ry
     charge density cutoff     =     480.0000  Ry
     convergence threshold     =      1.0E-08
     mixing beta               =       0.7000
     number of iterations used =            8  plain     mixing
     Exchange-correlation      = SLA PW NOGX NOGC ( 1  4  0  0 0 0)

     celldm(1)=  14.012873  celldm(2)=   0.000000  celldm(3)=   0.000000
     celldm(4)=   0.000000  celldm(5)=   0.000000  celldm(6)=   0.000000

     crystal axes: (cart. coord. in units of alat)
               a(1) = (   1.000000   0.000000   0.000000 )  
               a(2) = (   0.000000   1.021556   0.000000 )  
               a(3) = (   0.000000   0.000000   1.002517 )  

     reciprocal axes: (cart. coord. in units 2 pi/alat)
               b(1) = (  1.000000  0.000000  0.000000 )  
               b(2) = (  0.000000  0.978899  0.000000 )  
               b(3) = (  0.000000  0.000000  0.997490 )  


     PseudoPot. # 1 for W  read from file:
     /cluster/scratch/mnoe/QE/pps/W_ONCV_LDA-4.0.upf
     MD5 check sum: ba0307d5d4cd419d6f1d13dc49d7c13a
     Pseudo is Norm-conserving + core correction, Zval = 28.0
     Generated using ONCVPSP code by D. R. Hamann
     Using radial grid of 1380 points,  8 beta functions with: 
                l(1) =   0
                l(2) =   0
                l(3) =   1
                l(4) =   1
                l(5) =   2
                l(6) =   2
                l(7) =   3
                l(8) =   3

     PseudoPot. # 2 for O  read from file:
     /cluster/scratch/mnoe/QE/pps/O_ONCV_LDA-3.0.upf
     MD5 check sum: a1bd6164e7280c17a38c229939bfbd54
     Pseudo is Norm-conserving + core correction, Zval =  6.0
     Generated using ONCVPSP code by D. R. Hamann
     Using radial grid of  926 points,  5 beta functions with: 
                l(1) =   0
                l(2) =   0
                l(3) =   1
                l(4) =   1
                l(5) =   2

     atomic species   valence    mass     pseudopotential
        W             28.00   183.84000     W ( 1.00)
        O              6.00    15.99940     O ( 1.00)

      4 Sym. Ops. (no inversion) found ( 3 have fractional translation)



   Cartesian axes

     site n.     atom                  positions (alat units)
         1           W   tau(   1) = (   0.2284905   0.2819254   0.0050305  )
         2           W   tau(   2) = (   0.7562405   0.7396302  -0.0212404  )
         3           W   tau(   3) = (   0.2715095   0.2288524   0.5062888  )
         4           W   tau(   4) = (   0.7437595   0.7927032   0.4800179  )
         5           W   tau(   5) = (   0.7715094   0.2819254   0.4962277  )
         6           W   tau(   6) = (   0.2437595   0.7396302   0.5224987  )
         7           W   tau(   7) = (   0.7284905   0.2288524  -0.0050305  )
         8           W   tau(   8) = (   0.2562405   0.7927032   0.0212404  )
         9           O   tau(   9) = (   0.2220296   0.0068620  -0.0108697  )
        10           O   tau(  10) = (   0.7732245  -0.0068620  -0.0190352  )
        11           O   tau(  11) = (   0.2779704   0.5039158   0.4903885  )
        12           O   tau(  12) = (   0.7267754   0.5176397   0.4822230  )
        13           O   tau(  13) = (   0.7779704   0.0068620   0.5121281  )
        14           O   tau(  14) = (   0.2267754  -0.0068620   0.5202935  )
        15           O   tau(  15) = (   0.7220296   0.5039158   0.0108697  )
        16           O   tau(  16) = (   0.2732246   0.5176397   0.0190352  )
        17           O   tau(  17) = (   0.5071468   0.2251547   0.4650937  )
        18           O   tau(  18) = (   0.4995568   0.7895795   0.5374229  )
        19           O   tau(  19) = (  -0.0071468   0.2856230   0.9663521  )
        20           O   tau(  20) = (   0.0004432   0.7427539   0.0361645  )
        21           O   tau(  21) = (   0.4928532   0.2251547   0.0361645  )
        22           O   tau(  22) = (   0.5004432   0.7895795   0.9663521  )
        23           O   tau(  23) = (   0.0071468   0.2856230   0.5374229  )
        24           O   tau(  24) = (  -0.0004432   0.7427539   0.4650937  )
        25           O   tau(  25) = (   0.7139262   0.2651647   0.7483373  )
        26           O   tau(  26) = (   0.2860738   0.7876495   0.2586129  )
        27           O   tau(  27) = (   0.7860739   0.2456131   0.2470790  )
        28           O   tau(  28) = (   0.2139262   0.7446839   0.7598712  )
        29           O   tau(  29) = (   0.2860738   0.2651647   0.7554376  )
        30           O   tau(  30) = (   0.7139262   0.7876495   0.2426454  )
        31           O   tau(  31) = (   0.2139262   0.2456131   0.2541793  )
        32           O   tau(  32) = (   0.7860739   0.7446839   0.7439037  )

     number of k points=    64  gaussian smearing, width (Ry)=  0.0007
                       cart. coord. in units 2pi/alat
        k(    1) = (   0.0000000   0.0000000   0.0000000), wk =   0.0092593
        k(    2) = (   0.0000000   0.0000000   0.1662483), wk =   0.0185185
        k(    3) = (   0.0000000   0.0000000   0.3324966), wk =   0.0185185
        k(    4) = (   0.0000000   0.0000000  -0.4987449), wk =   0.0092593
        k(    5) = (   0.0000000   0.1631499   0.0000000), wk =   0.0185185
        k(    6) = (   0.0000000   0.1631499   0.1662483), wk =   0.0370370
        k(    7) = (   0.0000000   0.1631499   0.3324966), wk =   0.0370370
        k(    8) = (   0.0000000   0.1631499  -0.4987449), wk =   0.0185185
        k(    9) = (   0.0000000   0.3262998   0.0000000), wk =   0.0185185
        k(   10) = (   0.0000000   0.3262998   0.1662483), wk =   0.0370370
        k(   11) = (   0.0000000   0.3262998   0.3324966), wk =   0.0370370
        k(   12) = (   0.0000000   0.3262998  -0.4987449), wk =   0.0185185
        k(   13) = (   0.0000000  -0.4894497   0.0000000), wk =   0.0092593
        k(   14) = (   0.0000000  -0.4894497   0.1662483), wk =   0.0185185
        k(   15) = (   0.0000000  -0.4894497   0.3324966), wk =   0.0185185
        k(   16) = (   0.0000000  -0.4894497  -0.4987449), wk =   0.0092593
        k(   17) = (   0.1666667   0.0000000   0.0000000), wk =   0.0185185
        k(   18) = (   0.1666667   0.0000000   0.1662483), wk =   0.0370370
        k(   19) = (   0.1666667   0.0000000   0.3324966), wk =   0.0370370
        k(   20) = (   0.1666667   0.0000000  -0.4987449), wk =   0.0185185
        k(   21) = (   0.1666667   0.1631499   0.0000000), wk =   0.0370370
        k(   22) = (   0.1666667   0.1631499   0.1662483), wk =   0.0740741
        k(   23) = (   0.1666667   0.1631499   0.3324966), wk =   0.0740741
        k(   24) = (   0.1666667   0.1631499  -0.4987449), wk =   0.0370370
        k(   25) = (   0.1666667   0.3262998   0.0000000), wk =   0.0370370
        k(   26) = (   0.1666667   0.3262998   0.1662483), wk =   0.0740741
        k(   27) = (   0.1666667   0.3262998   0.3324966), wk =   0.0740741
        k(   28) = (   0.1666667   0.3262998  -0.4987449), wk =   0.0370370
        k(   29) = (   0.1666667  -0.4894497   0.0000000), wk =   0.0185185
        k(   30) = (   0.1666667  -0.4894497   0.1662483), wk =   0.0370370
        k(   31) = (   0.1666667  -0.4894497   0.3324966), wk =   0.0370370
        k(   32) = (   0.1666667  -0.4894497  -0.4987449), wk =   0.0185185
        k(   33) = (   0.3333333   0.0000000   0.0000000), wk =   0.0185185
        k(   34) = (   0.3333333   0.0000000   0.1662483), wk =   0.0370370
        k(   35) = (   0.3333333   0.0000000   0.3324966), wk =   0.0370370
        k(   36) = (   0.3333333   0.0000000  -0.4987449), wk =   0.0185185
        k(   37) = (   0.3333333   0.1631499   0.0000000), wk =   0.0370370
        k(   38) = (   0.3333333   0.1631499   0.1662483), wk =   0.0740741
        k(   39) = (   0.3333333   0.1631499   0.3324966), wk =   0.0740741
        k(   40) = (   0.3333333   0.1631499  -0.4987449), wk =   0.0370370
        k(   41) = (   0.3333333   0.3262998   0.0000000), wk =   0.0370370
        k(   42) = (   0.3333333   0.3262998   0.1662483), wk =   0.0740741
        k(   43) = (   0.3333333   0.3262998   0.3324966), wk =   0.0740741
        k(   44) = (   0.3333333   0.3262998  -0.4987449), wk =   0.0370370
        k(   45) = (   0.3333333  -0.4894497   0.0000000), wk =   0.0185185
        k(   46) = (   0.3333333  -0.4894497   0.1662483), wk =   0.0370370
        k(   47) = (   0.3333333  -0.4894497   0.3324966), wk =   0.0370370
        k(   48) = (   0.3333333  -0.4894497  -0.4987449), wk =   0.0185185
        k(   49) = (  -0.5000000   0.0000000   0.0000000), wk =   0.0092593
        k(   50) = (  -0.5000000   0.0000000   0.1662483), wk =   0.0185185
        k(   51) = (  -0.5000000   0.0000000   0.3324966), wk =   0.0185185
        k(   52) = (  -0.5000000   0.0000000  -0.4987449), wk =   0.0092593
        k(   53) = (  -0.5000000   0.1631499   0.0000000), wk =   0.0185185
        k(   54) = (  -0.5000000   0.1631499   0.1662483), wk =   0.0370370
        k(   55) = (  -0.5000000   0.1631499   0.3324966), wk =   0.0370370
        k(   56) = (  -0.5000000   0.1631499  -0.4987449), wk =   0.0185185
        k(   57) = (  -0.5000000   0.3262998   0.0000000), wk =   0.0185185
        k(   58) = (  -0.5000000   0.3262998   0.1662483), wk =   0.0370370
        k(   59) = (  -0.5000000   0.3262998   0.3324966), wk =   0.0370370
        k(   60) = (  -0.5000000   0.3262998  -0.4987449), wk =   0.0185185
        k(   61) = (  -0.5000000  -0.4894497   0.0000000), wk =   0.0092593
        k(   62) = (  -0.5000000  -0.4894497   0.1662483), wk =   0.0185185
        k(   63) = (  -0.5000000  -0.4894497   0.3324966), wk =   0.0185185
        k(   64) = (  -0.5000000  -0.4894497  -0.4987449), wk =   0.0092593

     Dense  grid:   500379 G-vectors     FFT dimensions: ( 100, 100, 100)

     Estimated max dynamical RAM per process >       3.14 GB

     Estimated total dynamical RAM >     125.43 GB

     Initial potential from superposition of free atoms

     starting charge  367.99656, renormalised to  368.60000
     Starting wfc are  232 randomized atomic wfcs

     total cpu time spent up to now is       29.0 secs

     Self-consistent Calculation

     iteration #  1     ecut=   120.00 Ry     beta= 0.70
     Davidson diagonalization with overlap
     ethr =  1.00E-02,  avg # of iterations =  5.1

     total cpu time spent up to now is      124.5 secs

     total energy              =   -6253.44507885 Ry
     Harris-Foulkes estimate   =   -6264.25712267 Ry
     estimated scf accuracy    <      13.62216213 Ry

     iteration #  2     ecut=   120.00 Ry     beta= 0.70
     Davidson diagonalization with overlap
     ethr =  3.70E-03,  avg # of iterations =  3.6

     total cpu time spent up to now is      218.6 secs

     total energy              =   -6250.38711758 Ry
     Harris-Foulkes estimate   =   -6270.23896958 Ry
     estimated scf accuracy    <      52.79985482 Ry

     iteration #  3     ecut=   120.00 Ry     beta= 0.70
     Davidson diagonalization with overlap
     ethr =  3.70E-03,  avg # of iterations =  3.6

     total cpu time spent up to now is      306.2 secs

     total energy              =   -6260.66617661 Ry
     Harris-Foulkes estimate   =   -6260.93205608 Ry
     estimated scf accuracy    <       0.88969854 Ry

     iteration #  4     ecut=   120.00 Ry     beta= 0.70
     Davidson diagonalization with overlap
     ethr =  2.41E-04,  avg # of iterations =  2.9

     total cpu time spent up to now is      378.2 secs

     total energy              =   -6260.65731441 Ry
     Harris-Foulkes estimate   =   -6260.72961797 Ry
     estimated scf accuracy    <       0.24080245 Ry

     iteration #  5     ecut=   120.00 Ry     beta= 0.70
     Davidson diagonalization with overlap
     ethr =  6.53E-05,  avg # of iterations =  6.4

     total cpu time spent up to now is      459.8 secs

     total energy              =   -6260.64610601 Ry
     Harris-Foulkes estimate   =   -6260.70607673 Ry
     estimated scf accuracy    <       0.17199039 Ry

     iteration #  6     ecut=   120.00 Ry     beta= 0.70
     Davidson diagonalization with overlap
     ethr =  4.67E-05,  avg # of iterations =  4.9

     total cpu time spent up to now is      538.5 secs

     total energy              =   -6260.67206365 Ry
     Harris-Foulkes estimate   =   -6260.68008289 Ry
     estimated scf accuracy    <       0.02703871 Ry

     iteration #  7     ecut=   120.00 Ry     beta= 0.70
     Davidson diagonalization with overlap
     ethr =  7.34E-06,  avg # of iterations =  3.7

     total cpu time spent up to now is      621.9 secs

     total energy              =   -6260.67489257 Ry
     Harris-Foulkes estimate   =   -6260.67637862 Ry
     estimated scf accuracy    <       0.00616172 Ry

     iteration #  8     ecut=   120.00 Ry     beta= 0.70
     Davidson diagonalization with overlap
     ethr =  1.67E-06,  avg # of iterations =  4.8

     total cpu time spent up to now is      705.8 secs

     total energy              =   -6260.67485802 Ry
     Harris-Foulkes estimate   =   -6260.67540033 Ry
     estimated scf accuracy    <       0.00145316 Ry

     iteration #  9     ecut=   120.00 Ry     beta= 0.70
     Davidson diagonalization with overlap
     ethr =  3.94E-07,  avg # of iterations =  3.1

     total cpu time spent up to now is      778.9 secs

     total energy              =   -6260.67506236 Ry
     Harris-Foulkes estimate   =   -6260.67508930 Ry
     estimated scf accuracy    <       0.00005133 Ry

     iteration # 10     ecut=   120.00 Ry     beta= 0.70
     Davidson diagonalization with overlap
     ethr =  1.39E-08,  avg # of iterations =  3.1

     total cpu time spent up to now is      867.7 secs

     total energy              =   -6260.67507190 Ry
     Harris-Foulkes estimate   =   -6260.67509150 Ry
     estimated scf accuracy    <       0.00005079 Ry

     iteration # 11     ecut=   120.00 Ry     beta= 0.70
     Davidson diagonalization with overlap
     ethr =  1.38E-08,  avg # of iterations =  2.6

     total cpu time spent up to now is      939.2 secs

     total energy              =   -6260.67507945 Ry
     Harris-Foulkes estimate   =   -6260.67508020 Ry
     estimated scf accuracy    <       0.00000162 Ry

     iteration # 12     ecut=   120.00 Ry     beta= 0.70
     Davidson diagonalization with overlap
     ethr =  4.39E-10,  avg # of iterations =  2.9

     total cpu time spent up to now is     1029.5 secs

     total energy              =   -6260.67507988 Ry
     Harris-Foulkes estimate   =   -6260.67508004 Ry
     estimated scf accuracy    <       0.00000053 Ry

     iteration # 13     ecut=   120.00 Ry     beta= 0.70
     Davidson diagonalization with overlap
     ethr =  1.44E-10,  avg # of iterations =  2.0

     total cpu time spent up to now is     1104.3 secs

     total energy              =   -6260.67507993 Ry
     Harris-Foulkes estimate   =   -6260.67507996 Ry
     estimated scf accuracy    <       0.00000012 Ry

     iteration # 14     ecut=   120.00 Ry     beta= 0.70
     Davidson diagonalization with overlap
     ethr =  3.35E-11,  avg # of iterations =  1.8

     total cpu time spent up to now is     1172.7 secs

     End of self-consistent calculation

          k = 0.0000 0.0000 0.0000 ( 62565 PWs)   bands (ev):

   -66.1143 -66.1135 -66.1134 -66.1127 -66.1106 -66.1098 -66.1097 -66.1090
   -30.5475 -30.5402 -30.5356 -30.5354 -30.5068 -30.4989 -30.4978 -30.4869
   -30.4568 -30.4477 -30.4475 -30.4351 -30.4274 -30.4253 -30.4248 -30.4247
   -30.4142 -30.4073 -30.4002 -30.3980 -30.3430 -30.3410 -30.3393 -30.3351
   -20.2640 -20.2639 -20.2633 -20.2632 -20.2596 -20.2594 -20.2594 -20.2592
   -20.2500 -20.2496 -20.2493 -20.2485 -20.2483 -20.2474 -20.2471 -20.2464
   -20.2455 -20.2451 -20.2450 -20.2443 -20.2442 -20.2436 -20.2429 -20.2425
   -20.2408 -20.2399 -20.2396 -20.2382 -20.2381 -20.2371 -20.2369 -20.2368
   -20.2362 -20.2359 -20.2357 -20.2346 -20.2343 -20.2333 -20.2331 -20.2322
   -20.2288 -20.2271 -20.2248 -20.2237 -20.2208 -20.2203 -20.2198 -20.2194
   -20.2190 -20.2184 -20.2165 -20.2162 -20.2156 -20.2156 -20.2152 -20.2141
    -9.9782  -9.6529  -9.5938  -9.5919  -9.2518  -9.2388  -9.1863  -9.0233
    -8.9949  -8.9189  -8.9149  -8.9130  -7.9420  -7.8855  -7.8334  -7.8273
    -7.8012  -7.7461  -7.7447  -7.7166  -7.7155  -7.7041  -7.6281  -7.6224
     1.1857   1.2196   1.2331   1.2613   1.3179   1.3529   1.3801   1.4519
     1.5424   1.5774   1.5787   1.7995   2.4238   2.4702   2.5381   2.5618
     2.6244   2.6646   4.2032   4.2480   4.4235   4.5211   4.5552   4.6039
     4.6223   4.6877   4.6932   4.7503   4.9118   4.9393   5.2185   5.3590
     5.4078   5.4183   5.4673   5.5733   5.5824   5.6502   5.6685   5.6952
     5.7025   5.7266   5.8430   5.9061   5.9430   5.9569   5.9730   6.0598
     6.1022   6.3430   6.3452   6.3575   6.4387   6.5778   6.8544   6.8959
     6.9025   6.9199   6.9711   6.9748   6.9867   7.0151   7.0377   7.0497
     7.2459   7.2820   7.9194   7.9488   7.9641   7.9986   8.0685   8.1348
     9.5361   9.5902   9.8299   9.8513   9.8555   9.9004  12.2846  12.3386
    12.4164  12.4333  12.4841  12.6008  12.6944  12.7238  12.7400  12.7666
    13.0808  13.1187  13.2059  13.4516  13.6708  13.6728  13.8955  14.0508
    14.5979  14.6560  14.7615  14.7998  15.1403  15.1902  15.7285  15.8587
    15.9304  16.8224  16.9474  17.0197  17.2478

          k = 0.0000 0.0000 0.1662 ( 62579 PWs)   bands (ev):

   -66.1142 -66.1135 -66.1134 -66.1127 -66.1105 -66.1099 -66.1097 -66.1090
   -30.5447 -30.5360 -30.5359 -30.5329 -30.5075 -30.5000 -30.4964 -30.4856
   -30.4593 -30.4507 -30.4463 -30.4345 -30.4281 -30.4257 -30.4236 -30.4215
   -30.4124 -30.4087 -30.4014 -30.3962 -30.3466 -30.3428 -30.3412 -30.3389
   -20.2639 -20.2638 -20.2633 -20.2632 -20.2596 -20.2594 -20.2594 -20.2592
   -20.2499 -20.2495 -20.2493 -20.2484 -20.2484 -20.2474 -20.2471 -20.2464
   -20.2455 -20.2451 -20.2450 -20.2443 -20.2442 -20.2436 -20.2430 -20.2426
   -20.2408 -20.2400 -20.2395 -20.2383 -20.2380 -20.2371 -20.2368 -20.2367
   -20.2361 -20.2360 -20.2357 -20.2346 -20.2342 -20.2333 -20.2332 -20.2323
   -20.2286 -20.2270 -20.2251 -20.2240 -20.2206 -20.2202 -20.2197 -20.2191
   -20.2191 -20.2185 -20.2165 -20.2162 -20.2161 -20.2155 -20.2153 -20.2144
    -9.9355  -9.6078  -9.6011  -9.5338  -9.2501  -9.1949  -9.1748  -8.9999
    -8.9622  -8.9166  -8.8891  -8.8765  -8.0279  -7.9382  -7.9101  -7.8382
    -7.8292  -7.8026  -7.7594  -7.7506  -7.7396  -7.7199  -7.7049  -7.6336
     1.2381   1.2586   1.3415   1.3758   1.3808   1.3880   1.4493   1.5507
     1.5772   1.7068   1.7393   1.9219   2.4837   2.5175   2.6164   2.6180
     2.6349   2.7478   4.1132   4.2033   4.2904   4.3641   4.4183   4.4539
     4.5065   4.6470   4.6945   4.7013   4.7408   4.9213   5.1577   5.2077
     5.3529   5.3883   5.4593   5.4720   5.5426   5.5909   5.6297   5.6322
     5.7102   5.7710   5.8103   5.8868   5.9083   5.9854   5.9906   6.1029
     6.1299   6.3289   6.3994   6.5167   6.6120   6.6783   6.7278   6.7748
     6.8239   6.8499   6.8754   6.9245   6.9699   6.9870   7.0316   7.0493
     7.0602   7.1643   7.8966   7.9147   7.9834   7.9856   8.0211   8.1002
     9.7464   9.8289   9.8637   9.9409  10.1132  10.1650  12.2491  12.3212
    12.3577  12.4711  12.5122  12.5556  12.6337  12.6956  12.7466  12.7886
    12.9723  13.0967  13.2529  13.4509  13.6720  13.6970  13.8488  13.9410
    14.6272  14.7618  14.7961  14.8559  15.2184  15.2638  15.6964  15.9003
    16.1755  16.7398  16.9880  17.1245  17.3342

          k = 0.0000 0.0000 0.3325 ( 62515 PWs)   bands (ev):

   -66.1141 -66.1137 -66.1133 -66.1129 -66.1104 -66.1100 -66.1095 -66.1091
   -30.5409 -30.5370 -30.5256 -30.5236 -30.5101 -30.5038 -30.4914 -30.4814
   -30.4678 -30.4601 -30.4432 -30.4340 -30.4331 -30.4284 -30.4170 -30.4147
   -30.4115 -30.4042 -30.4020 -30.3891 -30.3619 -30.3553 -30.3420 -30.3400
   -20.2638 -20.2637 -20.2634 -20.2633 -20.2595 -20.2594 -20.2593 -20.2593
   -20.2498 -20.2494 -20.2493 -20.2486 -20.2482 -20.2477 -20.2470 -20.2466
   -20.2454 -20.2452 -20.2448 -20.2444 -20.2439 -20.2434 -20.2432 -20.2428
   -20.2406 -20.2401 -20.2393 -20.2386 -20.2378 -20.2373 -20.2367 -20.2364
   -20.2362 -20.2358 -20.2357 -20.2349 -20.2339 -20.2333 -20.2331 -20.2325
   -20.2279 -20.2264 -20.2259 -20.2247 -20.2199 -20.2197 -20.2194 -20.2193
   -20.2187 -20.2183 -20.2173 -20.2162 -20.2161 -20.2158 -20.2155 -20.2149
    -9.8338  -9.6512  -9.4777  -9.4009  -9.2867  -9.2240  -8.9653  -8.9565
    -8.9266  -8.8573  -8.7437  -8.7318  -8.3120  -8.2491  -8.1252  -8.0754
    -7.8826  -7.8516  -7.7938  -7.7626  -7.7516  -7.7288  -7.6902  -7.6486
     1.2478   1.2535   1.3833   1.3841   1.4290   1.4438   1.5379   1.5747
     2.2165   2.3401   2.3779   2.4952   2.5196   2.6038   2.7521   2.8479
     2.8759   2.9789   3.6834   3.7869   3.8563   3.9676   4.0052   4.2996
     4.4328   4.4736   4.5710   4.5829   4.6044   4.7230   4.8913   4.9576
     5.0637   5.1467   5.2223   5.2749   5.3872   5.4394   5.6669   5.7319
     5.7393   5.7723   5.8031   5.8961   6.0178   6.0346   6.1150   6.1158
     6.1643   6.2605   6.3576   6.3851   6.5145   6.5853   6.5858   6.6656
     6.7515   6.9347   6.9499   6.9522   6.9780   7.0167   7.0766   7.1270
     7.1925   7.2616   7.7711   7.7883   7.8590   7.8990   8.0097   8.0412
     9.8100   9.8251  10.4790  10.5721  10.7192  10.8164  11.8685  11.9998
    12.1117  12.2584  12.4189  12.5791  12.6444  12.6803  12.7810  12.8562
    12.9581  13.1640  13.2024  13.3027  13.5608  13.6413  13.6787  13.7756
    14.7147  14.7848  15.0669  15.1213  15.4918  15.5913  15.7332  15.7940
    16.2138  17.0465  17.2866  17.5248  17.6765

          k = 0.0000 0.0000-0.4987 ( 62500 PWs)   bands (ev):

   -66.1139 -66.1139 -66.1131 -66.1131 -66.1102 -66.1102 -66.1093 -66.1093
   -30.5386 -30.5386 -30.5157 -30.5156 -30.5117 -30.5117 -30.4808 -30.4807
   -30.4725 -30.4725 -30.4392 -30.4392 -30.4311 -30.4311 -30.4142 -30.4142
   -30.4082 -30.4082 -30.3824 -30.3824 -30.3739 -30.3739 -30.3410 -30.3410
   -20.2636 -20.2636 -20.2635 -20.2635 -20.2595 -20.2595 -20.2593 -20.2593
   -20.2496 -20.2495 -20.2489 -20.2489 -20.2480 -20.2480 -20.2468 -20.2468
   -20.2453 -20.2453 -20.2446 -20.2446 -20.2435 -20.2435 -20.2431 -20.2431
   -20.2404 -20.2404 -20.2390 -20.2390 -20.2376 -20.2375 -20.2365 -20.2365
   -20.2361 -20.2361 -20.2352 -20.2352 -20.2336 -20.2336 -20.2328 -20.2328
   -20.2270 -20.2270 -20.2256 -20.2256 -20.2196 -20.2196 -20.2191 -20.2191
   -20.2186 -20.2185 -20.2172 -20.2171 -20.2159 -20.2159 -20.2154 -20.2154
    -9.7278  -9.7278  -9.3593  -9.3593  -9.2863  -9.2863  -8.9414  -8.9414
    -8.6499  -8.6498  -8.6117  -8.6117  -8.4678  -8.4678  -8.4412  -8.4412
    -7.8694  -7.8694  -7.7786  -7.7786  -7.7408  -7.7407  -7.6694  -7.6694
     1.2501   1.2501   1.3866   1.3866   1.4382   1.4382   1.5689   1.5689
     2.5504   2.5504   3.0130   3.0130   3.0749   3.0749   3.1505   3.1505
     3.2262   3.2262   3.2414   3.2414   3.4915   3.4915   3.6917   3.6917
     3.7589   3.7589   4.5271   4.5271   4.5606   4.5606   4.9999   4.9999
     5.1236   5.1236   5.2004   5.2004   5.2926   5.2926   5.7193   5.7194
     5.8304   5.8304   5.8951   5.8951   5.9691   5.9691   6.1271   6.1271
     6.2015   6.2015   6.2506   6.2506   6.4780   6.4780   6.5322   6.5322
     6.8017   6.8017   6.9559   6.9559   6.9939   6.9939   7.4765   7.4765
     7.5251   7.5251   7.5750   7.5750   7.6392   7.6392   8.0236   8.0236
     9.8189   9.8189  11.2151  11.2151  11.3395  11.3396  11.4486  11.4486
    11.5829  11.5829  12.5264  12.5264  12.7097  12.7097  12.9342  12.9342
    13.0655  13.0656  13.2445  13.2445  13.3434  13.3434  13.7043  13.7043
    14.7627  14.7627  15.3858  15.3858  15.5153  15.5153  15.7844  15.7844
    16.5625  16.5625  17.8437  17.8447  17.9533

          k = 0.0000 0.1631 0.0000 ( 62582 PWs)   bands (ev):

   -66.1143 -66.1135 -66.1134 -66.1126 -66.1106 -66.1098 -66.1097 -66.1090
   -30.5462 -30.5394 -30.5357 -30.5346 -30.5026 -30.4962 -30.4945 -30.4832
   -30.4588 -30.4483 -30.4479 -30.4364 -30.4276 -30.4270 -30.4247 -30.4246
   -30.4174 -30.4106 -30.4032 -30.3994 -30.3431 -30.3410 -30.3393 -30.3352
   -20.2640 -20.2639 -20.2633 -20.2632 -20.2596 -20.2594 -20.2594 -20.2592
   -20.2499 -20.2496 -20.2491 -20.2485 -20.2482 -20.2474 -20.2470 -20.2464
   -20.2455 -20.2451 -20.2450 -20.2442 -20.2442 -20.2435 -20.2427 -20.2423
   -20.2408 -20.2399 -20.2397 -20.2384 -20.2383 -20.2374 -20.2369 -20.2369
   -20.2363 -20.2359 -20.2358 -20.2346 -20.2342 -20.2334 -20.2331 -20.2322
   -20.2288 -20.2271 -20.2248 -20.2237 -20.2208 -20.2203 -20.2198 -20.2194
   -20.2190 -20.2184 -20.2165 -20.2162 -20.2156 -20.2156 -20.2152 -20.2141
    -9.9436  -9.6653  -9.5545  -9.5533  -9.2508  -9.2398  -9.1055  -9.0057
    -8.9929  -8.8903  -8.8792  -8.8778  -7.9883  -7.9079  -7.8951  -7.8868
    -7.8608  -7.8347  -7.7887  -7.7829  -7.7157  -7.7056  -7.6290  -7.6233
     1.1906   1.2206   1.2455   1.2853   1.3779   1.4061   1.4377   1.5777
     1.6712   1.7477   1.7763   1.9409   2.4346   2.5315   2.5462   2.6453
     2.7018   2.7462   4.0505   4.1110   4.1317   4.2109   4.5219   4.5888
     4.6179   4.6771   4.6905   4.8163   4.8639   4.8728   5.0966   5.2796
     5.3086   5.4047   5.4440   5.5544   5.5859   5.6301   5.6350   5.6432
     5.6517   5.7137   5.7550   5.9373   5.9807   5.9944   6.0324   6.0555
     6.0670   6.3238   6.4021   6.4086   6.4354   6.5965   6.8015   6.8358
     6.8607   6.9020   6.9374   6.9591   6.9622   6.9669   6.9956   7.0263
     7.2481   7.2841   7.9005   7.9446   7.9466   7.9818   8.0333   8.0654
     9.5571   9.5953  10.0391  10.0517  10.0818  10.0861  12.2063  12.3313
    12.3607  12.4140  12.4236  12.4802  12.6046  12.6842  12.7122  12.8019
    13.0583  13.0934  13.1904  13.4649  13.6715  13.7509  13.8390  13.9643
    14.6908  14.8230  14.9231  14.9341  15.1309  15.1868  15.8423  15.9063
    16.1220  16.5540  17.1039  17.1765  17.3175

          k = 0.0000 0.1631 0.1662 ( 62545 PWs)   bands (ev):

   -66.1142 -66.1135 -66.1134 -66.1127 -66.1105 -66.1099 -66.1097 -66.1090
   -30.5433 -30.5351 -30.5348 -30.5333 -30.5034 -30.4975 -30.4934 -30.4821
   -30.4611 -30.4507 -30.4469 -30.4357 -30.4276 -30.4258 -30.4247 -30.4235
   -30.4149 -30.4123 -30.4044 -30.3974 -30.3466 -30.3428 -30.3411 -30.3390
   -20.2639 -20.2638 -20.2633 -20.2632 -20.2596 -20.2594 -20.2594 -20.2592
   -20.2498 -20.2495 -20.2491 -20.2484 -20.2483 -20.2475 -20.2470 -20.2465
   -20.2455 -20.2451 -20.2449 -20.2443 -20.2440 -20.2434 -20.2428 -20.2424
   -20.2408 -20.2400 -20.2397 -20.2385 -20.2382 -20.2374 -20.2369 -20.2368
   -20.2361 -20.2360 -20.2358 -20.2347 -20.2341 -20.2334 -20.2331 -20.2323
   -20.2286 -20.2270 -20.2251 -20.2240 -20.2206 -20.2202 -20.2197 -20.2191
   -20.2191 -20.2185 -20.2165 -20.2162 -20.2161 -20.2155 -20.2153 -20.2144
    -9.8995  -9.6135  -9.5673  -9.4907  -9.2517  -9.1736  -9.1142  -8.9766
    -8.9594  -8.8814  -8.8685  -8.8464  -8.0395  -7.9571  -7.9421  -7.9123
    -7.8656  -7.8610  -7.8371  -7.8216  -7.7876  -7.7415  -7.7060  -7.6345
     1.2571   1.2834   1.3488   1.4081   1.4687   1.5240   1.5986   1.6752
     1.7423   1.7749   1.8060   2.0140   2.5177   2.5691   2.6180   2.6948
     2.7135   2.8286   4.0445   4.0622   4.1727   4.1963   4.3225   4.3537
     4.4391   4.5977   4.6723   4.6793   4.6998   4.8730   5.0761   5.1151
     5.2457   5.3473   5.3817   5.4042   5.4480   5.5653   5.6047   5.6485
     5.7157   5.7369   5.7716   5.9180   5.9267   5.9397   6.0132   6.0512
     6.1993   6.3145   6.4187   6.5236   6.6220   6.6565   6.7197   6.7830
     6.8214   6.8562   6.8888   6.9115   6.9352   6.9708   6.9937   7.0061
     7.0651   7.1710   7.8826   7.9134   7.9516   7.9671   7.9886   8.0358
     9.8280   9.8786  10.0520  10.0987  10.2666  10.3187  12.2345  12.2731
    12.3071  12.4418  12.4713  12.5158  12.5504  12.6310  12.7310  12.7574
    12.9235  13.0709  13.2346  13.4437  13.6721  13.7074  13.7970  13.8702
    14.7565  14.9054  14.9822  15.0109  15.2143  15.2736  15.8736  16.0943
    16.1574  16.7054  16.8795  17.2510  17.4011

          k = 0.0000 0.1631 0.3325 ( 62566 PWs)   bands (ev):

   -66.1141 -66.1137 -66.1133 -66.1129 -66.1104 -66.1100 -66.1095 -66.1092
   -30.5395 -30.5359 -30.5243 -30.5231 -30.5062 -30.5017 -30.4892 -30.4782
   -30.4687 -30.4592 -30.4439 -30.4343 -30.4338 -30.4288 -30.4201 -30.4172
   -30.4152 -30.4072 -30.4025 -30.3897 -30.3619 -30.3554 -30.3421 -30.3401
   -20.2638 -20.2637 -20.2634 -20.2633 -20.2595 -20.2594 -20.2593 -20.2592
   -20.2496 -20.2492 -20.2492 -20.2485 -20.2483 -20.2477 -20.2469 -20.2466
   -20.2454 -20.2452 -20.2448 -20.2444 -20.2437 -20.2432 -20.2430 -20.2426
   -20.2406 -20.2402 -20.2395 -20.2388 -20.2380 -20.2376 -20.2367 -20.2365
   -20.2362 -20.2360 -20.2357 -20.2349 -20.2339 -20.2333 -20.2332 -20.2325
   -20.2279 -20.2264 -20.2259 -20.2247 -20.2199 -20.2197 -20.2194 -20.2193
   -20.2187 -20.2183 -20.2173 -20.2162 -20.2161 -20.2158 -20.2155 -20.2149
    -9.7950  -9.6105  -9.4889  -9.3413  -9.2904  -9.1442  -8.9600  -8.9244
    -8.8911  -8.8563  -8.7387  -8.7181  -8.3137  -8.2523  -8.1288  -8.0833
    -7.9364  -7.9170  -7.8635  -7.8428  -7.8392  -7.8027  -7.6912  -7.6496
     1.2773   1.2808   1.4138   1.4202   1.6483   1.6596   1.7280   1.7698
     2.2188   2.3452   2.3802   2.5040   2.5993   2.6774   2.7627   2.8633
     2.9412   3.0550   3.6913   3.8063   3.8532   3.9512   4.0173   4.1879
     4.2424   4.3528   4.4551   4.5035   4.5586   4.6744   4.7562   4.9245
     4.9674   4.9983   5.1265   5.1966   5.2886   5.4341   5.4655   5.6671
     5.7331   5.7514   5.7925   5.8372   5.9031   5.9612   6.0780   6.1110
     6.2449   6.3063   6.3711   6.4796   6.5822   6.6192   6.6799   6.7661
     6.7944   6.8456   6.8718   6.9201   6.9601   6.9920   7.1215   7.1230
     7.1989   7.2663   7.7730   7.7815   7.8392   7.8706   7.9697   7.9908
    10.0378  10.0514  10.4933  10.5886  10.8253  10.9041  11.8699  12.0160
    12.1294  12.2881  12.3985  12.5075  12.5898  12.6290  12.6600  12.7649
    12.8844  13.1292  13.2082  13.2456  13.4546  13.5811  13.6798  13.7708
    14.8456  14.9005  15.2236  15.3686  15.5226  15.7603  15.7837  16.0030
    16.3316  17.0212  17.1585  17.3725  17.6361

          k = 0.0000 0.1631-0.4987 ( 62504 PWs)   bands (ev):

   -66.1139 -66.1139 -66.1131 -66.1130 -66.1102 -66.1102 -66.1093 -66.1093
   -30.5374 -30.5374 -30.5127 -30.5127 -30.5106 -30.5106 -30.4803 -30.4803
   -30.4703 -30.4703 -30.4398 -30.4397 -30.4319 -30.4319 -30.4178 -30.4178
   -30.4111 -30.4111 -30.3826 -30.3825 -30.3741 -30.3740 -30.3411 -30.3411
   -20.2636 -20.2636 -20.2635 -20.2635 -20.2595 -20.2595 -20.2593 -20.2593
   -20.2494 -20.2494 -20.2488 -20.2488 -20.2480 -20.2480 -20.2468 -20.2468
   -20.2453 -20.2453 -20.2446 -20.2446 -20.2433 -20.2433 -20.2429 -20.2429
   -20.2404 -20.2404 -20.2392 -20.2391 -20.2378 -20.2378 -20.2365 -20.2365
   -20.2362 -20.2362 -20.2353 -20.2352 -20.2336 -20.2336 -20.2329 -20.2329
   -20.2270 -20.2270 -20.2257 -20.2256 -20.2196 -20.2196 -20.2191 -20.2191
   -20.2186 -20.2185 -20.2172 -20.2171 -20.2159 -20.2159 -20.2154 -20.2154
    -9.6873  -9.6873  -9.3667  -9.3667  -9.2113  -9.2113  -8.9051  -8.9051
    -8.6507  -8.6506  -8.6124  -8.6124  -8.4681  -8.4680  -8.4408  -8.4408
    -7.9309  -7.9309  -7.8534  -7.8534  -7.8227  -7.8227  -7.6704  -7.6704
     1.2799   1.2799   1.4209   1.4209   1.6620   1.6620   1.7624   1.7624
     2.6264   2.6264   3.0231   3.0231   3.0858   3.0858   3.1703   3.1703
     3.2253   3.2254   3.2630   3.2630   3.5008   3.5008   3.7364   3.7364
     3.7795   3.7795   4.2824   4.2824   4.4748   4.4748   4.7808   4.7808
     5.0069   5.0069   5.1486   5.1486   5.2763   5.2763   5.5415   5.5415
     5.7293   5.7293   5.8409   5.8409   5.9454   5.9454   6.0832   6.0832
     6.2647   6.2647   6.3584   6.3584   6.5298   6.5298   6.6819   6.6819
     6.8407   6.8407   6.8704   6.8704   6.9582   6.9582   7.4850   7.4850
     7.5191   7.5191   7.5718   7.5718   7.6270   7.6270   7.9790   7.9790
    10.0492  10.0492  11.2229  11.2229  11.3526  11.3526  11.5164  11.5164
    11.6337  11.6337  12.5130  12.5130  12.5824  12.5824  12.8940  12.8940
    13.0256  13.0256  13.1187  13.1187  13.3008  13.3009  13.7022  13.7022
    14.8815  14.8816  15.5346  15.5346  15.7803  15.7803  15.8547  15.8547
    16.6259  16.6259  17.6394  17.6395  17.9651

          k = 0.0000 0.3263 0.0000 ( 62670 PWs)   bands (ev):

   -66.1143 -66.1135 -66.1134 -66.1126 -66.1106 -66.1098 -66.1097 -66.1090
   -30.5436 -30.5381 -30.5364 -30.5328 -30.4914 -30.4894 -30.4858 -30.4726
   -30.4654 -30.4508 -30.4494 -30.4431 -30.4323 -30.4282 -30.4247 -30.4229
   -30.4223 -30.4179 -30.4100 -30.4018 -30.3432 -30.3410 -30.3392 -30.3353
   -20.2640 -20.2639 -20.2632 -20.2632 -20.2595 -20.2594 -20.2593 -20.2592
   -20.2497 -20.2495 -20.2487 -20.2485 -20.2478 -20.2477 -20.2469 -20.2465
   -20.2455 -20.2451 -20.2449 -20.2443 -20.2437 -20.2432 -20.2422 -20.2419
   -20.2409 -20.2402 -20.2399 -20.2390 -20.2387 -20.2381 -20.2371 -20.2370
   -20.2363 -20.2360 -20.2359 -20.2346 -20.2341 -20.2336 -20.2330 -20.2323
   -20.2288 -20.2272 -20.2248 -20.2237 -20.2209 -20.2203 -20.2198 -20.2194
   -20.2190 -20.2184 -20.2165 -20.2162 -20.2156 -20.2156 -20.2152 -20.2141
    -9.8602  -9.7038  -9.4801  -9.4711  -9.2485  -9.2432  -8.9926  -8.9862
    -8.8772  -8.7578  -8.7506  -8.7472  -8.2256  -8.1769  -8.1658  -8.1401
    -7.8933  -7.8818  -7.7989  -7.7928  -7.7153  -7.7091  -7.6308  -7.6246
     1.1919   1.2194   1.2512   1.2959   1.3897   1.4214   1.5439   1.5789
     2.2649   2.3720   2.4082   2.4545   2.5125   2.5278   2.7625   2.9287
     2.9326   3.0006   3.6217   3.6537   3.7075   3.7286   4.0857   4.4337
     4.4911   4.5922   4.6414   4.6683   4.7042   4.7487   4.9792   4.9938
     5.0381   5.0603   5.3035   5.3282   5.4869   5.5112   5.6790   5.7002
     5.7137   5.7530   5.8079   5.9202   5.9304   6.0201   6.0557   6.0913
     6.1761   6.2600   6.3052   6.4488   6.4813   6.5116   6.7645   6.8074
     6.8137   6.9218   6.9599   7.0033   7.0954   7.0990   7.1034   7.1116
     7.2545   7.2900   7.7733   7.8175   7.8458   7.8703   7.9537   7.9583
     9.5782   9.5960  10.5456  10.5941  10.6137  10.6710  11.8471  11.9534
    11.9655  12.0794  12.3707  12.4161  12.6420  12.6818  12.7087  12.8634
    13.0947  13.1404  13.1623  13.4416  13.5195  13.6152  13.7036  13.7910
    14.9221  15.1102  15.2048  15.2229  15.2558  15.6268  15.7858  15.8311
    16.0366  17.0857  17.2063  17.6279  17.6935

          k = 0.0000 0.3263 0.1662 ( 62581 PWs)   bands (ev):

   -66.1142 -66.1135 -66.1134 -66.1127 -66.1105 -66.1099 -66.1097 -66.1090
   -30.5400 -30.5347 -30.5334 -30.5329 -30.4925 -30.4911 -30.4852 -30.4716
   -30.4671 -30.4510 -30.4496 -30.4423 -30.4296 -30.4271 -30.4265 -30.4252
   -30.4201 -30.4179 -30.4112 -30.3994 -30.3467 -30.3429 -30.3409 -30.3393
   -20.2639 -20.2638 -20.2633 -20.2632 -20.2595 -20.2594 -20.2593 -20.2592
   -20.2496 -20.2493 -20.2487 -20.2485 -20.2479 -20.2477 -20.2469 -20.2466
   -20.2455 -20.2451 -20.2449 -20.2443 -20.2436 -20.2431 -20.2423 -20.2419
   -20.2409 -20.2402 -20.2400 -20.2391 -20.2387 -20.2382 -20.2370 -20.2369
   -20.2361 -20.2361 -20.2360 -20.2347 -20.2340 -20.2336 -20.2331 -20.2324
   -20.2286 -20.2270 -20.2251 -20.2240 -20.2206 -20.2202 -20.2197 -20.2191
   -20.2191 -20.2185 -20.2164 -20.2162 -20.2161 -20.2155 -20.2153 -20.2144
    -9.8130  -9.6523  -9.4840  -9.4035  -9.2569  -9.1703  -8.9627  -8.9437
    -8.8859  -8.7539  -8.7491  -8.7297  -8.2280  -8.1844  -8.1648  -8.1475
    -8.0046  -7.9194  -7.8788  -7.8258  -7.7983  -7.7434  -7.7080  -7.6363
     1.2628   1.2943   1.3488   1.4239   1.4977   1.6385   1.6720   1.7617
     2.2715   2.3702   2.4066   2.5199   2.5508   2.5966   2.7908   2.9239
     2.9928   3.0797   3.6552   3.6848   3.7176   3.7420   4.0623   4.3041
     4.3395   4.4258   4.5047   4.6327   4.6910   4.7426   4.7636   4.7922
     5.0050   5.0713   5.1072   5.2675   5.2782   5.4342   5.5143   5.6457
     5.6977   5.7129   5.7816   5.8076   5.9259   5.9645   5.9810   6.0693
     6.2776   6.3176   6.4489   6.4758   6.5760   6.6777   6.7534   6.8223
     6.8387   6.9187   6.9265   6.9499   7.0386   7.0537   7.0944   7.1354
     7.1443   7.1999   7.7692   7.8124   7.8277   7.8407   7.9218   7.9327
     9.8582   9.8952  10.6153  10.6393  10.7091  10.7866  11.9208  11.9581
    11.9975  12.1117  12.2760  12.4680  12.5407  12.6756  12.7413  12.8448
    12.9537  13.1019  13.1488  13.3614  13.4834  13.5202  13.6783  13.7580
    14.9681  15.1865  15.2316  15.3394  15.4847  15.6930  15.8052  16.0911
    16.1929  17.0516  17.2476  17.3299  17.5888

          k = 0.0000 0.3263 0.3325 ( 62542 PWs)   bands (ev):

   -66.1140 -66.1136 -66.1132 -66.1128 -66.1104 -66.1100 -66.1095 -66.1092
   -30.5369 -30.5341 -30.5238 -30.5204 -30.4973 -30.4963 -30.4830 -30.4722
   -30.4686 -30.4559 -30.4466 -30.4403 -30.4337 -30.4315 -30.4258 -30.4228
   -30.4226 -30.4137 -30.4033 -30.3906 -30.3620 -30.3554 -30.3422 -30.3402
   -20.2638 -20.2637 -20.2634 -20.2633 -20.2595 -20.2594 -20.2593 -20.2592
   -20.2493 -20.2490 -20.2488 -20.2484 -20.2482 -20.2480 -20.2468 -20.2466
   -20.2454 -20.2452 -20.2447 -20.2444 -20.2432 -20.2428 -20.2425 -20.2422
   -20.2407 -20.2402 -20.2400 -20.2393 -20.2386 -20.2383 -20.2368 -20.2367
   -20.2362 -20.2362 -20.2357 -20.2349 -20.2338 -20.2333 -20.2332 -20.2327
   -20.2279 -20.2265 -20.2259 -20.2247 -20.2199 -20.2197 -20.2194 -20.2193
   -20.2187 -20.2183 -20.2173 -20.2162 -20.2161 -20.2158 -20.2155 -20.2149
    -9.7039  -9.5264  -9.5215  -9.3013  -9.2048  -8.9573  -8.9181  -8.8616
    -8.8281  -8.7642  -8.6930  -8.6528  -8.3380  -8.2912  -8.1986  -8.1926
    -8.1551  -8.1388  -8.0884  -8.0256  -7.8545  -7.8139  -7.6931  -7.6515
     1.2884   1.2924   1.4308   1.4353   2.1157   2.1828   2.2488   2.3099
     2.3773   2.4203   2.4622   2.6348   2.7825   2.8221   2.8423   2.9194
     3.1985   3.2786   3.6362   3.6864   3.7092   3.7896   3.8184   3.8823
     4.0177   4.1484   4.2578   4.3283   4.4021   4.5320   4.5588   4.6246
     4.7851   4.8535   4.9243   5.0363   5.0414   5.1884   5.2384   5.2511
     5.3708   5.5198   5.5862   5.7946   5.9672   6.0053   6.0983   6.1358
     6.3795   6.3898   6.4612   6.5187   6.6105   6.6442   6.7333   6.8164
     6.9001   6.9500   7.0047   7.0215   7.0599   7.0975   7.1541   7.2132
     7.2445   7.3026   7.7056   7.7341   7.7617   7.7893   7.8211   7.8547
    10.4624  10.5472  10.6282  10.7069  11.1429  11.2209  11.8506  11.9560
    12.0346  12.0859  12.1727  12.2827  12.4430  12.4944  12.6244  12.7539
    12.8512  13.0094  13.1329  13.1444  13.1905  13.5188  13.5288  13.6589
    15.0438  15.1992  15.3906  15.7142  15.8261  16.0241  16.1121  16.6383
    16.7543  16.9167  16.9561  17.5414  17.5894

          k = 0.0000 0.3263-0.4987 ( 62528 PWs)   bands (ev):

   -66.1138 -66.1138 -66.1130 -66.1130 -66.1102 -66.1102 -66.1094 -66.1093
   -30.5354 -30.5354 -30.5087 -30.5087 -30.5059 -30.5058 -30.4787 -30.4787
   -30.4630 -30.4630 -30.4415 -30.4415 -30.4369 -30.4369 -30.4243 -30.4243
   -30.4172 -30.4172 -30.3828 -30.3828 -30.3743 -30.3743 -30.3412 -30.3412
   -20.2636 -20.2636 -20.2635 -20.2635 -20.2595 -20.2594 -20.2593 -20.2593
   -20.2490 -20.2490 -20.2486 -20.2486 -20.2482 -20.2482 -20.2467 -20.2467
   -20.2453 -20.2453 -20.2446 -20.2446 -20.2428 -20.2428 -20.2425 -20.2425
   -20.2405 -20.2405 -20.2397 -20.2397 -20.2385 -20.2384 -20.2365 -20.2365
   -20.2364 -20.2364 -20.2353 -20.2353 -20.2335 -20.2335 -20.2330 -20.2330
   -20.2270 -20.2270 -20.2257 -20.2257 -20.2196 -20.2196 -20.2191 -20.2191
   -20.2186 -20.2185 -20.2172 -20.2172 -20.2159 -20.2159 -20.2154 -20.2154
    -9.5972  -9.5972  -9.3888  -9.3888  -9.0085  -9.0085  -8.7865  -8.7865
    -8.6577  -8.6577  -8.6158  -8.6157  -8.4680  -8.4680  -8.4371  -8.4371
    -8.1756  -8.1756  -8.1246  -8.1246  -7.8349  -7.8349  -7.6723  -7.6723
     1.2920   1.2920   1.4386   1.4386   2.2702   2.2703   2.3942   2.3942
     2.8422   2.8423   3.0472   3.0472   3.0906   3.0906   3.2047   3.2047
     3.2222   3.2222   3.3228   3.3228   3.5251   3.5251   3.7033   3.7033
     3.8877   3.8877   3.9582   3.9582   4.1132   4.1132   4.2938   4.2938
     4.8304   4.8304   4.9530   4.9530   5.0717   5.0717   5.1382   5.1382
     5.3324   5.3324   5.6911   5.6912   6.0529   6.0529   6.1030   6.1030
     6.3713   6.3713   6.4679   6.4679   6.5652   6.5652   6.6997   6.6997
     7.0268   7.0268   7.0528   7.0528   7.0797   7.0797   7.4795   7.4795
     7.5030   7.5031   7.5379   7.5379   7.5849   7.5849   7.8232   7.8233
    10.6168  10.6168  11.2368  11.2368  11.3752  11.3752  11.7129  11.7129
    11.8284  11.8285  12.1015  12.1016  12.5285  12.5285  12.6294  12.6294
    12.8526  12.8526  13.0093  13.0093  13.2851  13.2851  13.5588  13.5588
    15.1360  15.1360  15.5817  15.5817  16.2288  16.2288  16.6585  16.6585
    16.8553  16.8553  17.2401  17.2401  17.9344

          k = 0.0000-0.4894 0.0000 ( 62598 PWs)   bands (ev):

   -66.1142 -66.1134 -66.1134 -66.1126 -66.1106 -66.1098 -66.1097 -66.1090
   -30.5421 -30.5375 -30.5370 -30.5320 -30.4849 -30.4794 -30.4793 -30.4753
   -30.4587 -30.4558 -30.4539 -30.4509 -30.4353 -30.4286 -30.4247 -30.4244
   -30.4219 -30.4196 -30.4152 -30.4027 -30.3432 -30.3410 -30.3392 -30.3354
   -20.2640 -20.2639 -20.2632 -20.2632 -20.2595 -20.2593 -20.2593 -20.2592
   -20.2495 -20.2494 -20.2485 -20.2484 -20.2479 -20.2476 -20.2468 -20.2466
   -20.2455 -20.2451 -20.2449 -20.2443 -20.2434 -20.2429 -20.2419 -20.2416
   -20.2409 -20.2405 -20.2400 -20.2394 -20.2390 -20.2386 -20.2372 -20.2370
   -20.2363 -20.2361 -20.2359 -20.2347 -20.2339 -20.2338 -20.2330 -20.2324
   -20.2288 -20.2272 -20.2248 -20.2237 -20.2209 -20.2203 -20.2198 -20.2194
   -20.2190 -20.2184 -20.2165 -20.2162 -20.2156 -20.2156 -20.2152 -20.2141
    -9.7751  -9.7663  -9.4446  -9.4298  -9.2475  -9.2456  -8.9896  -8.9847
    -8.5535  -8.5510  -8.5093  -8.5005  -8.4962  -8.4943  -8.4913  -8.4837
    -7.8946  -7.8831  -7.7997  -7.7934  -7.7137  -7.7121  -7.6316  -7.6251
     1.1919   1.2186   1.2521   1.2976   1.3918   1.4242   1.5626   1.5799
     2.4780   2.4864   2.9142   2.9239   2.9675   2.9905   3.2353   3.2549
     3.2635   3.2742   3.2909   3.3227   3.4194   3.5064   3.6597   3.6933
     3.7241   3.7300   4.5943   4.6388   4.6418   4.6720   5.0917   5.1696
     5.1921   5.2332   5.2337   5.2424   5.2758   5.2820   5.7300   5.7495
     5.7671   5.7682   5.7857   5.8230   5.9521   5.9651   6.0766   6.0829
     6.1920   6.2349   6.3109   6.3304   6.4655   6.4924   6.6846   6.7359
     6.8540   6.8722   6.9690   7.0113   7.2471   7.2754   7.3903   7.4087
     7.4480   7.4741   7.5526   7.5750   7.5786   7.6116   7.9519   7.9522
     9.5878   9.5925  11.1059  11.1686  11.2169  11.2563  11.3331  11.4329
    11.4341  11.5189  12.3757  12.4249  12.6848  12.7144  12.7868  12.7959
    13.2544  13.2663  13.2706  13.3048  13.3358  13.3372  13.6658  13.6899
    15.0461  15.0981  15.4219  15.4638  15.5056  15.5415  15.7200  15.7516
    16.5088  16.5102  17.8499  17.8559  17.9915

          k = 0.0000-0.4894 0.1662 ( 62656 PWs)   bands (ev):

   -66.1142 -66.1135 -66.1134 -66.1127 -66.1105 -66.1099 -66.1097 -66.1090
   -30.5371 -30.5367 -30.5327 -30.5321 -30.4871 -30.4816 -30.4791 -30.4755
   -30.4576 -30.4554 -30.4529 -30.4511 -30.4324 -30.4283 -30.4270 -30.4247
   -30.4230 -30.4187 -30.4157 -30.4002 -30.3467 -30.3429 -30.3408 -30.3395
   -20.2639 -20.2638 -20.2633 -20.2632 -20.2595 -20.2594 -20.2593 -20.2592
   -20.2494 -20.2493 -20.2485 -20.2484 -20.2480 -20.2477 -20.2468 -20.2466
   -20.2455 -20.2451 -20.2448 -20.2443 -20.2433 -20.2428 -20.2419 -20.2416
   -20.2409 -20.2405 -20.2401 -20.2395 -20.2390 -20.2386 -20.2371 -20.2369
   -20.2362 -20.2362 -20.2359 -20.2347 -20.2338 -20.2338 -20.2330 -20.2325
   -20.2286 -20.2270 -20.2251 -20.2240 -20.2206 -20.2202 -20.2197 -20.2191
   -20.2191 -20.2185 -20.2164 -20.2162 -20.2161 -20.2155 -20.2153 -20.2144
    -9.7267  -9.7145  -9.4415  -9.3612  -9.2610  -9.1681  -8.9611  -8.9393
    -8.5599  -8.5572  -8.5148  -8.4989  -8.4988  -8.4916  -8.4908  -8.4756
    -8.0085  -7.9220  -7.8804  -7.8265  -7.7991  -7.7440  -7.7090  -7.6372
     1.2633   1.2960   1.3485   1.4268   1.5005   1.6431   1.6913   1.7703
     2.5610   2.5713   2.9224   2.9265   3.0059   3.0125   3.2090   3.2544
     3.2709   3.2785   3.3050   3.3699   3.4294   3.5683   3.6563   3.7145
     3.7515   3.7627   4.3198   4.3295   4.6334   4.6939   4.8452   4.9815
     5.0189   5.0214   5.1396   5.1809   5.2655   5.2990   5.4814   5.5170
     5.7181   5.7208   5.7370   5.7433   5.8637   5.9885   6.0002   6.0875
     6.3210   6.3296   6.3556   6.4642   6.5330   6.6807   6.6873   6.8330
     6.8687   6.9219   6.9349   6.9625   7.0513   7.1353   7.3973   7.4035
     7.4464   7.4627   7.5622   7.5677   7.5707   7.6031   7.9204   7.9242
     9.8632   9.8994  11.1949  11.2394  11.2567  11.2814  11.4140  11.4532
    11.5222  11.5367  12.2773  12.4765  12.5458  12.7445  12.8371  12.8419
    13.1367  13.1742  13.1749  13.1971  13.2687  13.2748  13.6528  13.6798
    15.0463  15.1886  15.4326  15.6205  15.6995  15.7586  15.7643  16.0039
    16.5734  16.5894  17.7147  17.7876  17.8776

          k = 0.0000-0.4894 0.3325 ( 62596 PWs)   bands (ev):

   -66.1140 -66.1136 -66.1132 -66.1128 -66.1104 -66.1100 -66.1095 -66.1092
   -30.5357 -30.5333 -30.5238 -30.5190 -30.4943 -30.4891 -30.4783 -30.4763
   -30.4544 -30.4540 -30.4521 -30.4494 -30.4368 -30.4335 -30.4274 -30.4258
   -30.4248 -30.4173 -30.4035 -30.3910 -30.3620 -30.3555 -30.3422 -30.3402
   -20.2638 -20.2637 -20.2634 -20.2633 -20.2595 -20.2594 -20.2593 -20.2592
   -20.2491 -20.2490 -20.2485 -20.2484 -20.2483 -20.2481 -20.2467 -20.2467
   -20.2454 -20.2452 -20.2447 -20.2444 -20.2429 -20.2425 -20.2421 -20.2418
   -20.2408 -20.2403 -20.2403 -20.2398 -20.2389 -20.2387 -20.2368 -20.2368
   -20.2363 -20.2362 -20.2358 -20.2350 -20.2336 -20.2335 -20.2332 -20.2327
   -20.2279 -20.2265 -20.2259 -20.2247 -20.2199 -20.2198 -20.2194 -20.2193
   -20.2187 -20.2183 -20.2173 -20.2162 -20.2161 -20.2158 -20.2155 -20.2149
    -9.6345  -9.5644  -9.4778  -9.3102  -9.1283  -8.9536  -8.8596  -8.7962
    -8.6063  -8.5869  -8.5349  -8.5197  -8.4890  -8.4812  -8.4736  -8.4439
    -8.2775  -8.2076  -8.1097  -8.0466  -7.8552  -7.8146  -7.6941  -7.6524
     1.2899   1.2942   1.4338   1.4375   2.1750   2.3051   2.3053   2.4114
     2.7992   2.8081   2.9236   2.9479   3.0630   3.0997   3.1879   3.2282
     3.2638   3.2959   3.3245   3.3797   3.5332   3.6209   3.7206   3.7789
     3.7850   3.8257   3.8425   3.8519   4.3085   4.3256   4.4576   4.5312
     4.6823   4.7868   4.8162   4.8831   5.0473   5.1398   5.1604   5.1888
     5.2997   5.3857   5.5874   5.6669   5.9735   6.0325   6.1133   6.1541
     6.4005   6.4144   6.4600   6.5260   6.5510   6.6282   6.6623   6.8522
     7.0001   7.0188   7.0331   7.0848   7.2157   7.2214   7.3547   7.4020
     7.4290   7.4642   7.5405   7.5448   7.5737   7.5843   7.7921   7.8167
    10.4921  10.5864  11.2188  11.2542  11.4365  11.4459  11.5795  11.6572
    11.7339  11.8341  11.9028  12.0977  12.6296  12.6577  12.6678  12.6813
    12.7990  12.8573  12.9828  13.0580  13.2874  13.2891  13.5414  13.5493
    15.1203  15.3647  15.3949  15.6630  16.1023  16.2815  16.5851  16.7479
    16.8205  16.8651  17.2611  17.2809  17.9066

          k = 0.0000-0.4894-0.4987 ( 62608 PWs)   bands (ev):

   -66.1138 -66.1138 -66.1130 -66.1130 -66.1102 -66.1102 -66.1094 -66.1093
   -30.5345 -30.5345 -30.5075 -30.5074 -30.5025 -30.5025 -30.4773 -30.4773
   -30.4533 -30.4533 -30.4470 -30.4470 -30.4430 -30.4430 -30.4262 -30.4262
   -30.4204 -30.4204 -30.3829 -30.3828 -30.3745 -30.3744 -30.3412 -30.3412
   -20.2636 -20.2636 -20.2635 -20.2635 -20.2595 -20.2594 -20.2593 -20.2593
   -20.2487 -20.2487 -20.2485 -20.2485 -20.2485 -20.2484 -20.2467 -20.2467
   -20.2453 -20.2453 -20.2446 -20.2446 -20.2425 -20.2425 -20.2421 -20.2421
   -20.2406 -20.2406 -20.2401 -20.2401 -20.2388 -20.2388 -20.2365 -20.2365
   -20.2365 -20.2364 -20.2353 -20.2353 -20.2334 -20.2334 -20.2331 -20.2331
   -20.2270 -20.2270 -20.2257 -20.2257 -20.2196 -20.2196 -20.2191 -20.2191
   -20.2186 -20.2185 -20.2172 -20.2172 -20.2159 -20.2159 -20.2154 -20.2154
    -9.5424  -9.5424  -9.4092  -9.4092  -8.8147  -8.8147  -8.7028  -8.7028
    -8.6598  -8.6598  -8.6032  -8.6032  -8.4620  -8.4620  -8.4222  -8.4222
    -8.3850  -8.3850  -8.3284  -8.3284  -7.8357  -7.8357  -7.6732  -7.6732
     1.2938   1.2938   1.4415   1.4415   2.8431   2.8431   3.0104   3.0104
     3.0453   3.0453   3.0726   3.0726   3.0984   3.0984   3.1997   3.1997
     3.2755   3.2755   3.3191   3.3191   3.3806   3.3806   3.4821   3.4821
     3.6542   3.6542   3.7226   3.7226   4.2216   4.2216   4.2982   4.2982
     4.3039   4.3039   4.3923   4.3924   5.0811   5.0811   5.1324   5.1324
     5.3888   5.3888   5.5316   5.5316   6.0795   6.0795   6.1131   6.1131
     6.3971   6.3971   6.4721   6.4721   6.5820   6.5820   6.6231   6.6231
     7.2157   7.2157   7.2416   7.2416   7.3070   7.3070   7.4162   7.4162
     7.4720   7.4720   7.4983   7.4983   7.5515   7.5515   7.6561   7.6561
    11.1337  11.1337  11.2862  11.2862  11.3857  11.3857  11.5067  11.5067
    12.0759  12.0759  12.1113  12.1113  12.2424  12.2424  12.3024  12.3024
    12.8495  12.8496  12.9854  12.9854  13.3615  13.3615  13.3718  13.3718
    15.2550  15.2550  15.5559  15.5559  16.6942  16.6942  16.8059  16.8059
    17.3989  17.3990  17.4688  17.4690  17.5877

          k = 0.1667 0.0000 0.0000 ( 62545 PWs)   bands (ev):

   -66.1142 -66.1135 -66.1134 -66.1127 -66.1105 -66.1098 -66.1098 -66.1090
   -30.5463 -30.5405 -30.5319 -30.5311 -30.5074 -30.4988 -30.4972 -30.4857
   -30.4588 -30.4509 -30.4467 -30.4318 -30.4282 -30.4257 -30.4250 -30.4200
   -30.4124 -30.4063 -30.4017 -30.4005 -30.3488 -30.3449 -30.3407 -30.3357
   -20.2640 -20.2639 -20.2633 -20.2632 -20.2596 -20.2594 -20.2594 -20.2592
   -20.2500 -20.2496 -20.2492 -20.2484 -20.2484 -20.2473 -20.2472 -20.2464
   -20.2455 -20.2451 -20.2450 -20.2443 -20.2443 -20.2437 -20.2429 -20.2425
   -20.2407 -20.2397 -20.2396 -20.2383 -20.2379 -20.2370 -20.2368 -20.2367
   -20.2361 -20.2358 -20.2357 -20.2345 -20.2345 -20.2335 -20.2333 -20.2324
   -20.2287 -20.2273 -20.2247 -20.2238 -20.2208 -20.2200 -20.2198 -20.2192
   -20.2188 -20.2182 -20.2168 -20.2165 -20.2158 -20.2155 -20.2155 -20.2142
    -9.9361  -9.6063  -9.6031  -9.5375  -9.2633  -9.1959  -9.1612  -9.0018
    -8.9601  -8.9189  -8.8868  -8.8735  -8.0212  -7.9344  -7.9134  -7.8327
    -7.8271  -7.8068  -7.7660  -7.7495  -7.7449  -7.7206  -7.7031  -7.6281
     1.2116   1.2311   1.3347   1.3538   1.3772   1.3859   1.4498   1.5416
     1.5890   1.7399   1.7597   1.9391   2.4927   2.5224   2.6028   2.6323
     2.6551   2.7139   4.0979   4.2346   4.2670   4.3624   4.4049   4.4264
     4.5459   4.6559   4.6749   4.6942   4.7132   4.9289   5.1879   5.2309
     5.3236   5.4057   5.4601   5.4742   5.5411   5.6299   5.6335   5.6603
     5.6827   5.7542   5.8529   5.8699   5.8708   6.0181   6.0380   6.0910
     6.1038   6.3252   6.4184   6.4946   6.6111   6.6310   6.7659   6.7989
     6.8413   6.8445   6.8700   6.9163   6.9369   6.9741   6.9995   7.0303
     7.1078   7.1465   7.8941   7.9062   7.9439   7.9681   8.0860   8.1310
     9.7797   9.8549   9.8554   9.9105  10.1108  10.1549  12.2188  12.2877
    12.3910  12.4507  12.4776  12.6200  12.6200  12.7220  12.7757  12.7974
    12.9434  13.1292  13.3011  13.4105  13.6229  13.7062  13.8953  14.0073
    14.5882  14.6524  14.8349  14.8767  15.1904  15.2592  15.6869  15.8355
    16.2375  16.6866  16.9836  17.1979  17.3336

          k = 0.1667 0.0000 0.1662 ( 62564 PWs)   bands (ev):

   -66.1142 -66.1135 -66.1134 -66.1128 -66.1105 -66.1098 -66.1097 -66.1091
   -30.5430 -30.5362 -30.5319 -30.5295 -30.5082 -30.4983 -30.4974 -30.4846
   -30.4611 -30.4499 -30.4496 -30.4310 -30.4306 -30.4232 -30.4219 -30.4199
   -30.4110 -30.4076 -30.4029 -30.3986 -30.3485 -30.3463 -30.3453 -30.3410
   -20.2639 -20.2638 -20.2633 -20.2632 -20.2596 -20.2594 -20.2594 -20.2592
   -20.2499 -20.2495 -20.2492 -20.2485 -20.2483 -20.2474 -20.2472 -20.2465
   -20.2455 -20.2451 -20.2450 -20.2443 -20.2442 -20.2436 -20.2430 -20.2426
   -20.2406 -20.2398 -20.2395 -20.2384 -20.2379 -20.2371 -20.2367 -20.2366
   -20.2360 -20.2358 -20.2358 -20.2346 -20.2344 -20.2335 -20.2333 -20.2325
   -20.2285 -20.2271 -20.2250 -20.2241 -20.2205 -20.2200 -20.2197 -20.2190
   -20.2188 -20.2183 -20.2167 -20.2164 -20.2162 -20.2156 -20.2155 -20.2145
    -9.8913  -9.5521  -9.5486  -9.5465  -9.2049  -9.1861  -9.1721  -8.9804
    -8.9232  -8.8812  -8.8785  -8.8640  -8.0368  -7.9988  -7.9460  -7.9418
    -7.8325  -7.8197  -7.8119  -7.7707  -7.7629  -7.7502  -7.7394  -7.7239
     1.3432   1.3713   1.3761   1.4469   1.4630   1.4856   1.5512   1.5899
     1.7110   1.7440   1.8425   2.0094   2.5514   2.5955   2.6446   2.7059
     2.7159   2.7457   4.0793   4.1335   4.2781   4.3071   4.3705   4.3990
     4.4282   4.4868   4.5227   4.5801   4.6855   4.7540   5.1197   5.1613
     5.1848   5.3227   5.3375   5.4292   5.4605   5.5472   5.6123   5.6427
     5.6946   5.7360   5.7398   5.8335   5.8977   6.0094   6.0583   6.0972
     6.1848   6.4719   6.4991   6.5775   6.6201   6.6264   6.7275   6.7412
     6.7776   6.7864   6.8302   6.8390   6.8643   6.9194   6.9571   7.0429
     7.1083   7.1266   7.8755   7.8855   7.9494   7.9591   8.0412   8.0917
     9.9864   9.9944  10.0745  10.1065  10.2060  10.2727  12.2506  12.3067
    12.3378  12.3960  12.4831  12.5782  12.6527  12.6706  12.7078  12.8029
    12.9588  13.0023  13.3513  13.3944  13.6407  13.6867  13.8488  13.8914
    14.6278  14.7582  14.8403  14.9826  15.2757  15.3690  15.6650  16.1387
    16.2023  16.8446  16.8899  17.1376  17.4168

          k = 0.1667 0.0000 0.3325 ( 62542 PWs)   bands (ev):

   -66.1140 -66.1136 -66.1133 -66.1129 -66.1103 -66.1099 -66.1096 -66.1092
   -30.5376 -30.5329 -30.5258 -30.5217 -30.5107 -30.5021 -30.4923 -30.4805
   -30.4691 -30.4596 -30.4466 -30.4371 -30.4289 -30.4242 -30.4155 -30.4148
   -30.4101 -30.4057 -30.4014 -30.3909 -30.3615 -30.3560 -30.3478 -30.3457
   -20.2638 -20.2637 -20.2634 -20.2633 -20.2595 -20.2594 -20.2594 -20.2593
   -20.2497 -20.2493 -20.2493 -20.2487 -20.2482 -20.2476 -20.2470 -20.2467
   -20.2454 -20.2451 -20.2449 -20.2445 -20.2439 -20.2434 -20.2432 -20.2428
   -20.2405 -20.2400 -20.2393 -20.2387 -20.2377 -20.2372 -20.2365 -20.2364
   -20.2360 -20.2359 -20.2356 -20.2348 -20.2341 -20.2335 -20.2333 -20.2327
   -20.2278 -20.2266 -20.2258 -20.2248 -20.2197 -20.2197 -20.2193 -20.2191
   -20.2185 -20.2183 -20.2172 -20.2165 -20.2163 -20.2159 -20.2158 -20.2151
    -9.7845  -9.5954  -9.4167  -9.4111  -9.2351  -9.2084  -8.9703  -8.9350
    -8.8896  -8.8284  -8.7385  -8.7329  -8.3081  -8.2559  -8.1203  -8.0997
    -7.9787  -7.9385  -7.8167  -7.8033  -7.7772  -7.7614  -7.7551  -7.7329
     1.3596   1.3694   1.4250   1.4409   1.5872   1.5934   1.7087   1.7482
     2.2189   2.3432   2.3771   2.4959   2.6003   2.6806   2.8336   2.8703
     2.9663   2.9814   3.7113   3.8131   3.9136   3.9516   3.9788   4.2641
     4.3510   4.3857   4.4270   4.4752   4.5841   4.6790   4.7228   4.8095
     4.9614   5.0399   5.1003   5.1117   5.2137   5.3837   5.4813   5.6516
     5.6809   5.7768   5.7838   5.8372   5.8841   5.9109   5.9735   6.1004
     6.3016   6.3836   6.4425   6.4820   6.5386   6.5633   6.6720   6.7656
     6.7793   6.8327   6.8659   6.8844   6.9561   7.0252   7.1369   7.1555
     7.2047   7.2702   7.7633   7.7790   7.8655   7.8934   7.9800   8.0107
    10.0656  10.0664  10.6000  10.6918  10.7369  10.8690  11.9353  12.0364
    12.1301  12.2807  12.3403  12.4416  12.5965  12.7281  12.7910  12.8237
    12.9349  13.0448  13.2215  13.2791  13.5493  13.5643  13.6994  13.7111
    14.7368  14.8324  15.0723  15.2699  15.5695  15.6721  15.7953  16.0650
    16.3787  16.9896  17.3194  17.3682  17.5649

          k = 0.1667 0.0000-0.4987 ( 62486 PWs)   bands (ev):

   -66.1138 -66.1138 -66.1131 -66.1131 -66.1101 -66.1101 -66.1094 -66.1094
   -30.5347 -30.5347 -30.5161 -30.5161 -30.5101 -30.5101 -30.4818 -30.4817
   -30.4718 -30.4718 -30.4426 -30.4426 -30.4268 -30.4268 -30.4124 -30.4124
   -30.4096 -30.4095 -30.3821 -30.3820 -30.3749 -30.3749 -30.3468 -30.3467
   -20.2636 -20.2636 -20.2635 -20.2635 -20.2595 -20.2595 -20.2593 -20.2593
   -20.2495 -20.2495 -20.2490 -20.2490 -20.2479 -20.2479 -20.2469 -20.2469
   -20.2452 -20.2452 -20.2447 -20.2446 -20.2435 -20.2435 -20.2431 -20.2431
   -20.2402 -20.2402 -20.2390 -20.2390 -20.2375 -20.2374 -20.2363 -20.2363
   -20.2361 -20.2361 -20.2352 -20.2351 -20.2338 -20.2338 -20.2330 -20.2330
   -20.2269 -20.2269 -20.2257 -20.2257 -20.2194 -20.2194 -20.2190 -20.2190
   -20.2184 -20.2184 -20.2172 -20.2172 -20.2162 -20.2162 -20.2156 -20.2156
    -9.6740  -9.6740  -9.2994  -9.2994  -9.2833  -9.2833  -8.9073  -8.9073
    -8.6565  -8.6565  -8.6024  -8.6024  -8.4725  -8.4725  -8.4407  -8.4407
    -7.9661  -7.9661  -7.8040  -7.8039  -7.7757  -7.7757  -7.7449  -7.7449
     1.3635   1.3635   1.4348   1.4348   1.5969   1.5969   1.7476   1.7476
     2.6290   2.6290   3.0296   3.0296   3.0705   3.0706   3.1603   3.1603
     3.2192   3.2192   3.3224   3.3224   3.5363   3.5363   3.6843   3.6843
     3.7859   3.7859   4.3325   4.3325   4.5268   4.5268   4.8989   4.8989
     4.9378   4.9378   5.0122   5.0122   5.1899   5.1899   5.5793   5.5793
     5.7123   5.7123   5.7445   5.7445   5.8934   5.8934   6.0592   6.0592
     6.2838   6.2838   6.4450   6.4450   6.4683   6.4683   6.7395   6.7395
     6.8134   6.8134   6.8918   6.8918   6.9491   6.9491   7.4920   7.4920
     7.5347   7.5347   7.5866   7.5866   7.6392   7.6392   7.9881   7.9881
    10.0718  10.0718  11.2972  11.2972  11.4067  11.4067  11.4582  11.4582
    11.6176  11.6176  12.4234  12.4234  12.7583  12.7583  12.8688  12.8688
    13.0270  13.0270  13.2336  13.2336  13.2658  13.2658  13.6781  13.6781
    14.8035  14.8035  15.3799  15.3799  15.6837  15.6837  16.0098  16.0098
    16.6415  16.6415  17.7153  17.7153  17.9065

          k = 0.1667 0.1631 0.0000 ( 62551 PWs)   bands (ev):

   -66.1142 -66.1135 -66.1134 -66.1127 -66.1105 -66.1098 -66.1098 -66.1090
   -30.5452 -30.5398 -30.5317 -30.5301 -30.5033 -30.4956 -30.4948 -30.4822
   -30.4607 -30.4512 -30.4471 -30.4338 -30.4278 -30.4268 -30.4256 -30.4202
   -30.4151 -30.4095 -30.4047 -30.4021 -30.3488 -30.3449 -30.3407 -30.3358
   -20.2640 -20.2639 -20.2632 -20.2632 -20.2596 -20.2594 -20.2594 -20.2592
   -20.2499 -20.2496 -20.2490 -20.2484 -20.2482 -20.2474 -20.2471 -20.2465
   -20.2455 -20.2450 -20.2450 -20.2443 -20.2441 -20.2436 -20.2427 -20.2423
   -20.2407 -20.2398 -20.2397 -20.2385 -20.2381 -20.2373 -20.2369 -20.2367
   -20.2361 -20.2359 -20.2357 -20.2345 -20.2344 -20.2336 -20.2332 -20.2324
   -20.2287 -20.2273 -20.2247 -20.2238 -20.2208 -20.2200 -20.2198 -20.2192
   -20.2188 -20.2182 -20.2168 -20.2165 -20.2158 -20.2155 -20.2155 -20.2142
    -9.9003  -9.6153  -9.5685  -9.4919  -9.2630  -9.1621  -9.1152  -8.9769
    -8.9591  -8.8828  -8.8659  -8.8444  -8.0349  -7.9537  -7.9407  -7.8999
    -7.8731  -7.8684  -7.8371  -7.8203  -7.7933  -7.7451  -7.7040  -7.6291
     1.2213   1.2443   1.3448   1.3802   1.4932   1.5275   1.6218   1.6789
     1.7418   1.7709   1.8372   2.0232   2.5150   2.5886   2.6155   2.6970
     2.7378   2.7901   4.0015   4.0889   4.1514   4.2419   4.3109   4.3557
     4.4242   4.5711   4.6277   4.6966   4.7695   4.8741   5.0258   5.1816
     5.2443   5.3309   5.3883   5.3963   5.4630   5.5478   5.6021   5.6528
     5.7159   5.7337   5.7913   5.9110   5.9223   5.9727   6.0491   6.0763
     6.1328   6.3488   6.3932   6.4856   6.6250   6.6412   6.7392   6.7590
     6.8053   6.8381   6.8907   6.9156   6.9392   6.9816   6.9979   7.0150
     7.1062   7.1530   7.8767   7.9008   7.9295   7.9545   8.0388   8.0630
     9.8301   9.8818  10.0422  10.0746  10.2861  10.3225  12.1666  12.2831
    12.3908  12.4005  12.4462  12.4680  12.5930  12.6465  12.7312  12.8137
    12.8978  13.0979  13.2777  13.4108  13.6255  13.7111  13.8387  13.9268
    14.7389  14.8233  14.9832  15.0410  15.1869  15.2710  15.8068  16.0941
    16.2116  16.6991  16.8350  17.3163  17.3992

          k = 0.1667 0.1631 0.1662 ( 62558 PWs)   bands (ev):

   -66.1142 -66.1135 -66.1134 -66.1128 -66.1105 -66.1098 -66.1097 -66.1091
   -30.5415 -30.5352 -30.5307 -30.5298 -30.5041 -30.4961 -30.4944 -30.4811
   -30.4629 -30.4500 -30.4499 -30.4327 -30.4301 -30.4247 -30.4231 -30.4200
   -30.4134 -30.4109 -30.4060 -30.3999 -30.3485 -30.3463 -30.3453 -30.3411
   -20.2639 -20.2638 -20.2633 -20.2632 -20.2595 -20.2594 -20.2594 -20.2592
   -20.2498 -20.2495 -20.2491 -20.2483 -20.2483 -20.2475 -20.2471 -20.2465
   -20.2455 -20.2451 -20.2450 -20.2443 -20.2440 -20.2435 -20.2428 -20.2424
   -20.2407 -20.2398 -20.2397 -20.2386 -20.2381 -20.2374 -20.2368 -20.2366
   -20.2360 -20.2359 -20.2357 -20.2346 -20.2343 -20.2336 -20.2333 -20.2325
   -20.2285 -20.2271 -20.2250 -20.2241 -20.2205 -20.2200 -20.2197 -20.2190
   -20.2188 -20.2183 -20.2167 -20.2164 -20.2162 -20.2156 -20.2155 -20.2145
    -9.8537  -9.5598  -9.5064  -9.5046  -9.1856  -9.1737  -9.1242  -8.9530
    -8.9217  -8.8518  -8.8501  -8.8456  -8.0516  -8.0010  -7.9605  -7.9552
    -7.9056  -7.8761  -7.8718  -7.8393  -7.8191  -7.8112  -7.7504  -7.7438
     1.4348   1.4637   1.4753   1.4955   1.5629   1.6012   1.6254   1.6791
     1.8042   1.8364   1.8446   2.0785   2.5982   2.6386   2.7001   2.7390
     2.7851   2.8236   4.0069   4.0495   4.1690   4.2174   4.3128   4.3612
     4.3968   4.4167   4.4384   4.5804   4.5923   4.6677   4.9914   5.0675
     5.1160   5.2791   5.3215   5.3604   5.3852   5.4004   5.4259   5.5907
     5.6869   5.7180   5.8094   5.8858   5.9012   5.9345   6.0099   6.0709
     6.2607   6.4288   6.4646   6.5960   6.6194   6.6255   6.6870   6.7052
     6.7539   6.8204   6.8690   6.8758   6.9307   6.9399   7.0031   7.0263
     7.1118   7.1308   7.8619   7.8845   7.9216   7.9421   7.9981   8.0282
    10.0611  10.0668  10.2415  10.2509  10.3296  10.3980  12.2100  12.3098
    12.3231  12.3631  12.4762  12.5050  12.5764  12.6264  12.6832  12.7450
    12.9010  12.9414  13.3236  13.3866  13.6193  13.6742  13.7854  13.8096
    14.8281  14.9708  15.0165  15.1052  15.2703  15.3840  16.0394  16.1388
    16.1826  16.8217  16.9693  17.0100  17.4749

          k = 0.1667 0.1631 0.3325 ( 62555 PWs)   bands (ev):

   -66.1140 -66.1136 -66.1133 -66.1129 -66.1103 -66.1100 -66.1096 -66.1092
   -30.5360 -30.5316 -30.5242 -30.5219 -30.5068 -30.5004 -30.4903 -30.4773
   -30.4701 -30.4586 -30.4470 -30.4367 -30.4307 -30.4252 -30.4182 -30.4170
   -30.4133 -30.4090 -30.4020 -30.3914 -30.3616 -30.3560 -30.3478 -30.3458
   -20.2638 -20.2637 -20.2634 -20.2633 -20.2595 -20.2594 -20.2593 -20.2593
   -20.2496 -20.2492 -20.2492 -20.2485 -20.2482 -20.2477 -20.2470 -20.2467
   -20.2454 -20.2451 -20.2448 -20.2445 -20.2437 -20.2433 -20.2430 -20.2426
   -20.2405 -20.2400 -20.2395 -20.2389 -20.2379 -20.2375 -20.2366 -20.2365
   -20.2361 -20.2360 -20.2356 -20.2348 -20.2341 -20.2335 -20.2333 -20.2327
   -20.2278 -20.2266 -20.2259 -20.2248 -20.2197 -20.2197 -20.2193 -20.2191
   -20.2185 -20.2183 -20.2172 -20.2165 -20.2163 -20.2159 -20.2158 -20.2151
    -9.7429  -9.5499  -9.4244  -9.3558  -9.2124  -9.1552  -8.9700  -8.8996
    -8.8590  -8.8279  -8.7288  -8.7241  -8.3102  -8.2592  -8.1243  -8.1071
    -7.9867  -7.9507  -7.9037  -7.8760  -7.8678  -7.8448  -7.8022  -7.7633
     1.4879   1.4956   1.6251   1.6283   1.6562   1.6717   1.7716   1.8350
     2.2214   2.3476   2.3791   2.5038   2.6802   2.7566   2.8560   2.9417
     2.9690   3.0526   3.7215   3.8358   3.9029   3.9274   4.0117   4.1823
     4.2661   4.3379   4.3639   4.4293   4.4614   4.5723   4.6870   4.7345
     4.8361   4.9187   4.9630   5.0309   5.1528   5.2139   5.4021   5.4495
     5.6289   5.6899   5.7387   5.7961   5.8403   5.9042   5.9286   5.9738
     6.3136   6.4155   6.5258   6.5618   6.5995   6.6584   6.6998   6.7422
     6.7893   6.8353   6.8952   6.9601   6.9779   7.0356   7.1468   7.1554
     7.2161   7.2770   7.7627   7.7737   7.8395   7.8643   7.9441   7.9620
    10.2463  10.2581  10.6355  10.7176  10.8352  10.9368  11.9367  12.0566
    12.1521  12.3036  12.3414  12.4641  12.5554  12.5992  12.6775  12.7565
    12.8264  12.9638  13.1997  13.2632  13.4499  13.4722  13.6679  13.6791
    14.9503  15.0127  15.3405  15.3973  15.6796  15.8199  15.9527  16.0835
    16.4628  16.9763  17.2141  17.3770  17.4509

          k = 0.1667 0.1631-0.4987 ( 62534 PWs)   bands (ev):

   -66.1138 -66.1138 -66.1131 -66.1131 -66.1102 -66.1101 -66.1094 -66.1094
   -30.5332 -30.5332 -30.5131 -30.5131 -30.5094 -30.5094 -30.4814 -30.4814
   -30.4696 -30.4696 -30.4427 -30.4427 -30.4283 -30.4283 -30.4153 -30.4153
   -30.4127 -30.4127 -30.3822 -30.3822 -30.3750 -30.3750 -30.3468 -30.3468
   -20.2636 -20.2636 -20.2635 -20.2635 -20.2595 -20.2594 -20.2593 -20.2593
   -20.2493 -20.2493 -20.2489 -20.2488 -20.2480 -20.2479 -20.2469 -20.2469
   -20.2452 -20.2452 -20.2446 -20.2446 -20.2433 -20.2433 -20.2430 -20.2430
   -20.2403 -20.2403 -20.2392 -20.2392 -20.2377 -20.2377 -20.2363 -20.2363
   -20.2362 -20.2362 -20.2352 -20.2352 -20.2338 -20.2338 -20.2331 -20.2330
   -20.2269 -20.2269 -20.2257 -20.2257 -20.2194 -20.2194 -20.2190 -20.2190
   -20.2184 -20.2184 -20.2172 -20.2172 -20.2162 -20.2162 -20.2156 -20.2156
    -9.6295  -9.6295  -9.2918  -9.2918  -9.2242  -9.2242  -8.8745  -8.8745
    -8.6581  -8.6580  -8.6030  -8.6030  -8.4720  -8.4720  -8.4407  -8.4407
    -7.9775  -7.9775  -7.8908  -7.8908  -7.8581  -7.8581  -7.7829  -7.7829
     1.4918   1.4918   1.6334   1.6334   1.6688   1.6688   1.8278   1.8278
     2.7048   2.7048   3.0411   3.0411   3.0885   3.0885   3.1713   3.1713
     3.2219   3.2220   3.3457   3.3457   3.5448   3.5448   3.7329   3.7329
     3.7999   3.7999   4.2840   4.2840   4.3591   4.3591   4.7313   4.7313
     4.8377   4.8377   4.9530   4.9530   5.0188   5.0188   5.4885   5.4885
     5.5755   5.5755   5.7021   5.7021   5.7988   5.7988   5.9375   5.9375
     6.4086   6.4086   6.5257   6.5257   6.6277   6.6278   6.7097   6.7097
     6.8035   6.8035   6.9124   6.9124   7.0047   7.0047   7.4936   7.4936
     7.5288   7.5288   7.5784   7.5784   7.6275   7.6275   7.9479   7.9479
    10.2622  10.2622  11.3108  11.3108  11.4232  11.4232  11.5252  11.5252
    11.6604  11.6604  12.4481  12.4481  12.6025  12.6025  12.8469  12.8469
    12.9906  12.9906  13.1048  13.1048  13.1897  13.1897  13.6472  13.6473
    14.9947  14.9947  15.6803  15.6803  15.8197  15.8197  16.0322  16.0322
    16.6937  16.6937  17.6259  17.6259  17.8236

          k = 0.1667 0.3263 0.0000 ( 62596 PWs)   bands (ev):

   -66.1142 -66.1135 -66.1134 -66.1127 -66.1105 -66.1098 -66.1098 -66.1090
   -30.5429 -30.5384 -30.5318 -30.5279 -30.4923 -30.4886 -30.4873 -30.4718
   -30.4671 -30.4525 -30.4485 -30.4419 -30.4331 -30.4254 -30.4247 -30.4221
   -30.4186 -30.4161 -30.4120 -30.4047 -30.3489 -30.3449 -30.3407 -30.3358
   -20.2640 -20.2639 -20.2632 -20.2632 -20.2595 -20.2594 -20.2593 -20.2592
   -20.2496 -20.2495 -20.2486 -20.2484 -20.2479 -20.2476 -20.2470 -20.2466
   -20.2455 -20.2451 -20.2450 -20.2443 -20.2437 -20.2432 -20.2422 -20.2419
   -20.2409 -20.2403 -20.2398 -20.2390 -20.2386 -20.2380 -20.2372 -20.2367
   -20.2362 -20.2361 -20.2356 -20.2346 -20.2343 -20.2338 -20.2332 -20.2325
   -20.2287 -20.2273 -20.2248 -20.2238 -20.2208 -20.2200 -20.2198 -20.2192
   -20.2188 -20.2182 -20.2168 -20.2165 -20.2158 -20.2155 -20.2155 -20.2142
    -9.8147  -9.6531  -9.4930  -9.3962  -9.2623  -9.1653  -8.9567  -8.9486
    -8.8867  -8.7521  -8.7479  -8.7310  -8.2272  -8.1768  -8.1720  -8.1488
    -7.9923  -7.9121  -7.8919  -7.8234  -7.8046  -7.7476  -7.7056  -7.6303
     1.2242   1.2502   1.3451   1.3926   1.5354   1.6635   1.6840   1.7893
     2.2723   2.3678   2.4047   2.5194   2.5420   2.5958   2.8185   2.9643
     3.0005   3.0196   3.6210   3.6420   3.7431   3.7985   4.0602   4.3124
     4.3315   4.4499   4.5015   4.5949   4.6565   4.7619   4.8101   4.8288
     4.9760   5.0061   5.1315   5.2647   5.2716   5.4607   5.5162   5.6262
     5.6887   5.7269   5.7686   5.8030   5.9212   5.9916   6.0316   6.0775
     6.2249   6.2850   6.4261   6.4790   6.5826   6.6791   6.7905   6.7985
     6.8703   6.9009   6.9344   6.9565   7.0345   7.0664   7.0994   7.1256
     7.1609   7.2009   7.7585   7.7938   7.8465   7.8653   7.9263   7.9345
     9.8544   9.9014  10.5501  10.5933  10.7699  10.8163  11.8408  11.9619
    12.0397  12.1346  12.3039  12.4289  12.5382  12.6816  12.7220  12.8638
    12.9466  13.1390  13.1950  13.3505  13.4597  13.6101  13.6342  13.7469
    15.0012  15.1559  15.2053  15.3003  15.4933  15.6878  15.7620  16.1268
    16.1831  17.0500  17.2061  17.3489  17.5951

          k = 0.1667 0.3263 0.1662 ( 62568 PWs)   bands (ev):

   -66.1141 -66.1135 -66.1134 -66.1127 -66.1105 -66.1098 -66.1097 -66.1091
   -30.5385 -30.5335 -30.5308 -30.5282 -30.4933 -30.4903 -30.4867 -30.4709
   -30.4688 -30.4514 -30.4500 -30.4410 -30.4306 -30.4275 -30.4254 -30.4205
   -30.4172 -30.4170 -30.4135 -30.4020 -30.3487 -30.3463 -30.3452 -30.3413
   -20.2639 -20.2638 -20.2633 -20.2632 -20.2595 -20.2594 -20.2593 -20.2592
   -20.2495 -20.2494 -20.2486 -20.2484 -20.2480 -20.2477 -20.2470 -20.2466
   -20.2454 -20.2451 -20.2449 -20.2444 -20.2436 -20.2431 -20.2422 -20.2420
   -20.2408 -20.2402 -20.2399 -20.2391 -20.2385 -20.2381 -20.2370 -20.2367
   -20.2362 -20.2360 -20.2357 -20.2346 -20.2342 -20.2338 -20.2332 -20.2326
   -20.2285 -20.2271 -20.2251 -20.2241 -20.2205 -20.2200 -20.2197 -20.2190
   -20.2188 -20.2183 -20.2167 -20.2164 -20.2162 -20.2156 -20.2155 -20.2145
    -9.7635  -9.5988  -9.4170  -9.4093  -9.1845  -9.1787  -8.9225  -8.9164
    -8.8957  -8.7404  -8.7354  -8.7329  -8.2314  -8.1815  -8.1733  -8.1557
    -8.0011  -7.9877  -7.9281  -7.9165  -7.8235  -7.8181  -7.7525  -7.7467
     1.4465   1.4718   1.4987   1.5368   1.6423   1.6674   1.7811   1.8410
     2.2779   2.3697   2.4003   2.5223   2.6264   2.6847   2.8616   3.0054
     3.0238   3.0745   3.6493   3.6917   3.7417   3.8058   4.0407   4.3185
     4.3483   4.3657   4.4016   4.4646   4.5230   4.6843   4.7449   4.7710
     4.8084   4.8524   5.0467   5.0672   5.2553   5.3020   5.3690   5.4029
     5.6534   5.6860   5.7010   5.7047   5.8047   5.8561   6.0041   6.0310
     6.3357   6.4672   6.5143   6.6095   6.6550   6.6762   6.6969   6.7286
     6.8950   6.9259   6.9658   6.9860   7.0347   7.0403   7.1039   7.1236
     7.1767   7.1919   7.7560   7.7859   7.8263   7.8393   7.8974   7.9103
    10.1015  10.1088  10.6982  10.7221  10.7829  10.8558  11.9124  12.0078
    12.0443  12.1510  12.3379  12.3598  12.5683  12.5854  12.7140  12.8535
    12.8995  12.9523  13.2081  13.3167  13.4096  13.4710  13.6476  13.6584
    15.1276  15.2507  15.3790  15.4617  15.5236  15.7437  16.0617  16.1031
    16.3105  17.0197  17.2649  17.3543  17.4386

          k = 0.1667 0.3263 0.3325 ( 62566 PWs)   bands (ev):

   -66.1140 -66.1136 -66.1133 -66.1129 -66.1103 -66.1100 -66.1096 -66.1092
   -30.5325 -30.5292 -30.5229 -30.5207 -30.4973 -30.4961 -30.4846 -30.4739
   -30.4679 -30.4551 -30.4483 -30.4391 -30.4351 -30.4305 -30.4247 -30.4204
   -30.4184 -30.4163 -30.4028 -30.3924 -30.3617 -30.3560 -30.3479 -30.3459
   -20.2638 -20.2637 -20.2634 -20.2633 -20.2595 -20.2594 -20.2593 -20.2592
   -20.2493 -20.2490 -20.2488 -20.2483 -20.2482 -20.2479 -20.2469 -20.2467
   -20.2454 -20.2452 -20.2448 -20.2445 -20.2432 -20.2429 -20.2425 -20.2422
   -20.2406 -20.2401 -20.2400 -20.2394 -20.2384 -20.2382 -20.2368 -20.2365
   -20.2363 -20.2359 -20.2357 -20.2349 -20.2340 -20.2335 -20.2334 -20.2329
   -20.2278 -20.2266 -20.2259 -20.2248 -20.2197 -20.2197 -20.2194 -20.2191
   -20.2185 -20.2183 -20.2172 -20.2165 -20.2163 -20.2159 -20.2158 -20.2151
    -9.6444  -9.4624  -9.4505  -9.2248  -9.2188  -8.9707  -8.9297  -8.8279
    -8.8099  -8.7446  -8.6867  -8.6573  -8.3418  -8.2945  -8.1991  -8.1906
    -8.1619  -8.1471  -8.0846  -8.0359  -7.9629  -7.9218  -7.8069  -7.7663
     1.5334   1.5440   1.6649   1.6796   2.1184   2.1783   2.2534   2.3098
     2.3742   2.4103   2.4650   2.6246   2.8694   2.9053   2.9439   3.0052
     3.2096   3.2737   3.6572   3.7001   3.7407   3.8055   3.8753   3.9329
     4.0075   4.1589   4.2423   4.3083   4.3787   4.4850   4.5285   4.5626
     4.6814   4.7680   4.7995   4.8442   4.8722   4.9483   5.0228   5.2028
     5.2773   5.3289   5.3468   5.6150   5.7017   5.8269   5.9001   5.9275
     6.4849   6.5116   6.6000   6.6369   6.7282   6.7947   6.8490   6.8855
     6.9493   6.9699   7.0061   7.0466   7.0881   7.1186   7.1796   7.2213
     7.2636   7.3072   7.7041   7.7206   7.7559   7.7815   7.8025   7.8376
    10.6073  10.6679  10.7846  10.8522  11.1520  11.2330  11.9181  12.0050
    12.0863  12.1322  12.1904  12.2897  12.4482  12.4990  12.5319  12.6587
    12.8084  12.9167  13.0184  13.1292  13.2301  13.3215  13.5078  13.5321
    15.2772  15.4273  15.5885  15.9081  15.9416  16.0742  16.1262  16.6990
    16.8021  16.8907  16.9521  17.4938  17.6059

          k = 0.1667 0.3263-0.4987 ( 62558 PWs)   bands (ev):

   -66.1138 -66.1138 -66.1131 -66.1131 -66.1102 -66.1101 -66.1094 -66.1094
   -30.5306 -30.5306 -30.5081 -30.5081 -30.5062 -30.5062 -30.4803 -30.4803
   -30.4623 -30.4623 -30.4431 -30.4431 -30.4357 -30.4356 -30.4204 -30.4204
   -30.4190 -30.4190 -30.3824 -30.3824 -30.3753 -30.3753 -30.3469 -30.3469
   -20.2636 -20.2636 -20.2635 -20.2635 -20.2594 -20.2594 -20.2593 -20.2593
   -20.2490 -20.2490 -20.2486 -20.2486 -20.2481 -20.2481 -20.2468 -20.2468
   -20.2453 -20.2453 -20.2446 -20.2446 -20.2428 -20.2428 -20.2425 -20.2425
   -20.2404 -20.2404 -20.2397 -20.2397 -20.2383 -20.2383 -20.2365 -20.2365
   -20.2362 -20.2362 -20.2352 -20.2352 -20.2337 -20.2337 -20.2332 -20.2332
   -20.2269 -20.2269 -20.2258 -20.2257 -20.2194 -20.2194 -20.2190 -20.2190
   -20.2185 -20.2184 -20.2172 -20.2172 -20.2162 -20.2162 -20.2156 -20.2156
    -9.5285  -9.5285  -9.3165  -9.3165  -9.0226  -9.0226  -8.7642  -8.7642
    -8.6687  -8.6687  -8.6057  -8.6057  -8.4679  -8.4679  -8.4393  -8.4393
    -8.1728  -8.1728  -8.1309  -8.1309  -7.9466  -7.9466  -7.7866  -7.7866
     1.5420   1.5420   1.6823   1.6823   2.2755   2.2755   2.3840   2.3840
     2.9123   2.9123   3.0712   3.0712   3.1012   3.1012   3.2058   3.2058
     3.2307   3.2307   3.3974   3.3974   3.5671   3.5671   3.7429   3.7429
     3.8820   3.8820   3.9722   3.9722   4.1026   4.1026   4.3045   4.3045
     4.6889   4.6890   4.8412   4.8412   4.9192   4.9192   4.9832   4.9832
     5.0751   5.0751   5.4344   5.4344   5.7534   5.7534   5.8453   5.8453
     6.5493   6.5493   6.6606   6.6606   6.7552   6.7552   6.8148   6.8148
     7.0132   7.0132   7.0555   7.0555   7.1415   7.1415   7.4848   7.4848
     7.5041   7.5041   7.5411   7.5411   7.5878   7.5878   7.8048   7.8048
    10.7579  10.7579  11.3325  11.3325  11.4526  11.4526  11.7304  11.7305
    11.8415  11.8415  12.1520  12.1520  12.4936  12.4936  12.6248  12.6248
    12.8059  12.8059  12.9293  12.9293  13.1512  13.1513  13.4584  13.4585
    15.3788  15.3788  15.8298  15.8298  16.3075  16.3075  16.6449  16.6449
    16.8881  16.8881  17.2786  17.2786  17.7915

          k = 0.1667-0.4894 0.0000 ( 62624 PWs)   bands (ev):

   -66.1142 -66.1135 -66.1134 -66.1127 -66.1105 -66.1098 -66.1098 -66.1090
   -30.5418 -30.5378 -30.5319 -30.5270 -30.4844 -30.4816 -30.4796 -30.4774
   -30.4583 -30.4550 -30.4542 -30.4498 -30.4368 -30.4257 -30.4238 -30.4200
   -30.4199 -30.4191 -30.4183 -30.4057 -30.3490 -30.3449 -30.3407 -30.3359
   -20.2640 -20.2639 -20.2632 -20.2632 -20.2595 -20.2594 -20.2593 -20.2592
   -20.2495 -20.2494 -20.2484 -20.2483 -20.2479 -20.2476 -20.2469 -20.2467
   -20.2455 -20.2451 -20.2449 -20.2444 -20.2434 -20.2429 -20.2419 -20.2416
   -20.2409 -20.2405 -20.2399 -20.2394 -20.2388 -20.2384 -20.2372 -20.2367
   -20.2363 -20.2362 -20.2356 -20.2346 -20.2341 -20.2341 -20.2331 -20.2326
   -20.2287 -20.2273 -20.2248 -20.2238 -20.2208 -20.2200 -20.2198 -20.2192
   -20.2188 -20.2182 -20.2168 -20.2165 -20.2158 -20.2155 -20.2155 -20.2142
    -9.7366  -9.7070  -9.4564  -9.3472  -9.2620  -9.1681  -8.9553  -8.9435
    -8.5610  -8.5585  -8.5141  -8.5014  -8.4988  -8.4884  -8.4848  -8.4805
    -7.9963  -7.9140  -7.8945  -7.8240  -7.8055  -7.7484  -7.7063  -7.6309
     1.2244   1.2511   1.3447   1.3948   1.5393   1.6689   1.7035   1.7993
     2.5615   2.5687   2.9125   2.9221   2.9941   3.0350   3.2064   3.2468
     3.2486   3.2930   3.2963   3.4157   3.4571   3.5380   3.6636   3.7175
     3.7426   3.7588   4.3401   4.3484   4.6014   4.6081   4.9245   4.9837
     5.0363   5.0489   5.1093   5.1631   5.2400   5.2828   5.5073   5.5310
     5.7131   5.7183   5.7206   5.7369   5.8328   6.0052   6.0441   6.0911
     6.2610   6.3302   6.3663   6.4808   6.5178   6.6884   6.7172   6.7996
     6.9009   6.9034   6.9595   6.9621   7.0758   7.1163   7.3900   7.4200
     7.4378   7.4781   7.5518   7.5749   7.5814   7.6040   7.9243   7.9270
     9.8598   9.9057  11.1112  11.1645  11.2965  11.3383  11.3646  11.4490
    11.5263  11.6137  12.3109  12.4329  12.5653  12.7244  12.8223  12.8340
    13.1027  13.1504  13.1899  13.2944  13.3327  13.3380  13.5877  13.6547
    15.0852  15.1544  15.4079  15.6205  15.6735  15.7262  15.7688  16.0110
    16.5738  16.5847  17.7285  17.8033  17.8849

          k = 0.1667-0.4894 0.1662 ( 62572 PWs)   bands (ev):

   -66.1141 -66.1134 -66.1134 -66.1127 -66.1105 -66.1098 -66.1097 -66.1091
   -30.5368 -30.5327 -30.5316 -30.5273 -30.4866 -30.4819 -30.4812 -30.4776
   -30.4572 -30.4545 -30.4531 -30.4501 -30.4342 -30.4280 -30.4242 -30.4214
   -30.4196 -30.4186 -30.4181 -30.4028 -30.3487 -30.3463 -30.3452 -30.3413
   -20.2639 -20.2638 -20.2633 -20.2632 -20.2595 -20.2593 -20.2593 -20.2592
   -20.2494 -20.2493 -20.2484 -20.2483 -20.2480 -20.2478 -20.2469 -20.2467
   -20.2454 -20.2451 -20.2449 -20.2444 -20.2433 -20.2428 -20.2419 -20.2417
   -20.2409 -20.2405 -20.2400 -20.2395 -20.2388 -20.2385 -20.2371 -20.2367
   -20.2363 -20.2361 -20.2357 -20.2347 -20.2340 -20.2340 -20.2332 -20.2327
   -20.2285 -20.2271 -20.2251 -20.2241 -20.2205 -20.2200 -20.2197 -20.2190
   -20.2188 -20.2183 -20.2167 -20.2164 -20.2162 -20.2156 -20.2156 -20.2145
    -9.6726  -9.6639  -9.3733  -9.3591  -9.1843  -9.1827  -8.9184  -8.9133
    -8.5691  -8.5664  -8.5110  -8.5053  -8.4945  -8.4891  -8.4828  -8.4772
    -8.0046  -7.9920  -7.9293  -7.9212  -7.8221  -7.8214  -7.7526  -7.7482
     1.4473   1.4710   1.5013   1.5407   1.6469   1.6729   1.8226   1.8383
[...]
    11.3653  11.3653  11.4604  11.4604  11.5360  11.5360  11.6150  11.6150
    12.1096  12.1096  12.1316  12.1316  12.2127  12.2127  12.2347  12.2347
    12.9391  12.9391  13.0045  13.0045  13.1336  13.1336  13.1944  13.1944
    15.5321  15.5321  15.5495  15.5495  16.6539  16.6539  16.8054  16.8054
    17.4602  17.4603  17.5415  17.5421  17.6216

          k =-0.5000 0.3263 0.0000 ( 62554 PWs)   bands (ev):

   -66.1139 -66.1138 -66.1130 -66.1130 -66.1102 -66.1102 -66.1094 -66.1094
   -30.5405 -30.5405 -30.5041 -30.5041 -30.5023 -30.5023 -30.4805 -30.4805
   -30.4644 -30.4644 -30.4403 -30.4403 -30.4373 -30.4373 -30.4181 -30.4181
   -30.4167 -30.4167 -30.3855 -30.3855 -30.3818 -30.3818 -30.3385 -30.3385
   -20.2639 -20.2639 -20.2632 -20.2632 -20.2595 -20.2594 -20.2593 -20.2593
   -20.2495 -20.2495 -20.2481 -20.2481 -20.2477 -20.2477 -20.2472 -20.2472
   -20.2452 -20.2452 -20.2448 -20.2448 -20.2435 -20.2435 -20.2420 -20.2420
   -20.2405 -20.2405 -20.2393 -20.2393 -20.2377 -20.2377 -20.2371 -20.2371
   -20.2355 -20.2355 -20.2351 -20.2351 -20.2342 -20.2342 -20.2338 -20.2338
   -20.2280 -20.2280 -20.2243 -20.2243 -20.2203 -20.2203 -20.2185 -20.2185
   -20.2180 -20.2180 -20.2172 -20.2172 -20.2170 -20.2170 -20.2149 -20.2149
    -9.6055  -9.6055  -9.3945  -9.3945  -9.0135  -9.0135  -8.7907  -8.7907
    -8.6473  -8.6473  -8.6030  -8.6030  -8.4650  -8.4650  -8.4345  -8.4345
    -8.1679  -8.1679  -8.1275  -8.1275  -7.8423  -7.8422  -7.6678  -7.6678
     1.2487   1.2487   1.4083   1.4083   2.2705   2.2706   2.3820   2.3820
     2.9000   2.9000   3.0141   3.0141   3.0691   3.0692   3.2048   3.2048
     3.2410   3.2410   3.3527   3.3527   3.5371   3.5371   3.6863   3.6863
     3.8445   3.8445   3.9367   3.9367   4.1970   4.1970   4.3603   4.3603
     4.8229   4.8229   4.8759   4.8759   5.0659   5.0659   5.1505   5.1505
     5.3293   5.3293   5.6884   5.6884   6.0659   6.0659   6.0860   6.0860
     6.3818   6.3819   6.4399   6.4399   6.5916   6.5916   6.7297   6.7297
     7.0177   7.0177   7.0570   7.0570   7.0828   7.0828   7.4679   7.4679
     7.4906   7.4906   7.5560   7.5560   7.5981   7.5981   7.8645   7.8645
    10.5611  10.5611  11.2317  11.2317  11.3771  11.3771  11.6359  11.6359
    11.8448  11.8448  12.0981  12.0981  12.6257  12.6257  12.6426  12.6426
    12.8901  12.8901  13.0637  13.0637  13.2286  13.2286  13.6208  13.6208
    15.1090  15.1090  15.5350  15.5350  16.2215  16.2215  16.6323  16.6323
    16.7528  16.7528  17.2581  17.2581  17.8979

          k =-0.5000 0.3263 0.1662 ( 62554 PWs)   bands (ev):

   -66.1138 -66.1138 -66.1131 -66.1131 -66.1101 -66.1101 -66.1095 -66.1095
   -30.5356 -30.5356 -30.5038 -30.5037 -30.5026 -30.5026 -30.4822 -30.4822
   -30.4634 -30.4634 -30.4419 -30.4419 -30.4361 -30.4361 -30.4205 -30.4205
   -30.4127 -30.4126 -30.3854 -30.3853 -30.3821 -30.3820 -30.3440 -30.3440
   -20.2639 -20.2639 -20.2633 -20.2632 -20.2594 -20.2594 -20.2593 -20.2593
   -20.2494 -20.2494 -20.2482 -20.2482 -20.2477 -20.2476 -20.2472 -20.2472
   -20.2452 -20.2452 -20.2448 -20.2448 -20.2434 -20.2434 -20.2421 -20.2421
   -20.2404 -20.2404 -20.2394 -20.2394 -20.2376 -20.2376 -20.2371 -20.2371
   -20.2354 -20.2354 -20.2350 -20.2350 -20.2342 -20.2342 -20.2339 -20.2339
   -20.2278 -20.2278 -20.2246 -20.2246 -20.2201 -20.2201 -20.2184 -20.2184
   -20.2179 -20.2179 -20.2173 -20.2173 -20.2171 -20.2171 -20.2152 -20.2152
    -9.5354  -9.5354  -9.3221  -9.3221  -9.0267  -9.0267  -8.7690  -8.7690
    -8.6586  -8.6586  -8.5933  -8.5932  -8.4648  -8.4648  -8.4369  -8.4369
    -8.1660  -8.1660  -8.1327  -8.1327  -7.9555  -7.9555  -7.7837  -7.7837
     1.5031   1.5031   1.6564   1.6564   2.2769   2.2769   2.3751   2.3751
     2.9628   2.9628   3.0376   3.0376   3.0801   3.0801   3.2188   3.2188
     3.2462   3.2462   3.4209   3.4209   3.5750   3.5750   3.7301   3.7301
     3.8398   3.8398   3.9535   3.9535   4.1850   4.1850   4.3560   4.3561
     4.6702   4.6702   4.8076   4.8076   4.9272   4.9272   4.9746   4.9746
     5.0701   5.0701   5.4309   5.4309   5.7481   5.7481   5.8399   5.8399
     6.5511   6.5511   6.6650   6.6650   6.7778   6.7779   6.8271   6.8271
     7.0019   7.0019   7.0631   7.0631   7.1351   7.1351   7.4660   7.4660
     7.4907   7.4907   7.5591   7.5591   7.5969   7.5970   7.8391   7.8391
    10.7145  10.7145  11.3209  11.3209  11.4514  11.4514  11.6649  11.6649
    11.8627  11.8627  12.1418  12.1418  12.5985  12.5985  12.6368  12.6368
    12.8368  12.8368  12.9576  12.9576  13.1076  13.1077  13.4953  13.4953
    15.3766  15.3766  15.7970  15.7970  16.2981  16.2981  16.6241  16.6241
    16.7954  16.7954  17.2978  17.2978  17.7575

          k =-0.5000 0.3263 0.3325 ( 62548 PWs)   bands (ev):

   -66.1136 -66.1136 -66.1132 -66.1132 -66.1100 -66.1100 -66.1096 -66.1096
   -30.5231 -30.5231 -30.5049 -30.5049 -30.5014 -30.5014 -30.4880 -30.4880
   -30.4603 -30.4603 -30.4475 -30.4475 -30.4335 -30.4335 -30.4259 -30.4259
   -30.3993 -30.3993 -30.3847 -30.3847 -30.3828 -30.3828 -30.3592 -30.3592
   -20.2637 -20.2637 -20.2634 -20.2634 -20.2594 -20.2594 -20.2593 -20.2593
   -20.2491 -20.2491 -20.2484 -20.2484 -20.2476 -20.2476 -20.2474 -20.2474
   -20.2451 -20.2451 -20.2449 -20.2449 -20.2431 -20.2431 -20.2423 -20.2423
   -20.2403 -20.2403 -20.2396 -20.2396 -20.2375 -20.2375 -20.2372 -20.2372
   -20.2351 -20.2351 -20.2348 -20.2348 -20.2344 -20.2344 -20.2341 -20.2341
   -20.2272 -20.2272 -20.2254 -20.2254 -20.2194 -20.2194 -20.2182 -20.2182
   -20.2177 -20.2177 -20.2176 -20.2176 -20.2174 -20.2174 -20.2160 -20.2160
    -9.3579  -9.3579  -9.1251  -9.1251  -9.0722  -9.0722  -8.7107  -8.7107
    -8.6904  -8.6904  -8.5527  -8.5527  -8.4842  -8.4842  -8.4320  -8.4320
    -8.2343  -8.2343  -8.1581  -8.1581  -8.1400  -8.1400  -8.0518  -8.0518
     2.1270   2.1270   2.2654   2.2655   2.3073   2.3073   2.4487   2.4487
     3.0343   3.0343   3.0847   3.0847   3.1459   3.1459   3.2331   3.2331
     3.3200   3.3201   3.5911   3.5911   3.6911   3.6911   3.7878   3.7878
     3.8493   3.8493   4.0114   4.0114   4.0906   4.0906   4.1965   4.1965
     4.3150   4.3150   4.4983   4.4983   4.5636   4.5636   4.7866   4.7867
     4.8614   4.8614   4.9670   4.9670   5.0316   5.0316   5.3300   5.3300
     6.7966   6.7966   6.8980   6.8980   6.9448   6.9448   7.0024   7.0024
     7.1138   7.1138   7.1836   7.1836   7.2757   7.2757   7.4540   7.4541
     7.4839   7.4840   7.5601   7.5601   7.5856   7.5856   7.7589   7.7589
    11.1328  11.1328  11.5466  11.5466  11.6784  11.6784  11.7298  11.7298
    11.9437  11.9437  12.2654  12.2654  12.3615  12.3615  12.5203  12.5203
    12.6845  12.6845  12.7478  12.7478  12.8096  12.8096  13.1648  13.1648
    16.0392  16.0392  16.3933  16.3933  16.5474  16.5474  16.6989  16.6989
    16.9679  16.9679  17.3440  17.3441  17.5101

          k =-0.5000 0.3263-0.4987 ( 62516 PWs)   bands (ev):

   -66.1135 -66.1134 -66.1134 -66.1134 -66.1098 -66.1098 -66.1098 -66.1098
   -30.5106 -30.5106 -30.5102 -30.5102 -30.4967 -30.4967 -30.4964 -30.4964
   -30.4550 -30.4550 -30.4547 -30.4547 -30.4305 -30.4305 -30.4301 -30.4301
   -30.3842 -30.3842 -30.3837 -30.3837 -30.3797 -30.3797 -30.3792 -30.3792
   -20.2636 -20.2635 -20.2635 -20.2635 -20.2594 -20.2594 -20.2593 -20.2593
   -20.2488 -20.2488 -20.2487 -20.2487 -20.2475 -20.2475 -20.2475 -20.2475
   -20.2450 -20.2450 -20.2450 -20.2450 -20.2427 -20.2427 -20.2426 -20.2426
   -20.2400 -20.2400 -20.2399 -20.2399 -20.2373 -20.2373 -20.2373 -20.2373
   -20.2349 -20.2349 -20.2348 -20.2347 -20.2345 -20.2345 -20.2344 -20.2343
   -20.2265 -20.2264 -20.2263 -20.2262 -20.2187 -20.2187 -20.2181 -20.2181
   -20.2179 -20.2179 -20.2179 -20.2179 -20.2171 -20.2171 -20.2166 -20.2166
    -9.1820  -9.1820  -9.1718  -9.1718  -8.8802  -8.8802  -8.8547  -8.8547
    -8.5998  -8.5998  -8.5624  -8.5624  -8.4248  -8.4248  -8.3956  -8.3956
    -8.3952  -8.3952  -8.3523  -8.3522  -8.1372  -8.1372  -8.1332  -8.1332
     2.2824   2.2824   2.2864   2.2864   2.9494   2.9494   2.9824   2.9824
     3.0548   3.0548   3.0550   3.0550   3.2127   3.2127   3.2599   3.2599
     3.3419   3.3419   3.3610   3.3610   3.7303   3.7303   3.7370   3.7370
     3.8699   3.8699   3.9285   3.9285   4.0722   4.0722   4.0892   4.0892
     4.2193   4.2193   4.3038   4.3038   4.3758   4.3758   4.3878   4.3878
     4.6659   4.6659   4.6690   4.6690   5.0674   5.0675   5.0765   5.0765
     6.8751   6.8751   6.9298   6.9298   6.9685   6.9685   7.0170   7.0170
     7.3112   7.3113   7.3255   7.3255   7.3817   7.3817   7.4283   7.4283
     7.4957   7.4957   7.4991   7.4991   7.6084   7.6084   7.6638   7.6638
    11.6051  11.6051  11.6606  11.6606  11.7528  11.7528  11.8086  11.8086
    12.1161  12.1161  12.1299  12.1299  12.2361  12.2361  12.2527  12.2527
    12.5869  12.5869  12.6397  12.6397  12.8034  12.8034  12.8506  12.8506
    16.4150  16.4150  16.4378  16.4378  16.8272  16.8272  16.9451  16.9452
    17.2983  17.2983  17.4923  17.4923  17.6347

          k =-0.5000-0.4894 0.0000 ( 62600 PWs)   bands (ev):

   -66.1138 -66.1138 -66.1130 -66.1130 -66.1102 -66.1102 -66.1094 -66.1094
   -30.5398 -30.5398 -30.5022 -30.5022 -30.4974 -30.4974 -30.4817 -30.4817
   -30.4562 -30.4562 -30.4473 -30.4473 -30.4395 -30.4394 -30.4220 -30.4220
   -30.4180 -30.4180 -30.3858 -30.3857 -30.3819 -30.3819 -30.3385 -30.3385
   -20.2639 -20.2639 -20.2632 -20.2632 -20.2594 -20.2594 -20.2593 -20.2592
   -20.2495 -20.2495 -20.2478 -20.2477 -20.2476 -20.2476 -20.2475 -20.2475
   -20.2452 -20.2452 -20.2448 -20.2448 -20.2432 -20.2432 -20.2417 -20.2417
   -20.2407 -20.2407 -20.2395 -20.2395 -20.2379 -20.2378 -20.2373 -20.2373
   -20.2354 -20.2354 -20.2353 -20.2353 -20.2340 -20.2340 -20.2340 -20.2340
   -20.2280 -20.2280 -20.2243 -20.2243 -20.2203 -20.2203 -20.2185 -20.2185
   -20.2180 -20.2180 -20.2172 -20.2172 -20.2170 -20.2170 -20.2149 -20.2149
    -9.5570  -9.5570  -9.4091  -9.4091  -8.8103  -8.8103  -8.7089  -8.7089
    -8.6543  -8.6543  -8.6050  -8.6050  -8.4557  -8.4556  -8.4172  -8.4171
    -8.3774  -8.3774  -8.3248  -8.3248  -7.8430  -7.8430  -7.6684  -7.6684
     1.2496   1.2496   1.4105   1.4105   2.8320   2.8320   2.9808   2.9808
     3.0297   3.0297   3.0591   3.0591   3.1624   3.1624   3.2266   3.2266
     3.2466   3.2466   3.3734   3.3734   3.4204   3.4204   3.4525   3.4525
     3.6110   3.6110   3.8284   3.8284   4.1890   4.1890   4.2668   4.2668
     4.3056   4.3056   4.3876   4.3877   5.0738   5.0738   5.1318   5.1318
     5.3760   5.3760   5.5280   5.5280   6.0815   6.0815   6.0895   6.0895
     6.4184   6.4185   6.4674   6.4674   6.6119   6.6119   6.6411   6.6411
     7.2056   7.2056   7.2229   7.2229   7.3169   7.3169   7.4128   7.4128
     7.4899   7.4900   7.5376   7.5376   7.5621   7.5621   7.6626   7.6626
    11.0728  11.0728  11.2703  11.2703  11.3621  11.3621  11.4193  11.4193
    12.1062  12.1062  12.1410  12.1410  12.2941  12.2941  12.3389  12.3389
    12.8742  12.8742  13.0739  13.0739  13.3418  13.3418  13.3832  13.3832
    15.2327  15.2327  15.5282  15.5282  16.6501  16.6501  16.7972  16.7972
    17.3694  17.3694  17.4356  17.4356  17.5660

          k =-0.5000-0.4894 0.1662 ( 62588 PWs)   bands (ev):

   -66.1138 -66.1138 -66.1131 -66.1131 -66.1101 -66.1101 -66.1095 -66.1095
   -30.5347 -30.5347 -30.5018 -30.5018 -30.4977 -30.4977 -30.4840 -30.4840
   -30.4551 -30.4551 -30.4463 -30.4463 -30.4398 -30.4398 -30.4259 -30.4259
   -30.4133 -30.4133 -30.3856 -30.3855 -30.3822 -30.3822 -30.3441 -30.3441
   -20.2639 -20.2639 -20.2633 -20.2632 -20.2594 -20.2594 -20.2593 -20.2593
   -20.2494 -20.2493 -20.2479 -20.2479 -20.2476 -20.2476 -20.2475 -20.2475
   -20.2452 -20.2452 -20.2448 -20.2448 -20.2431 -20.2431 -20.2418 -20.2418
   -20.2407 -20.2406 -20.2397 -20.2396 -20.2378 -20.2378 -20.2373 -20.2373
   -20.2353 -20.2353 -20.2352 -20.2352 -20.2341 -20.2341 -20.2341 -20.2341
   -20.2278 -20.2278 -20.2246 -20.2246 -20.2201 -20.2201 -20.2184 -20.2184
   -20.2179 -20.2179 -20.2173 -20.2173 -20.2171 -20.2171 -20.2152 -20.2152
    -9.4780  -9.4780  -9.3406  -9.3406  -8.8243  -8.8243  -8.7261  -8.7260
    -8.6368  -8.6368  -8.5934  -8.5934  -8.4527  -8.4527  -8.4195  -8.4195
    -8.3757  -8.3756  -8.3269  -8.3269  -7.9578  -7.9578  -7.7845  -7.7845
     1.5061   1.5061   1.6610   1.6610   2.8527   2.8528   2.9865   2.9865
     3.0430   3.0430   3.0697   3.0697   3.1406   3.1406   3.2056   3.2056
     3.3315   3.3315   3.3993   3.3993   3.4393   3.4393   3.5467   3.5467
     3.6412   3.6412   3.8538   3.8538   4.1919   4.1919   4.2531   4.2531
     4.3088   4.3088   4.3761   4.3762   4.8045   4.8045   4.9071   4.9071
     5.1043   5.1043   5.2409   5.2410   5.7529   5.7529   5.7809   5.7809
     6.5948   6.5948   6.6926   6.6926   6.7831   6.7831   6.8549   6.8549
     7.1961   7.1961   7.2389   7.2389   7.3271   7.3271   7.4100   7.4100
     7.4777   7.4777   7.5373   7.5373   7.5605   7.5606   7.6588   7.6588
    11.1762  11.1762  11.3594  11.3594  11.4459  11.4459  11.5183  11.5183
    12.1068  12.1068  12.1502  12.1503  12.2974  12.2974  12.3395  12.3395
    12.8123  12.8123  12.9573  12.9573  13.1926  13.1926  13.2600  13.2600
    15.5357  15.5357  15.7961  15.7961  16.7135  16.7135  16.8570  16.8570
    17.3632  17.3633  17.4400  17.4401  17.5636

          k =-0.5000-0.4894 0.3325 ( 62512 PWs)   bands (ev):

   -66.1136 -66.1136 -66.1132 -66.1132 -66.1100 -66.1100 -66.1096 -66.1096
   -30.5214 -30.5213 -30.5009 -30.5009 -30.4985 -30.4985 -30.4914 -30.4914
   -30.4517 -30.4517 -30.4444 -30.4444 -30.4408 -30.4408 -30.4354 -30.4354
   -30.3995 -30.3995 -30.3849 -30.3849 -30.3829 -30.3829 -30.3592 -30.3592
   -20.2637 -20.2637 -20.2634 -20.2634 -20.2594 -20.2594 -20.2593 -20.2593
   -20.2490 -20.2490 -20.2482 -20.2482 -20.2476 -20.2476 -20.2475 -20.2475
   -20.2451 -20.2451 -20.2449 -20.2449 -20.2427 -20.2427 -20.2420 -20.2420
   -20.2405 -20.2405 -20.2399 -20.2399 -20.2376 -20.2376 -20.2374 -20.2374
   -20.2350 -20.2350 -20.2350 -20.2350 -20.2343 -20.2343 -20.2343 -20.2343
   -20.2272 -20.2272 -20.2254 -20.2254 -20.2194 -20.2194 -20.2182 -20.2182
   -20.2177 -20.2177 -20.2176 -20.2176 -20.2174 -20.2174 -20.2160 -20.2160
    -9.2618  -9.2618  -9.1647  -9.1647  -8.8724  -8.8723  -8.7957  -8.7957
    -8.5782  -8.5782  -8.5455  -8.5455  -8.4446  -8.4446  -8.4258  -8.4258
    -8.3717  -8.3717  -8.3337  -8.3336  -8.2204  -8.2204  -8.0664  -8.0664
     2.1861   2.1861   2.3195   2.3195   2.8963   2.8963   2.9741   2.9741
     3.0584   3.0584   3.1144   3.1144   3.1371   3.1372   3.1933   3.1933
     3.4005   3.4005   3.4407   3.4407   3.5612   3.5612   3.7285   3.7285
     3.7936   3.7936   3.9402   3.9402   4.1266   4.1266   4.2023   4.2023
     4.2826   4.2826   4.3165   4.3165   4.4226   4.4226   4.4859   4.4859
     4.6433   4.6433   4.7572   4.7572   4.9994   4.9994   5.0219   5.0219
     6.8840   6.8840   7.0373   7.0373   7.0658   7.0658   7.1026   7.1026
     7.1964   7.1964   7.2947   7.2947   7.3442   7.3442   7.3945   7.3945
     7.4671   7.4672   7.5404   7.5404   7.5472   7.5473   7.6351   7.6351
    11.4771  11.4771  11.6108  11.6108  11.7031  11.7031  11.8033  11.8033
    12.0962  12.0962  12.1859  12.1859  12.2743  12.2743  12.3583  12.3583
    12.4901  12.4901  12.6405  12.6405  12.8139  12.8139  12.9069  12.9069
    16.3515  16.3515  16.5458  16.5458  16.8948  16.8948  17.0258  17.0258
    17.3063  17.3063  17.4402  17.4402  17.5517

          k =-0.5000-0.4894-0.4987 ( 62488 PWs)   bands (ev):

   -66.1135 -66.1134 -66.1134 -66.1134 -66.1098 -66.1098 -66.1098 -66.1098
   -30.5052 -30.5051 -30.5047 -30.5046 -30.4997 -30.4997 -30.4994 -30.4994
   -30.4456 -30.4456 -30.4450 -30.4450 -30.4423 -30.4423 -30.4422 -30.4422
   -30.3842 -30.3842 -30.3838 -30.3837 -30.3798 -30.3798 -30.3794 -30.3794
   -20.2636 -20.2635 -20.2635 -20.2635 -20.2594 -20.2593 -20.2593 -20.2593
   -20.2486 -20.2486 -20.2486 -20.2486 -20.2476 -20.2475 -20.2475 -20.2475
   -20.2450 -20.2450 -20.2450 -20.2450 -20.2424 -20.2424 -20.2423 -20.2423
   -20.2403 -20.2403 -20.2402 -20.2402 -20.2375 -20.2375 -20.2375 -20.2375
   -20.2348 -20.2348 -20.2346 -20.2346 -20.2346 -20.2346 -20.2345 -20.2345
   -20.2265 -20.2264 -20.2263 -20.2262 -20.2187 -20.2187 -20.2181 -20.2181
   -20.2179 -20.2179 -20.2179 -20.2179 -20.2171 -20.2171 -20.2166 -20.2166
    -9.0101  -9.0101  -8.9761  -8.9760  -8.9720  -8.9719  -8.9702  -8.9702
    -8.5042  -8.5042  -8.4551  -8.4551  -8.4379  -8.4379  -8.4285  -8.4285
    -8.3791  -8.3791  -8.3633  -8.3633  -8.3413  -8.3413  -8.3228  -8.3227
     2.8717   2.8717   2.8981   2.8981   2.9278   2.9278   2.9373   2.9373
     3.1192   3.1192   3.1501   3.1501   3.1935   3.1936   3.2140   3.2140
     3.3018   3.3018   3.3883   3.3883   3.4703   3.4703   3.4966   3.4966
     4.0662   4.0662   4.1061   4.1061   4.1206   4.1206   4.1340   4.1340
     4.2482   4.2482   4.2978   4.2978   4.2995   4.2995   4.3454   4.3454
     4.4155   4.4155   4.4452   4.4452   4.4738   4.4738   4.5095   4.5095
     7.0256   7.0256   7.1000   7.1000   7.1448   7.1448   7.2458   7.2458
     7.2839   7.2840   7.2848   7.2848   7.3484   7.3484   7.3907   7.3907
     7.5081   7.5081   7.5178   7.5178   7.5472   7.5472   7.5925   7.5926
    11.8746  11.8746  11.8949  11.8949  11.9256  11.9256  11.9268  11.9268
    12.1007  12.1007  12.1357  12.1357  12.2086  12.2086  12.3270  12.3270
    12.3567  12.3567  12.4370  12.4370  12.4962  12.4962  12.5108  12.5108
    17.0194  17.0194  17.0473  17.0474  17.0731  17.0731  17.1758  17.1759
    17.4551  17.4551  17.4899  17.4899  17.5602

     the Fermi energy is     9.8838 ev

!    total energy              =   -6260.67507994 Ry
     Harris-Foulkes estimate   =   -6260.67507994 Ry
     estimated scf accuracy    <          8.4E-09 Ry

     The total energy is the sum of the following terms:

     one-electron contribution =   -4734.50675862 Ry
     hartree contribution      =    2604.73039221 Ry
     xc contribution           =    -966.32162274 Ry
     ewald contribution        =   -3164.57707446 Ry
     smearing contrib. (-TS)   =      -0.00001633 Ry

     convergence has been achieved in  14 iterations

     Writing output data file Landau_15.save
 
     init_run     :     26.60s CPU     28.38s WALL (       1 calls)
     electrons    :   1109.02s CPU   1144.08s WALL (       1 calls)

     Called by init_run:
     wfcinit      :     24.23s CPU     25.88s WALL (       1 calls)
     potinit      :      0.89s CPU      0.92s WALL (       1 calls)

     Called by electrons:
     c_bands      :    964.53s CPU    997.38s WALL (      14 calls)
     sum_band     :    139.12s CPU    140.25s WALL (      14 calls)
     v_of_rho     :      1.15s CPU      1.19s WALL (      15 calls)
     mix_rho      :      2.06s CPU      2.67s WALL (      14 calls)

     Called by c_bands:
     init_us_2    :      7.27s CPU      7.90s WALL (      58 calls)
     cegterg      :    798.22s CPU    829.69s WALL (      28 calls)

     Called by sum_band:

     Called by *egterg:
     h_psi        :    640.02s CPU    644.17s WALL (     116 calls)
     g_psi        :      1.40s CPU      1.41s WALL (      86 calls)
     cdiaghg      :     11.29s CPU     11.34s WALL (     114 calls)

     Called by h_psi:
     h_psi:pot    :    635.83s CPU    639.74s WALL (     116 calls)
     h_psi:calbec :     65.35s CPU     67.10s WALL (     116 calls)
     vloc_psi     :    498.26s CPU    499.93s WALL (     116 calls)
     add_vuspsi   :     72.23s CPU     72.71s WALL (     116 calls)

     General routines
     calbec       :     65.35s CPU     67.10s WALL (     116 calls)
     fft          :      0.86s CPU      0.87s WALL (      60 calls)
     fftw         :    524.30s CPU    525.82s WALL (   35798 calls)
 
     Parallel routines
 
     PWSCF        : 18m57.57s CPU    19m39.40s WALL

 
   This run was terminated on:  20: 9:37  25Mar2020            

=------------------------------------------------------------------------------=
   JOB DONE.
=------------------------------------------------------------------------------=
