
     Program PWSCF v.6.2 (svn rev. 14038) starts on 25Mar2020 at 22:33:40 

     This program is part of the open-source Quantum ESPRESSO suite
     for quantum simulation of materials; please cite
         "P. Giannozzi et al., J. Phys.:Condens. Matter 21 395502 (2009);
         "P. Giannozzi et al., J. Phys.:Condens. Matter 29 465901 (2017);
          URL http://www.quantum-espresso.org", 
     in publications or presentations arising from this work. More details at
     http://www.quantum-espresso.org/quote

     Parallel version (MPI), running on    40 processors

     MPI processes distributed on     5 nodes
     K-points division:     npool     =      40
     Reading input from scf.in

     Current dimensions of program PWSCF are:
     Max number of different atomic species (ntypx) = 10
     Max number of k-points (npk) =  40000
     Max angular momentum in pseudopotentials (lmaxx) =  3

     Subspace diagonalization in iterative solution of the eigenvalue problem:
     a serial algorithm will be used

 
     G-vector sticks info
     --------------------
     sticks:   dense  smooth     PW     G-vecs:    dense   smooth      PW
     Sum        7717    7717   2079               498573   498573   69101
 


     bravais-lattice index     =            0
     lattice parameter (alat)  =      13.9015  a.u.
     unit-cell volume          =    2806.9122 (a.u.)^3
     number of atoms/cell      =           32
     number of atomic types    =            2
     number of electrons       =       369.00
     number of Kohn-Sham states=          222
     kinetic-energy cutoff     =     120.0000  Ry
     charge density cutoff     =     480.0000  Ry
     convergence threshold     =      1.0E-08
     mixing beta               =       0.7000
     number of iterations used =            8  plain     mixing
     Exchange-correlation      = SLA PW NOGX NOGC ( 1  4  0  0 0 0)

     celldm(1)=  13.901516  celldm(2)=   0.000000  celldm(3)=   0.000000
     celldm(4)=   0.000000  celldm(5)=   0.000000  celldm(6)=   0.000000

     crystal axes: (cart. coord. in units of alat)
               a(1) = (   1.000000   0.000000   0.000000 )  
               a(2) = (   0.000000   1.044107   0.000000 )  
               a(3) = (   0.000000   0.000000   1.000685 )  

     reciprocal axes: (cart. coord. in units 2 pi/alat)
               b(1) = (  1.000000  0.000000  0.000000 )  
               b(2) = (  0.000000  0.957756  0.000000 )  
               b(3) = (  0.000000  0.000000  0.999316 )  


     PseudoPot. # 1 for W  read from file:
     /cluster/scratch/mnoe/QE/pps/W_ONCV_LDA-4.0.upf
     MD5 check sum: ba0307d5d4cd419d6f1d13dc49d7c13a
     Pseudo is Norm-conserving + core correction, Zval = 28.0
     Generated using ONCVPSP code by D. R. Hamann
     Using radial grid of 1380 points,  8 beta functions with: 
                l(1) =   0
                l(2) =   0
                l(3) =   1
                l(4) =   1
                l(5) =   2
                l(6) =   2
                l(7) =   3
                l(8) =   3

     PseudoPot. # 2 for O  read from file:
     /cluster/scratch/mnoe/QE/pps/O_ONCV_LDA-3.0.upf
     MD5 check sum: a1bd6164e7280c17a38c229939bfbd54
     Pseudo is Norm-conserving + core correction, Zval =  6.0
     Generated using ONCVPSP code by D. R. Hamann
     Using radial grid of  926 points,  5 beta functions with: 
                l(1) =   0
                l(2) =   0
                l(3) =   1
                l(4) =   1
                l(5) =   2

     atomic species   valence    mass     pseudopotential
        W             28.00   183.84000     W ( 1.00)
        O              6.00    15.99940     O ( 1.00)

      4 Sym. Ops. (no inversion) found ( 3 have fractional translation)



   Cartesian axes

     site n.     atom                  positions (alat units)
         1           W   tau(   1) = (   0.2357855   0.2924316   0.0016259  )
         2           W   tau(   2) = (   0.7524355   0.7516755  -0.0141078  )
         3           W   tau(   3) = (   0.2642145   0.2296220   0.5019683  )
         4           W   tau(   4) = (   0.7475644   0.8144851   0.4862345  )
         5           W   tau(   5) = (   0.7642144   0.2924316   0.4987164  )
         6           W   tau(   6) = (   0.2475645   0.7516755   0.5144502  )
         7           W   tau(   7) = (   0.7357856   0.2296220  -0.0016259  )
         8           W   tau(   8) = (   0.2524355   0.8144851   0.0141078  )
         9           O   tau(   9) = (   0.2328109   0.0081801  -0.0090685  )
        10           O   tau(  10) = (   0.7635279  -0.0081801  -0.0139589  )
        11           O   tau(  11) = (   0.2671890   0.5138734   0.4912738  )
        12           O   tau(  12) = (   0.7364721   0.5302337   0.4863834  )
        13           O   tau(  13) = (   0.7671890   0.0081801   0.5094109  )
        14           O   tau(  14) = (   0.2364720  -0.0081801   0.5143012  )
        15           O   tau(  15) = (   0.7328110   0.5138734   0.0090685  )
        16           O   tau(  16) = (   0.2635279   0.5302337   0.0139589  )
        17           O   tau(  17) = (   0.5048627   0.2418882   0.4542078  )
        18           O   tau(  18) = (   0.5003087   0.7968406   0.5464769  )
        19           O   tau(  19) = (  -0.0048627   0.2801653   0.9545501  )
        20           O   tau(  20) = (  -0.0003087   0.7693202   0.0461346  )
        21           O   tau(  21) = (   0.4951373   0.2418882   0.0461346  )
        22           O   tau(  22) = (   0.4996913   0.7968406   0.9545501  )
        23           O   tau(  23) = (   0.0048627   0.2801653   0.5464769  )
        24           O   tau(  24) = (   0.0003087   0.7693202   0.4542078  )
        25           O   tau(  25) = (   0.7038970   0.2697602   0.7487666  )
        26           O   tau(  26) = (   0.2961030   0.7989931   0.2553320  )
        27           O   tau(  27) = (   0.7961030   0.2522934   0.2484243  )
        28           O   tau(  28) = (   0.2038970   0.7671677   0.7556744  )
        29           O   tau(  29) = (   0.2961030   0.2697602   0.7522604  )
        30           O   tau(  30) = (   0.7038970   0.7989931   0.2450104  )
        31           O   tau(  31) = (   0.2038970   0.2522934   0.2519180  )
        32           O   tau(  32) = (   0.7961030   0.7671677   0.7453527  )

     number of k points=    64  gaussian smearing, width (Ry)=  0.0007
                       cart. coord. in units 2pi/alat
        k(    1) = (   0.0000000   0.0000000   0.0000000), wk =   0.0092593
        k(    2) = (   0.0000000   0.0000000   0.1665526), wk =   0.0185185
        k(    3) = (   0.0000000   0.0000000   0.3331053), wk =   0.0185185
        k(    4) = (   0.0000000   0.0000000  -0.4996579), wk =   0.0092593
        k(    5) = (   0.0000000   0.1596260   0.0000000), wk =   0.0185185
        k(    6) = (   0.0000000   0.1596260   0.1665526), wk =   0.0370370
        k(    7) = (   0.0000000   0.1596260   0.3331053), wk =   0.0370370
        k(    8) = (   0.0000000   0.1596260  -0.4996579), wk =   0.0185185
        k(    9) = (   0.0000000   0.3192520   0.0000000), wk =   0.0185185
        k(   10) = (   0.0000000   0.3192520   0.1665526), wk =   0.0370370
        k(   11) = (   0.0000000   0.3192520   0.3331053), wk =   0.0370370
        k(   12) = (   0.0000000   0.3192520  -0.4996579), wk =   0.0185185
        k(   13) = (   0.0000000  -0.4788781   0.0000000), wk =   0.0092593
        k(   14) = (   0.0000000  -0.4788781   0.1665526), wk =   0.0185185
        k(   15) = (   0.0000000  -0.4788781   0.3331053), wk =   0.0185185
        k(   16) = (   0.0000000  -0.4788781  -0.4996579), wk =   0.0092593
        k(   17) = (   0.1666667   0.0000000   0.0000000), wk =   0.0185185
        k(   18) = (   0.1666667   0.0000000   0.1665526), wk =   0.0370370
        k(   19) = (   0.1666667   0.0000000   0.3331053), wk =   0.0370370
        k(   20) = (   0.1666667   0.0000000  -0.4996579), wk =   0.0185185
        k(   21) = (   0.1666667   0.1596260   0.0000000), wk =   0.0370370
        k(   22) = (   0.1666667   0.1596260   0.1665526), wk =   0.0740741
        k(   23) = (   0.1666667   0.1596260   0.3331053), wk =   0.0740741
        k(   24) = (   0.1666667   0.1596260  -0.4996579), wk =   0.0370370
        k(   25) = (   0.1666667   0.3192520   0.0000000), wk =   0.0370370
        k(   26) = (   0.1666667   0.3192520   0.1665526), wk =   0.0740741
        k(   27) = (   0.1666667   0.3192520   0.3331053), wk =   0.0740741
        k(   28) = (   0.1666667   0.3192520  -0.4996579), wk =   0.0370370
        k(   29) = (   0.1666667  -0.4788781   0.0000000), wk =   0.0185185
        k(   30) = (   0.1666667  -0.4788781   0.1665526), wk =   0.0370370
        k(   31) = (   0.1666667  -0.4788781   0.3331053), wk =   0.0370370
        k(   32) = (   0.1666667  -0.4788781  -0.4996579), wk =   0.0185185
        k(   33) = (   0.3333333   0.0000000   0.0000000), wk =   0.0185185
        k(   34) = (   0.3333333   0.0000000   0.1665526), wk =   0.0370370
        k(   35) = (   0.3333333   0.0000000   0.3331053), wk =   0.0370370
        k(   36) = (   0.3333333   0.0000000  -0.4996579), wk =   0.0185185
        k(   37) = (   0.3333333   0.1596260   0.0000000), wk =   0.0370370
        k(   38) = (   0.3333333   0.1596260   0.1665526), wk =   0.0740741
        k(   39) = (   0.3333333   0.1596260   0.3331053), wk =   0.0740741
        k(   40) = (   0.3333333   0.1596260  -0.4996579), wk =   0.0370370
        k(   41) = (   0.3333333   0.3192520   0.0000000), wk =   0.0370370
        k(   42) = (   0.3333333   0.3192520   0.1665526), wk =   0.0740741
        k(   43) = (   0.3333333   0.3192520   0.3331053), wk =   0.0740741
        k(   44) = (   0.3333333   0.3192520  -0.4996579), wk =   0.0370370
        k(   45) = (   0.3333333  -0.4788781   0.0000000), wk =   0.0185185
        k(   46) = (   0.3333333  -0.4788781   0.1665526), wk =   0.0370370
        k(   47) = (   0.3333333  -0.4788781   0.3331053), wk =   0.0370370
        k(   48) = (   0.3333333  -0.4788781  -0.4996579), wk =   0.0185185
        k(   49) = (  -0.5000000   0.0000000   0.0000000), wk =   0.0092593
        k(   50) = (  -0.5000000   0.0000000   0.1665526), wk =   0.0185185
        k(   51) = (  -0.5000000   0.0000000   0.3331053), wk =   0.0185185
        k(   52) = (  -0.5000000   0.0000000  -0.4996579), wk =   0.0092593
        k(   53) = (  -0.5000000   0.1596260   0.0000000), wk =   0.0185185
        k(   54) = (  -0.5000000   0.1596260   0.1665526), wk =   0.0370370
        k(   55) = (  -0.5000000   0.1596260   0.3331053), wk =   0.0370370
        k(   56) = (  -0.5000000   0.1596260  -0.4996579), wk =   0.0185185
        k(   57) = (  -0.5000000   0.3192520   0.0000000), wk =   0.0185185
        k(   58) = (  -0.5000000   0.3192520   0.1665526), wk =   0.0370370
        k(   59) = (  -0.5000000   0.3192520   0.3331053), wk =   0.0370370
        k(   60) = (  -0.5000000   0.3192520  -0.4996579), wk =   0.0185185
        k(   61) = (  -0.5000000  -0.4788781   0.0000000), wk =   0.0092593
        k(   62) = (  -0.5000000  -0.4788781   0.1665526), wk =   0.0185185
        k(   63) = (  -0.5000000  -0.4788781   0.3331053), wk =   0.0185185
        k(   64) = (  -0.5000000  -0.4788781  -0.4996579), wk =   0.0092593

     Dense  grid:   498573 G-vectors     FFT dimensions: ( 100, 108, 100)

     Estimated max dynamical RAM per process >       3.14 GB

     Estimated total dynamical RAM >     125.59 GB

     Initial potential from superposition of free atoms

     starting charge  367.99656, renormalised to  369.00000
     Starting wfc are  232 randomized atomic wfcs

     total cpu time spent up to now is       50.6 secs

     Self-consistent Calculation

     iteration #  1     ecut=   120.00 Ry     beta= 0.70
     Davidson diagonalization with overlap
     ethr =  1.00E-02,  avg # of iterations =  5.6

     total cpu time spent up to now is      228.6 secs

     total energy              =   -6253.08560987 Ry
     Harris-Foulkes estimate   =   -6264.04288063 Ry
     estimated scf accuracy    <      13.75749397 Ry

     iteration #  2     ecut=   120.00 Ry     beta= 0.70
     Davidson diagonalization with overlap
     ethr =  3.73E-03,  avg # of iterations =  3.6

     total cpu time spent up to now is      403.6 secs

     total energy              =   -6250.17766772 Ry
     Harris-Foulkes estimate   =   -6269.89171628 Ry
     estimated scf accuracy    <      52.01225090 Ry

     iteration #  3     ecut=   120.00 Ry     beta= 0.70
     Davidson diagonalization with overlap
     ethr =  3.73E-03,  avg # of iterations =  3.4

     total cpu time spent up to now is      568.0 secs

     total energy              =   -6260.38009746 Ry
     Harris-Foulkes estimate   =   -6260.63988398 Ry
     estimated scf accuracy    <       0.88160556 Ry

     iteration #  4     ecut=   120.00 Ry     beta= 0.70
     Davidson diagonalization with overlap
     ethr =  2.39E-04,  avg # of iterations =  3.5

     total cpu time spent up to now is      710.1 secs

     total energy              =   -6260.36780656 Ry
     Harris-Foulkes estimate   =   -6260.44239149 Ry
     estimated scf accuracy    <       0.23206265 Ry

     iteration #  5     ecut=   120.00 Ry     beta= 0.70
     Davidson diagonalization with overlap
     ethr =  6.29E-05,  avg # of iterations =  5.4

     total cpu time spent up to now is      860.3 secs

     total energy              =   -6260.36783086 Ry
     Harris-Foulkes estimate   =   -6260.40751438 Ry
     estimated scf accuracy    <       0.09703311 Ry

     iteration #  6     ecut=   120.00 Ry     beta= 0.70
     Davidson diagonalization with overlap
     ethr =  2.63E-05,  avg # of iterations =  5.7

     total cpu time spent up to now is     1013.7 secs

     total energy              =   -6260.38156505 Ry
     Harris-Foulkes estimate   =   -6260.39402515 Ry
     estimated scf accuracy    <       0.04515299 Ry

     iteration #  7     ecut=   120.00 Ry     beta= 0.70
     Davidson diagonalization with overlap
     ethr =  1.22E-05,  avg # of iterations =  4.7

     total cpu time spent up to now is     1158.1 secs

     total energy              =   -6260.38633092 Ry
     Harris-Foulkes estimate   =   -6260.38827341 Ry
     estimated scf accuracy    <       0.00868113 Ry

     iteration #  8     ecut=   120.00 Ry     beta= 0.70
     Davidson diagonalization with overlap
     ethr =  2.35E-06,  avg # of iterations =  5.1

     total cpu time spent up to now is     1297.9 secs

     total energy              =   -6260.38660130 Ry
     Harris-Foulkes estimate   =   -6260.38715411 Ry
     estimated scf accuracy    <       0.00210810 Ry

     iteration #  9     ecut=   120.00 Ry     beta= 0.70
     Davidson diagonalization with overlap
     ethr =  5.71E-07,  avg # of iterations =  2.8

     total cpu time spent up to now is     1432.2 secs

     total energy              =   -6260.38674529 Ry
     Harris-Foulkes estimate   =   -6260.38683952 Ry
     estimated scf accuracy    <       0.00016999 Ry

     iteration # 10     ecut=   120.00 Ry     beta= 0.70
     Davidson diagonalization with overlap
     ethr =  4.61E-08,  avg # of iterations =  3.4

     total cpu time spent up to now is     1585.2 secs

     total energy              =   -6260.38678505 Ry
     Harris-Foulkes estimate   =   -6260.38682735 Ry
     estimated scf accuracy    <       0.00022810 Ry

     iteration # 11     ecut=   120.00 Ry     beta= 0.70
     Davidson diagonalization with overlap
     ethr =  4.61E-08,  avg # of iterations =  2.0

     total cpu time spent up to now is     1714.0 secs

     total energy              =   -6260.38680377 Ry
     Harris-Foulkes estimate   =   -6260.38680470 Ry
     estimated scf accuracy    <       0.00000228 Ry

     iteration # 12     ecut=   120.00 Ry     beta= 0.70
     Davidson diagonalization with overlap
     ethr =  6.17E-10,  avg # of iterations =  2.9

     total cpu time spent up to now is     1880.4 secs

     total energy              =   -6260.38680430 Ry
     Harris-Foulkes estimate   =   -6260.38680451 Ry
     estimated scf accuracy    <       0.00000110 Ry

     iteration # 13     ecut=   120.00 Ry     beta= 0.70
     Davidson diagonalization with overlap
     ethr =  2.98E-10,  avg # of iterations =  2.0

     total cpu time spent up to now is     2013.6 secs

     total energy              =   -6260.38680437 Ry
     Harris-Foulkes estimate   =   -6260.38680441 Ry
     estimated scf accuracy    <       0.00000015 Ry

     iteration # 14     ecut=   120.00 Ry     beta= 0.70
     Davidson diagonalization with overlap
     ethr =  4.16E-11,  avg # of iterations =  2.0

     total cpu time spent up to now is     2147.0 secs

     total energy              =   -6260.38680439 Ry
     Harris-Foulkes estimate   =   -6260.38680439 Ry
     estimated scf accuracy    <       0.00000003 Ry

     iteration # 15     ecut=   120.00 Ry     beta= 0.70
     Davidson diagonalization with overlap
     ethr =  9.43E-12,  avg # of iterations =  2.0

     total cpu time spent up to now is     2275.9 secs

     End of self-consistent calculation

          k = 0.0000 0.0000 0.0000 ( 62195 PWs)   bands (ev):

   -65.9549 -65.9540 -65.9539 -65.9539 -65.9530 -65.9530 -65.9530 -65.9521
   -30.4060 -30.3995 -30.3995 -30.3930 -30.3598 -30.3469 -30.3467 -30.3310
   -30.3247 -30.3085 -30.3073 -30.3037 -30.2855 -30.2834 -30.2820 -30.2798
   -30.2299 -30.2287 -30.2260 -30.2242 -30.1895 -30.1887 -30.1847 -30.1834
   -20.1001 -20.0998 -20.0995 -20.0992 -20.0963 -20.0960 -20.0955 -20.0953
   -20.0947 -20.0946 -20.0940 -20.0939 -20.0934 -20.0932 -20.0929 -20.0927
   -20.0882 -20.0880 -20.0879 -20.0874 -20.0869 -20.0866 -20.0865 -20.0856
   -20.0854 -20.0853 -20.0851 -20.0843 -20.0837 -20.0835 -20.0832 -20.0826
   -20.0739 -20.0732 -20.0731 -20.0731 -20.0727 -20.0724 -20.0723 -20.0718
   -20.0471 -20.0458 -20.0456 -20.0446 -20.0440 -20.0439 -20.0433 -20.0433
   -20.0417 -20.0406 -20.0397 -20.0392 -20.0391 -20.0389 -20.0377 -20.0372
    -9.9012  -9.5917  -9.4805  -9.4805  -9.1681  -9.1633  -9.0759  -8.9525
    -8.9439  -8.8509  -8.8179  -8.8168  -7.8433  -7.7601  -7.7560  -7.7510
    -7.7349  -7.6954  -7.6705  -7.6576  -7.6199  -7.6166  -7.5365  -7.5355
     1.3083   1.3171   1.3612   1.3689   1.4257   1.4273   1.4357   1.6265
     1.6569   1.6656   1.7115   1.9113   2.4721   2.5641   2.5721   2.6185
     2.7387   2.7475   4.2211   4.2339   4.4543   4.4790   4.7462   4.8301
     4.8391   4.8534   4.8763   4.8794   5.0582   5.0614   5.1951   5.4667
     5.4837   5.5096   5.5306   5.6048   5.6067   5.6795   5.6957   5.8685
     5.8715   5.8800   5.8833   5.9015   6.0161   6.0454   6.0491   6.1729
     6.1788   6.3342   6.3597   6.5224   6.5255   6.7953   6.8633   6.8832
     6.9108   6.9242   7.0001   7.0682   7.0833   7.0940   7.2847   7.2986
     7.4324   7.4460   7.8863   7.9039   8.0737   8.0975   8.1114   8.1826
     9.5314   9.5504  10.0520  10.0687  10.0724  10.0769  12.3878  12.3881
    12.4191  12.4294  12.5937  12.6037  12.6303  12.7176  12.8087  12.9872
    13.2585  13.3789  13.3949  13.4442  13.8215  14.0350  14.1014  14.2055
    14.4544  14.6396  14.6925  14.8311  15.4837  15.4894  15.6546  16.1096
    16.1250  16.8884  17.0876  17.1068  17.3432  17.4857

          k = 0.0000 0.0000 0.1666 ( 62283 PWs)   bands (ev):

   -65.9548 -65.9540 -65.9539 -65.9539 -65.9531 -65.9531 -65.9529 -65.9521
   -30.4055 -30.3999 -30.3989 -30.3934 -30.3581 -30.3472 -30.3446 -30.3315
   -30.3217 -30.3077 -30.3046 -30.3016 -30.2844 -30.2802 -30.2784 -30.2753
   -30.2360 -30.2340 -30.2256 -30.2256 -30.1958 -30.1901 -30.1884 -30.1844
   -20.1001 -20.0998 -20.0996 -20.0992 -20.0962 -20.0960 -20.0956 -20.0953
   -20.0947 -20.0946 -20.0940 -20.0939 -20.0934 -20.0932 -20.0929 -20.0928
   -20.0881 -20.0879 -20.0878 -20.0875 -20.0868 -20.0866 -20.0865 -20.0858
   -20.0855 -20.0853 -20.0852 -20.0843 -20.0837 -20.0835 -20.0834 -20.0827
   -20.0738 -20.0732 -20.0732 -20.0731 -20.0727 -20.0724 -20.0723 -20.0718
   -20.0468 -20.0455 -20.0454 -20.0445 -20.0440 -20.0438 -20.0434 -20.0429
   -20.0421 -20.0410 -20.0396 -20.0396 -20.0391 -20.0390 -20.0378 -20.0375
    -9.8563  -9.5386  -9.4966  -9.4230  -9.1769  -9.0846  -9.0824  -8.9166
    -8.9073  -8.8331  -8.8212  -8.7830  -7.8958  -7.8158  -7.7939  -7.7742
    -7.7642  -7.7312  -7.7183  -7.6989  -7.6634  -7.6531  -7.6247  -7.5437
     1.3622   1.3692   1.4189   1.4393   1.4951   1.5193   1.6206   1.6599
     1.6616   1.7763   1.8809   2.0383   2.5568   2.5967   2.6535   2.6914
     2.7299   2.8359   4.1483   4.2210   4.4059   4.4676   4.4820   4.5085
     4.6181   4.7951   4.8210   4.8943   4.9042   5.0560   5.1773   5.3189
     5.4377   5.4666   5.5121   5.5775   5.6256   5.6333   5.6864   5.6989
     5.7680   5.8200   5.8866   5.9265   6.0430   6.0725   6.0959   6.1761
     6.3147   6.4001   6.5109   6.5625   6.7319   6.7675   6.7676   6.8093
     6.8924   6.9158   6.9394   7.0001   7.0822   7.0824   7.1471   7.1476
     7.2150   7.2971   7.8887   7.8975   8.0557   8.0919   8.0919   8.1622
     9.8368   9.8580  10.0666  10.0768  10.3147  10.3609  12.3115  12.3690
    12.4442  12.4686  12.5038  12.6291  12.6670  12.7780  12.8329  12.9622
    13.1363  13.3396  13.3832  13.4179  13.8754  14.0287  14.0340  14.1104
    14.4653  14.6877  14.7189  14.9396  15.5206  15.5406  15.6208  16.0956
    16.4158  16.8125  17.0562  17.2714  17.4300  17.5342

          k = 0.0000 0.0000 0.3331 ( 62288 PWs)   bands (ev):

   -65.9547 -65.9542 -65.9537 -65.9537 -65.9533 -65.9532 -65.9527 -65.9523
   -30.4041 -30.4010 -30.3976 -30.3945 -30.3544 -30.3487 -30.3399 -30.3331
   -30.3155 -30.3090 -30.2934 -30.2918 -30.2830 -30.2812 -30.2620 -30.2580
   -30.2526 -30.2501 -30.2289 -30.2240 -30.2128 -30.2057 -30.1876 -30.1853
   -20.1000 -20.0997 -20.0997 -20.0993 -20.0961 -20.0959 -20.0957 -20.0955
   -20.0947 -20.0946 -20.0940 -20.0939 -20.0934 -20.0933 -20.0929 -20.0928
   -20.0878 -20.0875 -20.0875 -20.0874 -20.0867 -20.0864 -20.0863 -20.0862
   -20.0858 -20.0855 -20.0850 -20.0841 -20.0839 -20.0838 -20.0833 -20.0829
   -20.0737 -20.0733 -20.0731 -20.0729 -20.0728 -20.0726 -20.0722 -20.0719
   -20.0459 -20.0451 -20.0446 -20.0443 -20.0442 -20.0438 -20.0431 -20.0429
   -20.0420 -20.0419 -20.0406 -20.0396 -20.0393 -20.0388 -20.0381 -20.0381
    -9.7477  -9.5460  -9.4144  -9.2914  -9.2189  -9.1141  -8.8714  -8.8394
    -8.8329  -8.7743  -8.7096  -8.6507  -8.1815  -8.0912  -8.0858  -8.0004
    -7.8011  -7.7752  -7.7320  -7.7083  -7.7076  -7.6469  -7.6300  -7.5664
     1.3707   1.3753   1.4494   1.4646   1.5818   1.6081   1.6188   1.6549
     2.3317   2.4001   2.5164   2.6095   2.6233   2.7185   2.8057   2.9118
     2.9303   3.0759   3.7929   3.8757   3.9232   4.0417   4.1484   4.3612
     4.4334   4.5772   4.5938   4.7467   4.7624   4.8474   4.9987   5.1173
     5.1630   5.2066   5.3133   5.3827   5.4818   5.5349   5.6806   5.7450
     5.7677   5.7953   5.8659   5.9744   6.0691   6.1929   6.2020   6.2701
     6.3971   6.3997   6.4623   6.5005   6.5873   6.5956   6.6665   6.8208
     6.8283   6.9105   6.9109   7.0352   7.0404   7.0969   7.1137   7.1879
     7.3184   7.3626   7.8081   7.8235   7.9259   7.9733   8.1241   8.1464
    10.0330  10.0597  10.5139  10.6134  10.9170  11.0213  11.9411  12.0411
    12.1925  12.4892  12.5767  12.6560  12.6937  12.7636  12.8371  12.9254
    13.0065  13.2304  13.2798  13.4077  13.7237  13.7781  14.0327  14.0404
    14.5593  14.6718  14.9988  15.2312  15.5118  15.6819  15.9264  15.9978
    16.2624  17.2521  17.3955  17.5927  17.6499  17.7009

          k = 0.0000 0.0000-0.4997 ( 62308 PWs)   bands (ev):

   -65.9544 -65.9544 -65.9535 -65.9535 -65.9535 -65.9535 -65.9525 -65.9525
   -30.4025 -30.4025 -30.3960 -30.3960 -30.3511 -30.3511 -30.3358 -30.3358
   -30.3114 -30.3113 -30.2829 -30.2829 -30.2737 -30.2737 -30.2717 -30.2717
   -30.2408 -30.2408 -30.2353 -30.2353 -30.2197 -30.2197 -30.1865 -30.1865
   -20.0998 -20.0998 -20.0995 -20.0995 -20.0959 -20.0959 -20.0957 -20.0957
   -20.0946 -20.0946 -20.0940 -20.0939 -20.0933 -20.0933 -20.0929 -20.0928
   -20.0876 -20.0876 -20.0871 -20.0871 -20.0868 -20.0868 -20.0862 -20.0862
   -20.0859 -20.0859 -20.0844 -20.0844 -20.0840 -20.0840 -20.0832 -20.0831
   -20.0735 -20.0735 -20.0729 -20.0729 -20.0727 -20.0727 -20.0720 -20.0720
   -20.0447 -20.0447 -20.0447 -20.0447 -20.0437 -20.0437 -20.0433 -20.0433
   -20.0419 -20.0419 -20.0407 -20.0407 -20.0388 -20.0388 -20.0384 -20.0384
    -9.6318  -9.6318  -9.2958  -9.2958  -9.1769  -9.1769  -8.8494  -8.8494
    -8.5229  -8.5229  -8.4780  -8.4780  -8.4380  -8.4380  -8.3722  -8.3722
    -7.7898  -7.7898  -7.7207  -7.7207  -7.6773  -7.6773  -7.5979  -7.5979
     1.3737   1.3737   1.4616   1.4616   1.5958   1.5958   1.6475   1.6475
     2.6566   2.6566   3.0542   3.0542   3.1719   3.1720   3.2074   3.2074
     3.3299   3.3299   3.3803   3.3803   3.5712   3.5712   3.8333   3.8333
     3.8765   3.8765   4.5335   4.5335   4.7007   4.7007   5.0054   5.0054
     5.2575   5.2575   5.3598   5.3598   5.4028   5.4028   5.7260   5.7260
     5.8215   5.8215   5.9945   5.9945   6.1250   6.1250   6.2732   6.2732
     6.3079   6.3079   6.4124   6.4124   6.5133   6.5133   6.6071   6.6071
     6.8349   6.8349   6.9068   6.9068   7.0730   7.0730   7.5328   7.5328
     7.5881   7.5881   7.6851   7.6852   7.7287   7.7287   8.1397   8.1397
    10.0485  10.0485  11.2776  11.2776  11.3886  11.3886  11.6171  11.6171
    11.7990  11.7990  12.7117  12.7117  12.7848  12.7849  12.9599  12.9599
    13.0109  13.0109  13.3620  13.3620  13.5068  13.5068  14.0352  14.0352
    14.6375  14.6375  15.3064  15.3064  15.6609  15.6609  15.8948  15.8948
    16.6824  16.6824  17.8306  17.8306  18.0300  18.1317

          k = 0.0000 0.1596 0.0000 ( 62335 PWs)   bands (ev):

   -65.9549 -65.9540 -65.9540 -65.9539 -65.9530 -65.9530 -65.9530 -65.9521
   -30.4023 -30.3956 -30.3955 -30.3888 -30.3619 -30.3492 -30.3492 -30.3351
   -30.3239 -30.3100 -30.3085 -30.3060 -30.2854 -30.2836 -30.2821 -30.2799
   -30.2300 -30.2285 -30.2261 -30.2245 -30.1895 -30.1887 -30.1847 -30.1835
   -20.0998 -20.0995 -20.0992 -20.0989 -20.0964 -20.0961 -20.0956 -20.0954
   -20.0947 -20.0946 -20.0940 -20.0939 -20.0936 -20.0934 -20.0931 -20.0930
   -20.0882 -20.0880 -20.0878 -20.0874 -20.0869 -20.0867 -20.0865 -20.0856
   -20.0855 -20.0854 -20.0851 -20.0843 -20.0838 -20.0836 -20.0833 -20.0826
   -20.0739 -20.0732 -20.0731 -20.0731 -20.0727 -20.0724 -20.0723 -20.0718
   -20.0471 -20.0458 -20.0456 -20.0446 -20.0441 -20.0439 -20.0433 -20.0433
   -20.0417 -20.0406 -20.0397 -20.0392 -20.0391 -20.0389 -20.0377 -20.0372
    -9.8693  -9.6039  -9.4414  -9.4408  -9.1739  -9.1694  -8.9997  -8.9514
    -8.9421  -8.8077  -8.7815  -8.7807  -7.9254  -7.8600  -7.8563  -7.8065
    -7.7531  -7.7484  -7.6705  -7.6590  -7.6228  -7.6199  -7.5371  -7.5361
     1.3098   1.3165   1.3709   1.3810   1.4360   1.4446   1.5598   1.7110
     1.8203   1.8799   1.8869   2.0634   2.4786   2.5577   2.6454   2.6963
     2.8106   2.8206   4.0808   4.0964   4.1693   4.1896   4.6990   4.8212
     4.8333   4.8681   4.8748   4.9173   5.0028   5.0032   5.0761   5.3418
     5.3524   5.5082   5.5102   5.6175   5.6716   5.6992   5.7055   5.7291
     5.8085   5.8266   5.9108   5.9618   5.9718   6.0598   6.0746   6.1629
     6.1755   6.3314   6.3460   6.5518   6.5604   6.7568   6.8710   6.8845
     6.9153   6.9322   6.9640   7.0053   7.0192   7.0231   7.2871   7.3010
     7.4363   7.4496   7.8875   7.9022   8.0408   8.0543   8.0605   8.1045
     9.5390   9.5512  10.2505  10.2510  10.2602  10.2637  12.2802  12.3101
    12.4134  12.4287  12.4681  12.5436  12.5836  12.5965  12.8316  12.9947
    13.2825  13.3732  13.3872  13.4614  13.9453  14.0089  14.0526  14.1100
    14.5276  14.8517  14.8822  15.0127  15.4816  15.4845  16.0555  16.0810
    16.0946  16.5711  17.2271  17.2460  17.4066  17.5365

          k = 0.0000 0.1596 0.1666 ( 62337 PWs)   bands (ev):

   -65.9548 -65.9540 -65.9539 -65.9539 -65.9531 -65.9531 -65.9529 -65.9521
   -30.4017 -30.3960 -30.3950 -30.3892 -30.3603 -30.3497 -30.3473 -30.3356
   -30.3210 -30.3089 -30.3059 -30.3037 -30.2844 -30.2803 -30.2784 -30.2753
   -30.2362 -30.2340 -30.2259 -30.2257 -30.1958 -30.1901 -30.1885 -30.1844
   -20.0998 -20.0995 -20.0992 -20.0989 -20.0963 -20.0960 -20.0957 -20.0954
   -20.0947 -20.0946 -20.0940 -20.0939 -20.0936 -20.0934 -20.0931 -20.0930
   -20.0881 -20.0879 -20.0877 -20.0874 -20.0867 -20.0867 -20.0866 -20.0857
   -20.0855 -20.0854 -20.0852 -20.0843 -20.0838 -20.0835 -20.0834 -20.0827
   -20.0738 -20.0732 -20.0732 -20.0731 -20.0728 -20.0724 -20.0723 -20.0719
   -20.0468 -20.0455 -20.0454 -20.0445 -20.0440 -20.0438 -20.0434 -20.0429
   -20.0421 -20.0410 -20.0396 -20.0396 -20.0391 -20.0390 -20.0378 -20.0375
    -9.8231  -9.5508  -9.4570  -9.3790  -9.1833  -9.0883  -9.0084  -8.9143
    -8.9034  -8.7945  -8.7850  -8.7516  -7.9364  -7.8773  -7.8593  -7.8512
    -7.8150  -7.7822  -7.7465  -7.7383  -7.6617  -7.6539  -7.6282  -7.5444
     1.3752   1.3831   1.4246   1.4493   1.5992   1.6512   1.6757   1.8278
     1.8761   1.8895   1.9142   2.1346   2.5652   2.6466   2.6699   2.7696
     2.8028   2.9083   4.0539   4.0924   4.1809   4.2141   4.4363   4.5030
     4.6257   4.7270   4.8036   4.8830   4.8948   5.0113   5.0511   5.2602
     5.2961   5.3935   5.4279   5.5154   5.5791   5.6255   5.6879   5.7377
     5.7908   5.8159   5.8862   5.9091   5.9343   6.0933   6.1126   6.1692
     6.3116   6.3475   6.5388   6.5478   6.7247   6.7809   6.8031   6.8413
     6.8644   6.9380   6.9633   6.9842   7.0256   7.0506   7.1421   7.1504
     7.2175   7.3028   7.8878   7.8967   8.0210   8.0369   8.0461   8.0889
     9.8494   9.8718  10.2505  10.2660  10.4754  10.5072  12.2724  12.3278
    12.3563  12.4575  12.4845  12.5058  12.5746  12.6677  12.8607  12.9797
    13.1409  13.3321  13.3747  13.4279  13.9082  13.9593  14.0085  14.0459
    14.6006  14.8752  14.9816  15.1016  15.5193  15.5383  16.0131  16.0745
    16.3853  16.7224  16.9406  17.3854  17.4906  17.6060

          k = 0.0000 0.1596 0.3331 ( 62307 PWs)   bands (ev):

   -65.9547 -65.9542 -65.9537 -65.9537 -65.9533 -65.9532 -65.9528 -65.9523
   -30.4003 -30.3971 -30.3935 -30.3903 -30.3568 -30.3512 -30.3433 -30.3371
   -30.3156 -30.3101 -30.2946 -30.2925 -30.2830 -30.2814 -30.2621 -30.2580
   -30.2528 -30.2502 -30.2290 -30.2241 -30.2128 -30.2057 -30.1876 -30.1853
   -20.0997 -20.0994 -20.0994 -20.0990 -20.0962 -20.0959 -20.0958 -20.0955
   -20.0947 -20.0946 -20.0940 -20.0939 -20.0936 -20.0935 -20.0931 -20.0930
   -20.0878 -20.0875 -20.0875 -20.0874 -20.0867 -20.0865 -20.0863 -20.0862
   -20.0859 -20.0854 -20.0850 -20.0842 -20.0839 -20.0838 -20.0834 -20.0829
   -20.0737 -20.0733 -20.0731 -20.0729 -20.0728 -20.0725 -20.0722 -20.0719
   -20.0459 -20.0451 -20.0446 -20.0443 -20.0442 -20.0438 -20.0431 -20.0429
   -20.0420 -20.0419 -20.0406 -20.0396 -20.0393 -20.0388 -20.0381 -20.0381
    -9.7117  -9.5068  -9.4259  -9.2331  -9.2264  -9.0385  -8.8516  -8.8379
    -8.7967  -8.7722  -8.6981  -8.6338  -8.1838  -8.0969  -8.0909  -8.0084
    -7.8874  -7.8683  -7.8343  -7.8081  -7.7140  -7.6509  -7.6307  -7.5671
     1.3902   1.4040   1.4616   1.4809   1.7758   1.7935   1.8637   1.8808
     2.3328   2.4066   2.5199   2.6219   2.6981   2.7843   2.8168   2.9093
     3.0086   3.1417   3.7962   3.8856   3.9133   3.9854   4.1832   4.2259
     4.2326   4.4012   4.5886   4.6926   4.7140   4.8298   4.8747   4.9754
     5.0555   5.1653   5.2012   5.2784   5.4319   5.4435   5.5550   5.6845
     5.7491   5.8056   5.8556   5.9095   5.9679   6.1113   6.2133   6.2964
     6.3499   6.4538   6.5074   6.5951   6.6588   6.6847   6.7522   6.8238
     6.8484   6.8949   6.9362   6.9784   7.0225   7.0616   7.1431   7.1865
     7.3189   7.3610   7.8109   7.8194   7.8979   7.9297   8.0640   8.0794
    10.2293  10.2497  10.5262  10.6214  11.0294  11.1114  11.9410  12.0424
    12.1785  12.5089  12.5251  12.5695  12.6098  12.7232  12.7565  12.8999
    12.9431  13.2226  13.2759  13.3884  13.6227  13.6988  14.0074  14.0258
    14.7576  14.8601  15.3241  15.3645  15.6798  15.8895  15.9497  15.9965
    16.3807  17.1681  17.2162  17.4609  17.7253  17.8203

          k = 0.0000 0.1596-0.4997 ( 62330 PWs)   bands (ev):

   -65.9544 -65.9544 -65.9535 -65.9535 -65.9535 -65.9535 -65.9525 -65.9525
   -30.3986 -30.3986 -30.3918 -30.3918 -30.3536 -30.3536 -30.3396 -30.3396
   -30.3122 -30.3122 -30.2833 -30.2832 -30.2741 -30.2741 -30.2720 -30.2720
   -30.2409 -30.2409 -30.2354 -30.2354 -30.2197 -30.2197 -30.1865 -30.1865
   -20.0995 -20.0995 -20.0992 -20.0992 -20.0960 -20.0960 -20.0957 -20.0957
   -20.0946 -20.0946 -20.0940 -20.0940 -20.0935 -20.0935 -20.0931 -20.0931
   -20.0876 -20.0876 -20.0871 -20.0871 -20.0868 -20.0868 -20.0862 -20.0862
   -20.0859 -20.0859 -20.0845 -20.0845 -20.0840 -20.0840 -20.0832 -20.0832
   -20.0735 -20.0735 -20.0729 -20.0729 -20.0727 -20.0727 -20.0720 -20.0720
   -20.0447 -20.0447 -20.0447 -20.0447 -20.0437 -20.0437 -20.0433 -20.0433
   -20.0419 -20.0419 -20.0407 -20.0407 -20.0388 -20.0388 -20.0384 -20.0384
    -9.5935  -9.5935  -9.3052  -9.3052  -9.1054  -9.1054  -8.8141  -8.8141
    -8.5237  -8.5237  -8.4838  -8.4838  -8.4369  -8.4369  -8.3694  -8.3694
    -7.8820  -7.8820  -7.8238  -7.8238  -7.6824  -7.6824  -7.5986  -7.5986
     1.4000   1.4000   1.4764   1.4764   1.7946   1.7946   1.8797   1.8798
     2.7281   2.7281   3.0696   3.0696   3.1818   3.1818   3.2329   3.2329
     3.3412   3.3412   3.3793   3.3793   3.5663   3.5664   3.8411   3.8411
     3.9251   3.9252   4.3077   4.3077   4.6195   4.6195   4.8163   4.8164
     5.1024   5.1024   5.3255   5.3255   5.3814   5.3814   5.5535   5.5536
     5.7608   5.7608   5.8855   5.8855   6.1309   6.1309   6.2835   6.2835
     6.3704   6.3704   6.4572   6.4572   6.5879   6.5879   6.7060   6.7060
     6.8873   6.8873   6.9031   6.9031   7.0058   7.0058   7.5423   7.5423
     7.5809   7.5809   7.6700   7.6700   7.7078   7.7078   8.0750   8.0750
    10.2458  10.2458  11.2847  11.2847  11.3900  11.3900  11.6842  11.6842
    11.8570  11.8570  12.5672  12.5672  12.7735  12.7735  12.9412  12.9412
    12.9772  12.9772  13.2544  13.2544  13.4593  13.4593  14.0111  14.0111
    14.8304  14.8304  15.6436  15.6436  15.7931  15.7931  15.9113  15.9113
    16.7288  16.7288  17.6288  17.6288  18.0449  18.0449

          k = 0.0000 0.3193 0.0000 ( 62346 PWs)   bands (ev):

   -65.9549 -65.9540 -65.9539 -65.9539 -65.9531 -65.9530 -65.9530 -65.9521
   -30.3923 -30.3852 -30.3851 -30.3774 -30.3686 -30.3569 -30.3565 -30.3464
   -30.3216 -30.3128 -30.3115 -30.3109 -30.2852 -30.2840 -30.2822 -30.2802
   -30.2302 -30.2280 -30.2263 -30.2253 -30.1895 -30.1888 -30.1844 -30.1837
   -20.0991 -20.0988 -20.0984 -20.0981 -20.0966 -20.0962 -20.0961 -20.0956
   -20.0947 -20.0945 -20.0940 -20.0940 -20.0939 -20.0938 -20.0936 -20.0935
   -20.0881 -20.0880 -20.0877 -20.0872 -20.0869 -20.0869 -20.0866 -20.0856
   -20.0855 -20.0855 -20.0850 -20.0842 -20.0839 -20.0837 -20.0834 -20.0827
   -20.0739 -20.0732 -20.0731 -20.0731 -20.0727 -20.0724 -20.0723 -20.0718
   -20.0471 -20.0458 -20.0456 -20.0446 -20.0441 -20.0439 -20.0433 -20.0433
   -20.0417 -20.0406 -20.0397 -20.0392 -20.0391 -20.0389 -20.0377 -20.0372
    -9.7916  -9.6417  -9.3564  -9.3540  -9.1918  -9.1883  -8.9487  -8.9422
    -8.7844  -8.6661  -8.6554  -8.6545  -8.1667  -8.1174  -8.1144  -8.0883
    -7.7570  -7.7509  -7.6696  -7.6625  -7.6240  -7.6213  -7.5382  -7.5374
     1.3106   1.3153   1.3755   1.3868   1.4417   1.4508   1.6750   1.7087
     2.3845   2.4952   2.5214   2.5309   2.5406   2.6833   2.8592   2.9397
     3.0247   3.0421   3.6756   3.7042   3.7191   3.7390   4.1773   4.5133
     4.5289   4.7865   4.8246   4.8436   4.8688   4.8842   5.0873   5.0901
     5.0998   5.1159   5.4157   5.4245   5.6073   5.6159   5.7508   5.7593
     5.8959   5.9055   5.9383   5.9421   5.9989   6.0902   6.1278   6.1684
     6.1948   6.2929   6.3089   6.5392   6.6075   6.6156   6.8706   6.8790
     6.9102   6.9883   7.1258   7.1299   7.1417   7.1445   7.2929   7.3066
     7.4429   7.4561   7.8268   7.8557   7.8834   7.8940   7.9165   7.9173
     9.5477   9.5522  10.7204  10.7343  10.7608  10.7937  11.9118  11.9414
    12.0262  12.0905  12.4241  12.4405  12.5836  12.5975  12.8863  12.9935
    13.3763  13.4249  13.4385  13.5200  13.8262  13.8363  13.8484  13.8903
    14.9152  15.3488  15.3578  15.4734  15.4788  15.6820  15.9834  15.9926
    16.0108  17.0423  17.2739  17.5936  17.7049  17.7214

          k = 0.0000 0.3193 0.1666 ( 62315 PWs)   bands (ev):

   -65.9548 -65.9540 -65.9539 -65.9539 -65.9531 -65.9530 -65.9530 -65.9522
   -30.3916 -30.3855 -30.3844 -30.3778 -30.3673 -30.3574 -30.3554 -30.3468
   -30.3190 -30.3113 -30.3090 -30.3079 -30.2845 -30.2806 -30.2785 -30.2755
   -30.2364 -30.2339 -30.2263 -30.2258 -30.1958 -30.1901 -30.1885 -30.1845
   -20.0991 -20.0988 -20.0984 -20.0981 -20.0966 -20.0962 -20.0961 -20.0957
   -20.0947 -20.0945 -20.0940 -20.0940 -20.0939 -20.0938 -20.0936 -20.0935
   -20.0880 -20.0878 -20.0876 -20.0872 -20.0869 -20.0867 -20.0867 -20.0857
   -20.0856 -20.0855 -20.0851 -20.0842 -20.0840 -20.0837 -20.0835 -20.0828
   -20.0738 -20.0732 -20.0732 -20.0731 -20.0728 -20.0724 -20.0723 -20.0719
   -20.0468 -20.0455 -20.0454 -20.0445 -20.0440 -20.0438 -20.0434 -20.0429
   -20.0421 -20.0410 -20.0396 -20.0396 -20.0391 -20.0390 -20.0378 -20.0375
    -9.7426  -9.5888  -9.3698  -9.2814  -9.2032  -9.1072  -8.9117  -8.9008
    -8.7929  -8.6599  -8.6584  -8.6372  -8.1673  -8.1249  -8.1116  -8.0948
    -7.8729  -7.7853  -7.7505  -7.7444  -7.6619  -7.6558  -7.6297  -7.5457
     1.3784   1.3896   1.4259   1.4560   1.6255   1.6923   1.8244   1.8866
     2.3892   2.5065   2.5293   2.5837   2.6293   2.6784   2.8887   3.0039
     3.0274   3.1320   3.6968   3.7131   3.7342   3.7789   4.1617   4.4567
     4.4590   4.5280   4.5598   4.7755   4.7861   4.8701   4.9048   4.9375
     5.0888   5.1197   5.2135   5.3675   5.4193   5.5136   5.6200   5.7025
     5.7394   5.8178   5.8505   5.9148   6.0278   6.0889   6.1717   6.1871
     6.2915   6.3600   6.5097   6.5856   6.6216   6.8290   6.8547   6.9594
     6.9696   7.0034   7.0725   7.0867   7.1184   7.1306   7.1744   7.2049
     7.2372   7.3212   7.8170   7.8486   7.8645   7.8762   7.9092   7.9175
     9.8595   9.8839  10.7379  10.7755  10.8949  10.9435  11.9366  11.9971
    12.0550  12.1415  12.3352  12.4762  12.4959  12.6433  12.9283  13.0051
    13.2276  13.3450  13.4228  13.4628  13.7007  13.7620  13.8239  13.8726
    15.0385  15.3456  15.4807  15.5386  15.5881  15.7454  15.9650  16.1691
    16.2815  17.0067  17.3085  17.3759  17.6605  17.8128

          k = 0.0000 0.3193 0.3331 ( 62289 PWs)   bands (ev):

   -65.9546 -65.9541 -65.9538 -65.9537 -65.9533 -65.9532 -65.9528 -65.9523
   -30.3899 -30.3866 -30.3826 -30.3790 -30.3643 -30.3589 -30.3529 -30.3481
   -30.3157 -30.3123 -30.2972 -30.2938 -30.2831 -30.2817 -30.2621 -30.2582
   -30.2531 -30.2504 -30.2292 -30.2242 -30.2129 -30.2057 -30.1877 -30.1854
   -20.0989 -20.0987 -20.0986 -20.0983 -20.0965 -20.0962 -20.0961 -20.0958
   -20.0947 -20.0946 -20.0940 -20.0940 -20.0939 -20.0938 -20.0936 -20.0935
   -20.0876 -20.0875 -20.0874 -20.0873 -20.0868 -20.0867 -20.0863 -20.0861
   -20.0860 -20.0854 -20.0851 -20.0842 -20.0840 -20.0839 -20.0836 -20.0830
   -20.0737 -20.0733 -20.0731 -20.0729 -20.0728 -20.0725 -20.0722 -20.0719
   -20.0459 -20.0451 -20.0446 -20.0443 -20.0442 -20.0438 -20.0431 -20.0429
   -20.0420 -20.0419 -20.0406 -20.0396 -20.0393 -20.0388 -20.0381 -20.0381
    -9.6254  -9.4620  -9.4185  -9.2497  -9.0913  -8.8699  -8.8249  -8.7980
    -8.7643  -8.6727  -8.6194  -8.5633  -8.2270  -8.1971  -8.1320  -8.1154
    -8.1021  -8.0482  -8.0325  -7.9555  -7.7162  -7.6526  -7.6322  -7.5684
     1.3984   1.4136   1.4698   1.4896   2.2388   2.3268   2.3374   2.4254
     2.5064   2.5493   2.5551   2.7674   2.8427   2.8800   2.9231   3.0046
     3.2467   3.3415   3.6762   3.6962   3.7736   3.8474   3.8959   3.9240
     4.1307   4.2873   4.4153   4.4557   4.4828   4.6204   4.6448   4.7797
     4.8707   4.8956   5.0346   5.1016   5.1887   5.2572   5.2845   5.3813
     5.4351   5.6331   5.6816   5.8660   6.1398   6.1590   6.2224   6.3506
     6.4313   6.4788   6.5778   6.6815   6.7342   6.7799   6.8257   6.8886
     6.9625   7.0088   7.0666   7.0749   7.1062   7.1535   7.2000   7.2560
     7.3231   7.3652   7.7452   7.7728   7.8135   7.8261   7.8682   7.8912
    10.5293  10.5770  10.7488  10.8036  11.3434  11.3987  11.8833  11.9814
    12.0613  12.0949  12.2755  12.3523  12.6535  12.6808  12.7089  12.8032
    12.9736  13.1384  13.2694  13.3724  13.4251  13.5796  13.8202  13.8473
    15.1875  15.3160  15.5998  15.8763  15.9100  16.0837  16.1147  16.6505
    16.7927  16.8809  17.0854  17.5836  17.6612  17.7800

          k = 0.0000 0.3193-0.4997 ( 62280 PWs)   bands (ev):

   -65.9544 -65.9544 -65.9535 -65.9535 -65.9534 -65.9534 -65.9526 -65.9526
   -30.3882 -30.3882 -30.3806 -30.3806 -30.3613 -30.3613 -30.3502 -30.3502
   -30.3138 -30.3138 -30.2839 -30.2839 -30.2746 -30.2746 -30.2725 -30.2725
   -30.2410 -30.2410 -30.2355 -30.2355 -30.2198 -30.2198 -30.1866 -30.1866
   -20.0988 -20.0987 -20.0985 -20.0985 -20.0964 -20.0964 -20.0959 -20.0959
   -20.0946 -20.0946 -20.0940 -20.0940 -20.0939 -20.0939 -20.0936 -20.0936
   -20.0874 -20.0874 -20.0871 -20.0871 -20.0868 -20.0867 -20.0865 -20.0865
   -20.0858 -20.0858 -20.0846 -20.0845 -20.0841 -20.0841 -20.0833 -20.0833
   -20.0735 -20.0735 -20.0729 -20.0729 -20.0727 -20.0727 -20.0720 -20.0720
   -20.0447 -20.0447 -20.0447 -20.0447 -20.0437 -20.0437 -20.0433 -20.0433
   -20.0419 -20.0419 -20.0407 -20.0407 -20.0388 -20.0388 -20.0384 -20.0384
    -9.5046  -9.5046  -9.3349  -9.3349  -8.9097  -8.9097  -8.7023  -8.7023
    -8.5348  -8.5348  -8.5096  -8.5096  -8.4287  -8.4287  -8.3552  -8.3551
    -8.1163  -8.1163  -8.0710  -8.0710  -7.6844  -7.6844  -7.6000  -7.6000
     1.4099   1.4099   1.4858   1.4858   2.3906   2.3906   2.5252   2.5252
     2.9349   2.9349   3.1111   3.1111   3.1665   3.1665   3.2959   3.2959
     3.3593   3.3593   3.4051   3.4051   3.5480   3.5480   3.7210   3.7210
     4.0460   4.0461   4.0890   4.0890   4.1964   4.1964   4.3857   4.3857
     4.8698   4.8698   4.9756   4.9756   5.1560   5.1560   5.3031   5.3031
     5.4680   5.4680   5.7732   5.7733   6.2519   6.2519   6.3051   6.3051
     6.4820   6.4820   6.5553   6.5553   6.5986   6.5986   6.7798   6.7798
     7.0772   7.0773   7.0887   7.0887   7.1253   7.1253   7.5405   7.5405
     7.5571   7.5571   7.6070   7.6070   7.6445   7.6445   7.8747   7.8747
    10.7481  10.7481  11.2987  11.2987  11.3933  11.3933  11.8107  11.8107
    12.0430  12.0430  12.2257  12.2257  12.6791  12.6791  12.7052  12.7052
    12.9673  12.9673  13.0679  13.0679  13.4534  13.4534  13.8249  13.8249
    15.2638  15.2638  15.7523  15.7523  16.2806  16.2806  16.6068  16.6068
    16.9142  16.9142  17.2478  17.2478  17.9759  17.9759

          k = 0.0000-0.4789 0.0000 ( 62346 PWs)   bands (ev):

   -65.9548 -65.9540 -65.9539 -65.9539 -65.9531 -65.9530 -65.9530 -65.9521
   -30.3802 -30.3791 -30.3756 -30.3748 -30.3660 -30.3648 -30.3622 -30.3615
   -30.3178 -30.3169 -30.3141 -30.3120 -30.2849 -30.2844 -30.2822 -30.2803
   -30.2302 -30.2277 -30.2264 -30.2258 -30.1895 -30.1888 -30.1841 -30.1840
   -20.0986 -20.0984 -20.0976 -20.0974 -20.0969 -20.0966 -20.0963 -20.0960
   -20.0947 -20.0945 -20.0943 -20.0941 -20.0939 -20.0939 -20.0939 -20.0938
   -20.0881 -20.0880 -20.0876 -20.0871 -20.0870 -20.0869 -20.0868 -20.0857
   -20.0855 -20.0855 -20.0849 -20.0842 -20.0840 -20.0838 -20.0834 -20.0827
   -20.0739 -20.0732 -20.0731 -20.0731 -20.0727 -20.0724 -20.0723 -20.0718
   -20.0471 -20.0458 -20.0456 -20.0446 -20.0441 -20.0439 -20.0433 -20.0433
   -20.0417 -20.0406 -20.0397 -20.0392 -20.0391 -20.0389 -20.0377 -20.0372
    -9.7073  -9.7059  -9.3054  -9.3011  -9.2097  -9.2075  -8.9454  -8.9448
    -8.4774  -8.4772  -8.4234  -8.4213  -8.4173  -8.4172  -8.4147  -8.4127
    -7.7564  -7.7520  -7.6679  -7.6656  -7.6240  -7.6213  -7.5388  -7.5380
     1.3108   1.3146   1.3763   1.3878   1.4429   1.4522   1.7003   1.7025
     2.5168   2.5181   3.0717   3.0763   3.1650   3.1718   3.2647   3.2740
     3.3570   3.3649   3.3699   3.3832   3.4786   3.5112   3.6463   3.6584
     3.7348   3.7351   4.8314   4.8504   4.8510   4.8665   5.2284   5.2546
     5.2727   5.2930   5.3357   5.3392   5.3512   5.3540   5.8149   5.8255
     5.8268   5.8348   5.9403   5.9508   6.1070   6.1096   6.1524   6.1634
     6.2199   6.2466   6.3297   6.3385   6.6557   6.6626   6.7895   6.7995
     6.9494   6.9518   7.2875   7.3002   7.4187   7.4242   7.4648   7.4670
     7.5413   7.5446   7.5505   7.5544   7.5944   7.6001   7.9048   7.9049
     9.5514   9.5517  11.2838  11.3086  11.3633  11.3835  11.3882  11.4124
    11.4838  11.5042  12.4284  12.4451  12.5859  12.6001  12.9526  12.9541
    13.5429  13.5580  13.5871  13.5920  13.6024  13.6086  13.6875  13.6981
    15.3758  15.4002  15.5066  15.5285  15.6923  15.6983  15.8255  15.8309
    16.5821  16.5823  17.8923  17.8935  18.1203  18.1206

          k = 0.0000-0.4789 0.1666 ( 62292 PWs)   bands (ev):

   -65.9548 -65.9540 -65.9539 -65.9538 -65.9531 -65.9530 -65.9530 -65.9522
   -30.3788 -30.3785 -30.3751 -30.3740 -30.3666 -30.3647 -30.3628 -30.3618
   -30.3166 -30.3129 -30.3123 -30.3091 -30.2845 -30.2807 -30.2786 -30.2756
   -30.2365 -30.2338 -30.2265 -30.2259 -30.1958 -30.1901 -30.1885 -30.1845
   -20.0985 -20.0983 -20.0977 -20.0975 -20.0969 -20.0966 -20.0963 -20.0960
   -20.0946 -20.0945 -20.0943 -20.0941 -20.0939 -20.0939 -20.0939 -20.0938
   -20.0879 -20.0878 -20.0875 -20.0870 -20.0870 -20.0869 -20.0867 -20.0857
   -20.0856 -20.0855 -20.0850 -20.0842 -20.0840 -20.0838 -20.0836 -20.0828
   -20.0738 -20.0732 -20.0731 -20.0731 -20.0728 -20.0724 -20.0723 -20.0719
   -20.0468 -20.0455 -20.0454 -20.0445 -20.0440 -20.0438 -20.0434 -20.0429
   -20.0421 -20.0410 -20.0396 -20.0396 -20.0391 -20.0390 -20.0378 -20.0375
    -9.6595  -9.6503  -9.3158  -9.2238  -9.2212  -9.1277  -8.9103  -8.9009
    -8.4835  -8.4832  -8.4302  -8.4219  -8.4174  -8.4148  -8.4122  -8.4047
    -7.8739  -7.7860  -7.7504  -7.7454  -7.6621  -7.6569  -7.6297  -7.5463
     1.3787   1.3907   1.4259   1.4575   1.6280   1.6951   1.8478   1.8904
     2.6043   2.6070   3.0760   3.0862   3.1800   3.2030   3.2714   3.2805
     3.3444   3.3730   3.3732   3.4181   3.4988   3.5633   3.6444   3.6866
     3.7620   3.7701   4.4776   4.4860   4.8367   4.8847   4.9960   5.0686
     5.1413   5.1455   5.2306   5.2510   5.3490   5.3714   5.5362   5.5792
     5.7902   5.7960   5.8223   5.8387   6.0327   6.1568   6.1714   6.2023
     6.3570   6.3901   6.4189   6.5326   6.6463   6.7794   6.8455   6.9743
     7.0022   7.0322   7.1164   7.1274   7.2049   7.2644   7.4567   7.4770
     7.5222   7.5376   7.5385   7.5505   7.5842   7.5892   7.9018   7.9030
     9.8625   9.8871  11.3115  11.3783  11.3976  11.4140  11.4789  11.5063
    11.5129  11.5989  12.3369  12.4763  12.4978  12.6444  12.9964  12.9980
    13.3897  13.4214  13.4448  13.4793  13.5848  13.5881  13.6639  13.7121
    15.3770  15.4972  15.5999  15.6774  15.7048  15.8177  15.9778  16.0904
    16.6442  16.6506  17.8131  17.8511  17.9349  18.0972

          k = 0.0000-0.4789 0.3331 ( 62336 PWs)   bands (ev):

   -65.9546 -65.9541 -65.9538 -65.9537 -65.9533 -65.9532 -65.9528 -65.9523
   -30.3781 -30.3760 -30.3748 -30.3706 -30.3683 -30.3645 -30.3642 -30.3625
   -30.3158 -30.3133 -30.2985 -30.2944 -30.2832 -30.2818 -30.2621 -30.2582
   -30.2533 -30.2505 -30.2294 -30.2243 -30.2129 -30.2057 -30.1877 -30.1854
   -20.0984 -20.0982 -20.0979 -20.0977 -20.0969 -20.0967 -20.0963 -20.0961
   -20.0946 -20.0945 -20.0942 -20.0941 -20.0939 -20.0939 -20.0939 -20.0938
   -20.0875 -20.0874 -20.0873 -20.0870 -20.0870 -20.0869 -20.0863 -20.0861
   -20.0860 -20.0853 -20.0852 -20.0842 -20.0841 -20.0840 -20.0836 -20.0831
   -20.0736 -20.0733 -20.0731 -20.0729 -20.0728 -20.0725 -20.0722 -20.0719
   -20.0459 -20.0451 -20.0446 -20.0443 -20.0442 -20.0438 -20.0431 -20.0429
   -20.0420 -20.0419 -20.0406 -20.0396 -20.0393 -20.0388 -20.0381 -20.0381
    -9.5502  -9.5117  -9.3608  -9.2749  -8.9880  -8.9040  -8.7896  -8.7586
    -8.5211  -8.5139  -8.4520  -8.4443  -8.4074  -8.4052  -8.3893  -8.3738
    -8.1546  -8.0728  -8.0524  -7.9724  -7.7162  -7.6526  -7.6329  -7.5691
     1.3997   1.4149   1.4714   1.4911   2.2990   2.3592   2.4724   2.5292
     2.8572   2.8608   3.0767   3.1090   3.2073   3.2623   3.2770   3.2924
     3.3270   3.3598   3.4133   3.4507   3.5397   3.6174   3.7433   3.7894
     3.8346   3.8509   3.8811   3.9138   4.4679   4.4748   4.6338   4.6633
     4.7833   4.8403   4.9055   4.9495   5.2151   5.2663   5.2674   5.2916
     5.3950   5.4477   5.7005   5.7208   6.1629   6.2011   6.2267   6.3763
     6.4825   6.5066   6.5718   6.6553   6.7402   6.7757   6.7772   6.9330
     7.0558   7.0913   7.1522   7.1784   7.2351   7.2464   7.4287   7.4815
     7.4989   7.5227   7.5307   7.5521   7.5728   7.5734   7.8309   7.8335
    10.5421  10.5967  11.3209  11.3659  11.4253  11.4700  11.7783  11.8287
    11.8478  11.9239  11.9712  12.0741  12.6653  12.7785  12.8267  12.8311
    12.9267  12.9762  13.2109  13.2826  13.5807  13.5840  13.6238  13.6596
    15.4074  15.5453  15.6111  15.7470  16.1792  16.2801  16.7215  16.7972
    16.8694  16.8949  17.3338  17.3374  17.9588  17.9900

          k = 0.0000-0.4789-0.4997 ( 62308 PWs)   bands (ev):

   -65.9544 -65.9544 -65.9535 -65.9535 -65.9534 -65.9534 -65.9526 -65.9526
   -30.3770 -30.3770 -30.3711 -30.3711 -30.3672 -30.3671 -30.3634 -30.3634
   -30.3146 -30.3146 -30.2842 -30.2842 -30.2749 -30.2749 -30.2727 -30.2727
   -30.2410 -30.2410 -30.2355 -30.2355 -30.2199 -30.2199 -30.1866 -30.1866
   -20.0981 -20.0981 -20.0980 -20.0980 -20.0968 -20.0968 -20.0962 -20.0962
   -20.0946 -20.0946 -20.0942 -20.0942 -20.0939 -20.0939 -20.0939 -20.0939
   -20.0872 -20.0872 -20.0871 -20.0871 -20.0868 -20.0868 -20.0866 -20.0866
   -20.0858 -20.0858 -20.0846 -20.0846 -20.0841 -20.0841 -20.0834 -20.0834
   -20.0735 -20.0735 -20.0729 -20.0729 -20.0727 -20.0727 -20.0721 -20.0720
   -20.0447 -20.0447 -20.0447 -20.0447 -20.0437 -20.0437 -20.0433 -20.0433
   -20.0419 -20.0419 -20.0407 -20.0407 -20.0388 -20.0388 -20.0384 -20.0384
    -9.4394  -9.4394  -9.3700  -9.3700  -8.6895  -8.6895  -8.6380  -8.6380
    -8.5731  -8.5731  -8.5425  -8.5425  -8.3733  -8.3733  -8.3355  -8.3355
    -8.3095  -8.3094  -8.2601  -8.2601  -7.6844  -7.6844  -7.6007  -7.6007
     1.4113   1.4113   1.4877   1.4877   2.9831   2.9831   3.0922   3.0922
     3.1703   3.1703   3.1883   3.1883   3.2201   3.2201   3.2655   3.2655
     3.3627   3.3627   3.3987   3.3987   3.4779   3.4779   3.5457   3.5457
     3.6398   3.6399   3.7765   3.7765   4.3094   4.3094   4.3618   4.3618
     4.4023   4.4023   4.4757   4.4757   5.2278   5.2279   5.2583   5.2583
     5.5234   5.5234   5.5918   5.5918   6.2978   6.2978   6.3011   6.3011
     6.5192   6.5192   6.5960   6.5960   6.6268   6.6268   6.6969   6.6969
     7.2858   7.2858   7.3218   7.3218   7.3453   7.3453   7.4650   7.4650
     7.4888   7.4888   7.5444   7.5444   7.6209   7.6209   7.6600   7.6600
    11.2346  11.2346  11.3205  11.3205  11.4319  11.4319  11.5010  11.5010
    12.2912  12.2912  12.3114  12.3115  12.4011  12.4011  12.4251  12.4251
    12.9444  12.9444  13.0350  13.0350  13.5858  13.5858  13.6019  13.6019
    15.5083  15.5083  15.6510  15.6510  16.7827  16.7827  16.8559  16.8559
    17.4188  17.4188  17.4676  17.4676  17.6012  17.6012

          k = 0.1667 0.0000 0.0000 ( 62293 PWs)   bands (ev):

   -65.9548 -65.9540 -65.9539 -65.9539 -65.9531 -65.9530 -65.9530 -65.9521
   -30.4055 -30.3999 -30.3990 -30.3934 -30.3581 -30.3474 -30.3445 -30.3315
   -30.3219 -30.3089 -30.3034 -30.3017 -30.2837 -30.2825 -30.2782 -30.2734
   -30.2327 -30.2320 -30.2295 -30.2268 -30.1951 -30.1905 -30.1892 -30.1844
   -20.1001 -20.0998 -20.0995 -20.0992 -20.0963 -20.0960 -20.0955 -20.0953
   -20.0946 -20.0945 -20.0940 -20.0939 -20.0934 -20.0932 -20.0930 -20.0928
   -20.0882 -20.0880 -20.0878 -20.0872 -20.0869 -20.0865 -20.0863 -20.0857
   -20.0853 -20.0853 -20.0853 -20.0844 -20.0839 -20.0837 -20.0832 -20.0826
   -20.0738 -20.0732 -20.0732 -20.0731 -20.0727 -20.0724 -20.0724 -20.0719
   -20.0470 -20.0459 -20.0454 -20.0443 -20.0439 -20.0436 -20.0434 -20.0429
   -20.0416 -20.0408 -20.0401 -20.0395 -20.0394 -20.0388 -20.0380 -20.0373
    -9.8565  -9.5393  -9.4967  -9.4234  -9.1817  -9.0849  -9.0776  -8.9180
    -8.9060  -8.8318  -8.8223  -8.7816  -7.8948  -7.8134  -7.7898  -7.7765
    -7.7601  -7.7357  -7.7166  -7.6991  -7.6621  -7.6549  -7.6281  -7.5448
     1.3563   1.3619   1.4152   1.4310   1.4933   1.5203   1.6207   1.6530
     1.6694   1.7864   1.8876   2.0428   2.5554   2.6013   2.6532   2.6874
     2.7383   2.8288   4.1418   4.2307   4.4002   4.4486   4.5025   4.5098
     4.6125   4.8066   4.8208   4.8830   4.8972   5.0505   5.1701   5.3452
     5.4530   5.4568   5.5142   5.5760   5.6318   5.6318   5.6777   5.7009
     5.7684   5.8380   5.8746   5.9226   6.0548   6.0585   6.1081   6.1714
     6.3370   6.3816   6.5062   6.5535   6.7496   6.7653   6.7760   6.7977
     6.8966   6.9023   6.9362   7.0036   7.0664   7.0789   7.1421   7.1570
     7.2290   7.2886   7.8894   7.8978   8.0352   8.0818   8.1151   8.1744
     9.8412   9.8635  10.0718  10.0752  10.3090  10.3573  12.3325  12.3365
    12.4423  12.4805  12.5048  12.6253  12.6560  12.7846  12.8127  12.9913
    13.1442  13.3361  13.3980  13.4059  13.8571  13.9822  14.1002  14.1497
    14.4424  14.6347  14.7496  14.9410  15.5207  15.5337  15.6196  16.0807
    16.4296  16.7992  17.0539  17.2911  17.4298  17.5333

          k = 0.1667 0.0000 0.1666 ( 62277 PWs)   bands (ev):

   -65.9548 -65.9540 -65.9540 -65.9538 -65.9531 -65.9530 -65.9530 -65.9522
   -30.4049 -30.3994 -30.3993 -30.3938 -30.3562 -30.3451 -30.3450 -30.3321
   -30.3186 -30.3050 -30.3037 -30.3001 -30.2789 -30.2774 -30.2754 -30.2737
   -30.2357 -30.2353 -30.2316 -30.2306 -30.1955 -30.1948 -30.1914 -30.1900
   -20.1001 -20.0998 -20.0995 -20.0992 -20.0962 -20.0960 -20.0956 -20.0954
   -20.0946 -20.0945 -20.0940 -20.0939 -20.0934 -20.0932 -20.0930 -20.0928
   -20.0881 -20.0879 -20.0877 -20.0873 -20.0868 -20.0865 -20.0863 -20.0858
   -20.0854 -20.0853 -20.0852 -20.0844 -20.0839 -20.0836 -20.0834 -20.0827
   -20.0737 -20.0731 -20.0731 -20.0731 -20.0727 -20.0725 -20.0723 -20.0719
   -20.0467 -20.0456 -20.0452 -20.0442 -20.0438 -20.0436 -20.0430 -20.0430
   -20.0419 -20.0412 -20.0400 -20.0397 -20.0394 -20.0391 -20.0381 -20.0376
    -9.8097  -9.4816  -9.4397  -9.4387  -9.0966  -9.0937  -9.0910  -8.8779
    -8.8758  -8.8185  -8.7880  -8.7860  -7.9038  -7.8637  -7.8037  -7.7979
    -7.7802  -7.7747  -7.7681  -7.7265  -7.7237  -7.7026  -7.6713  -7.6585
     1.4706   1.5115   1.5134   1.5712   1.5749   1.6146   1.6641   1.6739
     1.7795   1.7894   1.9715   2.1196   2.6406   2.6694   2.7142   2.7469
     2.8088   2.8430   4.1358   4.1569   4.3970   4.3980   4.5129   4.5260
     4.5515   4.5795   4.6308   4.6969   4.7843   4.8493   5.1510   5.2800
     5.3062   5.3876   5.3923   5.5472   5.5745   5.6243   5.6464   5.7423
     5.7500   5.7788   5.8050   5.8136   5.8651   6.0774   6.2709   6.3268
     6.3611   6.5558   6.6078   6.6960   6.7000   6.7191   6.7409   6.7714
     6.7774   6.8515   6.8802   6.9038   6.9374   7.0031   7.0254   7.1182
     7.2853   7.3269   7.8845   7.8885   8.0450   8.0735   8.0893   8.1426
    10.0469  10.0966  10.2919  10.3040  10.3510  10.4314  12.3667  12.3785
    12.3916  12.4224  12.5375  12.5549  12.7129  12.7954  12.8331  12.9456
    13.1132  13.2214  13.3497  13.4160  13.8820  13.9567  14.0457  14.0570
    14.4565  14.7121  14.7428  15.0587  15.5869  15.6007  15.6065  16.3761
    16.3983  16.9542  16.9744  17.2005  17.5126  17.5813

          k = 0.1667 0.0000 0.3331 ( 62318 PWs)   bands (ev):

   -65.9546 -65.9541 -65.9538 -65.9536 -65.9533 -65.9532 -65.9528 -65.9523
   -30.4036 -30.4004 -30.3980 -30.3948 -30.3524 -30.3465 -30.3404 -30.3336
   -30.3116 -30.3049 -30.2932 -30.2919 -30.2772 -30.2745 -30.2621 -30.2582
   -30.2520 -30.2506 -30.2340 -30.2298 -30.2126 -30.2068 -30.1940 -30.1917
   -20.1000 -20.0997 -20.0997 -20.0994 -20.0961 -20.0959 -20.0957 -20.0955
   -20.0946 -20.0946 -20.0940 -20.0940 -20.0934 -20.0933 -20.0929 -20.0928
   -20.0878 -20.0875 -20.0874 -20.0873 -20.0867 -20.0864 -20.0863 -20.0862
   -20.0857 -20.0856 -20.0849 -20.0843 -20.0840 -20.0838 -20.0835 -20.0830
   -20.0736 -20.0732 -20.0730 -20.0730 -20.0728 -20.0726 -20.0722 -20.0720
   -20.0458 -20.0448 -20.0447 -20.0440 -20.0440 -20.0434 -20.0430 -20.0427
   -20.0421 -20.0420 -20.0406 -20.0397 -20.0396 -20.0392 -20.0384 -20.0384
    -9.6963  -9.4889  -9.3446  -9.3063  -9.1341  -9.1243  -8.8554  -8.8342
    -8.7991  -8.7531  -8.6988  -8.6578  -8.1733  -8.0982  -8.0813  -8.0179
    -7.8508  -7.8031  -7.7736  -7.7554  -7.7358  -7.7307  -7.7119  -7.6868
     1.4836   1.5015   1.5738   1.6015   1.6844   1.6947   1.7742   1.7982
     2.3368   2.4070   2.5037   2.6000   2.7079   2.7959   2.9038   2.9389
     3.0221   3.0836   3.8230   3.9038   3.9864   4.0106   4.1419   4.3698
     4.4010   4.5131   4.5569   4.5699   4.6280   4.7728   4.8326   4.9369
     5.0761   5.1021   5.1475   5.2484   5.3023   5.4410   5.6238   5.6624
     5.7562   5.7971   5.8198   5.8761   5.8932   6.0529   6.1326   6.1659
     6.4164   6.4902   6.5317   6.5603   6.5852   6.7125   6.7308   6.7480
     6.7700   6.8945   6.9188   6.9292   7.1263   7.1463   7.1964   7.2588
     7.3349   7.3798   7.8127   7.8236   7.9408   7.9738   8.0916   8.1086
    10.2891  10.2939  10.6567  10.7484  10.9260  11.0495  12.0022  12.0912
    12.2260  12.4964  12.5187  12.5737  12.6819  12.7527  12.8620  12.9015
    12.9883  13.1773  13.1998  13.3433  13.7133  13.7362  13.9639  13.9865
    14.5730  14.7208  14.9878  15.3719  15.4842  15.8674  16.0074  16.2669
    16.4219  17.2076  17.4037  17.4998  17.6254  17.7089

          k = 0.1667 0.0000-0.4997 ( 62300 PWs)   bands (ev):

   -65.9544 -65.9544 -65.9536 -65.9536 -65.9534 -65.9534 -65.9526 -65.9526
   -30.4019 -30.4019 -30.3964 -30.3964 -30.3489 -30.3489 -30.3364 -30.3363
   -30.3072 -30.3072 -30.2789 -30.2789 -30.2724 -30.2724 -30.2709 -30.2709
   -30.2427 -30.2427 -30.2355 -30.2355 -30.2237 -30.2237 -30.1929 -30.1929
   -20.0998 -20.0998 -20.0995 -20.0995 -20.0959 -20.0959 -20.0957 -20.0957
   -20.0946 -20.0946 -20.0940 -20.0940 -20.0933 -20.0933 -20.0929 -20.0929
   -20.0875 -20.0875 -20.0870 -20.0870 -20.0868 -20.0868 -20.0861 -20.0860
   -20.0859 -20.0859 -20.0844 -20.0844 -20.0841 -20.0841 -20.0833 -20.0833
   -20.0734 -20.0734 -20.0729 -20.0729 -20.0728 -20.0728 -20.0721 -20.0721
   -20.0447 -20.0447 -20.0444 -20.0444 -20.0435 -20.0435 -20.0433 -20.0433
   -20.0419 -20.0419 -20.0408 -20.0408 -20.0391 -20.0391 -20.0388 -20.0388
    -9.5762  -9.5762  -9.2149  -9.2149  -9.1892  -9.1892  -8.8162  -8.8162
    -8.5279  -8.5279  -8.4770  -8.4769  -8.4351  -8.4351  -8.3736  -8.3736
    -7.8282  -7.8282  -7.7595  -7.7595  -7.7248  -7.7248  -7.7155  -7.7155
     1.4908   1.4908   1.5884   1.5884   1.6984   1.6984   1.8042   1.8042
     2.7368   2.7368   3.0685   3.0685   3.1426   3.1426   3.2557   3.2557
     3.3421   3.3421   3.4498   3.4498   3.6191   3.6191   3.8524   3.8524
     3.8717   3.8717   4.4680   4.4680   4.5496   4.5496   4.9559   4.9559
     5.0526   5.0526   5.1049   5.1049   5.2936   5.2936   5.6901   5.6901
     5.7789   5.7789   5.8498   5.8498   5.9202   5.9202   6.0488   6.0488
     6.3661   6.3661   6.4745   6.4745   6.6586   6.6586   6.7430   6.7430
     6.8654   6.8654   6.9796   6.9796   7.0401   7.0401   7.5651   7.5651
     7.6069   7.6069   7.6987   7.6987   7.7336   7.7336   8.1020   8.1020
    10.3014  10.3014  11.3579  11.3579  11.4647  11.4647  11.6324  11.6324
    11.8175  11.8175  12.6847  12.6847  12.7804  12.7804  12.8661  12.8661
    13.0143  13.0143  13.3439  13.3439  13.4204  13.4204  13.9691  13.9691
    14.6730  14.6730  15.2869  15.2869  15.8122  15.8122  16.1412  16.1412
    16.7794  16.7794  17.7892  17.7893  17.8971  17.8971

          k = 0.1667 0.1596 0.0000 ( 62322 PWs)   bands (ev):

   -65.9548 -65.9540 -65.9539 -65.9539 -65.9531 -65.9531 -65.9530 -65.9521
   -30.4017 -30.3959 -30.3950 -30.3892 -30.3603 -30.3497 -30.3473 -30.3356
   -30.3213 -30.3104 -30.3046 -30.3036 -30.2837 -30.2826 -30.2783 -30.2735
   -30.2326 -30.2321 -30.2296 -30.2271 -30.1951 -30.1904 -30.1892 -30.1845
   -20.0998 -20.0995 -20.0992 -20.0989 -20.0963 -20.0961 -20.0956 -20.0954
   -20.0946 -20.0945 -20.0940 -20.0939 -20.0936 -20.0934 -20.0932 -20.0930
   -20.0882 -20.0880 -20.0877 -20.0872 -20.0869 -20.0866 -20.0863 -20.0856
   -20.0854 -20.0853 -20.0852 -20.0844 -20.0839 -20.0837 -20.0832 -20.0827
   -20.0738 -20.0732 -20.0732 -20.0731 -20.0727 -20.0724 -20.0724 -20.0719
   -20.0470 -20.0459 -20.0454 -20.0443 -20.0439 -20.0436 -20.0434 -20.0429
   -20.0416 -20.0408 -20.0401 -20.0395 -20.0394 -20.0388 -20.0380 -20.0373
    -9.8234  -9.5515  -9.4577  -9.3789  -9.1879  -9.0838  -9.0086  -8.9145
    -8.9030  -8.7937  -8.7858  -8.7505  -7.9369  -7.8752  -7.8605  -7.8468
    -7.8152  -7.7805  -7.7470  -7.7383  -7.6609  -7.6553  -7.6312  -7.5454
     1.3671   1.3732   1.4212   1.4408   1.6048   1.6521   1.6832   1.8287
     1.8713   1.8943   1.9225   2.1372   2.5641   2.6463   2.6750   2.7650
     2.8123   2.9000   4.0415   4.1013   4.1707   4.2306   4.4322   4.5051
     4.6164   4.7220   4.8420   4.8625   4.8973   5.0058   5.0279   5.2864
     5.3014   5.3810   5.4337   5.5205   5.5814   5.6188   5.6828   5.7324
     5.7999   5.8246   5.8877   5.9061   5.9423   6.0740   6.1316   6.1684
     6.3104   6.3486   6.5296   6.5407   6.7234   6.7781   6.8063   6.8402
     6.8586   6.9373   6.9638   6.9851   7.0248   7.0536   7.1335   7.1605
     7.2308   7.2939   7.8880   7.8973   8.0042   8.0290   8.0649   8.0989
     9.8506   9.8756  10.2506  10.2611  10.4764  10.5072  12.2499  12.3364
    12.3820  12.4446  12.4890  12.4998  12.5719  12.6642  12.8437  12.9983
    13.1538  13.3326  13.3876  13.4168  13.8873  13.9290  14.0514  14.0760
    14.5905  14.8479  14.9927  15.1027  15.5203  15.5313  16.0038  16.0694
    16.3975  16.7198  16.9302  17.4009  17.4900  17.6077

          k = 0.1667 0.1596 0.1666 ( 62307 PWs)   bands (ev):

   -65.9548 -65.9540 -65.9539 -65.9538 -65.9531 -65.9530 -65.9530 -65.9522
   -30.4011 -30.3954 -30.3953 -30.3896 -30.3586 -30.3479 -30.3477 -30.3361
   -30.3179 -30.3062 -30.3047 -30.3022 -30.2788 -30.2776 -30.2755 -30.2738
   -30.2358 -30.2352 -30.2317 -30.2310 -30.1955 -30.1948 -30.1913 -30.1901
   -20.0998 -20.0995 -20.0992 -20.0989 -20.0963 -20.0960 -20.0957 -20.0954
   -20.0946 -20.0945 -20.0940 -20.0939 -20.0936 -20.0934 -20.0932 -20.0930
   -20.0881 -20.0879 -20.0877 -20.0872 -20.0868 -20.0866 -20.0864 -20.0858
   -20.0855 -20.0853 -20.0853 -20.0844 -20.0840 -20.0837 -20.0834 -20.0828
   -20.0737 -20.0731 -20.0731 -20.0731 -20.0727 -20.0725 -20.0723 -20.0719
   -20.0467 -20.0456 -20.0452 -20.0442 -20.0438 -20.0436 -20.0430 -20.0430
   -20.0419 -20.0412 -20.0400 -20.0397 -20.0394 -20.0391 -20.0381 -20.0376
    -9.7749  -9.4939  -9.3957  -9.3946  -9.1025  -9.0976  -9.0178  -8.8759
    -8.8698  -8.7834  -8.7564  -8.7546  -7.9444  -7.8789  -7.8731  -7.8540
    -7.8367  -7.8247  -7.7790  -7.7694  -7.7583  -7.7435  -7.6694  -7.6598
     1.5601   1.5705   1.6015   1.6073   1.6696   1.6813   1.6901   1.8287
     1.9125   1.9211   1.9718   2.1929   2.6527   2.7390   2.7427   2.7939
     2.8848   2.9106   4.0535   4.0631   4.1976   4.2179   4.4705   4.4821
     4.5517   4.5736   4.6106   4.7075   4.7357   4.7847   4.9768   5.2030
     5.2396   5.3239   5.3464   5.4223   5.4418   5.5671   5.5768   5.6648
     5.7899   5.8036   5.8343   5.8672   5.8803   5.9384   6.2722   6.2965
     6.3782   6.4649   6.5812   6.6674   6.7173   6.7396   6.7725   6.7898
     6.8394   6.8619   6.9181   6.9307   6.9779   6.9981   7.0385   7.1204
     7.2886   7.3257   7.8820   7.8886   8.0009   8.0228   8.0424   8.0706
    10.0754  10.1110  10.4464  10.4613  10.5048  10.5684  12.3085  12.3431
    12.3771  12.3889  12.4998  12.5196  12.5820  12.6420  12.8643  12.9760
    13.0974  13.2008  13.3512  13.4113  13.8795  13.8883  13.9609  13.9891
    14.6705  14.9738  14.9895  15.2007  15.5973  15.6071  15.9868  16.3518
    16.3670  16.8412  17.0690  17.0787  17.5638  17.6676

          k = 0.1667 0.1596 0.3331 ( 62300 PWs)   bands (ev):

   -65.9546 -65.9541 -65.9538 -65.9537 -65.9533 -65.9532 -65.9528 -65.9524
   -30.3997 -30.3965 -30.3939 -30.3907 -30.3550 -30.3493 -30.3438 -30.3376
   -30.3114 -30.3058 -30.2943 -30.2928 -30.2772 -30.2747 -30.2621 -30.2583
   -30.2522 -30.2507 -30.2342 -30.2299 -30.2126 -30.2068 -30.1940 -30.1917
   -20.0997 -20.0994 -20.0993 -20.0991 -20.0962 -20.0959 -20.0958 -20.0956
   -20.0946 -20.0945 -20.0940 -20.0940 -20.0936 -20.0935 -20.0932 -20.0931
   -20.0877 -20.0875 -20.0874 -20.0872 -20.0867 -20.0864 -20.0863 -20.0862
   -20.0858 -20.0855 -20.0849 -20.0843 -20.0841 -20.0838 -20.0835 -20.0830
   -20.0736 -20.0732 -20.0730 -20.0730 -20.0728 -20.0726 -20.0722 -20.0720
   -20.0458 -20.0448 -20.0447 -20.0440 -20.0440 -20.0434 -20.0430 -20.0427
   -20.0421 -20.0420 -20.0406 -20.0397 -20.0396 -20.0392 -20.0384 -20.0384
    -9.6578  -9.4453  -9.3565  -9.2485  -9.1417  -9.0491  -8.8611  -8.8072
    -8.7673  -8.7511  -8.6896  -8.6403  -8.1759  -8.1068  -8.0844  -8.0253
    -7.8924  -7.8725  -7.8440  -7.8196  -7.8138  -7.7643  -7.7469  -7.6867
     1.6095   1.6211   1.6985   1.7129   1.7902   1.8013   1.8792   1.9209
     2.3381   2.4132   2.5063   2.6109   2.7836   2.8634   2.9249   3.0088
     3.0253   3.1437   3.8275   3.9157   3.9575   3.9815   4.1853   4.2082
     4.2835   4.4145   4.4973   4.5875   4.6182   4.7005   4.8007   4.8526
     4.9361   4.9720   5.0311   5.1590   5.2525   5.2978   5.3968   5.6182
     5.6766   5.6986   5.8145   5.8465   5.8913   5.9132   6.1022   6.1582
     6.3957   6.5199   6.5754   6.6484   6.6894   6.7233   6.7448   6.8231
     6.8462   6.8975   6.9488   6.9902   7.1199   7.1529   7.1931   7.2616
     7.3353   7.3793   7.8138   7.8186   7.9031   7.9302   8.0360   8.0462
    10.4398  10.4559  10.6822  10.7611  11.0373  11.1333  12.0020  12.0927
    12.2202  12.4943  12.5231  12.5671  12.6007  12.6458  12.7859  12.8620
    12.9122  13.1391  13.1872  13.3375  13.6089  13.6420  13.9104  13.9298
    14.8417  14.9704  15.3206  15.4830  15.8545  15.8924  16.0190  16.2645
    16.5062  17.1791  17.2277  17.4617  17.5544  17.7579

          k = 0.1667 0.1596-0.4997 ( 62312 PWs)   bands (ev):

   -65.9544 -65.9543 -65.9535 -65.9535 -65.9534 -65.9534 -65.9526 -65.9526
   -30.3980 -30.3980 -30.3922 -30.3922 -30.3517 -30.3517 -30.3401 -30.3401
   -30.3078 -30.3077 -30.2793 -30.2793 -30.2727 -30.2727 -30.2711 -30.2711
   -30.2428 -30.2428 -30.2355 -30.2355 -30.2238 -30.2238 -30.1929 -30.1929
   -20.0995 -20.0995 -20.0992 -20.0992 -20.0960 -20.0960 -20.0957 -20.0957
   -20.0946 -20.0946 -20.0940 -20.0940 -20.0935 -20.0935 -20.0931 -20.0931
   -20.0875 -20.0875 -20.0870 -20.0870 -20.0868 -20.0868 -20.0861 -20.0861
   -20.0859 -20.0859 -20.0844 -20.0844 -20.0842 -20.0842 -20.0833 -20.0833
   -20.0734 -20.0734 -20.0729 -20.0729 -20.0728 -20.0728 -20.0721 -20.0721
   -20.0447 -20.0447 -20.0444 -20.0444 -20.0435 -20.0435 -20.0433 -20.0433
   -20.0419 -20.0419 -20.0408 -20.0408 -20.0391 -20.0391 -20.0388 -20.0388
    -9.5343  -9.5343  -9.2246  -9.2246  -9.1183  -9.1183  -8.7842  -8.7842
    -8.5300  -8.5300  -8.4827  -8.4827  -8.4324  -8.4324  -8.3713  -8.3713
    -7.8864  -7.8864  -7.8322  -7.8322  -7.7928  -7.7928  -7.7171  -7.7171
     1.6163   1.6163   1.7139   1.7139   1.8025   1.8025   1.9186   1.9186
     2.8082   2.8082   3.0854   3.0854   3.1632   3.1632   3.2680   3.2680
     3.3462   3.3462   3.4592   3.4592   3.6151   3.6151   3.8629   3.8629
     3.9179   3.9179   4.3182   4.3182   4.5096   4.5096   4.7536   4.7536
     4.9497   4.9497   5.0731   5.0731   5.1400   5.1400   5.5028   5.5028
     5.7316   5.7316   5.7669   5.7669   5.9138   5.9138   5.9300   5.9300
     6.4875   6.4876   6.6318   6.6318   6.6711   6.6711   6.7682   6.7682
     6.9290   6.9290   6.9583   6.9583   7.0708   7.0708   7.5654   7.5654
     7.6000   7.6000   7.6801   7.6801   7.7122   7.7122   8.0422   8.0422
    10.4661  10.4661  11.3669  11.3669  11.4673  11.4673  11.7006  11.7006
    11.8736  11.8736  12.6206  12.6206  12.7027  12.7027  12.8442  12.8442
    12.9971  12.9971  13.2313  13.2313  13.3459  13.3459  13.9111  13.9111
    14.9322  14.9322  15.6502  15.6502  15.9261  15.9261  16.1328  16.1328
    16.8152  16.8152  17.6383  17.6383  17.8731  17.8731

          k = 0.1667 0.3193 0.0000 ( 62321 PWs)   bands (ev):

   -65.9548 -65.9540 -65.9539 -65.9538 -65.9531 -65.9530 -65.9530 -65.9522
   -30.3916 -30.3856 -30.3844 -30.3778 -30.3672 -30.3571 -30.3557 -30.3468
   -30.3196 -30.3132 -30.3089 -30.3060 -30.2837 -30.2827 -30.2785 -30.2737
   -30.2325 -30.2320 -30.2298 -30.2278 -30.1951 -30.1904 -30.1892 -30.1845
   -20.0991 -20.0989 -20.0983 -20.0981 -20.0966 -20.0962 -20.0960 -20.0956
   -20.0946 -20.0945 -20.0941 -20.0940 -20.0939 -20.0938 -20.0937 -20.0935
   -20.0881 -20.0880 -20.0876 -20.0870 -20.0869 -20.0868 -20.0865 -20.0856
   -20.0855 -20.0854 -20.0851 -20.0844 -20.0841 -20.0839 -20.0833 -20.0828
   -20.0738 -20.0732 -20.0732 -20.0731 -20.0727 -20.0724 -20.0724 -20.0719
   -20.0470 -20.0459 -20.0454 -20.0443 -20.0439 -20.0436 -20.0434 -20.0429
   -20.0416 -20.0408 -20.0401 -20.0395 -20.0394 -20.0388 -20.0380 -20.0373
    -9.7430  -9.5893  -9.3722  -9.2795  -9.2068  -9.1038  -8.9110  -8.9008
    -8.7931  -8.6595  -8.6583  -8.6372  -8.1672  -8.1225  -8.1139  -8.0951
    -7.8684  -7.7838  -7.7496  -7.7456  -7.6610  -7.6573  -7.6324  -7.5466
     1.3698   1.3785   1.4224   1.4470   1.6346   1.6994   1.8293   1.8935
     2.3892   2.5058   2.5290   2.5833   2.6291   2.6754   2.8993   3.0002
     3.0404   3.1170   3.6771   3.7045   3.7466   3.7962   4.1623   4.4442
     4.4659   4.5407   4.5655   4.7760   4.7794   4.8525   4.9150   4.9341
     5.0846   5.1045   5.2280   5.3705   5.4202   5.5224   5.6204   5.6967
     5.7442   5.8201   5.8499   5.9124   6.0230   6.0949   6.1732   6.2066
     6.2794   6.3387   6.5043   6.5836   6.6270   6.8282   6.8627   6.9559
     6.9709   7.0004   7.0700   7.0886   7.1230   7.1308   7.1819   7.1982
     7.2515   7.3135   7.8124   7.8514   7.8599   7.8869   7.9100   7.9167
     9.8606   9.8860  10.7241  10.7646  10.9100  10.9469  11.9072  12.0179
    12.0541  12.1491  12.3467  12.4812  12.4862  12.6318  12.9176  13.0077
    13.2413  13.3499  13.4354  13.4619  13.6953  13.7429  13.8455  13.8727
    15.0448  15.3401  15.4711  15.5254  15.5989  15.7448  15.9562  16.1649
    16.2888  17.0063  17.2943  17.3851  17.6615  17.8265

          k = 0.1667 0.3193 0.1666 ( 62302 PWs)   bands (ev):

   -65.9547 -65.9539 -65.9539 -65.9539 -65.9531 -65.9531 -65.9530 -65.9522
   -30.3909 -30.3848 -30.3847 -30.3782 -30.3660 -30.3563 -30.3559 -30.3473
   -30.3159 -30.3085 -30.3073 -30.3062 -30.2786 -30.2779 -30.2757 -30.2741
   -30.2360 -30.2347 -30.2319 -30.2318 -30.1955 -30.1949 -30.1911 -30.1904
   -20.0990 -20.0988 -20.0984 -20.0981 -20.0966 -20.0962 -20.0961 -20.0957
   -20.0946 -20.0945 -20.0941 -20.0940 -20.0939 -20.0938 -20.0937 -20.0936
   -20.0880 -20.0879 -20.0875 -20.0870 -20.0868 -20.0867 -20.0865 -20.0857
   -20.0856 -20.0854 -20.0852 -20.0844 -20.0841 -20.0838 -20.0835 -20.0829
   -20.0737 -20.0731 -20.0731 -20.0731 -20.0727 -20.0725 -20.0723 -20.0719
   -20.0467 -20.0456 -20.0452 -20.0442 -20.0438 -20.0436 -20.0430 -20.0430
   -20.0419 -20.0412 -20.0400 -20.0397 -20.0394 -20.0391 -20.0381 -20.0376
    -9.6907  -9.5324  -9.2978  -9.2954  -9.1226  -9.1186  -8.8730  -8.8673
    -8.8020  -8.6519  -8.6422  -8.6410  -8.1693  -8.1215  -8.1191  -8.1012
    -7.8653  -7.8605  -7.7786  -7.7726  -7.7641  -7.7557  -7.6684  -7.6627
     1.5647   1.5697   1.6292   1.6383   1.6985   1.7055   1.9073   1.9673
     2.3932   2.5059   2.5152   2.6575   2.6746   2.7324   2.9661   3.0394
     3.1109   3.1267   3.7110   3.7268   3.7552   3.8130   4.1488   4.4692
     4.4791   4.5048   4.5192   4.5917   4.6126   4.7785   4.7843   4.8648
     4.8996   4.9310   5.1565   5.1793   5.4056   5.4284   5.4362   5.4776
     5.7055   5.7171   5.7950   5.8050   5.8673   5.8888   6.2855   6.3096
     6.4263   6.4993   6.5681   6.6609   6.7818   6.8088   6.8207   6.8480
     6.9597   6.9720   7.0251   7.0380   7.1229   7.1317   7.1624   7.1732
     7.3174   7.3323   7.8089   7.8305   7.8530   7.8706   7.8989   7.9116
    10.1061  10.1198  10.8697  10.9007  10.9343  10.9886  11.9834  12.0296
    12.1034  12.1662  12.3943  12.4047  12.5274  12.5350  12.9457  13.0165
    13.1756  13.2357  13.3646  13.4165  13.6582  13.6797  13.7454  13.8008
    15.1937  15.5044  15.5459  15.5952  15.6449  15.8017  16.2465  16.2561
    16.2969  16.9730  17.3510  17.4156  17.4722  17.7233

          k = 0.1667 0.3193 0.3331 ( 62314 PWs)   bands (ev):

   -65.9546 -65.9541 -65.9537 -65.9537 -65.9533 -65.9532 -65.9529 -65.9524
   -30.3892 -30.3858 -30.3830 -30.3794 -30.3630 -30.3577 -30.3534 -30.3486
   -30.3110 -30.3074 -30.2970 -30.2941 -30.2773 -30.2749 -30.2622 -30.2584
   -30.2525 -30.2508 -30.2345 -30.2300 -30.2127 -30.2068 -30.1941 -30.1917
   -20.0989 -20.0987 -20.0985 -20.0983 -20.0965 -20.0962 -20.0961 -20.0958
   -20.0946 -20.0945 -20.0940 -20.0940 -20.0939 -20.0938 -20.0936 -20.0936
   -20.0876 -20.0874 -20.0873 -20.0871 -20.0867 -20.0865 -20.0864 -20.0861
   -20.0860 -20.0854 -20.0850 -20.0843 -20.0842 -20.0839 -20.0837 -20.0831
   -20.0736 -20.0732 -20.0730 -20.0730 -20.0728 -20.0726 -20.0722 -20.0720
   -20.0458 -20.0448 -20.0447 -20.0440 -20.0440 -20.0434 -20.0430 -20.0427
   -20.0421 -20.0420 -20.0406 -20.0397 -20.0396 -20.0392 -20.0384 -20.0384
    -9.5651  -9.3944  -9.3456  -9.1665  -9.1078  -8.8853  -8.8360  -8.7659
    -8.7418  -8.6542  -8.6146  -8.5685  -8.2323  -8.1967  -8.1295  -8.1134
    -8.1061  -8.0494  -8.0349  -7.9643  -7.8325  -7.7701  -7.7504  -7.6882
     1.6485   1.6633   1.7169   1.7348   2.2429   2.3200   2.3427   2.4229
     2.4948   2.5328   2.5573   2.7431   2.9389   2.9950   3.0209   3.0985
     3.2536   3.3385   3.7022   3.7315   3.7736   3.8586   3.9424   4.0134
     4.1234   4.2955   4.4081   4.4477   4.4622   4.5837   4.6090   4.6958
     4.7908   4.8388   4.8668   4.9088   4.9621   5.0390   5.1610   5.2235
     5.3699   5.3906   5.4674   5.6690   5.8215   5.8838   6.1375   6.1576
     6.5677   6.6129   6.6717   6.7432   6.8068   6.8623   6.9552   6.9917
     7.0242   7.0428   7.0650   7.1085   7.1579   7.1965   7.2372   7.2839
     7.3432   7.3844   7.7479   7.7605   7.8114   7.8269   7.8495   7.8799
    10.6638  10.7053  10.9235  10.9620  11.3532  11.4132  11.9588  12.0301
    12.1010  12.1916  12.2780  12.3495  12.5793  12.6744  12.7024  12.7300
    12.9648  13.0955  13.1572  13.3353  13.3724  13.4539  13.6979  13.7301
    15.3914  15.5222  15.7982  15.9824  16.0770  16.1085  16.2064  16.7094
    16.8444  16.8546  17.0800  17.5765  17.6639  17.7069

          k = 0.1667 0.3193-0.4997 ( 62306 PWs)   bands (ev):

   -65.9543 -65.9543 -65.9535 -65.9535 -65.9535 -65.9535 -65.9526 -65.9526
   -30.3874 -30.3874 -30.3810 -30.3810 -30.3600 -30.3600 -30.3507 -30.3507
   -30.3089 -30.3089 -30.2801 -30.2801 -30.2732 -30.2732 -30.2714 -30.2714
   -30.2430 -30.2430 -30.2356 -30.2356 -30.2239 -30.2239 -30.1929 -30.1929
   -20.0987 -20.0987 -20.0985 -20.0985 -20.0964 -20.0963 -20.0960 -20.0960
   -20.0946 -20.0946 -20.0940 -20.0940 -20.0939 -20.0939 -20.0936 -20.0936
   -20.0873 -20.0873 -20.0870 -20.0870 -20.0868 -20.0868 -20.0863 -20.0863
   -20.0859 -20.0859 -20.0845 -20.0845 -20.0842 -20.0842 -20.0834 -20.0834
   -20.0734 -20.0734 -20.0729 -20.0729 -20.0728 -20.0728 -20.0721 -20.0721
   -20.0447 -20.0447 -20.0444 -20.0444 -20.0435 -20.0435 -20.0433 -20.0433
   -20.0419 -20.0419 -20.0408 -20.0408 -20.0391 -20.0391 -20.0388 -20.0388
    -9.4359  -9.4359  -9.2562  -9.2562  -8.9241  -8.9241  -8.6807  -8.6806
    -8.5491  -8.5491  -8.5020  -8.5020  -8.4210  -8.4210  -8.3589  -8.3589
    -8.1133  -8.1133  -8.0763  -8.0763  -7.8024  -7.8024  -7.7191  -7.7191
     1.6620   1.6620   1.7357   1.7357   2.3945   2.3945   2.5093   2.5093
     3.0081   3.0081   3.1330   3.1330   3.1766   3.1766   3.3118   3.3118
     3.3553   3.3553   3.4905   3.4905   3.5960   3.5960   3.7683   3.7683
     4.0399   4.0399   4.0956   4.0956   4.1904   4.1904   4.3937   4.3937
     4.7709   4.7709   4.8725   4.8725   5.0316   5.0316   5.0640   5.0640
     5.1803   5.1803   5.5512   5.5512   5.9075   5.9075   5.9380   5.9380
     6.6588   6.6588   6.7888   6.7888   6.8506   6.8506   6.8868   6.8868
     7.0551   7.0551   7.1019   7.1020   7.1991   7.1991   7.5467   7.5467
     7.5683   7.5683   7.6186   7.6186   7.6544   7.6544   7.8564   7.8564
    10.9027  10.9027  11.3844  11.3844  11.4736  11.4736  11.8552  11.8552
    12.0567  12.0567  12.2663  12.2663  12.6550  12.6550  12.6885  12.6885
    12.9152  12.9152  13.0167  13.0167  13.3064  13.3065  13.6970  13.6970
    15.4773  15.4773  16.0076  16.0076  16.3526  16.3526  16.5941  16.5941
    16.9637  16.9637  17.2867  17.2867  17.8507  17.8507

          k = 0.1667-0.4789 0.0000 ( 62288 PWs)   bands (ev):

   -65.9548 -65.9540 -65.9539 -65.9538 -65.9531 -65.9530 -65.9530 -65.9522
   -30.3799 -30.3774 -30.3758 -30.3733 -30.3658 -30.3654 -30.3625 -30.3621
   -30.3178 -30.3145 -30.3122 -30.3069 -30.2836 -30.2827 -30.2786 -30.2738
   -30.2325 -30.2319 -30.2299 -30.2281 -30.1952 -30.1904 -30.1892 -30.1845
   -20.0986 -20.0984 -20.0976 -20.0975 -20.0969 -20.0966 -20.0964 -20.0960
   -20.0946 -20.0944 -20.0943 -20.0941 -20.0940 -20.0939 -20.0939 -20.0938
   -20.0881 -20.0880 -20.0875 -20.0869 -20.0869 -20.0867 -20.0867 -20.0856
   -20.0855 -20.0855 -20.0850 -20.0844 -20.0842 -20.0840 -20.0834 -20.0828
   -20.0738 -20.0732 -20.0732 -20.0731 -20.0727 -20.0724 -20.0724 -20.0719
   -20.0470 -20.0459 -20.0454 -20.0443 -20.0439 -20.0436 -20.0434 -20.0429
   -20.0416 -20.0408 -20.0401 -20.0395 -20.0394 -20.0388 -20.0380 -20.0373
    -9.6615  -9.6493  -9.3201  -9.2259  -9.2172  -9.1258  -8.9092  -8.9011
    -8.4837  -8.4835  -8.4300  -8.4225  -8.4172  -8.4130  -8.4121  -8.4058
    -7.8695  -7.7848  -7.7484  -7.7474  -7.6608  -7.6587  -7.6324  -7.5471
     1.3701   1.3793   1.4225   1.4483   1.6375   1.7024   1.8530   1.8976
     2.6054   2.6054   3.0708   3.0854   3.1767   3.2091   3.2743   3.2756
     3.3408   3.3671   3.3773   3.4480   3.4813   3.5652   3.6429   3.6915
     3.7605   3.7675   4.4851   4.4928   4.8185   4.8450   5.0284   5.0746
     5.1476   5.1491   5.2256   5.2484   5.3448   5.3683   5.5456   5.5867
     5.7859   5.7922   5.8244   5.8377   6.0245   6.1581   6.1698   6.2331
     6.3210   6.3910   6.4210   6.5271   6.6502   6.7865   6.8458   6.9711
     7.0060   7.0317   7.1067   7.1390   7.2140   7.2585   7.4563   7.4775
     7.5200   7.5369   7.5432   7.5517   7.5814   7.5947   7.9024   7.9034
     9.8637   9.8890  11.2883  11.3551  11.3924  11.4077  11.4958  11.5043
    11.5291  11.6168  12.3494  12.4830  12.4872  12.6322  12.9920  12.9929
    13.3936  13.4203  13.4460  13.5199  13.5997  13.6035  13.6261  13.7001
    15.3954  15.5053  15.5857  15.6720  15.6862  15.8111  15.9794  16.0920
    16.6444  16.6501  17.8152  17.8517  17.9328  17.9340

          k = 0.1667-0.4789 0.1666 ( 62318 PWs)   bands (ev):

   -65.9547 -65.9539 -65.9539 -65.9539 -65.9531 -65.9531 -65.9530 -65.9522
   -30.3782 -30.3772 -30.3743 -30.3736 -30.3664 -30.3653 -30.3631 -30.3623
   -30.3128 -30.3118 -30.3094 -30.3073 -30.2783 -30.2782 -30.2758 -30.2742
   -30.2361 -30.2342 -30.2325 -30.2320 -30.1955 -30.1949 -30.1908 -30.1907
   -20.0985 -20.0984 -20.0977 -20.0975 -20.0969 -20.0966 -20.0964 -20.0960
   -20.0946 -20.0945 -20.0942 -20.0941 -20.0940 -20.0940 -20.0939 -20.0938
   -20.0879 -20.0878 -20.0874 -20.0869 -20.0868 -20.0867 -20.0867 -20.0857
[...]
    12.1342  12.1342  12.1548  12.1548  12.3047  12.3047  12.3182  12.3182
    13.0626  13.0626  13.1063  13.1063  13.2512  13.2512  13.2907  13.2907
    15.4549  15.4549  15.4557  15.4557  16.7196  16.7196  16.7883  16.7883
    17.6498  17.6498  17.6986  17.6986  17.8863  17.8863

          k =-0.5000 0.3193 0.0000 ( 62292 PWs)   bands (ev):

   -65.9544 -65.9544 -65.9535 -65.9535 -65.9534 -65.9534 -65.9526 -65.9526
   -30.3882 -30.3882 -30.3806 -30.3806 -30.3610 -30.3610 -30.3504 -30.3504
   -30.3154 -30.3154 -30.2878 -30.2878 -30.2706 -30.2706 -30.2689 -30.2689
   -30.2395 -30.2395 -30.2338 -30.2337 -30.2247 -30.2246 -30.1871 -30.1871
   -20.0990 -20.0990 -20.0982 -20.0982 -20.0964 -20.0964 -20.0959 -20.0959
   -20.0943 -20.0943 -20.0942 -20.0942 -20.0939 -20.0939 -20.0937 -20.0937
   -20.0881 -20.0881 -20.0872 -20.0872 -20.0860 -20.0860 -20.0859 -20.0859
   -20.0854 -20.0854 -20.0850 -20.0850 -20.0848 -20.0848 -20.0831 -20.0831
   -20.0735 -20.0734 -20.0727 -20.0727 -20.0727 -20.0727 -20.0723 -20.0723
   -20.0465 -20.0465 -20.0442 -20.0442 -20.0424 -20.0424 -20.0423 -20.0423
   -20.0415 -20.0415 -20.0411 -20.0411 -20.0402 -20.0402 -20.0381 -20.0381
    -9.5068  -9.5068  -9.3381  -9.3381  -8.9108  -8.9108  -8.7037  -8.7036
    -8.5309  -8.5309  -8.5067  -8.5066  -8.4254  -8.4254  -8.3532  -8.3532
    -8.1139  -8.1139  -8.0713  -8.0713  -7.6876  -7.6876  -7.6014  -7.6014
     1.3989   1.3989   1.4770   1.4770   2.3886   2.3886   2.5231   2.5231
     2.9501   2.9501   3.0996   3.0996   3.1603   3.1603   3.2989   3.2989
     3.3512   3.3512   3.4233   3.4233   3.5555   3.5555   3.7185   3.7185
     4.0333   4.0333   4.0839   4.0839   4.2218   4.2218   4.4012   4.4012
     4.8678   4.8678   4.9548   4.9548   5.1548   5.1548   5.3067   5.3067
     5.4688   5.4688   5.7730   5.7730   6.2515   6.2515   6.3001   6.3001
     6.4845   6.4845   6.5553   6.5553   6.6044   6.6044   6.7835   6.7835
     7.0714   7.0714   7.0937   7.0937   7.1196   7.1196   7.5345   7.5345
     7.5528   7.5528   7.6178   7.6178   7.6520   7.6520   7.8814   7.8814
    10.7397  10.7397  11.3021  11.3021  11.3954  11.3954  11.7758  11.7758
    12.0477  12.0477  12.2308  12.2308  12.6804  12.6804  12.7293  12.7293
    12.9648  12.9648  13.0845  13.0845  13.4473  13.4473  13.8397  13.8397
    15.2598  15.2598  15.7413  15.7413  16.2794  16.2794  16.6031  16.6031
    16.8871  16.8871  17.2499  17.2499  17.9665  17.9665

          k =-0.5000 0.3193 0.1666 ( 62314 PWs)   bands (ev):

   -65.9543 -65.9543 -65.9535 -65.9535 -65.9534 -65.9534 -65.9526 -65.9526
   -30.3874 -30.3874 -30.3810 -30.3810 -30.3598 -30.3598 -30.3508 -30.3508
   -30.3106 -30.3106 -30.2836 -30.2836 -30.2709 -30.2709 -30.2665 -30.2665
   -30.2414 -30.2414 -30.2344 -30.2344 -30.2282 -30.2282 -30.1934 -30.1934
   -20.0989 -20.0989 -20.0983 -20.0983 -20.0964 -20.0964 -20.0959 -20.0959
   -20.0943 -20.0943 -20.0942 -20.0942 -20.0939 -20.0939 -20.0937 -20.0937
   -20.0879 -20.0879 -20.0870 -20.0870 -20.0861 -20.0861 -20.0860 -20.0860
   -20.0854 -20.0854 -20.0850 -20.0850 -20.0847 -20.0847 -20.0832 -20.0832
   -20.0734 -20.0734 -20.0728 -20.0728 -20.0727 -20.0727 -20.0723 -20.0723
   -20.0462 -20.0462 -20.0440 -20.0440 -20.0424 -20.0424 -20.0421 -20.0421
   -20.0416 -20.0416 -20.0412 -20.0412 -20.0404 -20.0404 -20.0385 -20.0385
    -9.4378  -9.4378  -9.2592  -9.2592  -8.9249  -8.9249  -8.6823  -8.6822
    -8.5456  -8.5455  -8.4987  -8.4987  -8.4180  -8.4180  -8.3569  -8.3569
    -8.1110  -8.1110  -8.0764  -8.0764  -7.8060  -7.8060  -7.7208  -7.7208
     1.6522   1.6522   1.7280   1.7280   2.3930   2.3930   2.5079   2.5079
     3.0216   3.0216   3.1236   3.1236   3.1688   3.1688   3.3151   3.3151
     3.3573   3.3573   3.4998   3.4998   3.6010   3.6010   3.7665   3.7665
     4.0265   4.0265   4.0923   4.0923   4.2161   4.2161   4.4052   4.4052
     4.7646   4.7646   4.8623   4.8623   5.0313   5.0313   5.0648   5.0648
     5.1829   5.1829   5.5500   5.5500   5.9037   5.9037   5.9359   5.9359
     6.6589   6.6589   6.7954   6.7954   6.8551   6.8551   6.8886   6.8886
     7.0490   7.0490   7.1051   7.1051   7.1935   7.1935   7.5398   7.5399
     7.5637   7.5637   7.6278   7.6278   7.6607   7.6607   7.8612   7.8612
    10.8977  10.8977  11.3856  11.3856  11.4737  11.4737  11.8236  11.8236
    12.0619  12.0619  12.2702  12.2702  12.6632  12.6632  12.7063  12.7063
    12.9164  12.9164  13.0305  13.0305  13.2974  13.2974  13.7054  13.7054
    15.4783  15.4783  15.9987  15.9987  16.3506  16.3506  16.5930  16.5930
    16.9401  16.9401  17.2893  17.2893  17.8412  17.8412

          k =-0.5000 0.3193 0.3331 ( 62292 PWs)   bands (ev):

   -65.9542 -65.9541 -65.9537 -65.9537 -65.9533 -65.9533 -65.9528 -65.9528
   -30.3857 -30.3857 -30.3821 -30.3821 -30.3571 -30.3571 -30.3522 -30.3522
   -30.2965 -30.2965 -30.2769 -30.2769 -30.2721 -30.2721 -30.2551 -30.2551
   -30.2537 -30.2537 -30.2348 -30.2348 -30.2321 -30.2321 -30.2105 -30.2105
   -20.0988 -20.0988 -20.0984 -20.0984 -20.0963 -20.0963 -20.0960 -20.0960
   -20.0943 -20.0943 -20.0942 -20.0942 -20.0938 -20.0938 -20.0938 -20.0937
   -20.0875 -20.0875 -20.0867 -20.0867 -20.0864 -20.0863 -20.0861 -20.0861
   -20.0854 -20.0854 -20.0851 -20.0851 -20.0845 -20.0845 -20.0836 -20.0836
   -20.0733 -20.0732 -20.0729 -20.0729 -20.0726 -20.0726 -20.0724 -20.0724
   -20.0453 -20.0453 -20.0434 -20.0434 -20.0430 -20.0430 -20.0421 -20.0421
   -20.0414 -20.0414 -20.0414 -20.0413 -20.0407 -20.0407 -20.0394 -20.0394
    -9.2631  -9.2630  -9.0436  -9.0436  -8.9734  -8.9734  -8.6184  -8.6184
    -8.5897  -8.5897  -8.4657  -8.4657  -8.4042  -8.4042  -8.3625  -8.3625
    -8.1285  -8.1285  -8.0987  -8.0987  -8.0639  -8.0639  -7.9952  -7.9952
     2.2663   2.2663   2.3666   2.3666   2.4202   2.4202   2.5508   2.5508
     3.1087   3.1087   3.1678   3.1678   3.2379   3.2379   3.3338   3.3338
     3.4084   3.4084   3.6762   3.6762   3.7731   3.7731   3.8781   3.8781
     3.9944   3.9944   4.1191   4.1191   4.1835   4.1835   4.2848   4.2848
     4.3830   4.3830   4.5414   4.5414   4.6528   4.6528   4.8836   4.8836
     4.9823   4.9823   5.0682   5.0682   5.1183   5.1183   5.3604   5.3604
     6.8570   6.8570   6.9355   6.9355   6.9955   6.9955   7.0583   7.0583
     7.2046   7.2046   7.3020   7.3020   7.3941   7.3941   7.5333   7.5333
     7.5725   7.5726   7.6439   7.6439   7.6684   7.6684   7.8028   7.8028
    11.3166  11.3166  11.6278  11.6278  11.7297  11.7297  11.9020  11.9020
    12.1193  12.1193  12.3963  12.3963  12.4633  12.4633  12.5384  12.5384
    12.7932  12.7932  12.8957  12.8957  12.9416  12.9416  13.3483  13.3483
    16.0196  16.0196  16.4804  16.4804  16.5709  16.5709  16.7762  16.7762
    17.1476  17.1476  17.3550  17.3550  17.5968  17.5968

          k =-0.5000 0.3193-0.4997 ( 62268 PWs)   bands (ev):

   -65.9539 -65.9539 -65.9539 -65.9539 -65.9531 -65.9530 -65.9530 -65.9530
   -30.3838 -30.3838 -30.3837 -30.3837 -30.3545 -30.3544 -30.3543 -30.3543
   -30.2767 -30.2767 -30.2766 -30.2766 -30.2725 -30.2725 -30.2724 -30.2724
   -30.2342 -30.2342 -30.2340 -30.2340 -30.2333 -30.2333 -30.2331 -30.2331
   -20.0986 -20.0986 -20.0986 -20.0986 -20.0962 -20.0962 -20.0962 -20.0962
   -20.0943 -20.0943 -20.0943 -20.0943 -20.0938 -20.0938 -20.0938 -20.0938
   -20.0870 -20.0870 -20.0869 -20.0869 -20.0864 -20.0864 -20.0863 -20.0863
   -20.0854 -20.0854 -20.0852 -20.0852 -20.0841 -20.0841 -20.0840 -20.0840
   -20.0731 -20.0731 -20.0730 -20.0730 -20.0725 -20.0725 -20.0725 -20.0725
   -20.0441 -20.0441 -20.0441 -20.0441 -20.0427 -20.0427 -20.0426 -20.0426
   -20.0411 -20.0411 -20.0411 -20.0411 -20.0406 -20.0406 -20.0404 -20.0404
    -9.0854  -9.0854  -9.0779  -9.0779  -8.7829  -8.7829  -8.7618  -8.7618
    -8.4873  -8.4873  -8.4499  -8.4499  -8.3432  -8.3432  -8.3304  -8.3304
    -8.3210  -8.3210  -8.2882  -8.2882  -8.0821  -8.0821  -8.0785  -8.0785
     2.4037   2.4037   2.4063   2.4063   3.0479   3.0479   3.0736   3.0736
     3.1612   3.1612   3.1622   3.1622   3.2923   3.2923   3.3461   3.3461
     3.4011   3.4011   3.4124   3.4124   3.9009   3.9009   3.9485   3.9485
     3.9967   3.9967   4.0334   4.0334   4.1233   4.1233   4.1543   4.1543
     4.3413   4.3413   4.4028   4.4028   4.4383   4.4383   4.4392   4.4392
     4.7490   4.7490   4.7500   4.7500   5.0962   5.0962   5.1032   5.1032
     6.9133   6.9133   6.9549   6.9549   7.0207   7.0207   7.0567   7.0567
     7.4241   7.4241   7.4374   7.4374   7.4718   7.4718   7.5235   7.5235
     7.6020   7.6020   7.6029   7.6029   7.7027   7.7027   7.7307   7.7307
    11.7944  11.7944  11.8441  11.8441  11.8868  11.8868  11.9350  11.9350
    12.1488  12.1488  12.1638  12.1638  12.3708  12.3708  12.3799  12.3799
    12.7346  12.7346  12.7703  12.7703  12.9449  12.9449  12.9725  12.9725
    16.3788  16.3788  16.3801  16.3801  16.9022  16.9022  16.9530  16.9530
    17.4201  17.4201  17.5135  17.5135  17.8934  17.8934

          k =-0.5000-0.4789 0.0000 ( 62312 PWs)   bands (ev):

   -65.9544 -65.9544 -65.9535 -65.9535 -65.9534 -65.9534 -65.9526 -65.9526
   -30.3779 -30.3779 -30.3700 -30.3700 -30.3665 -30.3665 -30.3642 -30.3642
   -30.3164 -30.3164 -30.2880 -30.2880 -30.2708 -30.2708 -30.2691 -30.2691
   -30.2395 -30.2395 -30.2338 -30.2338 -30.2247 -30.2247 -30.1871 -30.1871
   -20.0985 -20.0985 -20.0975 -20.0975 -20.0966 -20.0966 -20.0963 -20.0963
   -20.0943 -20.0943 -20.0942 -20.0942 -20.0941 -20.0941 -20.0939 -20.0939
   -20.0881 -20.0881 -20.0871 -20.0871 -20.0860 -20.0860 -20.0858 -20.0858
   -20.0855 -20.0854 -20.0851 -20.0851 -20.0849 -20.0849 -20.0832 -20.0831
   -20.0735 -20.0734 -20.0728 -20.0727 -20.0727 -20.0727 -20.0723 -20.0723
   -20.0465 -20.0465 -20.0442 -20.0442 -20.0424 -20.0424 -20.0423 -20.0423
   -20.0415 -20.0415 -20.0411 -20.0411 -20.0402 -20.0402 -20.0381 -20.0381
    -9.4434  -9.4434  -9.3716  -9.3716  -8.6890  -8.6890  -8.6379  -8.6379
    -8.5719  -8.5719  -8.5414  -8.5414  -8.3732  -8.3732  -8.3300  -8.3299
    -8.3094  -8.3094  -8.2569  -8.2569  -7.6876  -7.6876  -7.6020  -7.6020
     1.4001   1.4001   1.4786   1.4786   2.9744   2.9744   3.0933   3.0933
     3.1583   3.1583   3.1740   3.1740   3.2448   3.2448   3.2661   3.2661
     3.3750   3.3750   3.4158   3.4158   3.4804   3.4804   3.5319   3.5319
     3.6248   3.6248   3.8169   3.8169   4.2999   4.2999   4.3654   4.3654
     4.3869   4.3869   4.4792   4.4792   5.2228   5.2228   5.2606   5.2606
     5.5199   5.5200   5.5935   5.5935   6.2893   6.2893   6.2998   6.2998
     6.5289   6.5289   6.5969   6.5969   6.6319   6.6319   6.6991   6.6991
     7.2814   7.2814   7.3045   7.3045   7.3455   7.3455   7.4656   7.4656
     7.5027   7.5027   7.5619   7.5619   7.6214   7.6214   7.6594   7.6594
    11.2374  11.2374  11.3260  11.3260  11.4157  11.4157  11.4686  11.4686
    12.2865  12.2865  12.3155  12.3155  12.4182  12.4182  12.4404  12.4404
    12.9490  12.9490  13.0448  13.0448  13.5851  13.5851  13.6111  13.6111
    15.5060  15.5060  15.6472  15.6472  16.7679  16.7679  16.8548  16.8548
    17.4057  17.4057  17.4640  17.4640  17.5774  17.5774

          k =-0.5000-0.4789 0.1666 ( 62284 PWs)   bands (ev):

   -65.9543 -65.9543 -65.9535 -65.9535 -65.9535 -65.9535 -65.9527 -65.9527
   -30.3763 -30.3763 -30.3698 -30.3698 -30.3668 -30.3668 -30.3648 -30.3648
   -30.3114 -30.3114 -30.2839 -30.2839 -30.2711 -30.2711 -30.2666 -30.2666
   -30.2415 -30.2415 -30.2345 -30.2345 -30.2283 -30.2283 -30.1934 -30.1934
   -20.0985 -20.0984 -20.0976 -20.0976 -20.0966 -20.0966 -20.0963 -20.0963
   -20.0943 -20.0943 -20.0942 -20.0942 -20.0941 -20.0941 -20.0940 -20.0939
   -20.0879 -20.0879 -20.0870 -20.0870 -20.0860 -20.0860 -20.0859 -20.0859
   -20.0855 -20.0855 -20.0851 -20.0851 -20.0848 -20.0848 -20.0833 -20.0833
   -20.0734 -20.0734 -20.0728 -20.0727 -20.0727 -20.0727 -20.0723 -20.0723
   -20.0462 -20.0462 -20.0440 -20.0440 -20.0424 -20.0424 -20.0421 -20.0421
   -20.0416 -20.0416 -20.0412 -20.0412 -20.0404 -20.0404 -20.0385 -20.0385
    -9.3647  -9.3647  -9.2980  -9.2980  -8.7064  -8.7064  -8.6564  -8.6564
    -8.5537  -8.5537  -8.5259  -8.5259  -8.3702  -8.3702  -8.3285  -8.3285
    -8.3109  -8.3109  -8.2592  -8.2592  -7.8064  -7.8064  -7.7215  -7.7215
     1.6556   1.6556   1.7313   1.7313   2.9876   2.9876   3.0987   3.0987
     3.1590   3.1590   3.1724   3.1724   3.2454   3.2454   3.3006   3.3006
     3.3924   3.3924   3.4902   3.4902   3.5052   3.5052   3.6056   3.6056
     3.6575   3.6575   3.8427   3.8427   4.3042   4.3042   4.3544   4.3544
     4.3877   4.3877   4.4703   4.4703   4.9116   4.9116   5.0632   5.0632
     5.1953   5.1953   5.3414   5.3414   5.9021   5.9021   5.9276   5.9276
     6.7152   6.7152   6.8293   6.8293   6.8668   6.8668   6.9352   6.9352
     7.2801   7.2801   7.3005   7.3005   7.3767   7.3767   7.4587   7.4587
     7.4983   7.4983   7.5626   7.5626   7.6312   7.6312   7.6726   7.6726
    11.3219  11.3219  11.4084  11.4084  11.5096  11.5096  11.5957  11.5957
    12.2889  12.2889  12.3233  12.3233  12.4164  12.4164  12.4466  12.4466
    12.8774  12.8774  12.9756  12.9756  13.4230  13.4230  13.4784  13.4784
    15.7753  15.7753  15.9017  15.9017  16.8279  16.8279  16.9091  16.9091
    17.4065  17.4065  17.4697  17.4697  17.5772  17.5773

          k =-0.5000-0.4789 0.3331 ( 62284 PWs)   bands (ev):

   -65.9541 -65.9541 -65.9537 -65.9537 -65.9533 -65.9533 -65.9528 -65.9528
   -30.3728 -30.3728 -30.3693 -30.3693 -30.3675 -30.3675 -30.3665 -30.3665
   -30.2967 -30.2967 -30.2774 -30.2774 -30.2722 -30.2722 -30.2551 -30.2551
   -30.2540 -30.2540 -30.2348 -30.2348 -30.2321 -30.2321 -30.2105 -30.2105
   -20.0983 -20.0983 -20.0978 -20.0978 -20.0966 -20.0966 -20.0964 -20.0964
   -20.0943 -20.0943 -20.0943 -20.0942 -20.0941 -20.0940 -20.0940 -20.0940
   -20.0875 -20.0875 -20.0867 -20.0867 -20.0863 -20.0863 -20.0860 -20.0860
   -20.0855 -20.0855 -20.0852 -20.0852 -20.0845 -20.0845 -20.0837 -20.0837
   -20.0733 -20.0732 -20.0729 -20.0729 -20.0726 -20.0726 -20.0724 -20.0724
   -20.0453 -20.0453 -20.0434 -20.0434 -20.0430 -20.0430 -20.0421 -20.0421
   -20.0414 -20.0414 -20.0414 -20.0413 -20.0407 -20.0407 -20.0394 -20.0394
    -9.1519  -9.1519  -9.1049  -9.1049  -8.7638  -8.7638  -8.7229  -8.7229
    -8.4927  -8.4927  -8.4719  -8.4719  -8.3624  -8.3624  -8.3291  -8.3291
    -8.3114  -8.3114  -8.2647  -8.2647  -8.0863  -8.0863  -8.0093  -8.0093
     2.3300   2.3300   2.3961   2.3961   3.0147   3.0147   3.0833   3.0833
     3.1574   3.1574   3.1952   3.1952   3.2764   3.2764   3.3139   3.3139
     3.4634   3.4634   3.5112   3.5112   3.6566   3.6566   3.7477   3.7477
     3.8530   3.8530   3.9559   3.9559   4.2537   4.2537   4.3032   4.3032
     4.3729   4.3729   4.4207   4.4207   4.5113   4.5113   4.6020   4.6020
     4.7106   4.7106   4.8534   4.8534   5.1148   5.1148   5.1428   5.1428
     6.9823   6.9823   7.1009   7.1009   7.1824   7.1824   7.2090   7.2090
     7.2991   7.2991   7.3349   7.3349   7.4195   7.4195   7.4383   7.4383
     7.5104   7.5104   7.5861   7.5861   7.6396   7.6396   7.6846   7.6846
    11.5803  11.5803  11.6442  11.6442  11.8232  11.8232  11.9264  11.9264
    12.2673  12.2673  12.3407  12.3407  12.3804  12.3804  12.4526  12.4526
    12.5988  12.5988  12.7272  12.7272  13.0169  13.0169  13.1023  13.1023
    16.5126  16.5126  16.6166  16.6167  17.0073  17.0073  17.0652  17.0652
    17.3632  17.3632  17.4699  17.4699  17.5687  17.5688

          k =-0.5000-0.4789-0.4997 ( 62280 PWs)   bands (ev):

   -65.9539 -65.9539 -65.9539 -65.9539 -65.9531 -65.9531 -65.9531 -65.9531
   -30.3695 -30.3695 -30.3691 -30.3691 -30.3684 -30.3684 -30.3683 -30.3683
   -30.2757 -30.2757 -30.2754 -30.2754 -30.2741 -30.2741 -30.2740 -30.2740
   -30.2340 -30.2340 -30.2338 -30.2338 -30.2336 -30.2336 -30.2334 -30.2333
   -20.0981 -20.0981 -20.0980 -20.0980 -20.0965 -20.0965 -20.0965 -20.0965
   -20.0943 -20.0943 -20.0943 -20.0943 -20.0940 -20.0940 -20.0940 -20.0940
   -20.0870 -20.0870 -20.0868 -20.0868 -20.0864 -20.0863 -20.0863 -20.0863
   -20.0855 -20.0855 -20.0853 -20.0853 -20.0842 -20.0842 -20.0841 -20.0841
   -20.0731 -20.0731 -20.0730 -20.0730 -20.0725 -20.0725 -20.0725 -20.0725
   -20.0441 -20.0441 -20.0441 -20.0441 -20.0427 -20.0427 -20.0426 -20.0426
   -20.0411 -20.0411 -20.0411 -20.0411 -20.0406 -20.0406 -20.0404 -20.0404
    -8.9110  -8.9110  -8.8857  -8.8857  -8.8850  -8.8850  -8.8828  -8.8828
    -8.3995  -8.3995  -8.3480  -8.3479  -8.3450  -8.3450  -8.3400  -8.3400
    -8.3161  -8.3160  -8.3080  -8.3080  -8.2730  -8.2730  -8.2590  -8.2590
     3.0078   3.0078   3.0139   3.0140   3.0296   3.0296   3.0414   3.0414
     3.2471   3.2471   3.2569   3.2569   3.2736   3.2736   3.2881   3.2881
     3.3776   3.3776   3.4957   3.4957   3.5279   3.5279   3.5724   3.5724
     4.1749   4.1749   4.1881   4.1881   4.2070   4.2070   4.2116   4.2116
     4.3730   4.3730   4.3863   4.3863   4.4150   4.4150   4.4354   4.4354
     4.5054   4.5054   4.5291   4.5291   4.5387   4.5387   4.5546   4.5546
     7.0979   7.0979   7.1866   7.1867   7.2134   7.2134   7.3293   7.3293
     7.3792   7.3792   7.3815   7.3815   7.3933   7.3933   7.4024   7.4024
     7.5995   7.5995   7.6138   7.6138   7.6269   7.6269   7.6675   7.6676
    11.9710  11.9710  11.9744  11.9744  11.9790  11.9790  11.9864  11.9864
    12.2438  12.2438  12.3050  12.3050  12.3357  12.3357  12.4645  12.4645
    12.5492  12.5492  12.6157  12.6157  12.6349  12.6349  12.6553  12.6553
    17.0987  17.0987  17.1274  17.1274  17.1492  17.1492  17.2156  17.2156
    17.4596  17.4596  17.4717  17.4717  17.5425  17.5426

     the Fermi energy is    10.1077 ev

!    total energy              =   -6260.38680439 Ry
     Harris-Foulkes estimate   =   -6260.38680439 Ry
     estimated scf accuracy    <          3.2E-09 Ry

     The total energy is the sum of the following terms:

     one-electron contribution =   -4722.44399545 Ry
     hartree contribution      =    2600.78234715 Ry
     xc contribution           =    -966.77000651 Ry
     ewald contribution        =   -3171.95510991 Ry
     smearing contrib. (-TS)   =      -0.00003967 Ry

     convergence has been achieved in  15 iterations

     Writing output data file Landau_9.save
 
     init_run     :     36.26s CPU     37.77s WALL (       1 calls)
     electrons    :   2190.91s CPU   2225.53s WALL (       1 calls)

     Called by init_run:
     wfcinit      :     32.87s CPU     34.24s WALL (       1 calls)
     potinit      :      1.37s CPU      1.40s WALL (       1 calls)

     Called by electrons:
     c_bands      :   1909.83s CPU   1942.30s WALL (      15 calls)
     sum_band     :    267.89s CPU    269.19s WALL (      15 calls)
     v_of_rho     :      1.97s CPU      1.99s WALL (      16 calls)
     mix_rho      :      3.11s CPU      3.70s WALL (      15 calls)

     Called by c_bands:
     init_us_2    :     12.55s CPU     13.41s WALL (      62 calls)
     cegterg      :   1235.76s CPU   1266.10s WALL (      30 calls)

     Called by sum_band:

     Called by *egterg:
     h_psi        :    961.83s CPU    965.43s WALL (     129 calls)
     g_psi        :      4.07s CPU      4.07s WALL (      97 calls)
     cdiaghg      :     15.07s CPU     15.10s WALL (     127 calls)

     Called by h_psi:
     h_psi:pot    :    955.75s CPU    959.13s WALL (     129 calls)
     h_psi:calbec :    118.66s CPU    121.14s WALL (     129 calls)
     vloc_psi     :    710.24s CPU    710.84s WALL (     129 calls)
     add_vuspsi   :    126.85s CPU    127.15s WALL (     129 calls)

     General routines
     calbec       :    118.66s CPU    121.14s WALL (     129 calls)
     fft          :      1.21s CPU      1.22s WALL (      64 calls)
     fftw         :    738.46s CPU    738.83s WALL (   37776 calls)
 
     Parallel routines
 
     PWSCF        : 37m20.33s CPU    38m 7.32s WALL

 
   This run was terminated on:  23:11:48  25Mar2020            

=------------------------------------------------------------------------------=
   JOB DONE.
=------------------------------------------------------------------------------=
