
     Program PWSCF v.6.2 (svn rev. 14038) starts on 29Apr2019 at 17:59:21 

     This program is part of the open-source Quantum ESPRESSO suite
     for quantum simulation of materials; please cite
         "P. Giannozzi et al., J. Phys.:Condens. Matter 21 395502 (2009);
         "P. Giannozzi et al., J. Phys.:Condens. Matter 29 465901 (2017);
          URL http://www.quantum-espresso.org", 
     in publications or presentations arising from this work. More details at
     http://www.quantum-espresso.org/quote

     Parallel version (MPI), running on    64 processors

     MPI processes distributed on     9 nodes
     K-points division:     npool     =      64
     Reading input from rscf.in

     Current dimensions of program PWSCF are:
     Max number of different atomic species (ntypx) = 10
     Max number of k-points (npk) =  40000
     Max angular momentum in pseudopotentials (lmaxx) =  3

     Subspace diagonalization in iterative solution of the eigenvalue problem:
     a serial algorithm will be used

 
     G-vector sticks info
     --------------------
     sticks:   dense  smooth     PW     G-vecs:    dense   smooth      PW
     Sum        7747    7747   2077               498127   498127   69057
 


     bravais-lattice index     =            0
     lattice parameter (alat)  =      13.8397  a.u.
     unit-cell volume          =    2804.9816 (a.u.)^3
     number of atoms/cell      =           32
     number of atomic types    =            2
     number of electrons       =       368.00
     number of Kohn-Sham states=          221
     kinetic-energy cutoff     =     120.0000  Ry
     charge density cutoff     =     480.0000  Ry
     convergence threshold     =      1.0E-08
     mixing beta               =       0.7000
     number of iterations used =            8  plain     mixing
     Exchange-correlation      = SLA PW NOGX NOGC ( 1  4  0  0 0 0)
     nstep                     =           50


     celldm(1)=  13.839685  celldm(2)=   0.000000  celldm(3)=   0.000000
     celldm(4)=   0.000000  celldm(5)=   0.000000  celldm(6)=   0.000000

     crystal axes: (cart. coord. in units of alat)
               a(1) = (   1.000000   0.000000   0.000000 )  
               a(2) = (   0.000000   1.058160   0.000000 )  
               a(3) = (   0.000000   0.000000   1.000000 )  

     reciprocal axes: (cart. coord. in units 2 pi/alat)
               b(1) = (  1.000000  0.000000  0.000000 )  
               b(2) = (  0.000000  0.945037  0.000000 )  
               b(3) = (  0.000000  0.000000  1.000000 )  


     PseudoPot. # 1 for W  read from file:
     /cluster/scratch/mnoe/QE/pps/W_ONCV_LDA-4.0.upf
     MD5 check sum: ba0307d5d4cd419d6f1d13dc49d7c13a
     Pseudo is Norm-conserving + core correction, Zval = 28.0
     Generated using ONCVPSP code by D. R. Hamann
     Using radial grid of 1380 points,  8 beta functions with: 
                l(1) =   0
                l(2) =   0
                l(3) =   1
                l(4) =   1
                l(5) =   2
                l(6) =   2
                l(7) =   3
                l(8) =   3

     PseudoPot. # 2 for O  read from file:
     /cluster/scratch/mnoe/QE/pps/O_ONCV_LDA-3.0.upf
     MD5 check sum: a1bd6164e7280c17a38c229939bfbd54
     Pseudo is Norm-conserving + core correction, Zval =  6.0
     Generated using ONCVPSP code by D. R. Hamann
     Using radial grid of  926 points,  5 beta functions with: 
                l(1) =   0
                l(2) =   0
                l(3) =   1
                l(4) =   1
                l(5) =   2

     atomic species   valence    mass     pseudopotential
        W             28.00   183.84000     W ( 1.00)
        O              6.00    15.99940     O ( 1.00)

      8 Sym. Ops., with inversion, found ( 6 have fractional translation)



   Cartesian axes

     site n.     atom                  positions (alat units)
         1           W   tau(   1) = (   0.2398300   0.2982530   0.0096100  )
         2           W   tau(   2) = (   0.7601700   0.7599071   0.9903900  )
         3           W   tau(   3) = (   0.2601700   0.2308271   0.5096100  )
         4           W   tau(   4) = (   0.7398300   0.8273330   0.4903900  )
         5           W   tau(   5) = (   0.7601700   0.2982530   0.4903900  )
         6           W   tau(   6) = (   0.2398300   0.7599071   0.5096100  )
         7           W   tau(   7) = (   0.7398300   0.2308271   0.9903900  )
         8           W   tau(   8) = (   0.2601700   0.8273330   0.0096100  )
         9           O   tau(   9) = (   0.2312300   0.0088039   0.0029900  )
        10           O   tau(  10) = (   0.7687700   1.0493562   0.9970100  )
        11           O   tau(  11) = (   0.2687700   0.5202761   0.5029900  )
        12           O   tau(  12) = (   0.7312300   0.5378839   0.4970100  )
        13           O   tau(  13) = (   0.7687700   0.0088039   0.4970100  )
        14           O   tau(  14) = (   0.2312300   1.0493562   0.5029900  )
        15           O   tau(  15) = (   0.7312300   0.5202761   0.9970100  )
        16           O   tau(  16) = (   0.2687700   0.5378839   0.0029900  )
        17           O   tau(  17) = (   0.5027800   0.2441704   0.4495400  )
        18           O   tau(  18) = (   0.4972200   0.8139897   0.5504600  )
        19           O   tau(  19) = (   0.9972200   0.2849096   0.9495400  )
        20           O   tau(  20) = (   0.0027800   0.7732504   0.0504600  )
        21           O   tau(  21) = (   0.4972200   0.2441704   0.0504600  )
        22           O   tau(  22) = (   0.5027800   0.8139897   0.9495400  )
        23           O   tau(  23) = (   0.0027800   0.2849096   0.5504600  )
        24           O   tau(  24) = (   0.9972200   0.7732504   0.4495400  )
        25           O   tau(  25) = (   0.6995400   0.2600957   0.7457800  )
        26           O   tau(  26) = (   0.3004600   0.7980643   0.2542200  )
        27           O   tau(  27) = (   0.8004600   0.2689843   0.2457800  )
        28           O   tau(  28) = (   0.1995400   0.7891758   0.7542200  )
        29           O   tau(  29) = (   0.3004600   0.2600957   0.7542200  )
        30           O   tau(  30) = (   0.6995400   0.7980643   0.2457800  )
        31           O   tau(  31) = (   0.1995400   0.2689843   0.2542200  )
        32           O   tau(  32) = (   0.8004600   0.7891758   0.7457800  )

     number of k points=    64  gaussian smearing, width (Ry)=  0.0007
                       cart. coord. in units 2pi/alat
        k(    1) = (   0.0000000   0.0000000   0.0000000), wk =   0.0092593
        k(    2) = (   0.0000000   0.0000000   0.1666667), wk =   0.0185185
        k(    3) = (   0.0000000   0.0000000   0.3333333), wk =   0.0185185
        k(    4) = (   0.0000000   0.0000000  -0.5000000), wk =   0.0092593
        k(    5) = (   0.0000000   0.1575061   0.0000000), wk =   0.0185185
        k(    6) = (   0.0000000   0.1575061   0.1666667), wk =   0.0370370
        k(    7) = (   0.0000000   0.1575061   0.3333333), wk =   0.0370370
        k(    8) = (   0.0000000   0.1575061  -0.5000000), wk =   0.0185185
        k(    9) = (   0.0000000   0.3150122   0.0000000), wk =   0.0185185
        k(   10) = (   0.0000000   0.3150122   0.1666667), wk =   0.0370370
        k(   11) = (   0.0000000   0.3150122   0.3333333), wk =   0.0370370
        k(   12) = (   0.0000000   0.3150122  -0.5000000), wk =   0.0185185
        k(   13) = (   0.0000000  -0.4725183   0.0000000), wk =   0.0092593
        k(   14) = (   0.0000000  -0.4725183   0.1666667), wk =   0.0185185
        k(   15) = (   0.0000000  -0.4725183   0.3333333), wk =   0.0185185
        k(   16) = (   0.0000000  -0.4725183  -0.5000000), wk =   0.0092593
        k(   17) = (   0.1666667   0.0000000   0.1666667), wk =   0.0370370
        k(   18) = (   0.1666667   0.0000000   0.3333333), wk =   0.0370370
        k(   19) = (   0.1666667   0.0000000  -0.5000000), wk =   0.0185185
        k(   20) = (   0.1666667   0.1575061   0.1666667), wk =   0.0740741
        k(   21) = (   0.1666667   0.1575061   0.3333333), wk =   0.0740741
        k(   22) = (   0.1666667   0.1575061  -0.5000000), wk =   0.0370370
        k(   23) = (   0.1666667   0.3150122   0.1666667), wk =   0.0740741
        k(   24) = (   0.1666667   0.3150122   0.3333333), wk =   0.0740741
        k(   25) = (   0.1666667   0.3150122  -0.5000000), wk =   0.0370370
        k(   26) = (   0.1666667  -0.4725183   0.1666667), wk =   0.0370370
        k(   27) = (   0.1666667  -0.4725183   0.3333333), wk =   0.0370370
        k(   28) = (   0.1666667  -0.4725183  -0.5000000), wk =   0.0185185
        k(   29) = (   0.3333333   0.0000000   0.3333333), wk =   0.0370370
        k(   30) = (   0.3333333   0.0000000  -0.5000000), wk =   0.0185185
        k(   31) = (   0.3333333   0.1575061   0.3333333), wk =   0.0740741
        k(   32) = (   0.3333333   0.1575061  -0.5000000), wk =   0.0370370
        k(   33) = (   0.3333333   0.3150122   0.3333333), wk =   0.0740741
        k(   34) = (   0.3333333   0.3150122  -0.5000000), wk =   0.0370370
        k(   35) = (   0.3333333  -0.4725183   0.3333333), wk =   0.0370370
        k(   36) = (   0.3333333  -0.4725183  -0.5000000), wk =   0.0185185
        k(   37) = (  -0.5000000   0.0000000  -0.5000000), wk =   0.0092593
        k(   38) = (  -0.5000000   0.1575061  -0.5000000), wk =   0.0185185
        k(   39) = (  -0.5000000   0.3150122  -0.5000000), wk =   0.0185185
        k(   40) = (  -0.5000000  -0.4725183  -0.5000000), wk =   0.0092593
        k(   41) = (   0.1666667   0.0000000   0.0000000), wk =   0.0185185
        k(   42) = (   0.3333333   0.0000000   0.0000000), wk =   0.0185185
        k(   43) = (  -0.5000000   0.0000000   0.0000000), wk =   0.0092593
        k(   44) = (   0.1666667  -0.1575061   0.0000000), wk =   0.0370370
        k(   45) = (   0.3333333  -0.1575061   0.0000000), wk =   0.0370370
        k(   46) = (  -0.5000000  -0.1575061   0.0000000), wk =   0.0185185
        k(   47) = (   0.1666667  -0.3150122   0.0000000), wk =   0.0370370
        k(   48) = (   0.3333333  -0.3150122   0.0000000), wk =   0.0370370
        k(   49) = (  -0.5000000  -0.3150122   0.0000000), wk =   0.0185185
        k(   50) = (   0.1666667   0.4725183   0.0000000), wk =   0.0185185
        k(   51) = (   0.3333333   0.4725183   0.0000000), wk =   0.0185185
        k(   52) = (  -0.5000000   0.4725183   0.0000000), wk =   0.0092593
        k(   53) = (   0.3333333   0.0000000   0.1666667), wk =   0.0370370
        k(   54) = (  -0.5000000   0.0000000   0.1666667), wk =   0.0185185
        k(   55) = (   0.3333333  -0.1575061   0.1666667), wk =   0.0740741
        k(   56) = (  -0.5000000  -0.1575061   0.1666667), wk =   0.0370370
        k(   57) = (   0.3333333  -0.3150122   0.1666667), wk =   0.0740741
        k(   58) = (  -0.5000000  -0.3150122   0.1666667), wk =   0.0370370
        k(   59) = (   0.3333333   0.4725183   0.1666667), wk =   0.0370370
        k(   60) = (  -0.5000000   0.4725183   0.1666667), wk =   0.0185185
        k(   61) = (  -0.5000000   0.0000000   0.3333333), wk =   0.0185185
        k(   62) = (  -0.5000000  -0.1575061   0.3333333), wk =   0.0370370
        k(   63) = (  -0.5000000  -0.3150122   0.3333333), wk =   0.0370370
        k(   64) = (  -0.5000000   0.4725183   0.3333333), wk =   0.0185185

     Dense  grid:   498127 G-vectors     FFT dimensions: ( 100, 108, 100)

     Estimated max dynamical RAM per process >       2.74 GB

     Estimated total dynamical RAM >     175.05 GB

     Initial potential from superposition of free atoms

     starting charge  367.99656, renormalised to  368.00000
     Starting wfc are  232 randomized atomic wfcs

     total cpu time spent up to now is       31.1 secs

     Self-consistent Calculation

     iteration #  1     ecut=   120.00 Ry     beta= 0.70
     Davidson diagonalization with overlap
     ethr =  1.00E-02,  avg # of iterations =  5.0

     total cpu time spent up to now is       85.6 secs

     total energy              =   -6253.96100219 Ry
     Harris-Foulkes estimate   =   -6264.57364996 Ry
     estimated scf accuracy    <      13.43275759 Ry

     iteration #  2     ecut=   120.00 Ry     beta= 0.70
     Davidson diagonalization with overlap
     ethr =  3.65E-03,  avg # of iterations =  3.4

     total cpu time spent up to now is      138.0 secs

     total energy              =   -6250.64363260 Ry
     Harris-Foulkes estimate   =   -6270.93941435 Ry
     estimated scf accuracy    <      54.88301531 Ry

     iteration #  3     ecut=   120.00 Ry     beta= 0.70
     Davidson diagonalization with overlap
     ethr =  3.65E-03,  avg # of iterations =  3.4

     total cpu time spent up to now is      188.4 secs

     total energy              =   -6261.08025111 Ry
     Harris-Foulkes estimate   =   -6261.39817113 Ry
     estimated scf accuracy    <       1.03189052 Ry

     iteration #  4     ecut=   120.00 Ry     beta= 0.70
     Davidson diagonalization with overlap
     ethr =  2.80E-04,  avg # of iterations =  2.7

     total cpu time spent up to now is      229.2 secs

     total energy              =   -6261.09947241 Ry
     Harris-Foulkes estimate   =   -6261.17595342 Ry
     estimated scf accuracy    <       0.26677649 Ry

     iteration #  5     ecut=   120.00 Ry     beta= 0.70
     Davidson diagonalization with overlap
     ethr =  7.25E-05,  avg # of iterations =  4.9

     total cpu time spent up to now is      273.1 secs

     total energy              =   -6261.09023456 Ry
     Harris-Foulkes estimate   =   -6261.12882229 Ry
     estimated scf accuracy    <       0.08410597 Ry

     iteration #  6     ecut=   120.00 Ry     beta= 0.70
     Davidson diagonalization with overlap
     ethr =  2.29E-05,  avg # of iterations =  5.2

     total cpu time spent up to now is      318.7 secs

     total energy              =   -6261.10909084 Ry
     Harris-Foulkes estimate   =   -6261.11085745 Ry
     estimated scf accuracy    <       0.00512841 Ry

     iteration #  7     ecut=   120.00 Ry     beta= 0.70
     Davidson diagonalization with overlap
     ethr =  1.39E-06,  avg # of iterations =  3.6

     total cpu time spent up to now is      360.3 secs

     total energy              =   -6261.10959105 Ry
     Harris-Foulkes estimate   =   -6261.10974446 Ry
     estimated scf accuracy    <       0.00038397 Ry

     iteration #  8     ecut=   120.00 Ry     beta= 0.70
     Davidson diagonalization with overlap
     ethr =  1.04E-07,  avg # of iterations =  3.1

     total cpu time spent up to now is      404.1 secs

     total energy              =   -6261.10965784 Ry
     Harris-Foulkes estimate   =   -6261.10967732 Ry
     estimated scf accuracy    <       0.00004111 Ry

     iteration #  9     ecut=   120.00 Ry     beta= 0.70
     Davidson diagonalization with overlap
     ethr =  1.12E-08,  avg # of iterations =  3.1

     total cpu time spent up to now is      455.8 secs

     total energy              =   -6261.10966895 Ry
     Harris-Foulkes estimate   =   -6261.10967158 Ry
     estimated scf accuracy    <       0.00000941 Ry

     iteration # 10     ecut=   120.00 Ry     beta= 0.70
     Davidson diagonalization with overlap
     ethr =  2.56E-09,  avg # of iterations =  2.0

     total cpu time spent up to now is      496.1 secs

     total energy              =   -6261.10966852 Ry
     Harris-Foulkes estimate   =   -6261.10966988 Ry
     estimated scf accuracy    <       0.00000300 Ry

     iteration # 11     ecut=   120.00 Ry     beta= 0.70
     Davidson diagonalization with overlap
     ethr =  8.15E-10,  avg # of iterations =  2.9

     total cpu time spent up to now is      539.5 secs

     total energy              =   -6261.10966917 Ry
     Harris-Foulkes estimate   =   -6261.10966919 Ry
     estimated scf accuracy    <       0.00000007 Ry

     iteration # 12     ecut=   120.00 Ry     beta= 0.70
     Davidson diagonalization with overlap
     ethr =  1.89E-11,  avg # of iterations =  2.0

     total cpu time spent up to now is      588.0 secs

     total energy              =   -6261.10966918 Ry
     Harris-Foulkes estimate   =   -6261.10966918 Ry
     estimated scf accuracy    <       0.00000001 Ry

     iteration # 13     ecut=   120.00 Ry     beta= 0.70
     Davidson diagonalization with overlap
     ethr =  3.92E-12,  avg # of iterations =  2.5

     total cpu time spent up to now is      631.0 secs

     End of self-consistent calculation

          k = 0.0000 0.0000 0.0000 ( 62239 PWs)   bands (ev):

   -66.1714 -66.1710 -66.1704 -66.1704 -66.1700 -66.1700 -66.1694 -66.1690
   -30.5479 -30.5407 -30.5383 -30.5379 -30.5331 -30.5296 -30.5280 -30.5224
   -30.5174 -30.5169 -30.5077 -30.5072 -30.4750 -30.4726 -30.4710 -30.4662
   -30.4314 -30.4309 -30.4302 -30.4289 -30.4202 -30.4156 -30.4154 -30.4107
   -20.3356 -20.3356 -20.3354 -20.3354 -20.3352 -20.3352 -20.3350 -20.3350
   -20.3157 -20.3153 -20.3150 -20.3149 -20.3146 -20.3146 -20.3142 -20.3139
   -20.3121 -20.3120 -20.3116 -20.3115 -20.3115 -20.3111 -20.3111 -20.3108
   -20.3107 -20.3104 -20.3101 -20.3099 -20.3064 -20.3061 -20.3060 -20.3058
   -20.3024 -20.3021 -20.3020 -20.3016 -20.3015 -20.3014 -20.3013 -20.3010
   -20.2956 -20.2954 -20.2952 -20.2951 -20.2950 -20.2948 -20.2937 -20.2936
   -20.2912 -20.2910 -20.2899 -20.2897 -20.2894 -20.2890 -20.2884 -20.2880
    -9.9434  -9.6870  -9.4989  -9.4624  -9.2794  -9.2140  -9.0508  -9.0353
    -8.9692  -8.8029  -8.7930  -8.7775  -7.8690  -7.8367  -7.7956  -7.7801
    -7.7658  -7.7623  -7.7461  -7.6872  -7.6820  -7.6533  -7.6440  -7.6312
     1.2029   1.2070   1.2694   1.2717   1.3429   1.3527   1.4589   1.6489
     1.7247   1.7429   1.7483   1.9021   2.3591   2.4372   2.6232   2.6319
     2.7781   2.7790   4.1070   4.1814   4.3066   4.4226   4.7801   4.7959
     4.7988   4.8085   4.8212   4.9287   5.1192   5.1398   5.1583   5.4569
     5.5024   5.5303   5.5535   5.5608   5.5877   5.6043   5.6959   5.8377
     5.8488   5.8777   5.8889   5.8996   5.9424   5.9692   6.0049   6.0747
     6.1056   6.2250   6.2595   6.5172   6.5685   6.8110   6.8208   6.8629
     6.9034   6.9149   6.9217   6.9838   6.9976   7.0591   7.2635   7.3080
     7.3390   7.3834   7.7266   7.7429   8.0163   8.0812   8.0820   8.1483
     9.4094   9.4175  10.0375  10.0638  10.0693  10.0973  12.1732  12.2025
    12.3155  12.3202  12.3670  12.3803  12.4772  12.5234  12.6224  12.7821
    13.2315  13.2682  13.2857  13.3746  13.6125  13.8114  14.0685  14.0750
    14.2526  14.3395  14.5203  14.8999  15.3661  15.4004  15.4234  15.9909
    15.9993  16.7201  16.9281  16.9715  17.5254

          k = 0.0000 0.0000 0.1667 ( 62262 PWs)   bands (ev):

   -66.1714 -66.1710 -66.1705 -66.1703 -66.1701 -66.1699 -66.1695 -66.1691
   -30.5462 -30.5386 -30.5383 -30.5322 -30.5285 -30.5271 -30.5256 -30.5220
   -30.5177 -30.5127 -30.5082 -30.5052 -30.4760 -30.4724 -30.4719 -30.4655
   -30.4380 -30.4372 -30.4351 -30.4349 -30.4199 -30.4159 -30.4153 -30.4112
   -20.3356 -20.3356 -20.3354 -20.3354 -20.3352 -20.3352 -20.3351 -20.3350
   -20.3156 -20.3152 -20.3150 -20.3150 -20.3146 -20.3146 -20.3142 -20.3139
   -20.3121 -20.3120 -20.3116 -20.3116 -20.3116 -20.3112 -20.3111 -20.3108
   -20.3107 -20.3105 -20.3101 -20.3099 -20.3064 -20.3061 -20.3061 -20.3058
   -20.3024 -20.3021 -20.3017 -20.3014 -20.3013 -20.3011 -20.3008 -20.3005
   -20.2958 -20.2957 -20.2954 -20.2953 -20.2951 -20.2948 -20.2940 -20.2939
   -20.2911 -20.2908 -20.2898 -20.2896 -20.2896 -20.2892 -20.2885 -20.2882
    -9.8927  -9.6292  -9.4806  -9.4295  -9.2293  -9.1907  -9.0122  -8.9982
    -8.9788  -8.7954  -8.7822  -8.7715  -7.9544  -7.9482  -7.8451  -7.8106
    -7.7956  -7.7686  -7.7668  -7.7581  -7.7248  -7.6906  -7.6528  -7.6408
     1.3138   1.3160   1.3451   1.3578   1.4990   1.5242   1.5265   1.7346
     1.7405   1.7551   1.7941   1.9909   2.4489   2.5291   2.6411   2.7121
     2.7706   2.8648   4.1053   4.1100   4.3339   4.3699   4.4050   4.4378
     4.7242   4.7948   4.8391   4.8424   4.8667   5.1174   5.1570   5.2961
     5.3275   5.4611   5.5194   5.5505   5.6087   5.6251   5.6599   5.6886
     5.6933   5.7983   5.8803   5.9253   5.9745   5.9843   6.1106   6.1540
     6.1791   6.3668   6.4511   6.5568   6.6983   6.7496   6.7816   6.7996
     6.8489   6.9072   6.9115   6.9771   6.9904   7.0625   7.0982   7.1113
     7.1611   7.2289   7.7496   7.7536   8.0334   8.0399   8.0846   8.1061
     9.7242   9.7252  10.0605  10.0616  10.3121  10.3660  12.1465  12.2350
    12.2377  12.3270  12.3618  12.4005  12.5270  12.5774  12.6879  12.7916
    13.0561  13.2593  13.2623  13.2896  13.6982  13.8105  13.9313  13.9584
    14.2728  14.4472  14.5149  15.0115  15.3337  15.4230  15.4790  15.9633
    16.2935  16.7334  16.8907  17.1178  17.5760

          k = 0.0000 0.0000 0.3333 ( 62268 PWs)   bands (ev):

   -66.1712 -66.1708 -66.1707 -66.1703 -66.1702 -66.1698 -66.1697 -66.1693
   -30.5434 -30.5394 -30.5349 -30.5298 -30.5216 -30.5187 -30.5171 -30.5151
   -30.5110 -30.5096 -30.4995 -30.4955 -30.4802 -30.4783 -30.4698 -30.4634
   -30.4555 -30.4518 -30.4516 -30.4479 -30.4191 -30.4169 -30.4145 -30.4122
   -20.3355 -20.3355 -20.3353 -20.3353 -20.3353 -20.3353 -20.3351 -20.3351
   -20.3155 -20.3151 -20.3151 -20.3148 -20.3147 -20.3144 -20.3144 -20.3141
   -20.3120 -20.3119 -20.3117 -20.3117 -20.3115 -20.3113 -20.3110 -20.3109
   -20.3107 -20.3105 -20.3101 -20.3100 -20.3065 -20.3063 -20.3062 -20.3060
   -20.3023 -20.3022 -20.3016 -20.3015 -20.3001 -20.2999 -20.2994 -20.2992
   -20.2968 -20.2968 -20.2960 -20.2960 -20.2953 -20.2947 -20.2947 -20.2944
   -20.2908 -20.2905 -20.2899 -20.2896 -20.2896 -20.2894 -20.2888 -20.2885
    -9.7684  -9.5366  -9.4925  -9.2761  -9.2577  -9.0130  -8.9385  -8.9018
    -8.8649  -8.7958  -8.7553  -8.6845  -8.2506  -8.2449  -8.1456  -8.1222
    -7.8175  -7.7795  -7.7414  -7.7393  -7.7231  -7.6999  -7.6767  -7.6671
     1.3517   1.3626   1.3719   1.3908   1.6625   1.6838   1.7175   1.7245
     2.2149   2.2570   2.4104   2.4961   2.6643   2.7062   2.7570   2.7972
     2.9521   3.0915   3.7245   3.8226   3.8965   3.9172   4.2236   4.2300
     4.3385   4.5075   4.5797   4.7507   4.7868   4.7959   4.9058   5.1017
     5.1561   5.1910   5.2009   5.3500   5.4632   5.4644   5.6760   5.7326
     5.7598   5.8010   5.8533   5.9722   6.0107   6.1383   6.1412   6.2559
     6.3215   6.4281   6.4783   6.5134   6.5527   6.5827   6.6034   6.7679
     6.8093   6.8909   6.9062   6.9637   7.0021   7.0565   7.0571   7.1256
     7.2861   7.3547   7.7067   7.7210   7.9038   7.9706   8.0676   8.0879
    10.0021  10.0500  10.3991  10.5053  10.9027  11.0096  11.8106  11.8856
    12.1123  12.3939  12.4700  12.4987  12.5448  12.5568  12.7068  12.7137
    12.8343  13.0738  13.1395  13.3117  13.6045  13.6649  13.8028  13.8094
    14.3648  14.4966  14.7366  15.2293  15.2836  15.5512  15.8773  15.8793
    16.2268  17.1125  17.3789  17.4295  17.6944

          k = 0.0000 0.0000-0.5000 ( 62264 PWs)   bands (ev):

   -66.1709 -66.1709 -66.1705 -66.1705 -66.1699 -66.1699 -66.1695 -66.1695
   -30.5412 -30.5412 -30.5320 -30.5320 -30.5200 -30.5200 -30.5121 -30.5121
   -30.4944 -30.4944 -30.4915 -30.4915 -30.4786 -30.4786 -30.4746 -30.4746
   -30.4644 -30.4644 -30.4586 -30.4586 -30.4180 -30.4180 -30.4134 -30.4134
   -20.3354 -20.3354 -20.3354 -20.3354 -20.3352 -20.3352 -20.3352 -20.3352
   -20.3153 -20.3153 -20.3149 -20.3149 -20.3146 -20.3146 -20.3143 -20.3143
   -20.3119 -20.3119 -20.3118 -20.3118 -20.3115 -20.3114 -20.3109 -20.3109
   -20.3106 -20.3106 -20.3100 -20.3100 -20.3064 -20.3064 -20.3061 -20.3061
   -20.3023 -20.3023 -20.3015 -20.3015 -20.2984 -20.2984 -20.2983 -20.2983
   -20.2976 -20.2976 -20.2975 -20.2975 -20.2951 -20.2951 -20.2946 -20.2946
   -20.2904 -20.2904 -20.2901 -20.2901 -20.2892 -20.2892 -20.2890 -20.2890
    -9.6347  -9.6347  -9.3612  -9.3612  -9.0956  -9.0956  -8.8219  -8.8219
    -8.6044  -8.6044  -8.5656  -8.5656  -8.5600  -8.5600  -8.4643  -8.4642
    -7.7979  -7.7979  -7.7134  -7.7134  -7.7073  -7.7073  -7.7038  -7.7038
     1.3605   1.3605   1.3889   1.3889   1.7004   1.7004   1.7073   1.7073
     2.6930   2.6930   2.9608   2.9608   3.0818   3.0818   3.1281   3.1281
     3.2494   3.2494   3.2797   3.2797   3.4632   3.4632   3.7664   3.7664
     3.9109   3.9109   4.4981   4.4981   4.6957   4.6957   4.9538   4.9538
     5.2506   5.2506   5.3113   5.3113   5.3231   5.3231   5.7223   5.7223
     5.8019   5.8019   5.9813   5.9813   6.1158   6.1158   6.2434   6.2434
     6.2582   6.2582   6.3950   6.3950   6.5280   6.5280   6.5569   6.5569
     6.7766   6.7766   6.8977   6.8977   7.0343   7.0343   7.4694   7.4694
     7.5120   7.5120   7.6572   7.6572   7.7228   7.7228   8.0846   8.0846
    10.0320  10.0320  11.1604  11.1605  11.2565  11.2565  11.5835  11.5835
    11.7792  11.7792  12.5662  12.5662  12.5834  12.5834  12.7931  12.7931
    12.8476  12.8477  13.2108  13.2108  13.4021  13.4021  13.8122  13.8122
    14.4548  14.4548  15.0327  15.0327  15.6993  15.6993  15.7361  15.7361
    16.6376  16.6376  17.8573  17.8573  18.1427

          k = 0.0000 0.1575 0.0000 ( 62231 PWs)   bands (ev):

   -66.1714 -66.1710 -66.1704 -66.1704 -66.1700 -66.1700 -66.1694 -66.1690
   -30.5459 -30.5389 -30.5383 -30.5352 -30.5331 -30.5294 -30.5244 -30.5229
   -30.5179 -30.5151 -30.5065 -30.5055 -30.4784 -30.4760 -30.4741 -30.4696
   -30.4315 -30.4312 -30.4302 -30.4290 -30.4200 -30.4160 -30.4152 -30.4111
   -20.3356 -20.3356 -20.3354 -20.3354 -20.3352 -20.3352 -20.3350 -20.3350
   -20.3156 -20.3152 -20.3151 -20.3148 -20.3146 -20.3145 -20.3142 -20.3139
   -20.3120 -20.3120 -20.3115 -20.3114 -20.3114 -20.3111 -20.3109 -20.3107
   -20.3105 -20.3103 -20.3100 -20.3098 -20.3067 -20.3064 -20.3064 -20.3061
   -20.3024 -20.3021 -20.3020 -20.3016 -20.3016 -20.3015 -20.3013 -20.3010
   -20.2955 -20.2954 -20.2952 -20.2951 -20.2951 -20.2948 -20.2937 -20.2936
   -20.2911 -20.2910 -20.2899 -20.2897 -20.2894 -20.2890 -20.2884 -20.2881
    -9.9183  -9.6981  -9.4712  -9.4311  -9.2863  -9.2216  -9.0496  -9.0363
    -8.8981  -8.7552  -8.7483  -8.7360  -7.9215  -7.8502  -7.8372  -7.8354
    -7.8098  -7.7911  -7.7875  -7.7818  -7.6806  -7.6592  -7.6495  -7.6330
     1.2030   1.2066   1.2697   1.2724   1.3478   1.3527   1.5484   1.6483
     1.9066   1.9532   1.9749   2.1071   2.3649   2.4318   2.6967   2.7027
     2.8453   2.8486   3.9751   4.0577   4.0661   4.1638   4.7110   4.7785
     4.7877   4.7933   4.8160   4.9881   5.0728   5.0944   5.0980   5.3039
     5.3397   5.5132   5.5178   5.6134   5.6327   5.6342   5.6512   5.7220
     5.7997   5.8343   5.9020   5.9274   5.9564   5.9627   6.0063   6.0778
     6.0840   6.2061   6.2748   6.5387   6.5992   6.7716   6.8253   6.8457
     6.9125   6.9137   6.9265   6.9443   6.9541   6.9757   7.2740   7.3037
     7.3532   7.3807   7.7300   7.7416   7.9898   8.0214   8.0418   8.0678
     9.4157   9.4188  10.2322  10.2378  10.2445  10.2476  12.0720  12.1609
    12.3071  12.3216  12.3237  12.3323  12.3642  12.3654  12.6398  12.7797
    13.2569  13.2865  13.2913  13.3660  13.7804  13.8160  13.9777  13.9876
    14.3268  14.6129  14.6963  15.0436  15.3992  15.4200  15.7631  15.9555
    15.9698  16.4638  17.0512  17.0987  17.5027

          k = 0.0000 0.1575 0.1667 ( 62237 PWs)   bands (ev):

   -66.1713 -66.1710 -66.1705 -66.1703 -66.1701 -66.1700 -66.1694 -66.1691
   -30.5439 -30.5364 -30.5356 -30.5322 -30.5271 -30.5257 -30.5248 -30.5224
   -30.5183 -30.5114 -30.5069 -30.5037 -30.4793 -30.4756 -30.4751 -30.4689
   -30.4381 -30.4374 -30.4353 -30.4350 -30.4197 -30.4158 -30.4156 -30.4116
   -20.3356 -20.3356 -20.3354 -20.3354 -20.3352 -20.3352 -20.3350 -20.3350
   -20.3156 -20.3152 -20.3150 -20.3149 -20.3146 -20.3146 -20.3143 -20.3140
   -20.3120 -20.3120 -20.3115 -20.3115 -20.3114 -20.3111 -20.3110 -20.3108
   -20.3105 -20.3103 -20.3100 -20.3098 -20.3068 -20.3065 -20.3064 -20.3062
   -20.3023 -20.3021 -20.3017 -20.3015 -20.3013 -20.3011 -20.3007 -20.3005
   -20.2958 -20.2957 -20.2953 -20.2953 -20.2952 -20.2948 -20.2940 -20.2940
   -20.2910 -20.2909 -20.2898 -20.2896 -20.2895 -20.2892 -20.2885 -20.2882
    -9.8665  -9.6404  -9.4492  -9.3983  -9.2371  -9.1976  -9.0112  -8.9992
    -8.9077  -8.7486  -8.7408  -8.7302  -7.9618  -7.9529  -7.9004  -7.8511
    -7.8383  -7.8093  -7.8071  -7.7827  -7.7703  -7.7640  -7.6589  -7.6426
     1.3160   1.3161   1.3514   1.3578   1.5160   1.5266   1.6479   1.7935
     1.9136   1.9606   1.9693   2.1414   2.4553   2.5234   2.7114   2.7874
     2.8374   2.9350   3.9859   4.0195   4.1091   4.1504   4.3878   4.4321
     4.6946   4.7637   4.8189   4.8302   4.8374   5.0728   5.0998   5.2388
     5.2605   5.3019   5.4158   5.5077   5.5664   5.5909   5.6474   5.6845
     5.7655   5.7750   5.8532   5.8854   5.9086   6.0135   6.0768   6.1533
     6.1878   6.3201   6.4453   6.5857   6.7166   6.7732   6.8169   6.8246
     6.8298   6.9081   6.9209   6.9355   6.9853   6.9997   7.1005   7.1156
     7.1853   7.2274   7.7513   7.7524   7.9947   8.0024   8.0260   8.0311
     9.7313   9.7407  10.2360  10.2460  10.4578  10.4925  12.1176  12.1437
    12.2416  12.2627  12.3341  12.3663  12.3790  12.4729  12.7064  12.7977
    13.0756  13.2497  13.2785  13.2880  13.8150  13.8193  13.8373  13.8720
    14.3928  14.6803  14.7525  15.1405  15.4197  15.4796  15.7324  15.9285
    16.2615  16.6287  16.8543  17.2225  17.5621

          k = 0.0000 0.1575 0.3333 ( 62284 PWs)   bands (ev):

   -66.1711 -66.1708 -66.1706 -66.1703 -66.1701 -66.1698 -66.1696 -66.1693
   -30.5408 -30.5368 -30.5319 -30.5263 -30.5222 -30.5192 -30.5168 -30.5151
   -30.5112 -30.5084 -30.4988 -30.4947 -30.4829 -30.4805 -30.4729 -30.4666
   -30.4556 -30.4523 -30.4518 -30.4489 -30.4189 -30.4166 -30.4149 -30.4126
   -20.3355 -20.3355 -20.3353 -20.3353 -20.3353 -20.3353 -20.3351 -20.3351
   -20.3154 -20.3150 -20.3150 -20.3149 -20.3147 -20.3145 -20.3144 -20.3141
   -20.3119 -20.3119 -20.3116 -20.3116 -20.3113 -20.3111 -20.3110 -20.3108
   -20.3105 -20.3104 -20.3100 -20.3099 -20.3068 -20.3066 -20.3065 -20.3063
   -20.3023 -20.3021 -20.3016 -20.3015 -20.3001 -20.2999 -20.2994 -20.2992
   -20.2968 -20.2968 -20.2960 -20.2960 -20.2952 -20.2947 -20.2947 -20.2944
   -20.2908 -20.2906 -20.2899 -20.2896 -20.2896 -20.2894 -20.2888 -20.2886
    -9.7398  -9.5054  -9.5034  -9.2846  -9.2136  -8.9456  -8.9429  -8.8952
    -8.8662  -8.7553  -8.7164  -8.6562  -8.2552  -8.2425  -8.1557  -8.1197
    -7.8868  -7.8608  -7.8187  -7.7946  -7.7565  -7.7433  -7.6847  -7.6689
     1.3617   1.3718   1.3778   1.3907   1.8450   1.8734   1.9455   1.9638
     2.2139   2.2735   2.4109   2.5199   2.7149   2.7323   2.7862   2.8287
     3.0277   3.1546   3.7267   3.8133   3.8703   3.8912   4.1046   4.1533
     4.2854   4.4322   4.5260   4.6333   4.7332   4.7437   4.7914   4.9987
     5.0898   5.1504   5.1666   5.1974   5.4253   5.4386   5.4795   5.6692
     5.7280   5.8017   5.8374   5.8872   5.9363   6.1095   6.1469   6.1550
     6.3591   6.4787   6.5367   6.5583   6.5849   6.6675   6.7397   6.7594
     6.8293   6.8697   6.9259   6.9395   6.9746   7.0128   7.0968   7.1167
     7.2867   7.3463   7.7079   7.7196   7.8734   7.9127   8.0142   8.0297
    10.1847  10.2329  10.4089  10.5192  11.0052  11.0902  11.8106  11.8832
    12.0905  12.3560  12.3797  12.4597  12.5063  12.5273  12.6566  12.7243
    12.7350  13.0653  13.1288  13.3014  13.5050  13.5937  13.8166  13.8402
    14.5457  14.6683  15.0792  15.3858  15.5377  15.6284  15.8467  15.9049
    16.3474  17.0694  17.1323  17.4280  17.7545

          k = 0.0000 0.1575-0.5000 ( 62234 PWs)   bands (ev):

   -66.1709 -66.1709 -66.1705 -66.1705 -66.1699 -66.1699 -66.1695 -66.1695
   -30.5385 -30.5385 -30.5285 -30.5285 -30.5206 -30.5206 -30.5111 -30.5111
   -30.4952 -30.4952 -30.4927 -30.4927 -30.4784 -30.4784 -30.4745 -30.4745
   -30.4666 -30.4666 -30.4612 -30.4612 -30.4178 -30.4178 -30.4138 -30.4138
   -20.3354 -20.3354 -20.3354 -20.3354 -20.3352 -20.3352 -20.3352 -20.3352
   -20.3152 -20.3152 -20.3149 -20.3149 -20.3147 -20.3147 -20.3143 -20.3143
   -20.3118 -20.3118 -20.3118 -20.3118 -20.3113 -20.3113 -20.3109 -20.3109
   -20.3105 -20.3105 -20.3099 -20.3099 -20.3067 -20.3067 -20.3064 -20.3064
   -20.3022 -20.3022 -20.3016 -20.3016 -20.2984 -20.2984 -20.2983 -20.2983
   -20.2976 -20.2976 -20.2975 -20.2975 -20.2951 -20.2951 -20.2946 -20.2946
   -20.2903 -20.2903 -20.2901 -20.2901 -20.2892 -20.2892 -20.2890 -20.2890
    -9.6042  -9.6042  -9.3709  -9.3709  -9.0328  -9.0328  -8.7880  -8.7880
    -8.6075  -8.6075  -8.5674  -8.5674  -8.5560  -8.5560  -8.4546  -8.4546
    -7.8749  -7.8749  -7.8074  -7.8074  -7.7204  -7.7204  -7.7057  -7.7056
     1.3750   1.3750   1.3888   1.3888   1.8790   1.8790   1.9619   1.9619
     2.7580   2.7580   2.9750   2.9750   3.0758   3.0758   3.1533   3.1533
     3.2466   3.2466   3.3016   3.3016   3.4542   3.4542   3.7780   3.7780
     3.9640   3.9640   4.3063   4.3063   4.5602   4.5602   4.7940   4.7940
     5.1430   5.1430   5.2916   5.2916   5.3009   5.3009   5.5490   5.5490
     5.7481   5.7481   5.8652   5.8652   6.1041   6.1041   6.2414   6.2414
     6.3297   6.3297   6.4233   6.4234   6.5490   6.5490   6.6945   6.6945
     6.8433   6.8433   6.9051   6.9051   6.9609   6.9609   7.4765   7.4765
     7.5076   7.5076   7.6382   7.6382   7.6910   7.6910   8.0268   8.0268
    10.2227  10.2227  11.1666  11.1666  11.2551  11.2552  11.6452  11.6452
    11.8322  11.8322  12.4319  12.4319  12.5783  12.5783  12.7845  12.7845
    12.7956  12.7956  13.1103  13.1103  13.3694  13.3694  13.8237  13.8237
    14.6332  14.6332  15.3993  15.3993  15.7099  15.7099  15.8264  15.8264
    16.6808  16.6808  17.6660  17.6660  18.0976

          k = 0.0000 0.3150 0.0000 ( 62175 PWs)   bands (ev):

   -66.1713 -66.1711 -66.1703 -66.1703 -66.1701 -66.1701 -66.1693 -66.1691
   -30.5419 -30.5383 -30.5356 -30.5331 -30.5290 -30.5284 -30.5242 -30.5197
   -30.5145 -30.5089 -30.5019 -30.4999 -30.4879 -30.4854 -30.4825 -30.4787
   -30.4317 -30.4316 -30.4300 -30.4293 -30.4193 -30.4171 -30.4145 -30.4122
   -20.3356 -20.3356 -20.3354 -20.3354 -20.3352 -20.3352 -20.3350 -20.3350
   -20.3155 -20.3152 -20.3151 -20.3147 -20.3147 -20.3143 -20.3143 -20.3140
   -20.3119 -20.3119 -20.3114 -20.3113 -20.3111 -20.3110 -20.3107 -20.3106
   -20.3099 -20.3096 -20.3095 -20.3093 -20.3076 -20.3073 -20.3073 -20.3071
   -20.3022 -20.3020 -20.3020 -20.3017 -20.3016 -20.3016 -20.3012 -20.3011
   -20.2954 -20.2953 -20.2952 -20.2951 -20.2951 -20.2949 -20.2937 -20.2936
   -20.2911 -20.2910 -20.2899 -20.2898 -20.2893 -20.2891 -20.2883 -20.2881
    -9.8565  -9.7316  -9.4086  -9.3598  -9.3081  -9.2459  -9.0466  -9.0390
    -8.6980  -8.6091  -8.6062  -8.6006  -8.1341  -8.0860  -8.0766  -8.0498
    -7.8321  -7.8244  -7.7920  -7.7859  -7.6767  -7.6654  -7.6492  -7.6377
     1.2034   1.2054   1.2704   1.2723   1.3516   1.3528   1.6201   1.6459
     2.3741   2.4169   2.4422   2.5705   2.6046   2.7455   2.9083   2.9287
     3.0367   3.0674   3.6175   3.6447   3.7115   3.7412   4.1587   4.4879
     4.5276   4.7787   4.7895   4.7947   4.8140   4.8384   5.1481   5.1527
     5.1718   5.1827   5.4359   5.4511   5.6330   5.6523   5.6748   5.7019
     5.8462   5.8736   5.8902   5.9067   5.9667   5.9857   6.0241   6.0937
     6.1068   6.1590   6.2626   6.4984   6.6010   6.6429   6.8252   6.8300
     6.8635   6.9300   7.1031   7.1135   7.1225   7.1494   7.2943   7.2991
     7.3740   7.3791   7.7234   7.7351   7.8282   7.8373   7.8490   7.8700
     9.4215   9.4221  10.6575  10.6967  10.7173  10.7285  11.7330  11.8301
    11.9071  11.9424  12.3014  12.3210  12.3515  12.3564  12.6820  12.7655
    13.3355  13.3458  13.3670  13.4113  13.6794  13.7235  13.7621  13.7793
    14.8134  15.1683  15.1890  15.3956  15.4125  15.5938  15.8382  15.8655
    15.9489  16.7323  17.1715  17.4823  17.5364

          k = 0.0000 0.3150 0.1667 ( 62260 PWs)   bands (ev):

   -66.1713 -66.1711 -66.1704 -66.1702 -66.1702 -66.1700 -66.1694 -66.1692
   -30.5389 -30.5327 -30.5318 -30.5294 -30.5273 -30.5255 -30.5236 -30.5200
   -30.5150 -30.5064 -30.5025 -30.4984 -30.4886 -30.4847 -30.4833 -30.4779
   -30.4382 -30.4380 -30.4356 -30.4352 -30.4190 -30.4168 -30.4149 -30.4127
   -20.3356 -20.3356 -20.3354 -20.3354 -20.3352 -20.3352 -20.3350 -20.3350
   -20.3154 -20.3151 -20.3150 -20.3147 -20.3147 -20.3144 -20.3144 -20.3141
   -20.3119 -20.3118 -20.3115 -20.3114 -20.3111 -20.3110 -20.3107 -20.3107
   -20.3099 -20.3097 -20.3096 -20.3094 -20.3077 -20.3074 -20.3073 -20.3071
   -20.3022 -20.3020 -20.3019 -20.3016 -20.3013 -20.3012 -20.3007 -20.3006
   -20.2957 -20.2957 -20.2953 -20.2952 -20.2952 -20.2949 -20.2940 -20.2940
   -20.2910 -20.2909 -20.2898 -20.2897 -20.2895 -20.2893 -20.2884 -20.2883
    -9.8024  -9.6743  -9.3777  -9.3281  -9.2620  -9.2199  -9.0087  -9.0017
    -8.7073  -8.6073  -8.6044  -8.5948  -8.1363  -8.0969  -8.0757  -8.0582
    -7.9486  -7.9309  -7.8056  -7.7948  -7.7825  -7.7748  -7.6588  -7.6473
     1.3161   1.3167   1.3562   1.3578   1.5252   1.5268   1.7574   1.7909
     2.4356   2.4742   2.5082   2.5581   2.5971   2.7361   2.9157   3.0245
     3.0295   3.1570   3.6459   3.7024   3.7127   3.7312   4.1407   4.3942
     4.4118   4.4974   4.5436   4.7929   4.8183   4.8641   4.8772   4.9531
     5.1216   5.1945   5.2491   5.3045   5.4523   5.4846   5.6313   5.6379
     5.6952   5.7284   5.7780   5.8833   5.9987   6.0423   6.0504   6.0947
     6.2632   6.3454   6.4119   6.5642   6.6230   6.8074   6.8507   6.8997
     6.9371   6.9502   7.0537   7.0675   7.0921   7.1014   7.1119   7.1718
     7.2460   7.2522   7.7409   7.7420   7.8142   7.8316   7.8448   7.8450
     9.7423   9.7511  10.6998  10.7341  10.8322  10.8868  11.8248  11.8270
    11.9441  11.9831  12.2263  12.2377  12.3969  12.4088  12.7510  12.8044
    13.1640  13.2773  13.3270  13.3340  13.6134  13.6768  13.6777  13.7310
    14.9195  15.1620  15.3795  15.4064  15.4835  15.6673  15.8131  16.1157
    16.1568  16.6977  17.2325  17.2599  17.5967

          k = 0.0000 0.3150 0.3333 ( 62269 PWs)   bands (ev):

   -66.1711 -66.1709 -66.1706 -66.1704 -66.1701 -66.1699 -66.1696 -66.1694
   -30.5347 -30.5305 -30.5244 -30.5243 -30.5210 -30.5171 -30.5155 -30.5154
   -30.5124 -30.5043 -30.4963 -30.4916 -30.4912 -30.4872 -30.4810 -30.4750
   -30.4555 -30.4539 -30.4519 -30.4507 -30.4182 -30.4160 -30.4159 -30.4137
   -20.3355 -20.3355 -20.3353 -20.3353 -20.3353 -20.3353 -20.3351 -20.3351
   -20.3153 -20.3150 -20.3149 -20.3149 -20.3146 -20.3145 -20.3145 -20.3142
   -20.3118 -20.3117 -20.3116 -20.3115 -20.3110 -20.3110 -20.3108 -20.3108
   -20.3099 -20.3098 -20.3096 -20.3094 -20.3077 -20.3075 -20.3074 -20.3072
   -20.3021 -20.3020 -20.3018 -20.3017 -20.3001 -20.3000 -20.2993 -20.2992
   -20.2968 -20.2968 -20.2960 -20.2960 -20.2951 -20.2948 -20.2946 -20.2945
   -20.2907 -20.2906 -20.2898 -20.2897 -20.2895 -20.2894 -20.2888 -20.2886
    -9.6705  -9.5372  -9.4331  -9.3116  -9.1121  -8.9698  -8.8846  -8.8701
    -8.7459  -8.6264  -8.5867  -8.5523  -8.2806  -8.2342  -8.2235  -8.1115
    -8.0968  -8.0760  -8.0540  -8.0011  -7.7597  -7.7482  -7.6853  -7.6737
     1.3689   1.3717   1.3870   1.3903   2.1674   2.2110   2.2946   2.4083
     2.4612   2.5532   2.5996   2.7156   2.7701   2.7954   2.9361   3.0154
     3.2573   3.3499   3.6646   3.6694   3.7046   3.7731   3.8124   3.8383
     4.1235   4.3509   4.3867   4.4474   4.4691   4.5893   4.6155   4.7412
     4.7931   4.8983   5.0599   5.1605   5.1745   5.2425   5.2630   5.3869
     5.4068   5.5718   5.7076   5.8463   6.0821   6.1354   6.1613   6.1756
     6.4339   6.5265   6.5448   6.6235   6.6512   6.7786   6.7883   6.7898
     6.9327   6.9639   7.0386   7.0614   7.0955   7.1319   7.1819   7.2073
     7.2740   7.3335   7.6985   7.7082   7.7418   7.7486   7.8295   7.8445
    10.4281  10.4288  10.7061  10.7658  11.2914  11.3473  11.7515  11.8755
    11.9125  11.9735  12.1192  12.2030  12.5383  12.5756  12.5856  12.6842
    12.7477  13.0555  13.0614  13.2712  13.3390  13.4909  13.6760  13.7128
    15.0450  15.1388  15.4874  15.7397  15.8555  15.8681  16.0016  16.5788
    16.6572  16.7531  16.9329  17.4354  17.5972

          k = 0.0000 0.3150-0.5000 ( 62306 PWs)   bands (ev):

   -66.1708 -66.1708 -66.1706 -66.1706 -66.1698 -66.1698 -66.1696 -66.1696
   -30.5322 -30.5322 -30.5224 -30.5224 -30.5194 -30.5194 -30.5079 -30.5079
   -30.4988 -30.4988 -30.4967 -30.4967 -30.4776 -30.4776 -30.4739 -30.4739
   -30.4714 -30.4714 -30.4669 -30.4669 -30.4171 -30.4171 -30.4148 -30.4148
   -20.3354 -20.3354 -20.3354 -20.3354 -20.3352 -20.3352 -20.3352 -20.3352
   -20.3151 -20.3151 -20.3148 -20.3148 -20.3147 -20.3147 -20.3144 -20.3144
   -20.3117 -20.3117 -20.3116 -20.3116 -20.3109 -20.3109 -20.3109 -20.3109
   -20.3099 -20.3099 -20.3095 -20.3095 -20.3076 -20.3076 -20.3073 -20.3073
   -20.3021 -20.3021 -20.3017 -20.3017 -20.2984 -20.2984 -20.2983 -20.2983
   -20.2976 -20.2976 -20.2975 -20.2975 -20.2950 -20.2950 -20.2947 -20.2947
   -20.2903 -20.2903 -20.2902 -20.2902 -20.2892 -20.2892 -20.2890 -20.2890
    -9.5317  -9.5316  -9.4015  -9.4015  -8.8679  -8.8679  -8.7005  -8.7005
    -8.6201  -8.6201  -8.5945  -8.5945  -8.5062  -8.5062  -8.4144  -8.4144
    -8.0928  -8.0928  -8.0436  -8.0436  -7.7221  -7.7221  -7.7106  -7.7106
     1.3846   1.3846   1.3884   1.3884   2.4440   2.4440   2.5802   2.5802
     2.9314   2.9314   3.0196   3.0196   3.0656   3.0656   3.2011   3.2011
     3.2389   3.2389   3.3774   3.3774   3.4210   3.4210   3.6862   3.6862
     4.0865   4.0865   4.0977   4.0977   4.1609   4.1609   4.3567   4.3567
     4.8643   4.8643   5.0095   5.0095   5.2184   5.2184   5.2726   5.2726
     5.4109   5.4109   5.7799   5.7799   6.1925   6.1925   6.2457   6.2457
     6.4469   6.4469   6.4789   6.4789   6.5615   6.5615   6.7387   6.7387
     7.0568   7.0568   7.0805   7.0805   7.1113   7.1113   7.4863   7.4863
     7.4970   7.4970   7.5552   7.5552   7.5943   7.5943   7.8368   7.8368
    10.6998  10.6998  11.1793  11.1793  11.2560  11.2560  11.7450  11.7450
    11.9972  11.9972  12.1299  12.1299  12.5068  12.5068  12.5685  12.5685
    12.8039  12.8039  12.9066  12.9066  13.3698  13.3698  13.6841  13.6841
    15.1010  15.1010  15.6221  15.6221  16.2224  16.2224  16.3493  16.3493
    16.8308  16.8308  17.2976  17.2977  17.8327

          k = 0.0000-0.4725 0.0000 ( 62212 PWs)   bands (ev):

   -66.1712 -66.1712 -66.1702 -66.1702 -66.1702 -66.1702 -66.1692 -66.1692
   -30.5392 -30.5392 -30.5336 -30.5336 -30.5264 -30.5263 -30.5232 -30.5232
   -30.5011 -30.5011 -30.4978 -30.4978 -30.4932 -30.4932 -30.4902 -30.4902
   -30.4318 -30.4318 -30.4297 -30.4297 -30.4183 -30.4183 -30.4134 -30.4134
   -20.3356 -20.3356 -20.3354 -20.3354 -20.3352 -20.3352 -20.3350 -20.3350
   -20.3153 -20.3153 -20.3149 -20.3149 -20.3145 -20.3145 -20.3142 -20.3142
   -20.3119 -20.3119 -20.3114 -20.3114 -20.3110 -20.3110 -20.3106 -20.3106
   -20.3088 -20.3088 -20.3085 -20.3085 -20.3085 -20.3085 -20.3083 -20.3083
   -20.3021 -20.3021 -20.3018 -20.3018 -20.3017 -20.3017 -20.3011 -20.3011
   -20.2953 -20.2953 -20.2951 -20.2951 -20.2951 -20.2951 -20.2937 -20.2937
   -20.2911 -20.2911 -20.2898 -20.2898 -20.2892 -20.2892 -20.2882 -20.2882
    -9.7870  -9.7870  -9.3485  -9.3485  -9.2914  -9.2914  -9.0427  -9.0427
    -8.4175  -8.4175  -8.3697  -8.3697  -8.3640  -8.3640  -8.3622  -8.3622
    -7.8283  -7.8283  -7.7902  -7.7902  -7.6713  -7.6713  -7.6439  -7.6439
     1.2042   1.2042   1.2713   1.2713   1.3527   1.3527   1.6396   1.6396
     2.3969   2.3969   3.1036   3.1036   3.2317   3.2317   3.2418   3.2418
     3.2815   3.2815   3.3869   3.3869   3.5859   3.5859   3.6293   3.6293
     3.7640   3.7640   4.7903   4.7903   4.8042   4.8042   5.2765   5.2765
     5.3489   5.3489   5.3736   5.3736   5.4210   5.4210   5.7512   5.7512
     5.7822   5.7822   5.9086   5.9086   5.9918   5.9918   6.0959   6.0959
     6.1412   6.1412   6.2802   6.2802   6.6982   6.6983   6.7214   6.7214
     6.8998   6.8998   7.2895   7.2895   7.3482   7.3482   7.4717   7.4717
     7.4760   7.4760   7.5513   7.5513   7.5595   7.5595   7.7457   7.7457
     9.4234   9.4234  11.2102  11.2102  11.2860  11.2860  11.2914  11.2914
    11.3866  11.3866  12.3141  12.3141  12.3573  12.3573  12.7310  12.7310
    13.4775  13.4775  13.4779  13.4779  13.5593  13.5593  13.5668  13.5668
    15.3309  15.3309  15.4517  15.4517  15.5964  15.5964  15.6328  15.6328
    16.4489  16.4489  17.9024  17.9025  18.2571

          k = 0.0000-0.4725 0.1667 ( 62246 PWs)   bands (ev):

   -66.1712 -66.1712 -66.1703 -66.1703 -66.1701 -66.1701 -66.1693 -66.1693
   -30.5345 -30.5345 -30.5285 -30.5285 -30.5249 -30.5249 -30.5235 -30.5235
   -30.5017 -30.5017 -30.4965 -30.4965 -30.4939 -30.4939 -30.4891 -30.4891
   -30.4383 -30.4383 -30.4355 -30.4355 -30.4180 -30.4180 -30.4139 -30.4139
   -20.3356 -20.3356 -20.3354 -20.3354 -20.3352 -20.3352 -20.3350 -20.3350
   -20.3153 -20.3153 -20.3149 -20.3148 -20.3145 -20.3145 -20.3142 -20.3142
   -20.3118 -20.3118 -20.3114 -20.3114 -20.3110 -20.3110 -20.3106 -20.3106
   -20.3088 -20.3088 -20.3086 -20.3086 -20.3085 -20.3085 -20.3083 -20.3083
   -20.3020 -20.3020 -20.3018 -20.3018 -20.3013 -20.3013 -20.3006 -20.3006
   -20.2957 -20.2957 -20.2953 -20.2953 -20.2951 -20.2951 -20.2940 -20.2940
   -20.2910 -20.2910 -20.2897 -20.2897 -20.2894 -20.2894 -20.2884 -20.2883
    -9.7308  -9.7308  -9.3085  -9.3085  -9.2625  -9.2625  -9.0052  -9.0052
    -8.4231  -8.4231  -8.3761  -8.3761  -8.3645  -8.3645  -8.3595  -8.3594
    -7.9421  -7.9421  -7.8006  -7.8006  -7.7800  -7.7800  -7.6535  -7.6535
     1.3163   1.3164   1.3576   1.3576   1.5269   1.5269   1.7833   1.7833
     2.4877   2.4877   3.1234   3.1234   3.2097   3.2097   3.2722   3.2722
     3.3236   3.3236   3.3777   3.3777   3.6036   3.6037   3.6468   3.6469
     3.7922   3.7922   4.4139   4.4139   4.8391   4.8391   5.0327   5.0327
     5.1966   5.1966   5.2769   5.2769   5.4127   5.4128   5.5016   5.5016
     5.7264   5.7264   5.7474   5.7475   6.0471   6.0471   6.0827   6.0827
     6.3518   6.3518   6.4116   6.4116   6.7009   6.7009   6.8867   6.8867
     6.9713   6.9713   7.0927   7.0927   7.1693   7.1693   7.4628   7.4629
     7.4887   7.4888   7.5272   7.5272   7.5479   7.5479   7.7635   7.7635
     9.7499   9.7499  11.2840  11.2840  11.3364  11.3364  11.3562  11.3563
    11.4442  11.4443  12.2311  12.2311  12.4036  12.4036  12.7927  12.7927
    13.3192  13.3193  13.3915  13.3915  13.4760  13.4760  13.5814  13.5814
    15.3306  15.3306  15.5715  15.5715  15.6480  15.6480  15.8891  15.8891
    16.5083  16.5083  17.8486  17.8518  17.8833

          k = 0.0000-0.4725 0.3333 ( 62268 PWs)   bands (ev):

   -66.1710 -66.1710 -66.1705 -66.1705 -66.1700 -66.1700 -66.1695 -66.1695
   -30.5284 -30.5284 -30.5246 -30.5246 -30.5173 -30.5173 -30.5149 -30.5148
   -30.5035 -30.5035 -30.4965 -30.4965 -30.4903 -30.4903 -30.4847 -30.4846
   -30.4551 -30.4550 -30.4517 -30.4516 -30.4172 -30.4172 -30.4149 -30.4149
   -20.3355 -20.3355 -20.3353 -20.3353 -20.3353 -20.3353 -20.3351 -20.3351
   -20.3151 -20.3151 -20.3147 -20.3147 -20.3147 -20.3147 -20.3144 -20.3143
   -20.3118 -20.3117 -20.3115 -20.3115 -20.3109 -20.3109 -20.3107 -20.3107
   -20.3088 -20.3088 -20.3087 -20.3087 -20.3086 -20.3086 -20.3084 -20.3084
   -20.3020 -20.3020 -20.3019 -20.3018 -20.3000 -20.3000 -20.2993 -20.2993
   -20.2968 -20.2968 -20.2960 -20.2960 -20.2950 -20.2950 -20.2946 -20.2946
   -20.2907 -20.2907 -20.2898 -20.2897 -20.2895 -20.2895 -20.2887 -20.2887
    -9.5949  -9.5949  -9.3612  -9.3611  -9.0213  -9.0213  -8.8762  -8.8762
    -8.4695  -8.4694  -8.4172  -8.4172  -8.3626  -8.3626  -8.3428  -8.3427
    -8.2081  -8.2081  -8.0909  -8.0909  -7.7547  -7.7547  -7.6800  -7.6800
     1.3710   1.3711   1.3894   1.3894   2.2040   2.2040   2.3925   2.3925
     2.7488   2.7488   3.1527   3.1527   3.2040   3.2040   3.2895   3.2895
     3.3335   3.3335   3.4426   3.4426   3.5776   3.5776   3.7516   3.7516
     3.8113   3.8113   3.8422   3.8422   4.5029   4.5029   4.6526   4.6526
     4.7932   4.7932   4.8670   4.8670   5.1994   5.1994   5.3224   5.3224
     5.4559   5.4559   5.6650   5.6650   6.1288   6.1288   6.1915   6.1915
     6.4988   6.4988   6.5861   6.5861   6.6837   6.6837   6.8101   6.8101
     7.0174   7.0174   7.1715   7.1715   7.1879   7.1879   7.4396   7.4396
     7.4788   7.4788   7.5099   7.5099   7.5323   7.5323   7.7266   7.7266
    10.4429  10.4429  11.2898  11.2898  11.3536  11.3536  11.7072  11.7072
    11.7751  11.7751  11.8800  11.8800  12.5544  12.5544  12.6874  12.6874
    12.8723  12.8723  13.0974  13.0974  13.4736  13.4736  13.5413  13.5414
    15.3573  15.3573  15.5249  15.5249  16.2471  16.2471  16.5713  16.5713
    16.7083  16.7083  17.3642  17.3642  17.7127

          k = 0.0000-0.4725-0.5000 ( 62284 PWs)   bands (ev):

   -66.1707 -66.1707 -66.1707 -66.1707 -66.1697 -66.1697 -66.1697 -66.1697
   -30.5261 -30.5261 -30.5261 -30.5261 -30.5078 -30.5078 -30.5078 -30.5078
   -30.5024 -30.5024 -30.5024 -30.5024 -30.4755 -30.4755 -30.4755 -30.4755
   -30.4718 -30.4717 -30.4717 -30.4717 -30.4161 -30.4161 -30.4160 -30.4160
   -20.3354 -20.3354 -20.3354 -20.3354 -20.3352 -20.3352 -20.3352 -20.3352
   -20.3149 -20.3149 -20.3149 -20.3149 -20.3145 -20.3145 -20.3145 -20.3145
   -20.3116 -20.3116 -20.3116 -20.3116 -20.3108 -20.3108 -20.3108 -20.3108
   -20.3088 -20.3088 -20.3088 -20.3088 -20.3085 -20.3085 -20.3085 -20.3085
   -20.3019 -20.3019 -20.3019 -20.3019 -20.2984 -20.2984 -20.2984 -20.2984
   -20.2976 -20.2976 -20.2976 -20.2976 -20.2949 -20.2949 -20.2949 -20.2948
   -20.2902 -20.2902 -20.2902 -20.2902 -20.2891 -20.2891 -20.2891 -20.2891
    -9.4561  -9.4561  -9.4561  -9.4561  -8.6922  -8.6922  -8.6921  -8.6921
    -8.6341  -8.6341  -8.6341  -8.6341  -8.3422  -8.3422  -8.3422  -8.3422
    -8.2899  -8.2899  -8.2899  -8.2899  -7.7169  -7.7169  -7.7169  -7.7169
     1.3875   1.3875   1.3875   1.3875   2.9687   2.9687   2.9687   2.9687
     3.1121   3.1121   3.1121   3.1121   3.2287   3.2287   3.2287   3.2287
     3.3075   3.3075   3.3076   3.3076   3.5007   3.5007   3.5007   3.5007
     3.6619   3.6619   3.6619   3.6619   4.3481   4.3481   4.3481   4.3481
     4.4704   4.4704   4.4704   4.4704   5.2552   5.2552   5.2552   5.2552
     5.5454   5.5454   5.5454   5.5454   6.2375   6.2375   6.2375   6.2375
     6.4887   6.4887   6.4887   6.4887   6.6324   6.6324   6.6324   6.6324
     7.2846   7.2846   7.2846   7.2846   7.3793   7.3793   7.3793   7.3793
     7.4706   7.4706   7.4706   7.4706   7.5756   7.5756   7.5756   7.5756
    11.1496  11.1496  11.1496  11.1496  11.3905  11.3905  11.3905  11.3905
    12.2383  12.2383  12.2383  12.2383  12.2842  12.2842  12.2842  12.2842
    12.8172  12.8172  12.8172  12.8172  13.4884  13.4884  13.4884  13.4884
    15.4417  15.4417  15.4417  15.4417  16.8910  16.8910  16.8910  16.8910
    17.2183  17.2183  17.2183  17.2184  17.3318

          k = 0.1667 0.0000 0.1667 ( 62234 PWs)   bands (ev):

   -66.1713 -66.1709 -66.1704 -66.1704 -66.1700 -66.1700 -66.1695 -66.1691
   -30.5452 -30.5390 -30.5370 -30.5318 -30.5289 -30.5274 -30.5231 -30.5163
   -30.5134 -30.5123 -30.5030 -30.5012 -30.4766 -30.4729 -30.4715 -30.4646
   -30.4378 -30.4377 -30.4356 -30.4354 -30.4260 -30.4218 -30.4210 -30.4165
   -20.3356 -20.3356 -20.3354 -20.3354 -20.3352 -20.3352 -20.3351 -20.3350
   -20.3156 -20.3153 -20.3150 -20.3149 -20.3147 -20.3146 -20.3142 -20.3140
   -20.3120 -20.3119 -20.3116 -20.3115 -20.3115 -20.3112 -20.3112 -20.3108
   -20.3107 -20.3104 -20.3102 -20.3100 -20.3064 -20.3061 -20.3061 -20.3059
   -20.3019 -20.3017 -20.3014 -20.3012 -20.3011 -20.3009 -20.3008 -20.3005
   -20.2960 -20.2959 -20.2957 -20.2953 -20.2953 -20.2952 -20.2943 -20.2941
   -20.2910 -20.2908 -20.2899 -20.2897 -20.2895 -20.2891 -20.2886 -20.2883
    -9.8444  -9.5756  -9.4476  -9.4157  -9.2057  -9.1425  -8.9899  -8.9748
    -8.9580  -8.7852  -8.7764  -8.7576  -7.9571  -7.9453  -7.9057  -7.8937
    -7.8342  -7.8331  -7.7962  -7.7765  -7.7555  -7.7283  -7.7238  -7.6944
     1.4541   1.4596   1.5002   1.5321   1.5416   1.5466   1.6085   1.7280
     1.7507   1.7884   1.9041   2.0737   2.5374   2.6234   2.7192   2.7295
     2.8444   2.8754   4.0598   4.0953   4.3072   4.3225   4.4653   4.4815
     4.4906   4.4936   4.6743   4.7207   4.7971   4.8992   5.1087   5.2501
     5.2776   5.3108   5.3800   5.5130   5.5675   5.6032   5.6238   5.6924
     5.6979   5.7555   5.7602   5.8009   5.8715   6.0411   6.2141   6.2826
     6.3817   6.4406   6.5305   6.6640   6.6808   6.6937   6.7409   6.7730
     6.7754   6.8223   6.8716   6.8736   6.9060   6.9461   6.9651   7.0823
     7.2326   7.2955   7.7521   7.7521   7.9982   8.0515   8.0674   8.1070
     9.9285   9.9885  10.2811  10.2977  10.3318  10.4207  12.1855  12.2081
    12.2689  12.2790  12.3294  12.3871  12.5679  12.6072  12.6960  12.8466
    13.0205  13.1482  13.1585  13.3070  13.7028  13.7640  13.9280  13.9598
    14.2197  14.4393  14.5352  15.1455  15.2995  15.5014  15.5155  16.2510
    16.2613  16.8786  16.8899  17.0351  17.6201

          k = 0.1667 0.0000 0.3333 ( 62265 PWs)   bands (ev):

   -66.1711 -66.1707 -66.1706 -66.1702 -66.1702 -66.1698 -66.1697 -66.1693
   -30.5422 -30.5381 -30.5353 -30.5303 -30.5171 -30.5139 -30.5136 -30.5125
   -30.5113 -30.5042 -30.4992 -30.4942 -30.4806 -30.4776 -30.4708 -30.4625
   -30.4553 -30.4522 -30.4521 -30.4477 -30.4253 -30.4230 -30.4203 -30.4178
   -20.3355 -20.3355 -20.3353 -20.3353 -20.3353 -20.3353 -20.3351 -20.3351
   -20.3155 -20.3151 -20.3151 -20.3148 -20.3148 -20.3145 -20.3144 -20.3141
   -20.3120 -20.3118 -20.3117 -20.3116 -20.3116 -20.3113 -20.3111 -20.3109
   -20.3107 -20.3105 -20.3101 -20.3100 -20.3065 -20.3063 -20.3062 -20.3060
   -20.3018 -20.3017 -20.3011 -20.3010 -20.3000 -20.2999 -20.2994 -20.2992
   -20.2968 -20.2968 -20.2961 -20.2961 -20.2957 -20.2952 -20.2950 -20.2948
   -20.2907 -20.2905 -20.2899 -20.2897 -20.2895 -20.2895 -20.2889 -20.2886
    -9.7138  -9.4724  -9.4252  -9.2756  -9.1905  -9.0254  -8.9542  -8.8664
    -8.8390  -8.7710  -8.7499  -8.6907  -8.2402  -8.2346  -8.1612  -8.1335
    -7.8963  -7.8660  -7.8292  -7.7966  -7.7636  -7.7371  -7.7274  -7.7035
     1.5345   1.5374   1.6208   1.6347   1.6733   1.7108   1.7282   1.7845
     2.2216   2.2638   2.3962   2.4879   2.7494   2.8023   2.8476   2.9089
     2.9616   3.0935   3.7611   3.8877   3.8964   3.9184   4.2085   4.2633
     4.2963   4.4727   4.5339   4.5861   4.6236   4.7374   4.7555   4.8632
     5.0098   5.0699   5.0831   5.1863   5.2916   5.3660   5.6156   5.6466
     5.7174   5.7457   5.8181   5.8758   5.8894   6.0187   6.0912   6.1075
     6.4090   6.4641   6.5073   6.5670   6.5854   6.6969   6.7059   6.7528
     6.7756   6.8762   6.8832   6.8833   7.0686   7.0802   7.1628   7.2013
     7.3105   7.3674   7.7144   7.7275   7.9203   7.9722   8.0436   8.0546
    10.2506  10.2579  10.5622  10.6452  10.9125  11.0298  11.8735  11.9363
    12.1517  12.3395  12.4244  12.4702  12.4990  12.6067  12.7102  12.7567
    12.8141  13.0339  13.0406  13.2349  13.5906  13.6087  13.7570  13.7947
    14.3441  14.5098  14.7223  15.1992  15.4372  15.7297  15.9302  16.1645
    16.3780  17.0781  17.3810  17.4473  17.5141

          k = 0.1667 0.0000-0.5000 ( 62322 PWs)   bands (ev):

   -66.1709 -66.1709 -66.1705 -66.1705 -66.1700 -66.1700 -66.1696 -66.1696
   -30.5399 -30.5399 -30.5324 -30.5324 -30.5147 -30.5147 -30.5068 -30.5068
   -30.4940 -30.4940 -30.4917 -30.4917 -30.4783 -30.4782 -30.4748 -30.4748
   -30.4653 -30.4653 -30.4579 -30.4579 -30.4242 -30.4242 -30.4191 -30.4191
   -20.3354 -20.3354 -20.3354 -20.3354 -20.3352 -20.3352 -20.3352 -20.3352
   -20.3153 -20.3153 -20.3150 -20.3150 -20.3146 -20.3146 -20.3143 -20.3143
   -20.3118 -20.3118 -20.3117 -20.3117 -20.3115 -20.3115 -20.3110 -20.3110
   -20.3106 -20.3106 -20.3101 -20.3101 -20.3064 -20.3064 -20.3061 -20.3061
   -20.3018 -20.3018 -20.3011 -20.3011 -20.2984 -20.2984 -20.2983 -20.2983
   -20.2977 -20.2977 -20.2975 -20.2975 -20.2955 -20.2955 -20.2950 -20.2950
   -20.2903 -20.2903 -20.2900 -20.2900 -20.2893 -20.2893 -20.2891 -20.2891
    -9.5736  -9.5736  -9.2805  -9.2805  -9.1109  -9.1109  -8.7946  -8.7946
    -8.6038  -8.6038  -8.5873  -8.5873  -8.5366  -8.5366  -8.4670  -8.4670
    -7.8643  -7.8643  -7.8278  -7.8278  -7.7530  -7.7530  -7.7157  -7.7157
     1.5355   1.5355   1.6401   1.6401   1.6939   1.6939   1.7787   1.7787
     2.7672   2.7672   2.9793   2.9793   3.0621   3.0621   3.1639   3.1639
     3.2464   3.2464   3.3711   3.3711   3.5178   3.5178   3.7858   3.7858
     3.9017   3.9017   4.4469   4.4469   4.5612   4.5612   4.8744   4.8744
     4.9944   4.9944   5.0562   5.0562   5.2328   5.2329   5.6751   5.6751
     5.7558   5.7558   5.8108   5.8108   5.8806   5.8806   6.0292   6.0292
     6.3599   6.3599   6.4992   6.4992   6.6533   6.6533   6.7508   6.7508
     6.8341   6.8341   6.9266   6.9266   6.9819   6.9819   7.5072   7.5072
     7.5385   7.5385   7.6749   7.6749   7.7261   7.7261   8.0530   8.0530
    10.2746  10.2746  11.2433  11.2433  11.3358  11.3358  11.6032  11.6032
    11.7924  11.7924  12.5131  12.5131  12.6231  12.6231  12.7015  12.7015
    12.8677  12.8677  13.1932  13.1932  13.3045  13.3045  13.7703  13.7703
    14.4552  14.4552  15.0096  15.0096  15.8516  15.8516  15.9858  15.9858
    16.7150  16.7150  17.8384  17.8385  17.9526

          k = 0.1667 0.1575 0.1667 ( 62255 PWs)   bands (ev):

   -66.1713 -66.1709 -66.1704 -66.1704 -66.1700 -66.1700 -66.1695 -66.1692
   -30.5429 -30.5367 -30.5341 -30.5318 -30.5274 -30.5254 -30.5230 -30.5168
   -30.5134 -30.5116 -30.5020 -30.4999 -30.4799 -30.4762 -30.4743 -30.4679
   -30.4379 -30.4378 -30.4358 -30.4357 -30.4258 -30.4217 -30.4214 -30.4170
   -20.3356 -20.3356 -20.3354 -20.3354 -20.3352 -20.3352 -20.3351 -20.3350
   -20.3156 -20.3152 -20.3150 -20.3149 -20.3146 -20.3146 -20.3143 -20.3140
   -20.3119 -20.3119 -20.3115 -20.3114 -20.3114 -20.3111 -20.3110 -20.3108
   -20.3105 -20.3103 -20.3101 -20.3099 -20.3068 -20.3065 -20.3065 -20.3062
   -20.3018 -20.3016 -20.3014 -20.3012 -20.3011 -20.3009 -20.3008 -20.3005
   -20.2960 -20.2958 -20.2957 -20.2953 -20.2953 -20.2952 -20.2943 -20.2941
   -20.2910 -20.2908 -20.2899 -20.2897 -20.2895 -20.2891 -20.2886 -20.2883
    -9.8173  -9.5867  -9.4164  -9.3808  -9.2128  -9.1504  -8.9735  -8.9600
    -8.9177  -8.7399  -8.7352  -8.7198  -7.9726  -7.9440  -7.9145  -7.9048
    -7.8718  -7.8546  -7.8404  -7.8212  -7.8163  -7.7708  -7.7631  -7.7519
     1.4548   1.4596   1.5205   1.5327   1.5806   1.6039   1.6991   1.8999
     1.9183   1.9589   1.9821   2.1835   2.5445   2.6182   2.7943   2.8014
     2.9167   2.9401   3.9597   4.0077   4.1173   4.1711   4.4143   4.4547
     4.4765   4.4961   4.6369   4.7517   4.7665   4.8709   4.9752   5.1842
     5.2259   5.2654   5.3203   5.3526   5.4018   5.5573   5.5692   5.6238
     5.7017   5.7503   5.8114   5.8417   5.8520   5.9182   6.1952   6.2804
     6.3652   6.3819   6.5239   6.6297   6.6908   6.7090   6.7827   6.7862
     6.8228   6.8282   6.8924   6.9002   6.9385   6.9633   6.9920   7.0926
     7.2404   7.2938   7.7519   7.7522   7.9598   7.9980   8.0177   8.0321
     9.9502   9.9974  10.4237  10.4477  10.4763  10.5492  12.1137  12.1880
    12.2595  12.2829  12.2895  12.3188  12.4390  12.4643  12.7229  12.8407
    13.0370  13.1510  13.1607  13.3038  13.7220  13.7396  13.8356  13.8802
    14.4290  14.7345  14.7699  15.2620  15.5023  15.5131  15.6987  16.2155
    16.2326  16.7443  16.9820  17.0076  17.6137

          k = 0.1667 0.1575 0.3333 ( 62260 PWs)   bands (ev):

   -66.1711 -66.1707 -66.1706 -66.1702 -66.1702 -66.1699 -66.1697 -66.1694
   -30.5395 -30.5352 -30.5323 -30.5267 -30.5179 -30.5143 -30.5136 -30.5126
   -30.5115 -30.5034 -30.4987 -30.4933 -30.4834 -30.4797 -30.4738 -30.4657
   -30.4553 -30.4528 -30.4522 -30.4489 -30.4251 -30.4228 -30.4208 -30.4183
   -20.3355 -20.3355 -20.3353 -20.3353 -20.3353 -20.3353 -20.3351 -20.3351
   -20.3154 -20.3151 -20.3150 -20.3149 -20.3147 -20.3145 -20.3144 -20.3141
   -20.3118 -20.3118 -20.3116 -20.3116 -20.3114 -20.3111 -20.3111 -20.3109
   -20.3105 -20.3104 -20.3100 -20.3099 -20.3068 -20.3066 -20.3065 -20.3063
   -20.3018 -20.3016 -20.3012 -20.3011 -20.3000 -20.2999 -20.2994 -20.2992
   -20.2968 -20.2968 -20.2961 -20.2961 -20.2957 -20.2952 -20.2950 -20.2948
   -20.2907 -20.2905 -20.2898 -20.2897 -20.2895 -20.2895 -20.2889 -20.2886
    -9.6835  -9.4383  -9.4359  -9.2318  -9.1992  -8.9620  -8.9554  -8.8620
    -8.8398  -8.7338  -8.7106  -8.6621  -8.2449  -8.2322  -8.1719  -8.1309
    -7.9124  -7.8855  -7.8578  -7.8446  -7.8158  -7.8105  -7.7877  -7.7738
     1.5855   1.6019   1.6197   1.6335   1.8551   1.8732   1.9395   1.9749
     2.2209   2.2800   2.3970   2.5095   2.8162   2.8186   2.8986   2.9193
     3.0358   3.1542   3.7596   3.8463   3.8838   3.9196   4.1155   4.1797
     4.2814   4.4307   4.4600   4.5576   4.6118   4.6749   4.7230   4.8187
     4.8867   4.9392   4.9848   5.1513   5.1920   5.2363   5.3923   5.6122
     5.6414   5.6727   5.7789   5.8212   5.8626   5.8881   6.0545   6.0995
     6.3627   6.5155   6.5460   6.6460   6.6977   6.7098   6.7372   6.7777
     6.8374   6.8656   6.9255   6.9697   7.0619   7.0895   7.1627   7.2087
     7.3059   7.3601   7.7156   7.7253   7.8777   7.9139   7.9934   8.0017
    10.3848  10.4045  10.5933  10.6653  11.0146  11.1077  11.8734  11.9322
    12.1367  12.3165  12.4134  12.4335  12.4591  12.5265  12.6750  12.7014
    12.7376  13.0014  13.0402  13.2308  13.4900  13.5227  13.7431  13.7637
    14.5961  14.7437  15.0670  15.4988  15.6237  15.7226  15.9479  16.1356
    16.4796  17.0437  17.1851  17.4403  17.5146

          k = 0.1667 0.1575-0.5000 ( 62292 PWs)   bands (ev):

   -66.1708 -66.1708 -66.1705 -66.1705 -66.1699 -66.1699 -66.1696 -66.1696
   -30.5370 -30.5370 -30.5289 -30.5289 -30.5153 -30.5153 -30.5062 -30.5062
   -30.4948 -30.4948 -30.4927 -30.4927 -30.4781 -30.4781 -30.4746 -30.4746
   -30.4674 -30.4674 -30.4604 -30.4604 -30.4240 -30.4240 -30.4196 -30.4196
   -20.3354 -20.3354 -20.3354 -20.3354 -20.3352 -20.3352 -20.3352 -20.3352
   -20.3152 -20.3152 -20.3149 -20.3149 -20.3146 -20.3146 -20.3143 -20.3143
   -20.3117 -20.3117 -20.3117 -20.3117 -20.3113 -20.3113 -20.3110 -20.3110
   -20.3105 -20.3105 -20.3100 -20.3100 -20.3067 -20.3067 -20.3065 -20.3065
   -20.3017 -20.3017 -20.3011 -20.3011 -20.2984 -20.2984 -20.2983 -20.2983
   -20.2977 -20.2977 -20.2975 -20.2975 -20.2955 -20.2955 -20.2950 -20.2950
   -20.2903 -20.2903 -20.2900 -20.2900 -20.2893 -20.2893 -20.2891 -20.2891
    -9.5403  -9.5403  -9.2905  -9.2905  -9.0487  -9.0487  -8.7631  -8.7631
    -8.6069  -8.6069  -8.5879  -8.5879  -8.5332  -8.5332  -8.4577  -8.4577
    -7.8930  -7.8930  -7.8410  -7.8410  -7.8164  -7.8164  -7.7958  -7.7958
     1.5989   1.5989   1.6389   1.6389   1.8857   1.8857   1.9695   1.9695
     2.8294   2.8294   2.9959   2.9959   3.0693   3.0693   3.1773   3.1773
     3.2485   3.2485   3.3888   3.3888   3.5098   3.5098   3.7986   3.7986
     3.9547   3.9547   4.3039   4.3039   4.5000   4.5000   4.7276   4.7276
     4.9131   4.9131   5.0049   5.0049   5.1069   5.1069   5.4986   5.4986
     5.7177   5.7177   5.7374   5.7374   5.8572   5.8572   5.8898   5.8898
     6.4751   6.4751   6.6186   6.6186   6.6723   6.6723   6.7747   6.7747
     6.8839   6.8839   6.9180   6.9180   7.0256   7.0256   7.5088   7.5088
     7.5346   7.5346   7.6490   7.6490   7.6932   7.6932   7.9997   7.9997
    10.4341  10.4341  11.2495  11.2495  11.3357  11.3357  11.6660  11.6660
    11.8451  11.8451  12.4876  12.4876  12.5226  12.5226  12.6719  12.6719
    12.8426  12.8426  13.0899  13.0899  13.2514  13.2514  13.7422  13.7422
    14.6992  14.6992  15.3793  15.3793  15.9307  15.9307  15.9903  15.9903
    16.7507  16.7507  17.6738  17.6738  17.9485

          k = 0.1667 0.3150 0.1667 ( 62249 PWs)   bands (ev):

   -66.1712 -66.1710 -66.1703 -66.1703 -66.1701 -66.1701 -66.1694 -66.1692
   -30.5378 -30.5322 -30.5321 -30.5277 -30.5269 -30.5223 -30.5183 -30.5158
   -30.5150 -30.5068 -30.4985 -30.4954 -30.4892 -30.4853 -30.4819 -30.4766
   -30.4381 -30.4381 -30.4362 -30.4360 -30.4251 -30.4227 -30.4208 -30.4183
   -20.3356 -20.3356 -20.3354 -20.3354 -20.3352 -20.3352 -20.3350 -20.3350
   -20.3154 -20.3151 -20.3151 -20.3147 -20.3147 -20.3144 -20.3144 -20.3141
   -20.3118 -20.3118 -20.3114 -20.3113 -20.3111 -20.3111 -20.3107 -20.3107
   -20.3099 -20.3097 -20.3096 -20.3094 -20.3077 -20.3074 -20.3074 -20.3071
   -20.3017 -20.3015 -20.3014 -20.3012 -20.3012 -20.3010 -20.3007 -20.3006
   -20.2959 -20.2958 -20.2956 -20.2954 -20.2953 -20.2953 -20.2942 -20.2942
   -20.2909 -20.2908 -20.2899 -20.2898 -20.2894 -20.2892 -20.2885 -20.2884
    -9.7512  -9.6207  -9.3459  -9.3009  -9.2357  -9.1760  -8.9702  -8.9624
    -8.7176  -8.6016  -8.5991  -8.5935  -8.1400  -8.0939  -8.0865  -8.0669
    -7.9401  -7.9250  -7.8975  -7.8886  -7.8209  -7.8054  -7.7703  -7.7595
     1.4554   1.4586   1.5306   1.5333   1.5993   1.6048   1.8550   1.8991
     2.4451   2.5440   2.5674   2.5797   2.5971   2.7231   3.0150   3.0321
     3.1264   3.1520   3.6405   3.6810   3.7600   3.7862   4.1317   4.4109
     4.4170   4.4503   4.4695   4.5449   4.6039   4.7875   4.8327   4.9111
     4.9643   5.0050   5.1638   5.1730   5.3616   5.3889   5.4569   5.4584
     5.6661   5.6849   5.6998   5.7213   5.8092   5.8137   6.2219   6.2633
     6.4057   6.4251   6.5010   6.6165   6.7317   6.7613   6.8400   6.8630
     6.9025   6.9158   6.9991   7.0085   7.0898   7.1099   7.1399   7.1599
     7.2872   7.3047   7.7359   7.7465   7.8038   7.8143   7.8310   7.8487
     9.9798  10.0014  10.8195  10.8443  10.8912  10.9315  11.8177  11.9120
    11.9913  12.0103  12.2744  12.2939  12.3056  12.3258  12.7835  12.8341
    13.1220  13.2026  13.2036  13.3260  13.5312  13.5945  13.6128  13.6915
    15.0659  15.3156  15.3722  15.5040  15.5195  15.7361  16.0963  16.1190
    16.2371  16.6641  17.2556  17.3454  17.3693

          k = 0.1667 0.3150 0.3333 ( 62265 PWs)   bands (ev):

   -66.1710 -66.1708 -66.1705 -66.1703 -66.1701 -66.1699 -66.1696 -66.1694
   -30.5327 -30.5281 -30.5247 -30.5204 -30.5173 -30.5161 -30.5140 -30.5126
   -30.5122 -30.5003 -30.4965 -30.4917 -30.4899 -30.4858 -30.4817 -30.4738
   -30.4553 -30.4540 -30.4522 -30.4508 -30.4244 -30.4221 -30.4219 -30.4196
   -20.3355 -20.3355 -20.3353 -20.3353 -20.3353 -20.3353 -20.3351 -20.3351
   -20.3153 -20.3150 -20.3149 -20.3149 -20.3146 -20.3146 -20.3145 -20.3142
   -20.3118 -20.3117 -20.3115 -20.3114 -20.3111 -20.3110 -20.3108 -20.3108
   -20.3099 -20.3098 -20.3096 -20.3095 -20.3077 -20.3075 -20.3074 -20.3073
   -20.3017 -20.3015 -20.3013 -20.3012 -20.3000 -20.2999 -20.2994 -20.2993
   -20.2968 -20.2968 -20.2961 -20.2961 -20.2956 -20.2953 -20.2950 -20.2949
   -20.2907 -20.2905 -20.2898 -20.2896 -20.2896 -20.2895 -20.2889 -20.2887
    -9.6101  -9.4709  -9.3579  -9.2270  -9.1309  -8.9866  -8.8549  -8.8450
    -8.7574  -8.6123  -8.5815  -8.5581  -8.2732  -8.2378  -8.2243  -8.1223
    -8.0952  -8.0796  -8.0565  -8.0070  -7.8739  -7.8613  -7.8013  -7.7899
     1.6103   1.6185   1.6265   1.6329   2.1732   2.2176   2.2849   2.3955
     2.4618   2.5563   2.5769   2.7235   2.8412   2.9021   3.0344   3.1141
     3.2621   3.3466   3.6598   3.6771   3.7401   3.7990   3.8573   3.9397
     4.1172   4.3423   4.3897   4.4249   4.4648   4.5224   4.6164   4.6611
     4.6939   4.8362   4.8841   4.9033   4.9678   5.0413   5.1566   5.1791
     5.3363   5.3676   5.4968   5.6552   5.7444   5.8183   6.0818   6.0975
     6.5032   6.5840   6.6240   6.7338   6.8049   6.8275   6.9118   6.9538
     6.9947   7.0170   7.0511   7.0720   7.1273   7.1831   7.2073   7.2516
     7.2944   7.3492   7.7083   7.7126   7.7358   7.7424   7.8180   7.8335
    10.5441  10.5737  10.8800  10.9178  11.3029  11.3609  11.8293  11.8981
    11.9744  12.0759  12.1245  12.1965  12.4388  12.5251  12.5935  12.6808
    12.7611  12.9812  13.0219  13.2514  13.2591  13.3504  13.5725  13.6019
    15.2173  15.3109  15.6881  15.8517  15.8908  16.0179  16.0773  16.5469
    16.7121  16.8050  16.9435  17.4615  17.6221

          k = 0.1667 0.3150-0.5000 ( 62264 PWs)   bands (ev):

   -66.1708 -66.1708 -66.1706 -66.1706 -66.1699 -66.1699 -66.1697 -66.1697
   -30.5299 -30.5299 -30.5199 -30.5199 -30.5175 -30.5175 -30.5040 -30.5040
   -30.4988 -30.4988 -30.4959 -30.4959 -30.4774 -30.4774 -30.4738 -30.4738
   -30.4719 -30.4719 -30.4663 -30.4663 -30.4233 -30.4233 -30.4208 -30.4208
   -20.3354 -20.3354 -20.3354 -20.3354 -20.3352 -20.3352 -20.3352 -20.3352
   -20.3151 -20.3151 -20.3148 -20.3147 -20.3147 -20.3147 -20.3144 -20.3144
   -20.3116 -20.3116 -20.3116 -20.3116 -20.3110 -20.3110 -20.3109 -20.3109
   -20.3099 -20.3098 -20.3096 -20.3096 -20.3076 -20.3076 -20.3074 -20.3074
   -20.3016 -20.3016 -20.3012 -20.3012 -20.2984 -20.2984 -20.2983 -20.2983
   -20.2976 -20.2976 -20.2976 -20.2976 -20.2954 -20.2954 -20.2951 -20.2951
   -20.2902 -20.2902 -20.2901 -20.2901 -20.2893 -20.2893 -20.2891 -20.2891
    -9.4614  -9.4614  -9.3223  -9.3223  -8.8862  -8.8862  -8.6856  -8.6856
    -8.6213  -8.6213  -8.5944  -8.5943  -8.4966  -8.4966  -8.4183  -8.4183
    -8.0908  -8.0908  -8.0513  -8.0513  -7.8376  -7.8376  -7.8251  -7.8251
     1.6291   1.6291   1.6379   1.6379   2.4473   2.4473   2.5590   2.5590
     2.9721   2.9722   3.0447   3.0447   3.0980   3.0980   3.2121   3.2121
     3.2637   3.2637   3.4455   3.4455   3.4789   3.4789   3.7273   3.7273
     4.0786   4.0786   4.1051   4.1051   4.1499   4.1499   4.3721   4.3721
     4.7796   4.7796   4.8655   4.8655   5.0339   5.0340   5.0755   5.0755
     5.1342   5.1342   5.5676   5.5676   5.8361   5.8361   5.8703   5.8703
     6.6392   6.6392   6.7572   6.7572   6.7894   6.7894   6.8550   6.8550
     7.0403   7.0403   7.0837   7.0837   7.1836   7.1836   7.5067   7.5067
     7.5235   7.5235   7.5579   7.5579   7.5985   7.5985   7.8227   7.8227
    10.8464  10.8464  11.2616  11.2616  11.3430  11.3430  11.7969  11.7969
    12.0103  12.0103  12.1659  12.1659  12.4877  12.4877  12.5408  12.5408
    12.7624  12.7624  12.8730  12.8730  13.2286  13.2286  13.5674  13.5674
    15.2786  15.2786  15.8690  15.8690  16.2606  16.2606  16.3755  16.3755
    16.8778  16.8778  17.3314  17.3314  17.8040

          k = 0.1667-0.4725 0.1667 ( 62220 PWs)   bands (ev):

   -66.1711 -66.1711 -66.1702 -66.1702 -66.1702 -66.1702 -66.1694 -66.1693
   -30.5338 -30.5337 -30.5289 -30.5288 -30.5208 -30.5207 -30.5195 -30.5195
   -30.5022 -30.5022 -30.4970 -30.4970 -30.4915 -30.4914 -30.4871 -30.4870
   -30.4382 -30.4382 -30.4363 -30.4362 -30.4240 -30.4240 -30.4196 -30.4196
   -20.3356 -20.3356 -20.3354 -20.3354 -20.3352 -20.3352 -20.3350 -20.3350
   -20.3153 -20.3152 -20.3149 -20.3149 -20.3146 -20.3145 -20.3143 -20.3142
   -20.3118 -20.3118 -20.3113 -20.3113 -20.3110 -20.3110 -20.3107 -20.3107
   -20.3088 -20.3088 -20.3086 -20.3086 -20.3086 -20.3085 -20.3084 -20.3083
   -20.3016 -20.3016 -20.3014 -20.3013 -20.3012 -20.3011 -20.3007 -20.3007
   -20.2958 -20.2958 -20.2955 -20.2955 -20.2954 -20.2953 -20.2942 -20.2942
   -20.2909 -20.2909 -20.2898 -20.2898 -20.2893 -20.2893 -20.2885 -20.2884
    -9.6779  -9.6779  -9.2794  -9.2792  -9.2251  -9.2250  -8.9662  -8.9662
    -8.4317  -8.4311  -8.3754  -8.3750  -8.3666  -8.3666  -8.3597  -8.3583
    -7.9355  -7.9344  -7.8954  -7.8953  -7.8149  -7.8148  -7.7658  -7.7655
     1.4556   1.4580   1.5319   1.5340   1.6032   1.6042   1.8888   1.8906
     2.5789   2.5807   3.1253   3.1279   3.1942   3.2261   3.2571   3.2844
     3.3560   3.3698   3.3853   3.4218   3.6230   3.6311   3.6637   3.6681
     3.8081   3.8118   4.4271   4.4668   4.4750   4.5021   4.9802   4.9941
     5.0747   5.0801   5.1646   5.2085   5.2171   5.2532   5.4387   5.4422
     5.4846   5.4978   5.6930   5.7353   5.7456   5.7722   6.2521   6.2584
     6.4556   6.4728   6.5321   6.5351   6.7437   6.7649   6.8837   6.8845
     6.8932   6.9161   7.0522   7.0560   7.2205   7.2242   7.4619   7.4682
     7.4699   7.4803   7.5206   7.5284   7.5543   7.5558   7.7608   7.7648
     9.9952   9.9963  11.3188  11.3436  11.3554  11.3933  11.4398  11.4532
    11.4980  11.4995  12.2749  12.2949  12.2969  12.3203  12.8270  12.8290
    13.2876  13.2969  13.3067  13.3129  13.3652  13.3762  13.5198  13.5227
    15.4786  15.4816  15.6564  15.6807  15.8308  15.8604  15.8668  15.8775
    16.5630  16.5637  17.7772  17.7783  17.8975

          k = 0.1667-0.4725 0.3333 ( 62252 PWs)   bands (ev):

   -66.1709 -66.1709 -66.1704 -66.1704 -66.1700 -66.1700 -66.1695 -66.1695
   -30.5255 -30.5254 -30.5209 -30.5208 -30.5172 -30.5172 -30.5128 -30.5127
   -30.5040 -30.5040 -30.4943 -30.4939 -30.4909 -30.4905 -30.4831 -30.4831
   -30.4549 -30.4549 -30.4520 -30.4519 -30.4233 -30.4233 -30.4209 -30.4209
   -20.3355 -20.3355 -20.3353 -20.3353 -20.3353 -20.3353 -20.3351 -20.3351
   -20.3151 -20.3151 -20.3148 -20.3148 -20.3147 -20.3147 -20.3144 -20.3144
   -20.3117 -20.3117 -20.3114 -20.3114 -20.3110 -20.3110 -20.3108 -20.3108
   -20.3088 -20.3088 -20.3087 -20.3087 -20.3086 -20.3086 -20.3085 -20.3084
   -20.3015 -20.3015 -20.3014 -20.3014 -20.3000 -20.3000 -20.2993 -20.2993
   -20.2968 -20.2968 -20.2961 -20.2961 -20.2954 -20.2954 -20.2949 -20.2949
   -20.2906 -20.2906 -20.2897 -20.2897 -20.2896 -20.2896 -20.2888 -20.2888
    -9.5308  -9.5308  -9.2795  -9.2794  -9.0397  -9.0390  -8.8490  -8.8488
    -8.4839  -8.4830  -8.4110  -8.4054  -8.3649  -8.3609  -8.3470  -8.3455
    -8.2003  -8.1984  -8.0999  -8.0988  -7.8697  -7.8691  -7.7969  -7.7968
     1.6164   1.6164   1.6303   1.6322   2.2098   2.2118   2.3812   2.3817
     2.8459   2.8558   3.1524   3.1599   3.2045   3.2242   3.2796   3.2962
     3.3424   3.3438   3.4930   3.4960   3.6239   3.6254   3.7370   3.7404
     3.8228   3.8241   3.9028   3.9461   4.4657   4.4970   4.6006   4.6038
     4.6759   4.7523   4.7995   4.8213   4.9905   5.0078   5.0410   5.1418
     5.2117   5.2845   5.3341   5.4494   5.7510   5.7724   6.0873   6.0994
     6.5698   6.5849   6.6886   6.7114   6.8483   6.8510   6.9771   7.0101
     7.0630   7.1239   7.1679   7.1851   7.1966   7.2098   7.4361   7.4549
     7.4663   7.4720   7.5009   7.5242   7.5339   7.5445   7.7309   7.7316
    10.5769  10.5780  11.3918  11.3943  11.4649  11.4723  11.7129  11.7187
    11.7623  11.7900  11.9239  11.9663  12.4395  12.4970  12.6893  12.7113
    12.8631  12.8936  13.0227  13.0806  13.3113  13.3294  13.4165  13.4595
    15.5677  15.5772  15.7652  15.7664  16.2820  16.2931  16.5445  16.5690
    16.7491  16.7497  17.3984  17.4178  17.6623

          k = 0.1667-0.4725-0.5000 ( 62232 PWs)   bands (ev):

   -66.1707 -66.1707 -66.1707 -66.1706 -66.1698 -66.1698 -66.1698 -66.1698
   -30.5224 -30.5224 -30.5224 -30.5224 -30.5082 -30.5082 -30.5081 -30.5081
   -30.5002 -30.5001 -30.5000 -30.5000 -30.4756 -30.4756 -30.4755 -30.4755
   -30.4714 -30.4714 -30.4714 -30.4714 -30.4222 -30.4222 -30.4222 -30.4221
   -20.3354 -20.3354 -20.3354 -20.3354 -20.3352 -20.3352 -20.3352 -20.3352
   -20.3149 -20.3149 -20.3149 -20.3149 -20.3146 -20.3146 -20.3146 -20.3146
   -20.3116 -20.3116 -20.3116 -20.3116 -20.3109 -20.3109 -20.3109 -20.3109
   -20.3088 -20.3088 -20.3088 -20.3088 -20.3086 -20.3086 -20.3085 -20.3085
   -20.3014 -20.3014 -20.3014 -20.3014 -20.2983 -20.2983 -20.2983 -20.2983
   -20.2976 -20.2976 -20.2976 -20.2976 -20.2953 -20.2953 -20.2953 -20.2953
   -20.2902 -20.2902 -20.2902 -20.2902 -20.2892 -20.2892 -20.2892 -20.2892
    -9.3801  -9.3800  -9.3800  -9.3800  -8.7180  -8.7180  -8.7147  -8.7147
    -8.6144  -8.6144  -8.6094  -8.6094  -8.3418  -8.3418  -8.3362  -8.3362
    -8.2959  -8.2958  -8.2915  -8.2914  -7.8331  -7.8331  -7.8327  -7.8327
     1.6350   1.6350   1.6365   1.6365   2.9676   2.9676   2.9731   2.9731
     3.0989   3.0989   3.1332   3.1332   3.2427   3.2427   3.2691   3.2691
     3.3398   3.3398   3.3444   3.3444   3.5404   3.5404   3.5541   3.5541
     3.6873   3.6873   3.7113   3.7113   4.3463   4.3463   4.3493   4.3493
     4.4550   4.4550   4.4672   4.4673   4.8856   4.8856   5.0521   5.0521
     5.1948   5.1948   5.3613   5.3613   5.8361   5.8361   5.8563   5.8563
     6.7187   6.7187   6.7343   6.7343   6.8456   6.8456   6.8688   6.8688
     7.2708   7.2708   7.3229   7.3229   7.3698   7.3698   7.3864   7.3864
     7.4753   7.4753   7.4946   7.4946   7.5676   7.5676   7.6022   7.6022
    11.2130  11.2130  11.2385  11.2385  11.4786  11.4786  11.5344  11.5344
    12.2314  12.2314  12.2456  12.2456  12.2788  12.2788  12.3017  12.3017
    12.7235  12.7235  12.7917  12.7917  13.3310  13.3310  13.3756  13.3756
    15.6766  15.6766  15.6876  15.6876  16.9324  16.9324  16.9407  16.9407
    17.2217  17.2222  17.2427  17.2427  17.3137

          k = 0.3333 0.0000 0.3333 ( 62316 PWs)   bands (ev):

   -66.1709 -66.1705 -66.1704 -66.1704 -66.1700 -66.1700 -66.1699 -66.1695
   -30.5400 -30.5364 -30.5356 -30.5315 -30.5147 -30.5122 -30.5053 -30.5011
   -30.5003 -30.4988 -30.4888 -30.4852 -30.4822 -30.4746 -30.4745 -30.4592
   -30.4559 -30.4556 -30.4529 -30.4466 -30.4418 -30.4390 -30.4350 -30.4315
   -20.3355 -20.3355 -20.3354 -20.3354 -20.3353 -20.3352 -20.3352 -20.3351
   -20.3155 -20.3152 -20.3151 -20.3149 -20.3148 -20.3146 -20.3144 -20.3142
   -20.3119 -20.3117 -20.3116 -20.3116 -20.3114 -20.3114 -20.3112 -20.3110
   -20.3106 -20.3104 -20.3103 -20.3101 -20.3065 -20.3063 -20.3063 -20.3061
   -20.3005 -20.3004 -20.3000 -20.3000 -20.2998 -20.2995 -20.2994 -20.2993
   -20.2973 -20.2971 -20.2967 -20.2964 -20.2963 -20.2962 -20.2957 -20.2956
   -20.2905 -20.2903 -20.2900 -20.2897 -20.2897 -20.2894 -20.2892 -20.2889
    -9.5788  -9.3319  -9.3142  -9.2589  -9.0670  -9.0029  -8.9490  -8.7661
    -8.7413  -8.7177  -8.7035  -8.6781  -8.2678  -8.2156  -8.2030  -8.1876
    -8.1643  -8.1635  -8.0706  -8.0488  -7.7669  -7.7416  -7.7386  -7.7143
     1.6173   1.6534   1.6574   1.6941   2.1480   2.1482   2.2357   2.2709
     2.2987   2.3312   2.5031   2.6048   2.9648   2.9743   3.0208   3.0376
     3.2136   3.2137   3.7516   3.8065   3.8831   3.9618   4.0683   4.0769
     4.1779   4.1793   4.2645   4.3790   4.4005   4.4073   4.5092   4.5626
     4.7821   4.8182   4.9402   4.9999   5.0230   5.0407   5.1987   5.4196
     5.4532   5.4726   5.4964   5.6775   5.9438   5.9495   5.9522   6.0816
     6.5032   6.5115   6.5154   6.5279   6.5380   6.5707   6.5745   6.6061
     6.9964   7.1285   7.1523   7.1650   7.1841   7.2515   7.3266   7.3697
     7.3739   7.4751   7.6720   7.6799   7.8844   7.9421   7.9749   7.9982
    10.7225  10.8411  10.8815  10.9473  11.0422  11.2473  12.0219  12.0445
    12.0756  12.1104  12.1490  12.2712  12.4653  12.5167  12.7456  12.7828
    12.7959  12.8232  12.9586  13.0415  13.4787  13.5415  13.5812  13.6688
    14.4317  14.6748  14.6793  15.1033  15.8529  16.2203  16.2478  16.7278
    16.7299  17.0682  17.0780  17.6502  17.6999

          k = 0.3333 0.0000-0.5000 ( 62288 PWs)   bands (ev):

   -66.1707 -66.1707 -66.1703 -66.1703 -66.1702 -66.1702 -66.1698 -66.1698
   -30.5375 -30.5375 -30.5335 -30.5335 -30.5018 -30.5018 -30.4940 -30.4940
   -30.4920 -30.4920 -30.4904 -30.4904 -30.4779 -30.4779 -30.4737 -30.4737
   -30.4691 -30.4691 -30.4552 -30.4552 -30.4409 -30.4409 -30.4336 -30.4336
   -20.3354 -20.3354 -20.3353 -20.3353 -20.3353 -20.3353 -20.3352 -20.3352
   -20.3153 -20.3153 -20.3151 -20.3151 -20.3146 -20.3146 -20.3144 -20.3144
   -20.3117 -20.3117 -20.3116 -20.3116 -20.3115 -20.3115 -20.3111 -20.3111
   -20.3105 -20.3105 -20.3102 -20.3102 -20.3064 -20.3064 -20.3062 -20.3062
   -20.3005 -20.3005 -20.2998 -20.2998 -20.2983 -20.2983 -20.2982 -20.2982
   -20.2978 -20.2978 -20.2977 -20.2977 -20.2966 -20.2966 -20.2962 -20.2962
   -20.2901 -20.2901 -20.2899 -20.2898 -20.2896 -20.2896 -20.2893 -20.2893
    -9.4216  -9.4216  -9.1615  -9.1615  -9.0604  -9.0604  -8.7011  -8.7011
    -8.6529  -8.6529  -8.5658  -8.5658  -8.5087  -8.5087  -8.4695  -8.4695
    -8.1336  -8.1336  -8.1230  -8.1230  -7.7546  -7.7546  -7.7268  -7.7268
     1.6371   1.6371   1.6754   1.6754   2.3045   2.3045   2.3315   2.3315
     2.9234   2.9234   3.0258   3.0258   3.0624   3.0624   3.1886   3.1886
     3.2884   3.2884   3.5471   3.5471   3.7231   3.7231   3.8628   3.8628
     3.8765   3.8765   4.0831   4.0831   4.2199   4.2199   4.3628   4.3628
     4.6918   4.6918   4.9183   4.9183   5.0043   5.0043   5.1204   5.1204
[...]
   -20.2203 -20.2203 -20.2201 -20.2201 -20.2182 -20.2182 -20.2179 -20.2179
   -20.2111 -20.2111 -20.2110 -20.2109 -20.2085 -20.2085 -20.2083 -20.2083
   -20.2081 -20.2081 -20.2079 -20.2079 -20.2052 -20.2052 -20.2051 -20.2051
   -20.2004 -20.2004 -20.2003 -20.2003 -20.1990 -20.1990 -20.1988 -20.1988
    -9.4121  -9.4121  -9.2615  -9.2615  -8.8660  -8.8660  -8.6443  -8.6443
    -8.5143  -8.5142  -8.4885  -8.4885  -8.4131  -8.4131  -8.3372  -8.3372
    -8.0591  -8.0591  -8.0276  -8.0276  -7.7730  -7.7730  -7.7595  -7.7595
     1.6665   1.6665   1.6761   1.6762   2.4374   2.4374   2.5573   2.5573
     3.0487   3.0487   3.1161   3.1161   3.1355   3.1355   3.3077   3.3077
     3.3530   3.3530   3.5394   3.5394   3.5932   3.5932   3.7697   3.7697
     4.0701   4.0702   4.1445   4.1445   4.2845   4.2845   4.4604   4.4604
     4.8028   4.8028   4.8814   4.8814   5.0748   5.0749   5.1184   5.1184
     5.2209   5.2209   5.5904   5.5905   5.9027   5.9027   5.9315   5.9315
     6.7127   6.7127   6.8464   6.8464   6.8834   6.8834   6.9243   6.9243
     7.0745   7.0745   7.1505   7.1505   7.2181   7.2181   7.5469   7.5469
     7.5709   7.5709   7.6664   7.6664   7.6967   7.6967   7.8944   7.8944
    10.9360  10.9360  11.3504  11.3504  11.4103  11.4103  11.7721  11.7721
    12.1049  12.1049  12.2916  12.2916  12.5840  12.5840  12.7107  12.7107
    12.8573  12.8573  13.0072  13.0072  13.3068  13.3068  13.7107  13.7108
    15.4280  15.4280  15.9388  15.9388  16.4373  16.4373  16.5312  16.5312
    16.8731  16.8731  17.4100  17.4100  17.9071

          k = 0.3335 0.4753 0.1663 ( 62000 PWs)   bands (ev):

   -66.0853 -66.0853 -66.0848 -66.0847 -66.0844 -66.0844 -66.0839 -66.0839
   -30.4559 -30.4559 -30.4520 -30.4519 -30.4487 -30.4486 -30.4435 -30.4435
   -30.4307 -30.4306 -30.4245 -30.4244 -30.4032 -30.4031 -30.4003 -30.4002
   -30.3600 -30.3599 -30.3571 -30.3571 -30.3467 -30.3467 -30.3429 -30.3429
   -20.2460 -20.2460 -20.2459 -20.2459 -20.2456 -20.2456 -20.2455 -20.2455
   -20.2255 -20.2255 -20.2253 -20.2253 -20.2248 -20.2248 -20.2246 -20.2246
   -20.2220 -20.2220 -20.2216 -20.2216 -20.2215 -20.2215 -20.2212 -20.2212
   -20.2195 -20.2195 -20.2193 -20.2192 -20.2192 -20.2192 -20.2190 -20.2190
   -20.2112 -20.2112 -20.2109 -20.2109 -20.2101 -20.2100 -20.2099 -20.2099
   -20.2066 -20.2066 -20.2065 -20.2064 -20.2054 -20.2054 -20.2048 -20.2048
   -20.2006 -20.2006 -20.2001 -20.2001 -20.1991 -20.1991 -20.1987 -20.1987
    -9.4592  -9.4591  -9.2278  -9.2275  -8.9347  -8.9346  -8.7489  -8.7489
    -8.4718  -8.4701  -8.3879  -8.3864  -8.3463  -8.3443  -8.3337  -8.3333
    -8.0967  -8.0962  -8.0012  -7.9995  -7.8037  -7.8035  -7.7300  -7.7298
     1.6535   1.6556   1.6742   1.6754   2.3225   2.3238   2.5031   2.5094
     2.9365   2.9417   3.1583   3.1628   3.2270   3.2415   3.3139   3.3266
     3.4050   3.4081   3.4984   3.5455   3.6378   3.6556   3.8071   3.8074
     3.8681   3.8855   3.9675   4.0330   4.4414   4.4759   4.6928   4.7041
     4.7539   4.7587   4.8946   4.9312   5.0106   5.0784   5.1043   5.1471
     5.2259   5.2857   5.4098   5.4845   5.8145   5.8341   6.1714   6.1740
     6.6803   6.7110   6.7519   6.7531   6.9198   6.9210   7.0250   7.0730
     7.1493   7.1809   7.2283   7.2546   7.2630   7.2755   7.4881   7.5024
     7.5384   7.5582   7.5635   7.5939   7.6095   7.6315   7.8025   7.8078
    10.6656  10.6715  11.4456  11.4651  11.4924  11.4944  11.8729  11.8844
    11.9059  11.9068  11.9988  12.0580  12.5081  12.5556  12.7504  12.7638
    12.9754  12.9973  13.1687  13.2354  13.4218  13.4581  13.4810  13.5372
    15.6734  15.6956  15.8857  15.8989  16.2879  16.3096  16.6441  16.6714
    16.9194  16.9218  17.5213  17.5620  17.8904

          k =-0.5003 0.4753 0.1663 ( 61956 PWs)   bands (ev):

   -66.0850 -66.0850 -66.0850 -66.0850 -66.0842 -66.0842 -66.0842 -66.0842
   -30.4539 -30.4539 -30.4533 -30.4533 -30.4461 -30.4461 -30.4452 -30.4452
   -30.4270 -30.4270 -30.4266 -30.4266 -30.3826 -30.3826 -30.3817 -30.3817
   -30.3797 -30.3797 -30.3787 -30.3787 -30.3454 -30.3454 -30.3453 -30.3453
   -20.2460 -20.2460 -20.2460 -20.2459 -20.2456 -20.2456 -20.2456 -20.2456
   -20.2254 -20.2254 -20.2254 -20.2254 -20.2248 -20.2247 -20.2247 -20.2247
   -20.2218 -20.2218 -20.2218 -20.2217 -20.2214 -20.2213 -20.2213 -20.2213
   -20.2194 -20.2194 -20.2193 -20.2193 -20.2192 -20.2192 -20.2191 -20.2191
   -20.2110 -20.2110 -20.2110 -20.2110 -20.2084 -20.2083 -20.2083 -20.2083
   -20.2082 -20.2082 -20.2081 -20.2081 -20.2052 -20.2052 -20.2052 -20.2052
   -20.2004 -20.2004 -20.2004 -20.2004 -20.1989 -20.1989 -20.1989 -20.1989
    -9.3257  -9.3257  -9.3190  -9.3190  -8.6564  -8.6564  -8.6311  -8.6311
    -8.5327  -8.5327  -8.5106  -8.5106  -8.3293  -8.3293  -8.2872  -8.2872
    -8.2650  -8.2650  -8.2270  -8.2269  -7.7670  -7.7670  -7.7667  -7.7667
     1.6704   1.6704   1.6772   1.6772   2.9887   2.9887   3.0842   3.0842
     3.1550   3.1550   3.1626   3.1626   3.2709   3.2709   3.3214   3.3214
     3.4166   3.4166   3.5063   3.5064   3.5758   3.5758   3.6126   3.6126
     3.6423   3.6423   3.9145   3.9145   4.3469   4.3469   4.4028   4.4028
     4.4304   4.4304   4.5261   4.5262   4.9560   4.9560   5.1335   5.1335
     5.2231   5.2231   5.3762   5.3762   5.9022   5.9022   5.9245   5.9245
     6.7837   6.7838   6.8470   6.8470   6.9197   6.9197   6.9574   6.9574
     7.3056   7.3056   7.3327   7.3327   7.4083   7.4083   7.4861   7.4862
     7.5460   7.5460   7.6058   7.6058   7.6478   7.6478   7.6686   7.6686
    11.3299  11.3299  11.3709  11.3709  11.4681  11.4681  11.5422  11.5422
    12.2924  12.2924  12.3521  12.3521  12.3921  12.3921  12.4834  12.4834
    12.8276  12.8276  12.8972  12.8972  13.4346  13.4346  13.4890  13.4890
    15.7849  15.7849  15.8065  15.8065  16.9490  16.9490  17.0637  17.0637
    17.3056  17.3056  17.4032  17.4033  17.4608

          k =-0.5003 0.0000 0.3327 ( 62034 PWs)   bands (ev):

   -66.0851 -66.0850 -66.0846 -66.0846 -66.0846 -66.0846 -66.0841 -66.0841
   -30.4781 -30.4781 -30.4754 -30.4753 -30.4296 -30.4295 -30.4203 -30.4202
   -30.4120 -30.4120 -30.4090 -30.4090 -30.3845 -30.3845 -30.3838 -30.3838
   -30.3799 -30.3798 -30.3733 -30.3732 -30.3611 -30.3611 -30.3588 -30.3588
   -20.2459 -20.2459 -20.2459 -20.2459 -20.2457 -20.2457 -20.2456 -20.2456
   -20.2257 -20.2257 -20.2254 -20.2254 -20.2250 -20.2250 -20.2246 -20.2246
   -20.2225 -20.2225 -20.2223 -20.2223 -20.2218 -20.2218 -20.2216 -20.2215
   -20.2207 -20.2207 -20.2206 -20.2206 -20.2169 -20.2169 -20.2167 -20.2167
   -20.2099 -20.2099 -20.2097 -20.2097 -20.2086 -20.2085 -20.2085 -20.2085
   -20.2079 -20.2079 -20.2078 -20.2078 -20.2064 -20.2064 -20.2062 -20.2062
   -20.2002 -20.2002 -20.2000 -20.2000 -20.1995 -20.1994 -20.1991 -20.1991
    -9.3960  -9.3960  -9.1639  -9.1639  -8.9914  -8.9914  -8.6774  -8.6774
    -8.5375  -8.5375  -8.4656  -8.4656  -8.4013  -8.4013  -8.3681  -8.3681
    -8.0651  -8.0651  -8.0573  -8.0573  -7.7168  -7.7168  -7.6930  -7.6930
     1.6031   1.6031   1.6424   1.6424   2.3518   2.3518   2.3862   2.3862
     2.9867   2.9867   3.0839   3.0839   3.0990   3.0990   3.2810   3.2810
     3.3835   3.3835   3.6555   3.6555   3.7999   3.7999   3.9221   3.9221
     3.9243   3.9243   4.1206   4.1206   4.2865   4.2865   4.4565   4.4565
     4.7584   4.7584   4.9757   4.9757   5.1391   5.1391   5.1758   5.1758
     5.3761   5.3761   5.5936   5.5936   6.0026   6.0026   6.1085   6.1085
     6.4602   6.4602   6.4870   6.4870   6.5546   6.5546   6.6330   6.6330
     7.2175   7.2175   7.3464   7.3464   7.4270   7.4270   7.5679   7.5679
     7.6138   7.6138   7.7562   7.7562   7.7840   7.7840   8.0479   8.0479
    10.9832  10.9832  11.4958  11.4958  11.5997  11.5997  11.6807  11.6807
    11.9582  11.9582  12.3409  12.3409  12.4747  12.4747  12.7119  12.7119
    12.9439  12.9440  13.2951  13.2951  13.3381  13.3381  13.7112  13.7112
    14.7725  14.7726  15.1351  15.1351  16.3662  16.3662  16.7127  16.7127
    17.0394  17.0394  17.5503  17.5503  18.0111

          k =-0.5003-0.1584 0.3327 ( 62008 PWs)   bands (ev):

   -66.0850 -66.0850 -66.0846 -66.0846 -66.0845 -66.0845 -66.0842 -66.0841
   -30.4743 -30.4743 -30.4715 -30.4715 -30.4316 -30.4316 -30.4236 -30.4236
   -30.4121 -30.4121 -30.4099 -30.4099 -30.3843 -30.3843 -30.3835 -30.3835
   -30.3800 -30.3800 -30.3743 -30.3743 -30.3611 -30.3611 -30.3593 -30.3593
   -20.2459 -20.2459 -20.2459 -20.2459 -20.2457 -20.2457 -20.2456 -20.2456
   -20.2257 -20.2257 -20.2253 -20.2253 -20.2250 -20.2250 -20.2246 -20.2246
   -20.2223 -20.2223 -20.2221 -20.2220 -20.2217 -20.2217 -20.2215 -20.2215
   -20.2207 -20.2206 -20.2205 -20.2205 -20.2173 -20.2172 -20.2171 -20.2171
   -20.2099 -20.2099 -20.2097 -20.2097 -20.2085 -20.2085 -20.2085 -20.2085
   -20.2080 -20.2079 -20.2079 -20.2078 -20.2064 -20.2064 -20.2062 -20.2062
   -20.2002 -20.2002 -20.2000 -20.2000 -20.1994 -20.1994 -20.1991 -20.1991
    -9.3483  -9.3483  -9.0977  -9.0977  -9.0022  -9.0022  -8.6531  -8.6530
    -8.5454  -8.5454  -8.4627  -8.4627  -8.3998  -8.3998  -8.3644  -8.3644
    -8.0635  -8.0635  -8.0616  -8.0616  -7.8115  -7.8115  -7.7878  -7.7878
     1.8250   1.8250   1.8681   1.8682   2.3513   2.3513   2.3956   2.3956
     3.0286   3.0286   3.1110   3.1110   3.1261   3.1261   3.2926   3.2926
     3.3872   3.3872   3.6761   3.6761   3.8059   3.8059   3.9153   3.9154
     3.9575   3.9575   4.1562   4.1562   4.2742   4.2742   4.4636   4.4636
     4.6345   4.6345   4.7754   4.7754   5.0840   5.0840   5.1132   5.1132
     5.1524   5.1524   5.3840   5.3840   5.7887   5.7887   5.8835   5.8835
     6.6062   6.6062   6.6291   6.6291   6.6983   6.6983   6.8168   6.8168
     7.2264   7.2264   7.3422   7.3422   7.4231   7.4231   7.5687   7.5687
     7.6086   7.6086   7.7379   7.7379   7.7670   7.7671   7.9930   7.9930
    11.0775  11.0775  11.5251  11.5251  11.6427  11.6427  11.7075  11.7075
    12.0028  12.0028  12.3609  12.3609  12.4700  12.4700  12.7212  12.7212
    12.8214  12.8214  13.1762  13.1762  13.2187  13.2187  13.6050  13.6050
    15.1279  15.1279  15.5051  15.5051  16.4475  16.4475  16.7148  16.7148
    17.0457  17.0457  17.5676  17.5676  17.8826

          k =-0.5003-0.3169 0.3327 ( 61982 PWs)   bands (ev):

   -66.0850 -66.0849 -66.0847 -66.0847 -66.0845 -66.0845 -66.0842 -66.0842
   -30.4641 -30.4641 -30.4609 -30.4609 -30.4388 -30.4388 -30.4331 -30.4331
   -30.4123 -30.4123 -30.4115 -30.4115 -30.3839 -30.3839 -30.3831 -30.3831
   -30.3801 -30.3801 -30.3767 -30.3767 -30.3612 -30.3612 -30.3603 -30.3602
   -20.2459 -20.2459 -20.2459 -20.2459 -20.2457 -20.2457 -20.2457 -20.2456
   -20.2255 -20.2255 -20.2251 -20.2251 -20.2251 -20.2251 -20.2247 -20.2247
   -20.2219 -20.2219 -20.2217 -20.2217 -20.2216 -20.2216 -20.2215 -20.2215
   -20.2203 -20.2203 -20.2202 -20.2202 -20.2182 -20.2182 -20.2180 -20.2180
   -20.2099 -20.2098 -20.2098 -20.2097 -20.2084 -20.2084 -20.2084 -20.2084
   -20.2081 -20.2081 -20.2080 -20.2080 -20.2064 -20.2063 -20.2062 -20.2062
   -20.2002 -20.2002 -20.2000 -20.2000 -20.1994 -20.1994 -20.1992 -20.1992
    -9.2325  -9.2325  -9.0398  -9.0398  -8.9194  -8.9193  -8.6028  -8.6028
    -8.5507  -8.5507  -8.4558  -8.4558  -8.3899  -8.3899  -8.3451  -8.3450
    -8.0982  -8.0982  -8.0624  -8.0624  -8.0393  -8.0393  -7.9888  -7.9888
     2.2738   2.2739   2.3492   2.3492   2.4545   2.4545   2.5746   2.5746
     3.0874   3.0874   3.1323   3.1323   3.2635   3.2635   3.3281   3.3281
     3.4207   3.4207   3.6989   3.6989   3.7732   3.7732   3.8740   3.8740
     4.0360   4.0360   4.1694   4.1694   4.2715   4.2715   4.3011   4.3011
     4.4208   4.4208   4.5486   4.5486   4.7223   4.7223   4.9274   4.9274
     5.0054   5.0054   5.1041   5.1041   5.1337   5.1337   5.3830   5.3831
     6.9064   6.9064   6.9657   6.9657   7.0464   7.0464   7.0904   7.0904
     7.2481   7.2481   7.3398   7.3398   7.4174   7.4174   7.5532   7.5532
     7.5910   7.5910   7.6753   7.6753   7.7056   7.7056   7.8344   7.8344
    11.3433  11.3433  11.5819  11.5819  11.6707  11.6707  11.8690  11.8690
    12.1583  12.1583  12.3881  12.3881  12.4533  12.4533  12.4635  12.4635
    12.8013  12.8013  12.8969  12.8969  12.9484  12.9484  13.3475  13.3475
    15.9391  15.9391  16.3899  16.3899  16.6791  16.6791  16.7438  16.7438
    17.0828  17.0828  17.4729  17.4729  17.7325

          k =-0.5003 0.4753 0.3327 ( 61916 PWs)   bands (ev):

   -66.0848 -66.0848 -66.0848 -66.0848 -66.0844 -66.0843 -66.0843 -66.0843
   -30.4511 -30.4511 -30.4505 -30.4505 -30.4472 -30.4472 -30.4464 -30.4464
   -30.4124 -30.4124 -30.4121 -30.4121 -30.3835 -30.3835 -30.3829 -30.3829
   -30.3796 -30.3796 -30.3785 -30.3785 -30.3611 -30.3611 -30.3608 -30.3608
   -20.2459 -20.2459 -20.2459 -20.2459 -20.2457 -20.2457 -20.2457 -20.2456
   -20.2253 -20.2253 -20.2253 -20.2253 -20.2249 -20.2249 -20.2249 -20.2249
   -20.2217 -20.2217 -20.2217 -20.2217 -20.2214 -20.2214 -20.2214 -20.2214
   -20.2194 -20.2194 -20.2193 -20.2193 -20.2193 -20.2193 -20.2192 -20.2192
   -20.2098 -20.2098 -20.2098 -20.2098 -20.2083 -20.2083 -20.2083 -20.2083
   -20.2082 -20.2082 -20.2081 -20.2081 -20.2063 -20.2063 -20.2063 -20.2063
   -20.2001 -20.2001 -20.2001 -20.2001 -20.1993 -20.1993 -20.1993 -20.1993
    -9.1199  -9.1199  -9.1100  -9.1100  -8.7233  -8.7232  -8.6987  -8.6987
    -8.4771  -8.4771  -8.4538  -8.4538  -8.3221  -8.3221  -8.2936  -8.2936
    -8.2579  -8.2579  -8.2361  -8.2361  -8.0473  -8.0473  -8.0465  -8.0465
     2.3332   2.3332   2.3470   2.3470   3.0153   3.0153   3.0723   3.0723
     3.1704   3.1704   3.1847   3.1847   3.2890   3.2890   3.3194   3.3194
     3.5040   3.5041   3.5570   3.5570   3.6710   3.6710   3.7231   3.7231
     3.8675   3.8675   4.0044   4.0044   4.3141   4.3141   4.3345   4.3345
     4.3986   4.3986   4.4696   4.4696   4.5640   4.5640   4.6760   4.6760
     4.7537   4.7537   4.9025   4.9025   5.1182   5.1182   5.1533   5.1533
     7.0380   7.0380   7.1373   7.1373   7.2238   7.2238   7.2484   7.2484
     7.3230   7.3230   7.3745   7.3745   7.4521   7.4521   7.4662   7.4662
     7.5433   7.5433   7.6212   7.6212   7.6569   7.6569   7.6969   7.6970
    11.5544  11.5544  11.5856  11.5856  11.8030  11.8030  11.8921  11.8921
    12.2683  12.2683  12.3087  12.3087  12.3828  12.3828  12.4799  12.4799
    12.6006  12.6006  12.7130  12.7130  13.0277  13.0277  13.1049  13.1049
    16.4921  16.4921  16.5411  16.5411  17.0968  17.0968  17.1992  17.1992
    17.3138  17.3139  17.4164  17.4170  17.4681

     the Fermi energy is     9.0318 ev

!    total energy              =   -6261.11190957 Ry
     Harris-Foulkes estimate   =   -6261.11190957 Ry
     estimated scf accuracy    <          4.3E-11 Ry

     The total energy is the sum of the following terms:

     one-electron contribution =   -4698.62910987 Ry
     hartree contribution      =    2587.09052509 Ry
     xc contribution           =    -965.66479346 Ry
     ewald contribution        =   -3183.90853133 Ry
     smearing contrib. (-TS)   =      -0.00000000 Ry

     convergence has been achieved in  14 iterations

     Forces acting on atoms (cartesian axes, Ry/au):

     atom    1 type  1   force =    -0.00074965   -0.00352519   -0.00008593
     atom    2 type  1   force =     0.00074965    0.00352519    0.00008593
     atom    3 type  1   force =     0.00074965    0.00352519   -0.00008593
     atom    4 type  1   force =    -0.00074965   -0.00352519    0.00008593
     atom    5 type  1   force =     0.00074965   -0.00352519    0.00008593
     atom    6 type  1   force =    -0.00074965    0.00352519   -0.00008593
     atom    7 type  1   force =    -0.00074965    0.00352519    0.00008593
     atom    8 type  1   force =     0.00074965   -0.00352519   -0.00008593
     atom    9 type  2   force =    -0.00045291    0.00198896    0.00044911
     atom   10 type  2   force =     0.00045291   -0.00198896   -0.00044911
     atom   11 type  2   force =     0.00045291   -0.00198896    0.00044911
     atom   12 type  2   force =    -0.00045291    0.00198896   -0.00044911
     atom   13 type  2   force =     0.00045291    0.00198896   -0.00044911
     atom   14 type  2   force =    -0.00045291   -0.00198896    0.00044911
     atom   15 type  2   force =    -0.00045291   -0.00198896   -0.00044911
     atom   16 type  2   force =     0.00045291    0.00198896    0.00044911
     atom   17 type  2   force =    -0.00043675    0.00035172    0.00150329
     atom   18 type  2   force =     0.00043675   -0.00035172   -0.00150329
     atom   19 type  2   force =     0.00043675   -0.00035172    0.00150329
     atom   20 type  2   force =    -0.00043675    0.00035172   -0.00150329
     atom   21 type  2   force =     0.00043675    0.00035172   -0.00150329
     atom   22 type  2   force =    -0.00043675   -0.00035172    0.00150329
     atom   23 type  2   force =    -0.00043675   -0.00035172   -0.00150329
     atom   24 type  2   force =     0.00043675    0.00035172    0.00150329
     atom   25 type  2   force =     0.00013091   -0.00137313   -0.00045895
     atom   26 type  2   force =    -0.00013091    0.00137313    0.00045895
     atom   27 type  2   force =    -0.00013091    0.00137313   -0.00045895
     atom   28 type  2   force =     0.00013091   -0.00137313    0.00045895
     atom   29 type  2   force =    -0.00013091   -0.00137313    0.00045895
     atom   30 type  2   force =     0.00013091    0.00137313   -0.00045895
     atom   31 type  2   force =     0.00013091    0.00137313    0.00045895
     atom   32 type  2   force =    -0.00013091   -0.00137313   -0.00045895

     Total force =     0.000000     Total SCF correction =     0.000000


     Computing stress (Cartesian axis) and pressure

          total   stress  (Ry/bohr**3)                   (kbar)     P=   -0.10
  -0.00000059   0.00000000   0.00000000         -0.09      0.00      0.00
   0.00000000  -0.00000133   0.00000000          0.00     -0.20      0.00
   0.00000000   0.00000000  -0.00000015          0.00      0.00     -0.02


     Writing output data file Landau_22.save
 
     init_run     :     44.63s CPU     46.59s WALL (       2 calls)
     electrons    :   3855.51s CPU   3969.96s WALL (       6 calls)
     update_pot   :     80.50s CPU     80.81s WALL (       4 calls)
     forces       :     97.99s CPU    100.58s WALL (       6 calls)
     stress       :    721.85s CPU    735.97s WALL (       6 calls)

     Called by init_run:
     wfcinit      :     27.28s CPU     28.92s WALL (       2 calls)
     potinit      :      7.20s CPU      7.27s WALL (       2 calls)

     Called by electrons:
     c_bands      :   3327.49s CPU   3435.34s WALL (      85 calls)
     sum_band     :    482.89s CPU    485.37s WALL (      85 calls)
     v_of_rho     :      8.25s CPU      8.36s WALL (      89 calls)
     mix_rho      :     18.97s CPU     21.27s WALL (      85 calls)

     Called by c_bands:
     init_us_2    :     33.95s CPU     36.34s WALL (     172 calls)
     cegterg      :   2879.32s CPU   2984.41s WALL (      85 calls)

     Called by sum_band:

     Called by *egterg:
     h_psi        :   2285.92s CPU   2298.13s WALL (     318 calls)
     g_psi        :      5.96s CPU      5.99s WALL (     231 calls)
     cdiaghg      :     35.87s CPU     36.06s WALL (     310 calls)

     Called by h_psi:
     h_psi:pot    :   2266.25s CPU   2277.91s WALL (     318 calls)
     h_psi:calbec :    218.54s CPU    223.48s WALL (     318 calls)
     vloc_psi     :   1807.95s CPU   1813.56s WALL (     318 calls)
     add_vuspsi   :    239.75s CPU    240.87s WALL (     318 calls)

     General routines
     calbec       :    249.59s CPU    255.27s WALL (     348 calls)
     fft          :      6.63s CPU      6.67s WALL (     406 calls)
     fftw         :   1837.54s CPU   1842.71s WALL (  109655 calls)
 
     Parallel routines
 
     PWSCF        :     1h20m CPU        1h22m WALL

 
   This run was terminated on:  19:21:43  29Apr2019            

=------------------------------------------------------------------------------=
   JOB DONE.
=------------------------------------------------------------------------------=
