
     Program PWSCF v.6.2 (svn rev. 14038) starts on 25Mar2020 at 22:26: 9 

     This program is part of the open-source Quantum ESPRESSO suite
     for quantum simulation of materials; please cite
         "P. Giannozzi et al., J. Phys.:Condens. Matter 21 395502 (2009);
         "P. Giannozzi et al., J. Phys.:Condens. Matter 29 465901 (2017);
          URL http://www.quantum-espresso.org", 
     in publications or presentations arising from this work. More details at
     http://www.quantum-espresso.org/quote

     Parallel version (MPI), running on    40 processors

     MPI processes distributed on     6 nodes
     K-points division:     npool     =      40
     Reading input from scf.in

     Current dimensions of program PWSCF are:
     Max number of different atomic species (ntypx) = 10
     Max number of k-points (npk) =  40000
     Max angular momentum in pseudopotentials (lmaxx) =  3

     Subspace diagonalization in iterative solution of the eigenvalue problem:
     a serial algorithm will be used

 
     G-vector sticks info
     --------------------
     sticks:   dense  smooth     PW     G-vecs:    dense   smooth      PW
     Sum        7743    7743   2079               498543   498543   69093
 


     bravais-lattice index     =            0
     lattice parameter (alat)  =      13.8527  a.u.
     unit-cell volume          =    2807.5997 (a.u.)^3
     number of atoms/cell      =           32
     number of atomic types    =            2
     number of electrons       =       369.00
     number of Kohn-Sham states=          222
     kinetic-energy cutoff     =     120.0000  Ry
     charge density cutoff     =     480.0000  Ry
     convergence threshold     =      1.0E-08
     mixing beta               =       0.7000
     number of iterations used =            8  plain     mixing
     Exchange-correlation      = SLA PW NOGX NOGC ( 1  4  0  0 0 0)

     celldm(1)=  13.852681  celldm(2)=   0.000000  celldm(3)=   0.000000
     celldm(4)=   0.000000  celldm(5)=   0.000000  celldm(6)=   0.000000

     crystal axes: (cart. coord. in units of alat)
               a(1) = (   1.000000   0.000000   0.000000 )  
               a(2) = (   0.000000   1.056133   0.000000 )  
               a(3) = (   0.000000   0.000000   1.000035 )  

     reciprocal axes: (cart. coord. in units 2 pi/alat)
               b(1) = (  1.000000  0.000000  0.000000 )  
               b(2) = (  0.000000  0.946850  0.000000 )  
               b(3) = (  0.000000  0.000000  0.999965 )  


     PseudoPot. # 1 for W  read from file:
     /cluster/scratch/mnoe/QE/pps/W_ONCV_LDA-4.0.upf
     MD5 check sum: ba0307d5d4cd419d6f1d13dc49d7c13a
     Pseudo is Norm-conserving + core correction, Zval = 28.0
     Generated using ONCVPSP code by D. R. Hamann
     Using radial grid of 1380 points,  8 beta functions with: 
                l(1) =   0
                l(2) =   0
                l(3) =   1
                l(4) =   1
                l(5) =   2
                l(6) =   2
                l(7) =   3
                l(8) =   3

     PseudoPot. # 2 for O  read from file:
     /cluster/scratch/mnoe/QE/pps/O_ONCV_LDA-3.0.upf
     MD5 check sum: a1bd6164e7280c17a38c229939bfbd54
     Pseudo is Norm-conserving + core correction, Zval =  6.0
     Generated using ONCVPSP code by D. R. Hamann
     Using radial grid of  926 points,  5 beta functions with: 
                l(1) =   0
                l(2) =   0
                l(3) =   1
                l(4) =   1
                l(5) =   2

     atomic species   valence    mass     pseudopotential
        W             28.00   183.84000     W ( 1.00)
        O              6.00    15.99940     O ( 1.00)

      4 Sym. Ops. (no inversion) found ( 3 have fractional translation)



   Cartesian axes

     site n.     atom                  positions (alat units)
         1           W   tau(   1) = (   0.2468412   0.2972635   0.0003611  )
         2           W   tau(   2) = (   0.7505412   0.7588696  -0.0031330  )
         3           W   tau(   3) = (   0.2531588   0.2308031   0.5003784  )
         4           W   tau(   4) = (   0.7494588   0.8253300   0.4968843  )
         5           W   tau(   5) = (   0.7531588   0.2972635   0.4996563  )
         6           W   tau(   6) = (   0.2494588   0.7588696   0.5031504  )
         7           W   tau(   7) = (   0.7468412   0.2308031  -0.0003611  )
         8           W   tau(   8) = (   0.2505412   0.8253300   0.0031330  )
         9           O   tau(   9) = (   0.2461802   0.0086731  -0.0020139  )
        10           O   tau(  10) = (   0.7530062  -0.0086731  -0.0031000  )
        11           O   tau(  11) = (   0.2538198   0.5193934   0.4980034  )
        12           O   tau(  12) = (   0.7469938   0.5367396   0.4969174  )
        13           O   tau(  13) = (   0.7538198   0.0086731   0.5020313  )
        14           O   tau(  14) = (   0.2469938  -0.0086731   0.5031173  )
        15           O   tau(  15) = (   0.7461802   0.5193934   0.0020139  )
        16           O   tau(  16) = (   0.2530062   0.5367396   0.0031000  )
        17           O   tau(  17) = (   0.5010806   0.2597313   0.4505239  )
        18           O   tau(  18) = (   0.5000686   0.7951928   0.5495108  )
        19           O   tau(  19) = (  -0.0010806   0.2683353   0.9505413  )
        20           O   tau(  20) = (  -0.0000686   0.7890067   0.0494935  )
        21           O   tau(  21) = (   0.4989194   0.2597313   0.0494935  )
        22           O   tau(  22) = (   0.4999314   0.7951928   0.9505413  )
        23           O   tau(  23) = (   0.0010806   0.2683353   0.5495108  )
        24           O   tau(  24) = (   0.0000686   0.7890067   0.4505239  )
        25           O   tau(  25) = (   0.7005083   0.2659964   0.7496381  )
        26           O   tau(  26) = (   0.2994918   0.7956767   0.2511548  )
        27           O   tau(  27) = (   0.7994918   0.2620701   0.2496207  )
        28           O   tau(  28) = (   0.2005082   0.7885229   0.7511722  )
        29           O   tau(  29) = (   0.2994918   0.2659964   0.7504140  )
        30           O   tau(  30) = (   0.7005083   0.7956767   0.2488626  )
        31           O   tau(  31) = (   0.2005082   0.2620701   0.2503966  )
        32           O   tau(  32) = (   0.7994918   0.7885229   0.7488799  )

     number of k points=    64  gaussian smearing, width (Ry)=  0.0007
                       cart. coord. in units 2pi/alat
        k(    1) = (   0.0000000   0.0000000   0.0000000), wk =   0.0092593
        k(    2) = (   0.0000000   0.0000000   0.1666609), wk =   0.0185185
        k(    3) = (   0.0000000   0.0000000   0.3333218), wk =   0.0185185
        k(    4) = (   0.0000000   0.0000000  -0.4999826), wk =   0.0092593
        k(    5) = (   0.0000000   0.1578084   0.0000000), wk =   0.0185185
        k(    6) = (   0.0000000   0.1578084   0.1666609), wk =   0.0370370
        k(    7) = (   0.0000000   0.1578084   0.3333218), wk =   0.0370370
        k(    8) = (   0.0000000   0.1578084  -0.4999826), wk =   0.0185185
        k(    9) = (   0.0000000   0.3156168   0.0000000), wk =   0.0185185
        k(   10) = (   0.0000000   0.3156168   0.1666609), wk =   0.0370370
        k(   11) = (   0.0000000   0.3156168   0.3333218), wk =   0.0370370
        k(   12) = (   0.0000000   0.3156168  -0.4999826), wk =   0.0185185
        k(   13) = (   0.0000000  -0.4734252   0.0000000), wk =   0.0092593
        k(   14) = (   0.0000000  -0.4734252   0.1666609), wk =   0.0185185
        k(   15) = (   0.0000000  -0.4734252   0.3333218), wk =   0.0185185
        k(   16) = (   0.0000000  -0.4734252  -0.4999826), wk =   0.0092593
        k(   17) = (   0.1666667   0.0000000   0.0000000), wk =   0.0185185
        k(   18) = (   0.1666667   0.0000000   0.1666609), wk =   0.0370370
        k(   19) = (   0.1666667   0.0000000   0.3333218), wk =   0.0370370
        k(   20) = (   0.1666667   0.0000000  -0.4999826), wk =   0.0185185
        k(   21) = (   0.1666667   0.1578084   0.0000000), wk =   0.0370370
        k(   22) = (   0.1666667   0.1578084   0.1666609), wk =   0.0740741
        k(   23) = (   0.1666667   0.1578084   0.3333218), wk =   0.0740741
        k(   24) = (   0.1666667   0.1578084  -0.4999826), wk =   0.0370370
        k(   25) = (   0.1666667   0.3156168   0.0000000), wk =   0.0370370
        k(   26) = (   0.1666667   0.3156168   0.1666609), wk =   0.0740741
        k(   27) = (   0.1666667   0.3156168   0.3333218), wk =   0.0740741
        k(   28) = (   0.1666667   0.3156168  -0.4999826), wk =   0.0370370
        k(   29) = (   0.1666667  -0.4734252   0.0000000), wk =   0.0185185
        k(   30) = (   0.1666667  -0.4734252   0.1666609), wk =   0.0370370
        k(   31) = (   0.1666667  -0.4734252   0.3333218), wk =   0.0370370
        k(   32) = (   0.1666667  -0.4734252  -0.4999826), wk =   0.0185185
        k(   33) = (   0.3333333   0.0000000   0.0000000), wk =   0.0185185
        k(   34) = (   0.3333333   0.0000000   0.1666609), wk =   0.0370370
        k(   35) = (   0.3333333   0.0000000   0.3333218), wk =   0.0370370
        k(   36) = (   0.3333333   0.0000000  -0.4999826), wk =   0.0185185
        k(   37) = (   0.3333333   0.1578084   0.0000000), wk =   0.0370370
        k(   38) = (   0.3333333   0.1578084   0.1666609), wk =   0.0740741
        k(   39) = (   0.3333333   0.1578084   0.3333218), wk =   0.0740741
        k(   40) = (   0.3333333   0.1578084  -0.4999826), wk =   0.0370370
        k(   41) = (   0.3333333   0.3156168   0.0000000), wk =   0.0370370
        k(   42) = (   0.3333333   0.3156168   0.1666609), wk =   0.0740741
        k(   43) = (   0.3333333   0.3156168   0.3333218), wk =   0.0740741
        k(   44) = (   0.3333333   0.3156168  -0.4999826), wk =   0.0370370
        k(   45) = (   0.3333333  -0.4734252   0.0000000), wk =   0.0185185
        k(   46) = (   0.3333333  -0.4734252   0.1666609), wk =   0.0370370
        k(   47) = (   0.3333333  -0.4734252   0.3333218), wk =   0.0370370
        k(   48) = (   0.3333333  -0.4734252  -0.4999826), wk =   0.0185185
        k(   49) = (  -0.5000000   0.0000000   0.0000000), wk =   0.0092593
        k(   50) = (  -0.5000000   0.0000000   0.1666609), wk =   0.0185185
        k(   51) = (  -0.5000000   0.0000000   0.3333218), wk =   0.0185185
        k(   52) = (  -0.5000000   0.0000000  -0.4999826), wk =   0.0092593
        k(   53) = (  -0.5000000   0.1578084   0.0000000), wk =   0.0185185
        k(   54) = (  -0.5000000   0.1578084   0.1666609), wk =   0.0370370
        k(   55) = (  -0.5000000   0.1578084   0.3333218), wk =   0.0370370
        k(   56) = (  -0.5000000   0.1578084  -0.4999826), wk =   0.0185185
        k(   57) = (  -0.5000000   0.3156168   0.0000000), wk =   0.0185185
        k(   58) = (  -0.5000000   0.3156168   0.1666609), wk =   0.0370370
        k(   59) = (  -0.5000000   0.3156168   0.3333218), wk =   0.0370370
        k(   60) = (  -0.5000000   0.3156168  -0.4999826), wk =   0.0185185
        k(   61) = (  -0.5000000  -0.4734252   0.0000000), wk =   0.0092593
        k(   62) = (  -0.5000000  -0.4734252   0.1666609), wk =   0.0185185
        k(   63) = (  -0.5000000  -0.4734252   0.3333218), wk =   0.0185185
        k(   64) = (  -0.5000000  -0.4734252  -0.4999826), wk =   0.0092593

     Dense  grid:   498543 G-vectors     FFT dimensions: ( 100, 108, 100)

     Estimated max dynamical RAM per process >       3.14 GB

     Estimated total dynamical RAM >     125.62 GB

     Initial potential from superposition of free atoms

     starting charge  367.99656, renormalised to  369.00000
     Starting wfc are  232 randomized atomic wfcs

     total cpu time spent up to now is       31.4 secs

     Self-consistent Calculation

     iteration #  1     ecut=   120.00 Ry     beta= 0.70
     Davidson diagonalization with overlap
     ethr =  1.00E-02,  avg # of iterations =  5.5

     total cpu time spent up to now is      138.5 secs

     total energy              =   -6253.08327212 Ry
     Harris-Foulkes estimate   =   -6264.05612778 Ry
     estimated scf accuracy    <      13.77634295 Ry

     iteration #  2     ecut=   120.00 Ry     beta= 0.70
     Davidson diagonalization with overlap
     ethr =  3.73E-03,  avg # of iterations =  3.6

     total cpu time spent up to now is      242.2 secs

     total energy              =   -6250.15078489 Ry
     Harris-Foulkes estimate   =   -6269.92127737 Ry
     estimated scf accuracy    <      52.19420863 Ry

     iteration #  3     ecut=   120.00 Ry     beta= 0.70
     Davidson diagonalization with overlap
     ethr =  3.73E-03,  avg # of iterations =  3.3

     total cpu time spent up to now is      340.3 secs

     total energy              =   -6260.38588735 Ry
     Harris-Foulkes estimate   =   -6260.64803135 Ry
     estimated scf accuracy    <       0.89375408 Ry

     iteration #  4     ecut=   120.00 Ry     beta= 0.70
     Davidson diagonalization with overlap
     ethr =  2.42E-04,  avg # of iterations =  3.4

     total cpu time spent up to now is      424.4 secs

     total energy              =   -6260.37532552 Ry
     Harris-Foulkes estimate   =   -6260.45023052 Ry
     estimated scf accuracy    <       0.23317437 Ry

     iteration #  5     ecut=   120.00 Ry     beta= 0.70
     Davidson diagonalization with overlap
     ethr =  6.32E-05,  avg # of iterations =  4.7

     total cpu time spent up to now is      512.4 secs

     total energy              =   -6260.37676865 Ry
     Harris-Foulkes estimate   =   -6260.40865657 Ry
     estimated scf accuracy    <       0.07159593 Ry

     iteration #  6     ecut=   120.00 Ry     beta= 0.70
     Davidson diagonalization with overlap
     ethr =  1.94E-05,  avg # of iterations =  5.7

     total cpu time spent up to now is      603.6 secs

     total energy              =   -6260.39311779 Ry
     Harris-Foulkes estimate   =   -6260.39533280 Ry
     estimated scf accuracy    <       0.00800193 Ry

     iteration #  7     ecut=   120.00 Ry     beta= 0.70
     Davidson diagonalization with overlap
     ethr =  2.17E-06,  avg # of iterations =  7.6

     total cpu time spent up to now is      695.8 secs

     total energy              =   -6260.39302404 Ry
     Harris-Foulkes estimate   =   -6260.39390227 Ry
     estimated scf accuracy    <       0.00241751 Ry

     iteration #  8     ecut=   120.00 Ry     beta= 0.70
     Davidson diagonalization with overlap
     ethr =  6.55E-07,  avg # of iterations =  2.9

     total cpu time spent up to now is      776.4 secs

     total energy              =   -6260.39340184 Ry
     Harris-Foulkes estimate   =   -6260.39343248 Ry
     estimated scf accuracy    <       0.00006308 Ry

     iteration #  9     ecut=   120.00 Ry     beta= 0.70
     Davidson diagonalization with overlap
     ethr =  1.71E-08,  avg # of iterations =  3.3

     total cpu time spent up to now is      879.5 secs

     total energy              =   -6260.39342149 Ry
     Harris-Foulkes estimate   =   -6260.39343450 Ry
     estimated scf accuracy    <       0.00005042 Ry

     iteration # 10     ecut=   120.00 Ry     beta= 0.70
     Davidson diagonalization with overlap
     ethr =  1.37E-08,  avg # of iterations =  2.0

     total cpu time spent up to now is      955.9 secs

     total energy              =   -6260.39341942 Ry
     Harris-Foulkes estimate   =   -6260.39342535 Ry
     estimated scf accuracy    <       0.00001436 Ry

     iteration # 11     ecut=   120.00 Ry     beta= 0.70
     Davidson diagonalization with overlap
     ethr =  3.89E-09,  avg # of iterations =  3.0

     total cpu time spent up to now is     1038.3 secs

     total energy              =   -6260.39342194 Ry
     Harris-Foulkes estimate   =   -6260.39342230 Ry
     estimated scf accuracy    <       0.00000086 Ry

     iteration # 12     ecut=   120.00 Ry     beta= 0.70
     Davidson diagonalization with overlap
     ethr =  2.34E-10,  avg # of iterations =  3.0

     total cpu time spent up to now is     1133.5 secs

     total energy              =   -6260.39342214 Ry
     Harris-Foulkes estimate   =   -6260.39342216 Ry
     estimated scf accuracy    <       0.00000005 Ry

     iteration # 13     ecut=   120.00 Ry     beta= 0.70
     Davidson diagonalization with overlap
     ethr =  1.35E-11,  avg # of iterations =  2.1

     total cpu time spent up to now is     1220.7 secs

     End of self-consistent calculation

          k = 0.0000 0.0000 0.0000 ( 62271 PWs)   bands (ev):

   -65.9619 -65.9615 -65.9609 -65.9609 -65.9605 -65.9605 -65.9599 -65.9595
   -30.4359 -30.4324 -30.4324 -30.4291 -30.3750 -30.3721 -30.3720 -30.3692
   -30.2995 -30.2984 -30.2954 -30.2946 -30.2936 -30.2936 -30.2898 -30.2896
   -30.1973 -30.1972 -30.1939 -30.1937 -30.1933 -30.1924 -30.1898 -30.1890
   -20.1197 -20.1194 -20.1194 -20.1191 -20.1143 -20.1139 -20.1139 -20.1136
   -20.1061 -20.1058 -20.1058 -20.1058 -20.1050 -20.1048 -20.1047 -20.1046
   -20.1040 -20.1040 -20.1040 -20.1038 -20.1036 -20.1034 -20.1034 -20.1033
   -20.1023 -20.1022 -20.1021 -20.1020 -20.1011 -20.1011 -20.1010 -20.1008
   -20.0849 -20.0847 -20.0845 -20.0845 -20.0844 -20.0844 -20.0842 -20.0841
   -20.0372 -20.0371 -20.0371 -20.0370 -20.0357 -20.0356 -20.0356 -20.0354
   -20.0314 -20.0314 -20.0314 -20.0312 -20.0299 -20.0298 -20.0298 -20.0297
    -9.9069  -9.6041  -9.4773  -9.4773  -9.1718  -9.1715  -9.0880  -8.9767
    -8.9641  -8.8654  -8.8261  -8.8261  -7.8610  -7.8007  -7.8005  -7.7484
    -7.7081  -7.7066  -7.6814  -7.6792  -7.5559  -7.5557  -7.5333  -7.5332
     1.2990   1.2991   1.3608   1.3611   1.3889   1.3895   1.4077   1.6405
     1.6465   1.6470   1.7236   1.9102   2.4664   2.5439   2.5887   2.5912
     2.7420   2.7424   4.1878   4.1885   4.4131   4.4144   4.8359   4.8432
     4.9256   4.9263   4.9536   4.9536   5.0464   5.0466   5.0838   5.4368
     5.4377   5.5433   5.5460   5.5660   5.5661   5.5939   5.5961   5.8413
     5.8423   5.9095   5.9098   5.9457   5.9684   6.0995   6.1010   6.1930
     6.1932   6.2956   6.2962   6.5896   6.5898   6.8188   6.8199   6.8610
     6.8618   6.9066   7.0445   7.0505   7.1155   7.1160   7.4530   7.4538
     7.4943   7.4951   7.8629   7.8777   8.0929   8.0941   8.1555   8.1595
     9.3990   9.4041  10.0517  10.0528  10.0832  10.0837  12.3588  12.3598
    12.3882  12.3903  12.4539  12.4552  12.5752  12.5800  13.0190  13.0374
    13.3013  13.3174  13.4767  13.4777  13.8654  14.2285  14.2359  14.2407
    14.2540  14.4616  14.4685  14.8218  15.5531  15.5585  15.5700  16.1755
    16.1762  16.8962  17.1212  17.1222  17.3453  17.3921

          k = 0.0000 0.0000 0.1667 ( 62314 PWs)   bands (ev):

   -65.9618 -65.9614 -65.9610 -65.9608 -65.9605 -65.9604 -65.9599 -65.9595
   -30.4357 -30.4327 -30.4323 -30.4294 -30.3749 -30.3723 -30.3720 -30.3695
   -30.2986 -30.2946 -30.2940 -30.2921 -30.2900 -30.2883 -30.2868 -30.2831
   -30.2041 -30.2008 -30.1997 -30.1969 -30.1963 -30.1934 -30.1930 -30.1896
   -20.1197 -20.1194 -20.1194 -20.1192 -20.1143 -20.1140 -20.1139 -20.1137
   -20.1060 -20.1058 -20.1057 -20.1056 -20.1049 -20.1047 -20.1046 -20.1045
   -20.1041 -20.1040 -20.1040 -20.1038 -20.1036 -20.1035 -20.1033 -20.1032
   -20.1024 -20.1023 -20.1021 -20.1021 -20.1013 -20.1011 -20.1011 -20.1009
   -20.0849 -20.0847 -20.0846 -20.0845 -20.0844 -20.0844 -20.0842 -20.0841
   -20.0371 -20.0369 -20.0368 -20.0368 -20.0358 -20.0355 -20.0352 -20.0352
   -20.0318 -20.0318 -20.0313 -20.0311 -20.0303 -20.0302 -20.0300 -20.0298
    -9.8612  -9.5502  -9.4938  -9.4209  -9.1860  -9.0964  -9.0819  -8.9395
    -8.9223  -8.8506  -8.8307  -8.7906  -7.8614  -7.8273  -7.8202  -7.8044
    -7.7857  -7.7518  -7.6957  -7.6857  -7.6713  -7.6670  -7.5654  -7.5427
     1.3625   1.3626   1.3880   1.3959   1.4772   1.5154   1.6328   1.6415
     1.6464   1.7512   1.8968   2.0409   2.5526   2.5995   2.6354   2.6791
     2.7332   2.8325   4.1197   4.1914   4.4028   4.4289   4.4345   4.5533
     4.6883   4.8053   4.8325   4.9904   5.0007   5.0377   5.0666   5.3477
     5.3792   5.4278   5.5314   5.5536   5.5720   5.6120   5.6277   5.6815
     5.7623   5.8061   5.8261   5.9603   5.9834   6.1356   6.1617   6.1894
     6.3174   6.4755   6.5398   6.5784   6.6803   6.7119   6.7894   6.8531
     6.8656   6.8814   7.0037   7.0385   7.0505   7.1249   7.2307   7.2343
     7.2707   7.3300   7.8794   7.8829   8.0529   8.1079   8.1153   8.1580
     9.7384   9.7725  10.0541  10.0810  10.3150  10.3660  12.3043  12.3368
    12.3601  12.4278  12.4432  12.4759  12.5808  12.6789  13.0225  13.0576
    13.1297  13.3022  13.3781  13.4769  13.9856  14.1088  14.1128  14.2270
    14.2497  14.4622  14.5762  14.9316  15.5187  15.5898  15.6189  16.1481
    16.4850  16.8162  17.0672  17.3097  17.4337  17.4428

          k = 0.0000 0.0000 0.3333 ( 62310 PWs)   bands (ev):

   -65.9616 -65.9612 -65.9611 -65.9607 -65.9606 -65.9602 -65.9601 -65.9597
   -30.4352 -30.4335 -30.4318 -30.4301 -30.3746 -30.3730 -30.3717 -30.3701
   -30.2976 -30.2949 -30.2936 -30.2910 -30.2735 -30.2699 -30.2684 -30.2647
   -30.2227 -30.2193 -30.2181 -30.2147 -30.1961 -30.1939 -30.1926 -30.1904
   -20.1196 -20.1195 -20.1194 -20.1192 -20.1142 -20.1141 -20.1139 -20.1138
   -20.1059 -20.1058 -20.1053 -20.1051 -20.1048 -20.1047 -20.1043 -20.1042
   -20.1042 -20.1041 -20.1039 -20.1038 -20.1035 -20.1035 -20.1030 -20.1030
   -20.1028 -20.1028 -20.1022 -20.1020 -20.1018 -20.1015 -20.1010 -20.1010
   -20.0848 -20.0846 -20.0846 -20.0844 -20.0844 -20.0843 -20.0842 -20.0841
   -20.0368 -20.0366 -20.0360 -20.0358 -20.0358 -20.0358 -20.0342 -20.0342
   -20.0329 -20.0329 -20.0314 -20.0314 -20.0311 -20.0309 -20.0303 -20.0301
    -9.7507  -9.5447  -9.4257  -9.2933  -9.2300  -9.1244  -8.8845  -8.8434
    -8.8259  -8.7751  -8.7387  -8.6566  -8.1309  -8.1261  -8.0285  -8.0092
    -7.8366  -7.8144  -7.7852  -7.7610  -7.6670  -7.6429  -7.5921  -7.5690
     1.3663   1.3730   1.4129   1.4398   1.5826   1.5939   1.6163   1.6321
     2.3372   2.3688   2.5355   2.6137   2.6257   2.7270   2.8020   2.9029
     2.9231   3.0757   3.8231   3.8595   3.9237   4.0235   4.1932   4.3355
     4.3609   4.5521   4.6163   4.8013   4.8320   4.8798   5.0070   5.0123
     5.2039   5.2473   5.2563   5.3623   5.4924   5.5346   5.6250   5.6733
     5.7080   5.7521   5.7923   6.0078   6.0224   6.2320   6.3123   6.3248
     6.3490   6.3998   6.5414   6.5421   6.6020   6.6192   6.7233   6.7831
     6.8476   6.8940   6.9089   7.0435   7.0746   7.0784   7.1189   7.1727
     7.3485   7.3768   7.8149   7.8370   7.9294   7.9788   8.1419   8.1597
    10.0562  10.0746  10.4533  10.5264  10.9305  11.0414  11.9308  11.9774
    12.1501  12.5697  12.5729  12.5790  12.6212  12.6706  12.7751  12.9464
    13.0305  13.2073  13.2438  13.4842  13.7645  13.7828  14.1899  14.2230
    14.2965  14.4417  14.8873  15.2311  15.4084  15.7305  15.9851  16.0629
    16.2430  17.3191  17.4298  17.5853  17.6064  17.6801

          k = 0.0000 0.0000-0.5000 ( 62332 PWs)   bands (ev):

   -65.9614 -65.9614 -65.9610 -65.9610 -65.9604 -65.9604 -65.9600 -65.9600
   -30.4344 -30.4344 -30.4310 -30.4310 -30.3739 -30.3738 -30.3710 -30.3710
   -30.2963 -30.2963 -30.2923 -30.2923 -30.2481 -30.2481 -30.2446 -30.2446
   -30.2433 -30.2433 -30.2397 -30.2397 -30.1950 -30.1950 -30.1915 -30.1915
   -20.1196 -20.1196 -20.1193 -20.1193 -20.1142 -20.1142 -20.1139 -20.1139
   -20.1059 -20.1059 -20.1049 -20.1049 -20.1046 -20.1046 -20.1045 -20.1045
   -20.1041 -20.1041 -20.1037 -20.1037 -20.1033 -20.1033 -20.1032 -20.1032
   -20.1026 -20.1026 -20.1025 -20.1025 -20.1019 -20.1019 -20.1010 -20.1010
   -20.0847 -20.0847 -20.0845 -20.0845 -20.0843 -20.0843 -20.0842 -20.0842
   -20.0364 -20.0364 -20.0362 -20.0362 -20.0344 -20.0344 -20.0343 -20.0343
   -20.0328 -20.0328 -20.0328 -20.0328 -20.0307 -20.0307 -20.0305 -20.0305
    -9.6324  -9.6324  -9.3079  -9.3079  -9.1841  -9.1841  -8.8610  -8.8610
    -8.4930  -8.4930  -8.4730  -8.4730  -8.4469  -8.4469  -8.3793  -8.3793
    -7.8275  -7.8275  -7.7734  -7.7734  -7.6291  -7.6291  -7.6056  -7.6056
     1.3706   1.3706   1.4328   1.4328   1.5998   1.5998   1.6229   1.6229
     2.6596   2.6596   3.0374   3.0374   3.1869   3.1869   3.1930   3.1931
     3.3437   3.3437   3.4162   3.4162   3.5383   3.5383   3.8273   3.8273
     3.9205   3.9205   4.4882   4.4882   4.7557   4.7557   4.9314   4.9314
     5.2645   5.2645   5.3900   5.3900   5.3943   5.3943   5.6687   5.6687
     5.7510   5.7510   5.9352   5.9352   6.2210   6.2210   6.2767   6.2767
     6.3918   6.3918   6.4820   6.4820   6.4987   6.4987   6.5771   6.5771
     6.8225   6.8225   6.8519   6.8520   7.0988   7.0988   7.5384   7.5384
     7.6081   7.6081   7.7151   7.7151   7.7295   7.7295   8.1574   8.1574
    10.0653  10.0653  11.2478  11.2478  11.3202  11.3202  11.6265  11.6265
    11.8408  11.8408  12.6226  12.6226  12.7962  12.7962  12.8989  12.8989
    13.0045  13.0045  13.3446  13.3446  13.5370  13.5370  14.2165  14.2165
    14.3967  14.3967  15.2010  15.2010  15.6798  15.6798  15.9188  15.9188
    16.7191  16.7191  17.7708  17.7708  18.0244  18.0244

          k = 0.0000 0.1578 0.0000 ( 62311 PWs)   bands (ev):

   -65.9619 -65.9615 -65.9609 -65.9609 -65.9605 -65.9605 -65.9599 -65.9595
   -30.4318 -30.4284 -30.4284 -30.4251 -30.3791 -30.3761 -30.3761 -30.3732
   -30.2993 -30.2983 -30.2956 -30.2949 -30.2935 -30.2934 -30.2900 -30.2898
   -30.1971 -30.1971 -30.1941 -30.1939 -30.1931 -30.1923 -30.1900 -30.1892
   -20.1193 -20.1191 -20.1191 -20.1188 -20.1146 -20.1143 -20.1143 -20.1140
   -20.1060 -20.1057 -20.1057 -20.1057 -20.1050 -20.1048 -20.1047 -20.1047
   -20.1040 -20.1040 -20.1040 -20.1038 -20.1036 -20.1035 -20.1034 -20.1033
   -20.1022 -20.1021 -20.1020 -20.1020 -20.1012 -20.1011 -20.1011 -20.1009
   -20.0849 -20.0847 -20.0845 -20.0845 -20.0844 -20.0844 -20.0842 -20.0841
   -20.0372 -20.0371 -20.0371 -20.0370 -20.0357 -20.0356 -20.0356 -20.0354
   -20.0314 -20.0314 -20.0314 -20.0312 -20.0299 -20.0298 -20.0298 -20.0297
    -9.8758  -9.6161  -9.4370  -9.4370  -9.1797  -9.1794  -9.0139  -8.9759
    -8.9649  -8.8210  -8.7911  -8.7911  -7.9561  -7.9006  -7.9004  -7.8556
    -7.7067  -7.7049  -7.6833  -7.6810  -7.5545  -7.5543  -7.5348  -7.5347
     1.2990   1.2991   1.3752   1.3756   1.3889   1.3895   1.5546   1.7228
     1.8226   1.8744   1.8748   2.0638   2.4714   2.5385   2.6608   2.6635
     2.8103   2.8108   4.0520   4.0528   4.1339   4.1349   4.8156   4.9045
     4.9241   4.9265   4.9279   4.9440   4.9452   4.9887   4.9891   5.2952
     5.2959   5.4909   5.4913   5.6188   5.6516   5.6595   5.6716   5.6719
     5.8351   5.8358   5.8994   5.8999   5.9855   6.1038   6.1048   6.1977
     6.1984   6.2928   6.2937   6.6119   6.6123   6.8525   6.8533   6.8591
     6.8934   6.8969   6.9178   7.0346   7.0348   7.0420   7.4607   7.4614
     7.4941   7.4948   7.8676   7.8770   8.0502   8.0511   8.0746   8.0774
     9.3993   9.4040  10.2516  10.2517  10.2548  10.2549  12.2371  12.2386
    12.4013  12.4020  12.4194  12.4235  12.4524  12.4533  13.0217  13.0372
    13.3371  13.3508  13.4834  13.4842  14.1032  14.1413  14.1476  14.1504
    14.2344  14.7333  14.7355  15.0011  15.5588  15.5684  15.9540  16.1409
    16.1415  16.5467  17.2537  17.2546  17.4041  17.4831

          k = 0.0000 0.1578 0.1667 ( 62294 PWs)   bands (ev):

   -65.9618 -65.9614 -65.9609 -65.9608 -65.9606 -65.9604 -65.9599 -65.9596
   -30.4317 -30.4287 -30.4283 -30.4254 -30.3790 -30.3764 -30.3760 -30.3735
   -30.2984 -30.2948 -30.2938 -30.2919 -30.2902 -30.2885 -30.2867 -30.2833
   -30.2040 -30.2009 -30.1995 -30.1968 -30.1964 -30.1936 -30.1929 -30.1897
   -20.1193 -20.1191 -20.1190 -20.1188 -20.1146 -20.1143 -20.1143 -20.1141
   -20.1059 -20.1057 -20.1056 -20.1055 -20.1049 -20.1048 -20.1047 -20.1046
   -20.1040 -20.1040 -20.1040 -20.1038 -20.1036 -20.1035 -20.1033 -20.1032
   -20.1023 -20.1023 -20.1020 -20.1020 -20.1013 -20.1012 -20.1011 -20.1010
   -20.0848 -20.0847 -20.0846 -20.0845 -20.0844 -20.0844 -20.0842 -20.0841
   -20.0371 -20.0369 -20.0368 -20.0368 -20.0358 -20.0355 -20.0352 -20.0352
   -20.0318 -20.0318 -20.0313 -20.0311 -20.0303 -20.0302 -20.0300 -20.0298
    -9.8289  -9.5622  -9.4537  -9.3758  -9.1941  -9.0900  -9.0222  -8.9371
    -8.9232  -8.8089  -8.7956  -8.7604  -7.9552  -7.9096  -7.8988  -7.8617
    -7.8264  -7.8031  -7.6943  -7.6845  -7.6728  -7.6661  -7.5640  -7.5442
     1.3802   1.3810   1.3881   1.3960   1.5978   1.6427   1.6467   1.8322
     1.8701   1.8961   1.9040   2.1371   2.5589   2.6294   2.6714   2.7533
     2.8022   2.9006   4.0187   4.0709   4.1258   4.1704   4.4659   4.5509
     4.7227   4.7346   4.8126   4.9043   4.9792   4.9873   5.0086   5.2529
     5.2893   5.3176   5.3619   5.5172   5.6118   5.6248   5.6675   5.7002
     5.7476   5.8019   5.8345   5.8655   5.9139   6.1626   6.1774   6.1880
     6.2601   6.4617   6.5166   6.6011   6.7259   6.7926   6.8084   6.8393
     6.8736   6.9077   6.9836   7.0010   7.0419   7.0516   7.2307   7.2342
     7.2850   7.3294   7.8819   7.8825   8.0122   8.0390   8.0515   8.0770
     9.7446   9.7713  10.2524  10.2561  10.4824  10.5059  12.2189  12.3177
    12.3202  12.3560  12.4232  12.4280  12.4534  12.5702  13.0251  13.0668
    13.1594  13.3348  13.3839  13.4814  13.9923  14.0216  14.1283  14.1455
    14.3416  14.7299  14.8754  15.0959  15.5890  15.6186  15.9199  16.1139
    16.4481  16.6981  16.9385  17.4225  17.4887  17.5545

          k = 0.0000 0.1578 0.3333 ( 62326 PWs)   bands (ev):

   -65.9616 -65.9612 -65.9611 -65.9607 -65.9606 -65.9602 -65.9601 -65.9597
   -30.4312 -30.4294 -30.4278 -30.4261 -30.3786 -30.3771 -30.3757 -30.3742
   -30.2974 -30.2948 -30.2938 -30.2912 -30.2733 -30.2700 -30.2682 -30.2649
   -30.2226 -30.2195 -30.2180 -30.2148 -30.1960 -30.1937 -30.1928 -30.1906
   -20.1193 -20.1191 -20.1190 -20.1189 -20.1146 -20.1144 -20.1143 -20.1141
   -20.1059 -20.1058 -20.1052 -20.1051 -20.1048 -20.1048 -20.1044 -20.1042
   -20.1042 -20.1042 -20.1040 -20.1038 -20.1036 -20.1035 -20.1030 -20.1030
   -20.1028 -20.1027 -20.1022 -20.1020 -20.1019 -20.1016 -20.1011 -20.1011
   -20.0848 -20.0846 -20.0846 -20.0845 -20.0844 -20.0843 -20.0842 -20.0841
   -20.0368 -20.0366 -20.0360 -20.0358 -20.0358 -20.0358 -20.0342 -20.0342
   -20.0329 -20.0329 -20.0314 -20.0314 -20.0311 -20.0309 -20.0303 -20.0301
    -9.7153  -9.5052  -9.4372  -9.2388  -9.2347  -9.0507  -8.8599  -8.8345
    -8.8080  -8.7767  -8.7223  -8.6398  -8.1365  -8.1266  -8.0521  -8.0076
    -7.9240  -7.9079  -7.8832  -7.8533  -7.6656  -7.6445  -7.5907  -7.5706
     1.3927   1.4129   1.4154   1.4398   1.7632   1.7858   1.8652   1.8697
     2.3356   2.3783   2.5400   2.6293   2.6971   2.7866   2.8129   2.9000
     2.9992   3.1368   3.8219   3.8600   3.9181   3.9691   4.1456   4.1858
     4.2525   4.3762   4.6346   4.7539   4.8246   4.8430   4.8567   4.8991
     5.0386   5.1696   5.2029   5.2438   5.3873   5.4561   5.5480   5.6219
     5.7058   5.7446   5.7909   5.8411   6.0051   6.1852   6.2701   6.3137
     6.3698   6.5616   6.5790   6.6173   6.6809   6.6860   6.7575   6.8384
     6.8481   6.8603   6.9665   6.9956   7.0336   7.0723   7.1100   7.1613
     7.3409   7.3707   7.8184   7.8349   7.8944   7.9196   8.0698   8.0797
    10.2510  10.2549  10.4635  10.5269  11.0456  11.1315  11.9326  11.9749
    12.1129  12.4360  12.5389  12.5661  12.6049  12.6357  12.7265  12.8424
    13.0187  13.2105  13.2636  13.4798  13.6676  13.6922  14.1323  14.1414
    14.5656  14.7114  15.2329  15.3680  15.7188  15.8101  16.0004  16.0307
    16.3682  17.1374  17.2737  17.4813  17.7217  17.8033

          k = 0.0000 0.1578-0.5000 ( 62314 PWs)   bands (ev):

   -65.9614 -65.9614 -65.9610 -65.9610 -65.9604 -65.9604 -65.9600 -65.9600
   -30.4304 -30.4304 -30.4270 -30.4270 -30.3779 -30.3779 -30.3750 -30.3750
   -30.2961 -30.2961 -30.2925 -30.2925 -30.2480 -30.2480 -30.2448 -30.2448
   -30.2431 -30.2431 -30.2399 -30.2399 -30.1948 -30.1948 -30.1917 -30.1917
   -20.1192 -20.1192 -20.1190 -20.1190 -20.1145 -20.1145 -20.1142 -20.1142
   -20.1058 -20.1058 -20.1049 -20.1049 -20.1045 -20.1045 -20.1045 -20.1045
   -20.1041 -20.1041 -20.1037 -20.1037 -20.1033 -20.1033 -20.1032 -20.1032
   -20.1026 -20.1026 -20.1025 -20.1025 -20.1019 -20.1019 -20.1011 -20.1011
   -20.0847 -20.0847 -20.0845 -20.0845 -20.0843 -20.0843 -20.0842 -20.0842
   -20.0364 -20.0364 -20.0362 -20.0362 -20.0344 -20.0344 -20.0343 -20.0343
   -20.0328 -20.0328 -20.0328 -20.0328 -20.0307 -20.0307 -20.0305 -20.0305
    -9.5944  -9.5944  -9.3180  -9.3180  -9.1139  -9.1139  -8.8267  -8.8267
    -8.4967  -8.4967  -8.4690  -8.4690  -8.4571  -8.4571  -8.3741  -8.3741
    -7.9212  -7.9212  -7.8721  -7.8721  -7.6277  -7.6277  -7.6071  -7.6071
     1.4077   1.4077   1.4328   1.4328   1.7845   1.7845   1.8731   1.8731
     2.7284   2.7284   3.0555   3.0555   3.1844   3.1844   3.2368   3.2368
     3.3495   3.3495   3.4136   3.4136   3.5262   3.5262   3.8255   3.8256
     3.9675   3.9675   4.2829   4.2829   4.6736   4.6736   4.7592   4.7592
     5.0831   5.0832   5.3562   5.3562   5.3608   5.3608   5.5125   5.5126
     5.7093   5.7093   5.8171   5.8171   6.2231   6.2231   6.3538   6.3538
     6.4180   6.4180   6.5031   6.5031   6.5669   6.5669   6.6734   6.6734
     6.8757   6.8757   6.8799   6.8799   7.0151   7.0152   7.5471   7.5471
     7.6019   7.6020   7.6861   7.6861   7.7028   7.7028   8.0796   8.0796
    10.2551  10.2551  11.2539  11.2540  11.3176  11.3176  11.6913  11.6913
    11.9012  11.9012  12.4918  12.4918  12.7683  12.7683  12.9067  12.9067
    12.9461  12.9461  13.2485  13.2485  13.5049  13.5049  14.1365  14.1365
    14.6712  14.6712  15.5678  15.5678  15.8259  15.8259  15.8932  15.8932
    16.7581  16.7581  17.5788  17.5788  18.0411  18.1114

          k = 0.0000 0.3156 0.0000 ( 62279 PWs)   bands (ev):

   -65.9618 -65.9616 -65.9608 -65.9608 -65.9606 -65.9606 -65.9598 -65.9596
   -30.4207 -30.4174 -30.4174 -30.4142 -30.3903 -30.3872 -30.3872 -30.3843
   -30.2987 -30.2979 -30.2960 -30.2954 -30.2930 -30.2929 -30.2905 -30.2903
   -30.1968 -30.1967 -30.1944 -30.1942 -30.1927 -30.1921 -30.1902 -30.1896
   -20.1184 -20.1181 -20.1181 -20.1178 -20.1156 -20.1153 -20.1153 -20.1150
   -20.1058 -20.1056 -20.1056 -20.1055 -20.1052 -20.1050 -20.1049 -20.1048
   -20.1040 -20.1040 -20.1040 -20.1038 -20.1036 -20.1035 -20.1034 -20.1033
   -20.1020 -20.1019 -20.1019 -20.1018 -20.1014 -20.1013 -20.1013 -20.1012
   -20.0849 -20.0847 -20.0845 -20.0845 -20.0844 -20.0844 -20.0842 -20.0841
   -20.0372 -20.0371 -20.0371 -20.0370 -20.0356 -20.0356 -20.0356 -20.0354
   -20.0314 -20.0314 -20.0314 -20.0312 -20.0299 -20.0298 -20.0298 -20.0297
    -9.8000  -9.6532  -9.3447  -9.3445  -9.2059  -9.2057  -8.9735  -8.9672
    -8.8044  -8.6816  -8.6699  -8.6699  -8.1979  -8.1512  -8.1511  -8.1275
    -7.7021  -7.7001  -7.6881  -7.6860  -7.5507  -7.5506  -7.5388  -7.5386
     1.2990   1.2991   1.3840   1.3845   1.3890   1.3896   1.6826   1.7198
     2.3836   2.4852   2.5240   2.5319   2.5323   2.7001   2.8732   2.8774
     3.0104   3.0113   3.6553   3.6568   3.7052   3.7063   4.1566   4.4771
     4.4779   4.7503   4.9326   4.9343   4.9572   4.9589   5.0448   5.0455
     5.0733   5.0747   5.3927   5.3932   5.5994   5.6001   5.7315   5.7321
     5.8841   5.8843   5.9401   5.9413   6.0975   6.0981   6.1006   6.2136
     6.2152   6.2734   6.2749   6.5490   6.6749   6.6753   6.8938   6.8941
     6.9453   7.0173   7.1002   7.1006   7.1159   7.1162   7.4701   7.4705
     7.4953   7.4958   7.8341   7.8361   7.8736   7.8736   7.8741   7.8769
     9.4002   9.4030  10.7113  10.7120  10.7561  10.7577  11.8608  11.8623
    11.9905  11.9938  12.4252  12.4262  12.4492  12.4500  13.0274  13.0359
    13.4498  13.4587  13.5454  13.5461  13.9016  13.9048  13.9329  13.9340
    14.7905  15.3111  15.3115  15.5597  15.5649  15.6448  15.9595  16.0235
    16.0239  16.9521  17.2539  17.5811  17.7091  17.7099

          k = 0.0000 0.3156 0.1667 ( 62315 PWs)   bands (ev):

   -65.9617 -65.9615 -65.9609 -65.9607 -65.9606 -65.9605 -65.9599 -65.9596
   -30.4206 -30.4177 -30.4173 -30.4145 -30.3902 -30.3875 -30.3871 -30.3845
   -30.2980 -30.2953 -30.2933 -30.2915 -30.2907 -30.2890 -30.2862 -30.2837
   -30.2036 -30.2013 -30.1992 -30.1968 -30.1964 -30.1939 -30.1926 -30.1901
   -20.1184 -20.1181 -20.1181 -20.1178 -20.1156 -20.1154 -20.1153 -20.1151
   -20.1058 -20.1056 -20.1054 -20.1054 -20.1051 -20.1049 -20.1048 -20.1047
   -20.1040 -20.1040 -20.1040 -20.1039 -20.1036 -20.1035 -20.1034 -20.1033
   -20.1021 -20.1021 -20.1019 -20.1018 -20.1015 -20.1014 -20.1013 -20.1012
   -20.0848 -20.0847 -20.0846 -20.0845 -20.0844 -20.0844 -20.0842 -20.0841
   -20.0371 -20.0369 -20.0368 -20.0368 -20.0358 -20.0355 -20.0352 -20.0352
   -20.0318 -20.0318 -20.0313 -20.0311 -20.0303 -20.0302 -20.0300 -20.0298
    -9.7502  -9.5996  -9.3615  -9.2712  -9.2210  -9.1173  -8.9332  -8.9257
    -8.8125  -8.6745  -8.6742  -8.6514  -8.1979  -8.1583  -8.1476  -8.1330
    -7.8224  -7.8093  -7.6905  -7.6809  -7.6770  -7.6689  -7.5602  -7.5482
     1.3855   1.3883   1.3906   1.3961   1.6353   1.6455   1.8427   1.8925
     2.3859   2.5094   2.5329   2.5739   2.6144   2.6912   2.8834   2.9792
     3.0033   3.1083   3.6587   3.6951   3.7022   3.7483   4.1493   4.4444
     4.4926   4.5017   4.5719   4.7542   4.7772   4.8881   4.9816   4.9926
     5.0461   5.0933   5.1895   5.3321   5.4338   5.4975   5.6074   5.6604
     5.7153   5.8289   5.8388   5.8634   6.0847   6.1598   6.1794   6.2089
     6.2724   6.4767   6.4861   6.6087   6.6641   6.8767   6.9070   6.9524
     6.9903   7.0073   7.0872   7.0934   7.1103   7.1280   7.2321   7.2348
     7.3128   7.3329   7.8119   7.8361   7.8390   7.8572   7.8877   7.8887
     9.7548   9.7680  10.7169  10.7567  10.8969  10.9254  11.8610  11.9579
    11.9943  12.0706  12.3332  12.3520  12.4766  12.5082  13.0376  13.0716
    13.2710  13.4250  13.4502  13.5408  13.7516  13.8035  13.9023  13.9293
    14.9327  15.3027  15.5163  15.5842  15.6190  15.7127  15.9979  16.1215
    16.3214  16.9152  17.3178  17.3344  17.6524  17.8233

          k = 0.0000 0.3156 0.3333 ( 62338 PWs)   bands (ev):

   -65.9615 -65.9613 -65.9610 -65.9608 -65.9605 -65.9603 -65.9600 -65.9598
   -30.4201 -30.4184 -30.4169 -30.4152 -30.3898 -30.3882 -30.3868 -30.3852
   -30.2970 -30.2943 -30.2943 -30.2916 -30.2729 -30.2705 -30.2678 -30.2654
   -30.2222 -30.2199 -30.2176 -30.2152 -30.1956 -30.1934 -30.1931 -30.1909
   -20.1183 -20.1182 -20.1180 -20.1179 -20.1156 -20.1155 -20.1153 -20.1152
   -20.1057 -20.1056 -20.1051 -20.1049 -20.1049 -20.1049 -20.1045 -20.1043
   -20.1042 -20.1041 -20.1040 -20.1038 -20.1036 -20.1035 -20.1031 -20.1030
   -20.1026 -20.1026 -20.1021 -20.1020 -20.1019 -20.1017 -20.1013 -20.1013
   -20.0848 -20.0846 -20.0846 -20.0845 -20.0844 -20.0843 -20.0842 -20.0841
   -20.0368 -20.0366 -20.0360 -20.0358 -20.0358 -20.0358 -20.0342 -20.0342
   -20.0329 -20.0329 -20.0314 -20.0314 -20.0311 -20.0309 -20.0303 -20.0301
    -9.6300  -9.4737  -9.4134  -9.2678  -9.0881  -8.8662  -8.8429  -8.8142
    -8.7819  -8.6881  -8.6359  -8.5727  -8.2279  -8.2161  -8.1499  -8.1377
    -8.1211  -8.0701  -8.0019  -7.9677  -7.6616  -7.6488  -7.5868  -7.5746
     1.4064   1.4129   1.4329   1.4398   2.2388   2.3289   2.3368   2.4106
     2.5286   2.5428   2.5466   2.7836   2.8442   2.8722   2.9066   2.9926
     3.2291   3.3275   3.6474   3.6652   3.7728   3.7934   3.9020   3.9167
     4.1289   4.3101   4.4093   4.4252   4.5163   4.5987   4.6809   4.8369
     4.8462   4.8490   5.0045   5.0681   5.2106   5.2365   5.2504   5.3937
     5.4097   5.6356   5.6552   5.8195   6.1872   6.2537   6.2733   6.3174
     6.4501   6.6264   6.6763   6.7205   6.7589   6.8323   6.8638   6.8884
     6.9396   6.9916   7.0472   7.0740   7.0910   7.1712   7.1860   7.2076
     7.3113   7.3551   7.7372   7.7518   7.8111   7.8268   7.8460   7.8725
    10.4833  10.5058  10.7346  10.7548  11.3572  11.4035  11.8480  11.9360
    11.9678  12.0281  12.2545  12.3001  12.6389  12.7030  12.7174  12.7682
    12.9663  13.2205  13.2485  13.4626  13.5347  13.5526  13.9061  13.9232
    15.1339  15.2743  15.6659  15.8973  15.9207  16.0302  16.0953  16.6270
    16.7692  16.7878  17.1171  17.5612  17.6733  17.7642

          k = 0.0000 0.3156-0.5000 ( 62354 PWs)   bands (ev):

   -65.9613 -65.9613 -65.9611 -65.9611 -65.9603 -65.9603 -65.9601 -65.9601
   -30.4194 -30.4194 -30.4161 -30.4161 -30.3891 -30.3891 -30.3861 -30.3861
   -30.2956 -30.2956 -30.2930 -30.2930 -30.2476 -30.2476 -30.2452 -30.2452
   -30.2427 -30.2427 -30.2403 -30.2403 -30.1945 -30.1945 -30.1920 -30.1920
   -20.1183 -20.1183 -20.1180 -20.1180 -20.1155 -20.1155 -20.1153 -20.1153
   -20.1057 -20.1057 -20.1049 -20.1049 -20.1045 -20.1045 -20.1044 -20.1044
   -20.1042 -20.1042 -20.1038 -20.1038 -20.1033 -20.1033 -20.1032 -20.1031
   -20.1026 -20.1026 -20.1026 -20.1026 -20.1018 -20.1018 -20.1013 -20.1013
   -20.0847 -20.0847 -20.0845 -20.0845 -20.0843 -20.0843 -20.0842 -20.0842
   -20.0364 -20.0364 -20.0362 -20.0362 -20.0344 -20.0344 -20.0343 -20.0343
   -20.0328 -20.0328 -20.0328 -20.0328 -20.0307 -20.0307 -20.0305 -20.0305
    -9.5042  -9.5042  -9.3508  -9.3508  -8.9199  -8.9199  -8.7178  -8.7178
    -8.5131  -8.5131  -8.5046  -8.5046  -8.4508  -8.4508  -8.3543  -8.3543
    -8.1481  -8.1481  -8.1060  -8.1060  -7.6238  -7.6238  -7.6113  -7.6113
     1.4254   1.4254   1.4328   1.4328   2.3879   2.3879   2.5259   2.5259
     2.9276   2.9276   3.1062   3.1062   3.1581   3.1581   3.3367   3.3367
     3.3821   3.3821   3.4078   3.4078   3.4780   3.4780   3.6720   3.6720
     4.0939   4.0939   4.1250   4.1250   4.1537   4.1537   4.3803   4.3803
     4.8240   4.8240   4.9256   4.9256   5.1298   5.1298   5.3279   5.3279
     5.4846   5.4846   5.7373   5.7373   6.3511   6.3511   6.4200   6.4200
     6.5084   6.5084   6.5624   6.5624   6.5783   6.5783   6.7913   6.7913
     7.0554   7.0554   7.0705   7.0705   7.1116   7.1116   7.5406   7.5406
     7.5759   7.5759   7.5904   7.5904   7.6327   7.6327   7.8556   7.8556
    10.7388  10.7388  11.2690  11.2690  11.3106  11.3106  11.7642  11.7642
    12.0861  12.0861  12.2189  12.2189  12.6354  12.6354  12.7195  12.7195
    12.9288  12.9288  13.0634  13.0634  13.5266  13.5266  13.9150  13.9150
    15.2225  15.2225  15.7991  15.7991  16.2622  16.2622  16.5129  16.5129
    16.9249  16.9249  17.2069  17.2069  17.9653  17.9653

          k = 0.0000-0.4734 0.0000 ( 62236 PWs)   bands (ev):

   -65.9617 -65.9616 -65.9607 -65.9607 -65.9606 -65.9606 -65.9597 -65.9596
   -30.4056 -30.4055 -30.4025 -30.4024 -30.4023 -30.4022 -30.3993 -30.3992
   -30.2980 -30.2980 -30.2961 -30.2960 -30.2927 -30.2926 -30.2908 -30.2906
   -30.1966 -30.1965 -30.1947 -30.1944 -30.1922 -30.1922 -30.1901 -30.1900
   -20.1171 -20.1170 -20.1168 -20.1168 -20.1167 -20.1167 -20.1165 -20.1164
   -20.1056 -20.1055 -20.1055 -20.1054 -20.1052 -20.1051 -20.1051 -20.1049
   -20.1040 -20.1040 -20.1039 -20.1038 -20.1036 -20.1035 -20.1035 -20.1033
   -20.1018 -20.1017 -20.1017 -20.1016 -20.1016 -20.1015 -20.1015 -20.1014
   -20.0849 -20.0847 -20.0845 -20.0845 -20.0844 -20.0844 -20.0842 -20.0841
   -20.0372 -20.0371 -20.0371 -20.0370 -20.0356 -20.0356 -20.0356 -20.0354
   -20.0314 -20.0314 -20.0314 -20.0312 -20.0299 -20.0298 -20.0298 -20.0297
    -9.7168  -9.7168  -9.2612  -9.2610  -9.2564  -9.2561  -8.9704  -8.9704
    -8.5041  -8.5040  -8.4428  -8.4427  -8.4423  -8.4422  -8.4422  -8.4421
    -7.6965  -7.6963  -7.6920  -7.6917  -7.5469  -7.5468  -7.5426  -7.5424
     1.2990   1.2990   1.3858   1.3863   1.3891   1.3898   1.7112   1.7112
     2.5044   2.5044   3.1909   3.1912   3.2162   3.2168   3.2690   3.2691
     3.3062   3.3072   3.3239   3.3252   3.4717   3.4732   3.4875   3.4889
     3.6795   3.6796   4.9428   4.9432   4.9443   4.9446   5.2168   5.2185
     5.2193   5.2210   5.3236   5.3237   5.3244   5.3246   5.7925   5.7930
     5.7939   5.7945   6.0538   6.0541   6.0626   6.0629   6.2352   6.2365
     6.2413   6.2427   6.2955   6.2956   6.7674   6.7678   6.7750   6.7754
     6.9821   6.9821   7.4463   7.4465   7.4496   7.4498   7.4735   7.4736
     7.4776   7.4776   7.5660   7.5662   7.5673   7.5676   7.8739   7.8739
     9.4015   9.4016  11.3010  11.3023  11.3063  11.3074  11.3877  11.3887
    11.3938  11.3948  12.4368  12.4376  12.4451  12.4461  13.0326  13.0327
    13.6443  13.6450  13.6511  13.6520  13.7030  13.7037  13.7039  13.7044
    15.3604  15.3604  15.5617  15.5618  15.7700  15.7702  15.7765  15.7767
    16.5552  16.5553  17.8730  17.8730  18.1757  18.1765

          k = 0.0000-0.4734 0.1667 ( 62346 PWs)   bands (ev):

   -65.9617 -65.9616 -65.9608 -65.9607 -65.9607 -65.9606 -65.9598 -65.9597
   -30.4055 -30.4054 -30.4028 -30.4025 -30.4023 -30.4022 -30.3996 -30.3995
   -30.2976 -30.2956 -30.2930 -30.2911 -30.2910 -30.2893 -30.2859 -30.2841
   -30.2034 -30.2015 -30.1989 -30.1970 -30.1962 -30.1941 -30.1923 -30.1903
   -20.1171 -20.1170 -20.1168 -20.1168 -20.1167 -20.1167 -20.1165 -20.1164
   -20.1056 -20.1055 -20.1053 -20.1052 -20.1050 -20.1050 -20.1049 -20.1049
   -20.1040 -20.1040 -20.1040 -20.1039 -20.1035 -20.1035 -20.1034 -20.1033
   -20.1020 -20.1019 -20.1017 -20.1017 -20.1016 -20.1016 -20.1016 -20.1015
   -20.0848 -20.0847 -20.0845 -20.0845 -20.0844 -20.0844 -20.0842 -20.0841
   -20.0371 -20.0369 -20.0368 -20.0368 -20.0358 -20.0355 -20.0352 -20.0352
   -20.0318 -20.0318 -20.0313 -20.0311 -20.0303 -20.0302 -20.0300 -20.0298
    -9.6647  -9.6641  -9.2773  -9.2724  -9.1767  -9.1720  -8.9295  -8.9291
    -8.5098  -8.5097  -8.4484  -8.4478  -8.4405  -8.4405  -8.4350  -8.4345
    -7.8182  -7.8137  -7.6867  -7.6812  -7.6774  -7.6721  -7.5565  -7.5520
     1.3860   1.3885   1.3926   1.3961   1.6413   1.6446   1.8808   1.8830
     2.5943   2.5943   3.1950   3.2044   3.2222   3.2313   3.2658   3.2689
     3.3055   3.3173   3.3467   3.3640   3.4703   3.4867   3.5292   3.5403
     3.7091   3.7094   4.5291   4.5297   4.9561   4.9718   4.9936   5.0099
     5.1399   5.1401   5.2047   5.2059   5.3372   5.3384   5.5275   5.5304
     5.7670   5.7679   5.8412   5.8424   6.1627   6.1724   6.1935   6.1943
     6.4164   6.4190   6.4763   6.4872   6.7560   6.7638   6.9374   6.9445
     7.0402   7.0414   7.2274   7.2318   7.2698   7.2768   7.4598   7.4635
     7.4815   7.4845   7.5161   7.5192   7.5414   7.5432   7.8845   7.8847
     9.7618   9.7633  11.3073  11.3123  11.3818  11.3863  11.4330  11.4366
    11.5111  11.5169  12.3403  12.3477  12.4895  12.4975  13.0596  13.0597
    13.4667  13.4690  13.5701  13.5753  13.6543  13.6604  13.6990  13.6998
    15.4518  15.4574  15.6585  15.6634  15.7509  15.7577  16.0403  16.0459
    16.6196  16.6199  17.8301  17.8321  17.9182  18.1418

          k = 0.0000-0.4734 0.3333 ( 62322 PWs)   bands (ev):

   -65.9615 -65.9614 -65.9610 -65.9609 -65.9605 -65.9604 -65.9600 -65.9599
   -30.4051 -30.4049 -30.4035 -30.4032 -30.4019 -30.4018 -30.4003 -30.4002
   -30.2966 -30.2946 -30.2940 -30.2920 -30.2726 -30.2708 -30.2675 -30.2656
   -30.2220 -30.2201 -30.2174 -30.2154 -30.1954 -30.1933 -30.1932 -30.1911
   -20.1170 -20.1169 -20.1169 -20.1168 -20.1167 -20.1166 -20.1166 -20.1165
   -20.1056 -20.1055 -20.1050 -20.1050 -20.1049 -20.1048 -20.1046 -20.1043
   -20.1042 -20.1041 -20.1040 -20.1038 -20.1036 -20.1034 -20.1032 -20.1030
   -20.1025 -20.1024 -20.1022 -20.1021 -20.1016 -20.1016 -20.1016 -20.1015
   -20.0848 -20.0846 -20.0846 -20.0845 -20.0844 -20.0843 -20.0842 -20.0841
   -20.0368 -20.0366 -20.0360 -20.0358 -20.0358 -20.0358 -20.0342 -20.0342
   -20.0329 -20.0329 -20.0314 -20.0314 -20.0311 -20.0309 -20.0303 -20.0301
    -9.5405  -9.5383  -9.3270  -9.3225  -8.9453  -8.9411  -8.7929  -8.7913
    -8.5406  -8.5403  -8.4696  -8.4691  -8.4297  -8.4295  -8.4044  -8.4035
    -8.1126  -8.1084  -7.9940  -7.9899  -7.6575  -7.6530  -7.5830  -7.5785
     1.4091   1.4129   1.4357   1.4398   2.3177   2.3207   2.5165   2.5194
     2.8549   2.8550   3.2000   3.2232   3.2358   3.2528   3.2532   3.2697
     3.2959   3.2967   3.4227   3.4411   3.4607   3.4813   3.6986   3.7018
     3.7823   3.7833   3.9019   3.9035   4.5025   4.5026   4.6701   4.6713
     4.8218   4.8265   4.8978   4.9025   5.2576   5.2591   5.2658   5.2675
     5.3949   5.3981   5.6942   5.6946   6.2557   6.2567   6.3063   6.3183
     6.5572   6.5610   6.7157   6.7281   6.7567   6.7691   6.9031   6.9114
     7.0496   7.0555   7.2033   7.2089   7.2107   7.2135   7.4419   7.4470
     7.4761   7.4796   7.5039   7.5077   7.5139   7.5165   7.8336   7.8337
    10.4981  10.5012  11.3224  11.3271  11.3630  11.3679  11.8141  11.8175
    11.8597  11.8647  11.9566  11.9622  12.6599  12.6665  12.8405  12.8415
    12.9966  12.9988  13.3032  13.3074  13.6655  13.6662  13.6917  13.6932
    15.5023  15.5092  15.6911  15.6977  16.2192  16.2244  16.7492  16.7530
    16.8533  16.8548  17.3204  17.3204  17.9708  17.9721

          k = 0.0000-0.4734-0.5000 ( 62332 PWs)   bands (ev):

   -65.9612 -65.9612 -65.9611 -65.9611 -65.9602 -65.9602 -65.9601 -65.9601
   -30.4043 -30.4043 -30.4041 -30.4041 -30.4012 -30.4012 -30.4011 -30.4011
   -30.2953 -30.2953 -30.2933 -30.2933 -30.2473 -30.2473 -30.2455 -30.2455
   -30.2425 -30.2425 -30.2405 -30.2405 -30.1943 -30.1943 -30.1922 -30.1922
   -20.1170 -20.1170 -20.1169 -20.1169 -20.1167 -20.1167 -20.1166 -20.1166
   -20.1056 -20.1056 -20.1050 -20.1050 -20.1045 -20.1045 -20.1043 -20.1043
   -20.1042 -20.1042 -20.1038 -20.1038 -20.1032 -20.1032 -20.1031 -20.1031
   -20.1027 -20.1027 -20.1026 -20.1026 -20.1016 -20.1016 -20.1015 -20.1015
   -20.0847 -20.0847 -20.0845 -20.0845 -20.0843 -20.0843 -20.0842 -20.0842
   -20.0364 -20.0364 -20.0362 -20.0362 -20.0344 -20.0344 -20.0344 -20.0343
   -20.0328 -20.0328 -20.0328 -20.0328 -20.0307 -20.0307 -20.0305 -20.0305
    -9.4148  -9.4147  -9.4109  -9.4109  -8.6701  -8.6701  -8.6664  -8.6664
    -8.5720  -8.5719  -8.5693  -8.5692  -8.3744  -8.3744  -8.3683  -8.3683
    -8.2954  -8.2954  -8.2897  -8.2896  -7.6198  -7.6198  -7.6154  -7.6153
     1.4285   1.4285   1.4327   1.4327   3.0595   3.0595   3.0800   3.0800
     3.1875   3.1875   3.1913   3.1913   3.2471   3.2471   3.2613   3.2613
     3.3344   3.3344   3.3502   3.3502   3.4911   3.4911   3.5099   3.5099
     3.6242   3.6242   3.6742   3.6742   4.3197   4.3197   4.3295   4.3295
     4.4255   4.4255   4.4428   4.4428   5.2418   5.2418   5.2480   5.2480
     5.5463   5.5463   5.5536   5.5537   6.4072   6.4072   6.4112   6.4112
     6.5618   6.5618   6.5674   6.5674   6.6698   6.6698   6.6800   6.6800
     7.3036   7.3036   7.3114   7.3115   7.3699   7.3699   7.4027   7.4027
     7.4738   7.4738   7.4904   7.4904   7.6300   7.6300   7.6332   7.6332
    11.2603  11.2603  11.2639  11.2639  11.3715  11.3715  11.3741  11.3741
    12.3453  12.3453  12.3660  12.3660  12.3768  12.3768  12.3962  12.3962
    12.9633  12.9633  12.9684  12.9684  13.6775  13.6775  13.6823  13.6823
    15.5959  15.5959  15.6029  15.6029  16.8089  16.8089  16.8199  16.8199
    17.4057  17.4057  17.4166  17.4166  17.5471  17.5508

          k = 0.1667 0.0000 0.0000 ( 62314 PWs)   bands (ev):

   -65.9618 -65.9614 -65.9610 -65.9608 -65.9605 -65.9604 -65.9599 -65.9595
   -30.4357 -30.4327 -30.4323 -30.4294 -30.3749 -30.3723 -30.3720 -30.3695
   -30.2987 -30.2948 -30.2940 -30.2920 -30.2902 -30.2881 -30.2868 -30.2829
   -30.2040 -30.2006 -30.1996 -30.1970 -30.1961 -30.1936 -30.1931 -30.1898
   -20.1197 -20.1194 -20.1194 -20.1192 -20.1143 -20.1140 -20.1139 -20.1137
   -20.1060 -20.1058 -20.1057 -20.1056 -20.1049 -20.1048 -20.1045 -20.1045
   -20.1041 -20.1041 -20.1039 -20.1038 -20.1036 -20.1034 -20.1033 -20.1033
   -20.1024 -20.1023 -20.1021 -20.1021 -20.1013 -20.1011 -20.1011 -20.1009
   -20.0849 -20.0847 -20.0846 -20.0845 -20.0844 -20.0844 -20.0842 -20.0841
   -20.0371 -20.0370 -20.0368 -20.0366 -20.0357 -20.0357 -20.0353 -20.0351
   -20.0319 -20.0317 -20.0313 -20.0313 -20.0303 -20.0301 -20.0300 -20.0299
    -9.8612  -9.5503  -9.4938  -9.4209  -9.1863  -9.0964  -9.0816  -8.9395
    -8.9223  -8.8505  -8.8308  -8.7905  -7.8618  -7.8264  -7.8202  -7.8042
    -7.7858  -7.7518  -7.6961  -7.6852  -7.6718  -7.6666  -7.5655  -7.5429
     1.3623   1.3624   1.3876   1.3953   1.4771   1.5154   1.6328   1.6411
     1.6469   1.7517   1.8972   2.0411   2.5526   2.5998   2.6353   2.6789
     2.7336   2.8322   4.1193   4.1920   4.4017   4.4285   4.4356   4.5533
     4.6877   4.8046   4.8347   4.9894   5.0020   5.0355   5.0658   5.3488
     5.3813   5.4275   5.5322   5.5520   5.5725   5.6106   5.6287   5.6813
     5.7634   5.8059   5.8254   5.9599   5.9843   6.1365   6.1603   6.1893
     6.3187   6.4753   6.5387   6.5779   6.6815   6.7123   6.7885   6.8524
     6.8634   6.8842   7.0035   7.0386   7.0501   7.1241   7.2314   7.2351
     7.2703   7.3294   7.8794   7.8829   8.0519   8.1090   8.1143   8.1591
     9.7384   9.7731  10.0539  10.0815  10.3146  10.3658  12.3074  12.3317
    12.3617  12.4250  12.4477  12.4744  12.5801  12.6795  13.0236  13.0483
    13.1421  13.2973  13.3786  13.4778  13.9817  14.1095  14.1179  14.2345
    14.2446  14.4552  14.5787  14.9317  15.5187  15.5899  15.6185  16.1474
    16.4857  16.8156  17.0671  17.3108  17.4337  17.4428

          k = 0.1667 0.0000 0.1667 ( 62302 PWs)   bands (ev):

   -65.9618 -65.9613 -65.9609 -65.9609 -65.9605 -65.9605 -65.9600 -65.9596
   -30.4356 -30.4326 -30.4326 -30.4297 -30.3748 -30.3723 -30.3722 -30.3697
   -30.2923 -30.2913 -30.2884 -30.2876 -30.2872 -30.2870 -30.2834 -30.2832
   -30.2038 -30.2038 -30.2007 -30.2005 -30.2000 -30.1993 -30.1969 -30.1960
   -20.1197 -20.1194 -20.1194 -20.1192 -20.1142 -20.1140 -20.1140 -20.1137
   -20.1059 -20.1056 -20.1056 -20.1055 -20.1049 -20.1046 -20.1045 -20.1044
   -20.1041 -20.1040 -20.1039 -20.1039 -20.1035 -20.1034 -20.1033 -20.1032
   -20.1025 -20.1023 -20.1023 -20.1022 -20.1013 -20.1013 -20.1012 -20.1011
   -20.0848 -20.0847 -20.0845 -20.0845 -20.0844 -20.0844 -20.0842 -20.0841
   -20.0368 -20.0367 -20.0367 -20.0365 -20.0354 -20.0353 -20.0353 -20.0352
   -20.0318 -20.0317 -20.0317 -20.0316 -20.0305 -20.0304 -20.0303 -20.0302
    -9.8137  -9.4913  -9.4372  -9.4372  -9.1051  -9.0967  -9.0964  -8.8985
    -8.8855  -8.8413  -8.7958  -8.7957  -7.8629  -7.8215  -7.8204  -7.8131
    -7.8102  -7.7837  -7.7826  -7.7552  -7.7164  -7.7009  -7.6728  -7.6518
     1.4580   1.5086   1.5088   1.5589   1.5591   1.6249   1.6532   1.6537
     1.7542   1.7548   1.9820   2.1217   2.6400   2.6868   2.6893   2.7313
     2.8078   2.8438   4.1226   4.1263   4.3759   4.3765   4.5195   4.5197
     4.6158   4.6174   4.7171   4.7220   4.7703   4.8339   5.0505   5.2949
     5.3224   5.3729   5.4037   5.4943   5.4965   5.6569   5.6575   5.7051
     5.7061   5.7418   5.7977   5.8188   5.8209   5.9943   6.3451   6.4905
     6.5024   6.5675   6.5839   6.6524   6.6978   6.7098   6.7114   6.7458
     6.7969   6.8806   6.8818   6.9049   6.9295   7.0191   7.0207   7.1361
     7.3644   7.4241   7.8801   7.8807   8.0506   8.0979   8.1142   8.1181
     9.9612  10.0351  10.3146  10.3167  10.3264  10.4227  12.3580  12.3608
    12.3794  12.3872  12.3983  12.4311  12.6663  12.6710  13.0487  13.0562
    13.1018  13.1713  13.2679  13.4452  14.0440  14.0691  14.0931  14.1452
    14.1656  14.5676  14.5701  15.0489  15.4854  15.6719  15.6881  16.4496
    16.4510  16.9791  16.9805  17.2055  17.4909  17.5197

          k = 0.1667 0.0000 0.3333 ( 62328 PWs)   bands (ev):

   -65.9616 -65.9612 -65.9611 -65.9607 -65.9607 -65.9603 -65.9602 -65.9598
   -30.4351 -30.4333 -30.4321 -30.4304 -30.3745 -30.3729 -30.3719 -30.3704
   -30.2908 -30.2881 -30.2869 -30.2842 -30.2731 -30.2695 -30.2687 -30.2651
   -30.2224 -30.2190 -30.2184 -30.2150 -30.2029 -30.2006 -30.1994 -30.1972
   -20.1196 -20.1195 -20.1194 -20.1193 -20.1142 -20.1141 -20.1140 -20.1138
   -20.1058 -20.1056 -20.1052 -20.1051 -20.1047 -20.1045 -20.1043 -20.1043
   -20.1042 -20.1040 -20.1040 -20.1038 -20.1035 -20.1034 -20.1030 -20.1030
   -20.1028 -20.1028 -20.1024 -20.1022 -20.1018 -20.1016 -20.1012 -20.1012
   -20.0847 -20.0846 -20.0846 -20.0844 -20.0844 -20.0843 -20.0843 -20.0841
   -20.0365 -20.0363 -20.0357 -20.0357 -20.0357 -20.0354 -20.0343 -20.0343
   -20.0328 -20.0328 -20.0315 -20.0315 -20.0315 -20.0312 -20.0307 -20.0305
    -9.6986  -9.4877  -9.3531  -9.3081  -9.1415  -9.1342  -8.8468  -8.8417
    -8.8090  -8.7520  -8.7311  -8.6642  -8.1203  -8.1153  -8.0449  -8.0217
    -7.8352  -7.8170  -7.7913  -7.7859  -7.7647  -7.7644  -7.7150  -7.6949
     1.4707   1.4943   1.5726   1.6078   1.6713   1.6923   1.7457   1.7644
     2.3442   2.3761   2.5197   2.6007   2.7124   2.8036   2.9066   2.9301
     3.0174   3.0863   3.8592   3.8812   3.9928   3.9944   4.1846   4.3415
     4.3657   4.5373   4.5552   4.6060   4.6468   4.7947   4.8207   4.9784
     5.0083   5.0969   5.1274   5.2630   5.3256   5.3933   5.5548   5.6904
     5.7064   5.7527   5.8066   5.8295   5.8340   6.0086   6.2102   6.2765
     6.4438   6.4706   6.4959   6.5902   6.6151   6.6771   6.6846   6.7031
     6.8244   6.8969   6.9141   6.9313   7.1727   7.2027   7.2177   7.2890
     7.3602   7.4027   7.8240   7.8403   7.9465   7.9813   8.1092   8.1183
    10.3123  10.3217  10.6003  10.6663  10.9389  11.0629  11.9856  12.0281
    12.2000  12.5081  12.5301  12.5841  12.6177  12.6678  12.8286  12.9250
    13.0109  13.0886  13.1681  13.3660  13.7408  13.7586  14.0814  14.1061
    14.3449  14.5418  14.8730  15.3659  15.3786  15.9245  16.0854  16.3535
    16.3797  17.2922  17.4070  17.5497  17.6246  17.7942

          k = 0.1667 0.0000-0.5000 ( 62350 PWs)   bands (ev):

   -65.9613 -65.9613 -65.9609 -65.9609 -65.9605 -65.9605 -65.9600 -65.9600
   -30.4343 -30.4343 -30.4313 -30.4313 -30.3738 -30.3738 -30.3712 -30.3712
   -30.2895 -30.2895 -30.2855 -30.2855 -30.2478 -30.2478 -30.2443 -30.2443
   -30.2436 -30.2436 -30.2400 -30.2400 -30.2018 -30.2018 -30.1983 -30.1983
   -20.1196 -20.1196 -20.1193 -20.1193 -20.1142 -20.1142 -20.1139 -20.1139
   -20.1057 -20.1057 -20.1048 -20.1048 -20.1046 -20.1046 -20.1044 -20.1044
   -20.1041 -20.1041 -20.1037 -20.1037 -20.1033 -20.1033 -20.1032 -20.1032
   -20.1026 -20.1026 -20.1024 -20.1024 -20.1020 -20.1020 -20.1012 -20.1012
   -20.0846 -20.0846 -20.0845 -20.0845 -20.0843 -20.0843 -20.0842 -20.0842
   -20.0361 -20.0361 -20.0359 -20.0359 -20.0343 -20.0343 -20.0342 -20.0342
   -20.0329 -20.0329 -20.0329 -20.0329 -20.0311 -20.0311 -20.0309 -20.0309
    -9.5766  -9.5766  -9.2237  -9.2237  -9.1959  -9.1959  -8.8272  -8.8272
    -8.4923  -8.4923  -8.4863  -8.4863  -8.4345  -8.4345  -8.3816  -8.3816
    -7.8272  -7.8272  -7.7773  -7.7773  -7.7514  -7.7514  -7.7304  -7.7304
     1.4805   1.4805   1.5905   1.5905   1.6919   1.6919   1.7733   1.7733
     2.7411   2.7411   3.0508   3.0508   3.1358   3.1358   3.2611   3.2611
     3.3706   3.3706   3.4815   3.4815   3.5889   3.5889   3.8467   3.8467
     3.9140   3.9140   4.4520   4.4520   4.5614   4.5615   4.9140   4.9140
     5.0842   5.0842   5.0942   5.0942   5.2792   5.2792   5.6277   5.6277
     5.7941   5.7941   5.8390   5.8390   5.9585   5.9585   5.9739   5.9739
     6.3690   6.3690   6.4459   6.4459   6.6721   6.6721   6.7492   6.7492
     6.8534   6.8534   7.0105   7.0105   7.0746   7.0746   7.5815   7.5815
     7.6331   7.6331   7.7273   7.7273   7.7370   7.7370   8.1182   8.1182
    10.3266  10.3266  11.3227  11.3227  11.3970  11.3970  11.6492  11.6492
    11.8543  11.8543  12.6891  12.6891  12.7502  12.7502  12.7862  12.7862
    12.9933  12.9933  13.3205  13.3205  13.4282  13.4282  14.0905  14.0905
    14.4800  14.4800  15.1780  15.1780  15.8203  15.8203  16.1841  16.1841
    16.8288  16.8288  17.7920  17.7920  17.8269  17.8269

          k = 0.1667 0.1578 0.0000 ( 62294 PWs)   bands (ev):

   -65.9618 -65.9614 -65.9609 -65.9608 -65.9606 -65.9604 -65.9599 -65.9596
   -30.4317 -30.4287 -30.4283 -30.4254 -30.3790 -30.3764 -30.3761 -30.3735
   -30.2985 -30.2950 -30.2938 -30.2918 -30.2904 -30.2883 -30.2866 -30.2831
   -30.2039 -30.2007 -30.1995 -30.1968 -30.1962 -30.1938 -30.1930 -30.1899
   -20.1193 -20.1191 -20.1190 -20.1188 -20.1146 -20.1143 -20.1143 -20.1140
   -20.1059 -20.1057 -20.1056 -20.1055 -20.1050 -20.1049 -20.1046 -20.1045
   -20.1041 -20.1040 -20.1039 -20.1038 -20.1036 -20.1034 -20.1033 -20.1033
   -20.1023 -20.1022 -20.1021 -20.1020 -20.1014 -20.1012 -20.1011 -20.1010
   -20.0848 -20.0847 -20.0846 -20.0845 -20.0844 -20.0844 -20.0842 -20.0841
   -20.0371 -20.0370 -20.0368 -20.0366 -20.0357 -20.0357 -20.0353 -20.0351
   -20.0319 -20.0317 -20.0313 -20.0313 -20.0303 -20.0301 -20.0300 -20.0299
    -9.8289  -9.5623  -9.4538  -9.3758  -9.1944  -9.0897  -9.0222  -8.9372
    -8.9232  -8.8088  -8.7957  -8.7603  -7.9552  -7.9094  -7.8989  -7.8618
    -7.8261  -7.8029  -7.6948  -7.6840  -7.6733  -7.6657  -7.5641  -7.5444
     1.3798   1.3807   1.3878   1.3954   1.5980   1.6425   1.6475   1.8323
     1.8696   1.8966   1.9044   2.1372   2.5589   2.6294   2.6717   2.7531
     2.8027   2.9002   4.0179   4.0714   4.1252   4.1713   4.4657   4.5510
     4.7226   4.7308   4.8224   4.8988   4.9771   4.9899   5.0060   5.2531
     5.2931   5.3146   5.3631   5.5173   5.6117   5.6249   5.6670   5.6991
     5.7485   5.8025   5.8343   5.8660   5.9139   6.1645   6.1741   6.1884
     6.2609   6.4625   6.5151   6.6008   6.7260   6.7918   6.8086   6.8391
     6.8733   6.9083   6.9834   7.0013   7.0407   7.0527   7.2314   7.2350
     7.2846   7.3288   7.8819   7.8825   8.0114   8.0384   8.0524   8.0777
     9.7446   9.7717  10.2522  10.2561  10.4824  10.5059  12.2177  12.3191
    12.3205  12.3566  12.4226  12.4278  12.4528  12.5702  13.0257  13.0605
    13.1684  13.3302  13.3851  13.4821  13.9902  14.0198  14.1328  14.1482
    14.3394  14.7278  14.8762  15.0959  15.5891  15.6182  15.9197  16.1134
    16.4487  16.6980  16.9380  17.4233  17.4886  17.5547

          k = 0.1667 0.1578 0.1667 ( 62314 PWs)   bands (ev):

   -65.9617 -65.9614 -65.9609 -65.9609 -65.9605 -65.9605 -65.9600 -65.9596
   -30.4315 -30.4286 -30.4286 -30.4257 -30.3789 -30.3763 -30.3763 -30.3738
   -30.2921 -30.2911 -30.2885 -30.2878 -30.2870 -30.2869 -30.2836 -30.2834
   -30.2037 -30.2036 -30.2008 -30.2006 -30.1999 -30.1992 -30.1970 -30.1962
   -20.1193 -20.1191 -20.1191 -20.1188 -20.1146 -20.1143 -20.1143 -20.1141
   -20.1058 -20.1056 -20.1056 -20.1055 -20.1049 -20.1047 -20.1046 -20.1045
   -20.1041 -20.1040 -20.1040 -20.1039 -20.1035 -20.1034 -20.1033 -20.1033
   -20.1024 -20.1023 -20.1022 -20.1021 -20.1013 -20.1013 -20.1013 -20.1011
   -20.0848 -20.0847 -20.0845 -20.0845 -20.0844 -20.0844 -20.0842 -20.0841
   -20.0368 -20.0367 -20.0367 -20.0365 -20.0354 -20.0353 -20.0353 -20.0352
   -20.0318 -20.0317 -20.0317 -20.0316 -20.0305 -20.0304 -20.0303 -20.0302
    -9.7798  -9.5034  -9.3925  -9.3924  -9.1050  -9.1047  -9.0310  -8.8976
    -8.8863  -8.7997  -8.7652  -8.7651  -7.9552  -7.9073  -7.9071  -7.8686
    -7.8168  -7.8158  -7.7936  -7.7917  -7.7152  -7.6970  -7.6715  -7.6533
     1.5586   1.5587   1.6005   1.6007   1.6514   1.6531   1.6581   1.8312
     1.9019   1.9024   1.9811   2.1950   2.6487   2.7254   2.7606   2.7633
     2.8803   2.9072   4.0240   4.0487   4.1539   4.1553   4.5164   4.5171
     4.6190   4.6203   4.7008   4.7304   4.7518   4.7785   4.8274   5.2341
     5.2564   5.2686   5.2724   5.3977   5.4191   5.6154   5.6198   5.6393
     5.7721   5.7785   5.7807   5.8286   5.8287   5.8617   6.3659   6.4167
     6.4251   6.5652   6.5808   6.6740   6.7076   6.7709   6.7988   6.8033
     6.8186   6.8544   6.9015   6.9050   6.9875   6.9965   7.0034   7.1419
     7.3681   7.4222   7.8805   7.8811   7.9968   8.0389   8.0417   8.0434
     9.9800  10.0326  10.4671  10.4835  10.4876  10.5541  12.2761  12.3179
    12.3655  12.3689  12.3727  12.3783  12.5321  12.5357  13.0398  13.0785
    13.1407  13.1860  13.2735  13.4502  13.9734  13.9843  13.9919  14.0580
    14.4515  14.8686  14.8696  15.1970  15.6728  15.6868  15.8874  16.4150
    16.4159  16.8188  17.0807  17.0813  17.5587  17.6286

          k = 0.1667 0.1578 0.3333 ( 62329 PWs)   bands (ev):

   -65.9616 -65.9612 -65.9610 -65.9607 -65.9607 -65.9603 -65.9602 -65.9598
   -30.4311 -30.4293 -30.4281 -30.4264 -30.3786 -30.3770 -30.3760 -30.3744
   -30.2906 -30.2880 -30.2871 -30.2844 -30.2729 -30.2697 -30.2686 -30.2653
   -30.2223 -30.2192 -30.2183 -30.2151 -30.2028 -30.2005 -30.1996 -30.1973
   -20.1193 -20.1191 -20.1190 -20.1189 -20.1146 -20.1144 -20.1143 -20.1142
   -20.1057 -20.1056 -20.1052 -20.1051 -20.1048 -20.1045 -20.1044 -20.1042
   -20.1042 -20.1041 -20.1040 -20.1038 -20.1035 -20.1034 -20.1030 -20.1030
   -20.1028 -20.1027 -20.1023 -20.1022 -20.1019 -20.1017 -20.1013 -20.1013
   -20.0847 -20.0846 -20.0846 -20.0844 -20.0844 -20.0843 -20.0843 -20.0841
   -20.0365 -20.0363 -20.0357 -20.0357 -20.0357 -20.0354 -20.0343 -20.0343
   -20.0328 -20.0328 -20.0315 -20.0315 -20.0315 -20.0312 -20.0307 -20.0305
    -9.6607  -9.4440  -9.3650  -9.2501  -9.1505  -9.0607  -8.8508  -8.8224
    -8.7780  -8.7533  -8.7167  -8.6469  -8.1257  -8.1162  -8.0686  -8.0199
    -7.9221  -7.9082  -7.8877  -7.8578  -7.7876  -7.7665  -7.7139  -7.6951
     1.6072   1.6221   1.6711   1.6920   1.7849   1.7887   1.8725   1.9029
     2.3428   2.3856   2.5222   2.6140   2.7854   2.8673   2.9258   3.0052
     3.0145   3.1410   3.8605   3.8808   3.9497   3.9840   4.1486   4.2087
     4.2740   4.3901   4.5813   4.6233   4.6778   4.7440   4.7658   4.8014
     4.9228   4.9695   5.0125   5.1677   5.2461   5.2938   5.3279   5.6096
     5.6608   5.6681   5.7568   5.8219   5.8343   5.8475   6.2223   6.2765
     6.3993   6.5287   6.5651   6.6454   6.7058   6.7140   6.7475   6.7974
     6.8729   6.9065   6.9287   6.9662   7.1682   7.1954   7.2126   7.2931
     7.3512   7.3970   7.8246   7.8373   7.9006   7.9224   8.0421   8.0442
    10.4461  10.4856  10.6242  10.6744  11.0533  11.1496  11.9868  12.0244
    12.1728  12.4845  12.5150  12.5309  12.5455  12.6331  12.7646  12.8084
    13.0069  13.1174  13.1492  13.3674  13.6347  13.6618  13.9873  14.0152
    14.6729  14.8464  15.2217  15.4819  15.7839  15.9185  16.0935  16.3216
    16.4860  17.1951  17.2496  17.4640  17.5880  17.7428

          k = 0.1667 0.1578-0.5000 ( 62358 PWs)   bands (ev):

   -65.9613 -65.9613 -65.9609 -65.9609 -65.9604 -65.9604 -65.9601 -65.9601
   -30.4303 -30.4302 -30.4273 -30.4273 -30.3779 -30.3779 -30.3753 -30.3753
   -30.2893 -30.2893 -30.2857 -30.2857 -30.2476 -30.2476 -30.2444 -30.2444
   -30.2434 -30.2434 -30.2402 -30.2402 -30.2016 -30.2016 -30.1984 -30.1984
   -20.1192 -20.1192 -20.1190 -20.1190 -20.1145 -20.1145 -20.1143 -20.1143
   -20.1056 -20.1056 -20.1048 -20.1048 -20.1046 -20.1046 -20.1044 -20.1044
   -20.1041 -20.1041 -20.1037 -20.1037 -20.1033 -20.1033 -20.1032 -20.1032
   -20.1026 -20.1026 -20.1025 -20.1025 -20.1021 -20.1020 -20.1013 -20.1013
   -20.0846 -20.0846 -20.0845 -20.0845 -20.0843 -20.0843 -20.0842 -20.0842
   -20.0361 -20.0361 -20.0359 -20.0359 -20.0343 -20.0343 -20.0342 -20.0342
   -20.0329 -20.0329 -20.0329 -20.0329 -20.0311 -20.0311 -20.0309 -20.0309
    -9.5350  -9.5350  -9.2341  -9.2341  -9.1262  -9.1262  -8.7962  -8.7962
    -8.4962  -8.4962  -8.4892  -8.4891  -8.4375  -8.4375  -8.3769  -8.3769
    -7.9194  -7.9194  -7.8776  -7.8776  -7.7506  -7.7506  -7.7307  -7.7307
     1.6158   1.6158   1.6917   1.6917   1.7946   1.7946   1.9035   1.9035
     2.8101   2.8101   3.0704   3.0705   3.1558   3.1558   3.2778   3.2779
     3.3735   3.3735   3.4850   3.4850   3.5789   3.5789   3.8474   3.8474
     3.9610   3.9610   4.2914   4.2914   4.5764   4.5764   4.6819   4.6819
     4.9587   4.9587   5.0701   5.0701   5.1438   5.1438   5.4460   5.4460
     5.6942   5.6942   5.7754   5.7754   5.8860   5.8860   5.9613   5.9613
     6.4951   6.4951   6.6197   6.6197   6.6630   6.6630   6.7950   6.7950
     6.9226   6.9226   6.9775   6.9775   7.0943   7.0943   7.5791   7.5791
     7.6271   7.6271   7.6953   7.6953   7.7105   7.7106   8.0458   8.0458
    10.4851  10.4851  11.3298  11.3298  11.3955  11.3955  11.7158  11.7158
    11.9139  11.9139  12.5569  12.5569  12.7288  12.7288  12.7780  12.7780
    12.9751  12.9752  13.2177  13.2177  13.3698  13.3698  13.9970  13.9970
    14.7946  14.7946  15.5525  15.5525  15.9422  15.9422  16.1612  16.1612
    16.8574  16.8574  17.5977  17.5978  17.8589  17.8589

          k = 0.1667 0.3156 0.0000 ( 62317 PWs)   bands (ev):

   -65.9617 -65.9615 -65.9609 -65.9607 -65.9606 -65.9605 -65.9599 -65.9596
   -30.4206 -30.4177 -30.4173 -30.4145 -30.3902 -30.3875 -30.3872 -30.3845
   -30.2980 -30.2955 -30.2934 -30.2914 -30.2909 -30.2888 -30.2862 -30.2835
   -30.2035 -30.2011 -30.1991 -30.1966 -30.1965 -30.1941 -30.1926 -30.1903
   -20.1184 -20.1181 -20.1181 -20.1178 -20.1156 -20.1154 -20.1153 -20.1151
   -20.1057 -20.1056 -20.1054 -20.1054 -20.1052 -20.1050 -20.1047 -20.1046
   -20.1041 -20.1040 -20.1039 -20.1038 -20.1035 -20.1034 -20.1034 -20.1034
   -20.1021 -20.1021 -20.1019 -20.1018 -20.1016 -20.1015 -20.1013 -20.1012
   -20.0848 -20.0847 -20.0845 -20.0845 -20.0844 -20.0844 -20.0842 -20.0841
   -20.0371 -20.0370 -20.0368 -20.0366 -20.0357 -20.0357 -20.0353 -20.0351
   -20.0319 -20.0317 -20.0313 -20.0313 -20.0303 -20.0301 -20.0300 -20.0299
    -9.7502  -9.5996  -9.3616  -9.2711  -9.2213  -9.1170  -8.9332  -8.9257
    -8.8125  -8.6745  -8.6742  -8.6514  -8.1979  -8.1581  -8.1477  -8.1330
    -7.8222  -7.8090  -7.6908  -7.6804  -7.6777  -7.6686  -7.5603  -7.5484
     1.3852   1.3879   1.3902   1.3955   1.6357   1.6460   1.8430   1.8928
     2.3859   2.5093   2.5329   2.5739   2.6144   2.6910   2.8841   2.9784
     3.0044   3.1075   3.6575   3.6937   3.7039   3.7493   4.1493   4.4436
     4.4931   4.5021   4.5727   4.7540   4.7774   4.8888   4.9781   4.9918
     5.0476   5.0926   5.1906   5.3328   5.4339   5.4979   5.6073   5.6604
     5.7153   5.8289   5.8390   5.8632   6.0854   6.1595   6.1796   6.2086
     6.2723   6.4760   6.4856   6.6087   6.6644   6.8771   6.9067   6.9522
     6.9904   7.0072   7.0881   7.0925   7.1109   7.1279   7.2327   7.2356
     7.3124   7.3323   7.8115   7.8357   7.8397   7.8578   7.8876   7.8887
     9.7548   9.7682  10.7163  10.7561  10.8978  10.9253  11.8595  11.9590
    11.9941  12.0710  12.3338  12.3526  12.4757  12.5076  13.0377  13.0700
    13.2743  13.4211  13.4529  13.5415  13.7516  13.8021  13.9024  13.9304
    14.9329  15.3023  15.5150  15.5856  15.6184  15.7127  15.9975  16.1212
    16.3217  16.9151  17.3151  17.3368  17.6525  17.8240

          k = 0.1667 0.3156 0.1667 ( 62277 PWs)   bands (ev):

   -65.9617 -65.9614 -65.9608 -65.9608 -65.9606 -65.9606 -65.9599 -65.9597
   -30.4205 -30.4176 -30.4176 -30.4148 -30.3901 -30.3874 -30.3874 -30.3848
   -30.2915 -30.2908 -30.2889 -30.2883 -30.2866 -30.2865 -30.2841 -30.2839
   -30.2033 -30.2033 -30.2011 -30.2009 -30.1996 -30.1990 -30.1972 -30.1966
   -20.1183 -20.1181 -20.1181 -20.1179 -20.1156 -20.1154 -20.1154 -20.1151
   -20.1056 -20.1054 -20.1054 -20.1053 -20.1050 -20.1048 -20.1047 -20.1046
   -20.1040 -20.1040 -20.1040 -20.1039 -20.1035 -20.1034 -20.1033 -20.1033
   -20.1022 -20.1021 -20.1021 -20.1019 -20.1015 -20.1015 -20.1015 -20.1014
   -20.0848 -20.0847 -20.0845 -20.0845 -20.0844 -20.0844 -20.0842 -20.0841
   -20.0368 -20.0367 -20.0367 -20.0365 -20.0354 -20.0353 -20.0353 -20.0352
   -20.0318 -20.0317 -20.0317 -20.0316 -20.0305 -20.0303 -20.0303 -20.0302
    -9.6973  -9.5414  -9.2883  -9.2882  -9.1329  -9.1326  -8.8953  -8.8890
    -8.8208  -8.6676  -8.6559  -8.6559  -8.1992  -8.1545  -8.1544  -8.1380
    -7.8132  -7.8114  -7.7995  -7.7976  -7.7112  -7.7000  -7.6678  -7.6572
     1.5586   1.5587   1.6415   1.6419   1.6523   1.6528   1.9131   1.9771
     2.3876   2.5107   2.5112   2.6614   2.6670   2.7278   2.9846   2.9884
     3.0986   3.1042   3.7000   3.7013   3.7153   3.7651   4.1428   4.4632
     4.4639   4.5507   4.5520   4.6405   4.6417   4.7452   4.7495   4.8402
     4.8976   4.8995   5.1422   5.1724   5.4123   5.4320   5.4323   5.4586
     5.6527   5.6709   5.8183   5.8187   5.8616   5.8621   6.4404   6.4458
     6.4541   6.5560   6.5674   6.6565   6.7954   6.8089   6.8922   6.8938
     6.9511   6.9520   7.0019   7.0357   7.1064   7.1081   7.1151   7.1726
     7.3844   7.4212   7.8115   7.8134   7.8183   7.8493   7.8826   7.8930
    10.0048  10.0271  10.8707  10.9206  10.9267  10.9421  11.9336  11.9810
    12.0677  12.0710  12.3810  12.3817  12.4167  12.4173  13.0434  13.0947
    13.2645  13.2768  13.3344  13.4969  13.7390  13.7431  13.7524  13.8470
    15.0873  15.5087  15.5102  15.6759  15.6831  15.7748  16.2396  16.2932
    16.2940  16.8801  17.3792  17.4106  17.4169  17.7137

          k = 0.1667 0.3156 0.3333 ( 62321 PWs)   bands (ev):

   -65.9615 -65.9613 -65.9610 -65.9607 -65.9606 -65.9604 -65.9601 -65.9599
   -30.4200 -30.4183 -30.4172 -30.4155 -30.3897 -30.3881 -30.3870 -30.3855
   -30.2902 -30.2876 -30.2875 -30.2849 -30.2725 -30.2701 -30.2682 -30.2657
   -30.2219 -30.2196 -30.2179 -30.2155 -30.2024 -30.2002 -30.1999 -30.1977
   -20.1183 -20.1182 -20.1181 -20.1179 -20.1156 -20.1155 -20.1154 -20.1152
   -20.1055 -20.1054 -20.1050 -20.1049 -20.1048 -20.1046 -20.1045 -20.1042
   -20.1042 -20.1041 -20.1040 -20.1038 -20.1035 -20.1034 -20.1031 -20.1030
   -20.1026 -20.1026 -20.1021 -20.1020 -20.1020 -20.1018 -20.1015 -20.1015
   -20.0847 -20.0846 -20.0846 -20.0844 -20.0844 -20.0843 -20.0843 -20.0841
   -20.0365 -20.0363 -20.0357 -20.0357 -20.0357 -20.0354 -20.0343 -20.0343
   -20.0328 -20.0328 -20.0315 -20.0315 -20.0315 -20.0312 -20.0307 -20.0305
    -9.5692  -9.4030  -9.3412  -9.1808  -9.1049  -8.8831  -8.8532  -8.7823
    -8.7569  -8.6690  -8.6316  -8.5784  -8.2386  -8.2085  -8.1501  -8.1442
    -8.1099  -8.0634  -8.0138  -7.9758  -7.7838  -7.7712  -7.7103  -7.6986
     1.6583   1.6704   1.6817   1.6917   2.2437   2.3273   2.3380   2.4042
     2.5110   2.5243   2.5491   2.7519   2.9413   3.0031   3.0096   3.0909
     3.2330   3.3252   3.6847   3.6916   3.7667   3.7963   3.9518   4.0243
     4.1245   4.3161   4.4082   4.4268   4.5089   4.5912   4.6556   4.6830
     4.7626   4.7909   4.8586   4.8754   4.9605   5.0399   5.1758   5.1771
     5.3451   5.3763   5.4649   5.6227   5.8486   5.8738   6.2587   6.2786
     6.5771   6.6457   6.6693   6.7600   6.8425   6.8637   6.9491   6.9743
     7.0246   7.0553   7.0673   7.0943   7.1927   7.2071   7.2246   7.3135
     7.3281   7.3825   7.7389   7.7416   7.8048   7.8236   7.8334   7.8695
    10.6030  10.6437  10.9208  10.9285  11.3687  11.4178  11.9364  11.9852
    11.9966  12.1412  12.2570  12.2917  12.5427  12.6312  12.7307  12.7777
    12.9626  13.1457  13.1924  13.4070  13.4172  13.4469  13.7495  13.7953
    15.3282  15.4842  15.8802  15.9699  16.0248  16.1474  16.2122  16.6836
    16.7590  16.8251  17.1128  17.5917  17.6284  17.7120

          k = 0.1667 0.3156-0.5000 ( 62324 PWs)   bands (ev):

   -65.9612 -65.9612 -65.9610 -65.9610 -65.9604 -65.9604 -65.9601 -65.9601
   -30.4192 -30.4192 -30.4164 -30.4164 -30.3890 -30.3890 -30.3863 -30.3863
   -30.2888 -30.2888 -30.2862 -30.2862 -30.2472 -30.2472 -30.2449 -30.2449
   -30.2430 -30.2430 -30.2406 -30.2406 -30.2013 -30.2013 -30.1988 -30.1988
   -20.1183 -20.1183 -20.1180 -20.1180 -20.1155 -20.1155 -20.1153 -20.1153
   -20.1055 -20.1055 -20.1048 -20.1048 -20.1045 -20.1045 -20.1044 -20.1044
   -20.1042 -20.1042 -20.1037 -20.1037 -20.1033 -20.1033 -20.1031 -20.1031
   -20.1026 -20.1026 -20.1026 -20.1026 -20.1020 -20.1020 -20.1015 -20.1015
   -20.0846 -20.0846 -20.0845 -20.0845 -20.0843 -20.0843 -20.0842 -20.0842
   -20.0361 -20.0361 -20.0359 -20.0359 -20.0343 -20.0343 -20.0342 -20.0342
   -20.0329 -20.0329 -20.0329 -20.0329 -20.0311 -20.0311 -20.0309 -20.0309
    -9.4356  -9.4356  -9.2685  -9.2685  -8.9337  -8.9337  -8.6958  -8.6958
    -8.5301  -8.5301  -8.5012  -8.5012  -8.4356  -8.4356  -8.3585  -8.3585
    -8.1449  -8.1449  -8.1106  -8.1106  -7.7469  -7.7469  -7.7347  -7.7347
     1.6781   1.6781   1.6911   1.6911   2.3902   2.3902   2.5077   2.5077
     3.0062   3.0062   3.1295   3.1295   3.1618   3.1618   3.3420   3.3420
     3.3799   3.3799   3.5008   3.5008   3.5359   3.5359   3.7225   3.7225
     4.0955   4.0955   4.1253   4.1253   4.1488   4.1488   4.3894   4.3894
     4.7527   4.7527   4.8194   4.8194   4.9999   4.9999   5.0725   5.0725
     5.1875   5.1875   5.5334   5.5334   5.9556   5.9556   5.9661   5.9661
     6.7022   6.7022   6.8035   6.8035   6.8705   6.8705   6.9065   6.9065
     7.0389   7.0389   7.0821   7.0821   7.1983   7.1983   7.5436   7.5436
     7.5820   7.5820   7.6168   7.6168   7.6522   7.6522   7.8373   7.8373
    10.9038  10.9038  11.3458  11.3458  11.3926  11.3926  11.8277  11.8277
    12.0973  12.0973  12.2551  12.2551  12.6221  12.6221  12.6881  12.6881
    12.8835  12.8835  13.0133  13.0133  13.3626  13.3626  13.7671  13.7671
    15.4323  15.4323  16.0698  16.0698  16.3310  16.3310  16.5001  16.5001
    16.9857  16.9857  17.2473  17.2473  17.8401  17.8401

          k = 0.1667-0.4734 0.0000 ( 62346 PWs)   bands (ev):

   -65.9617 -65.9616 -65.9608 -65.9607 -65.9607 -65.9606 -65.9598 -65.9597
   -30.4054 -30.4054 -30.4027 -30.4026 -30.4024 -30.4021 -30.3996 -30.3995
   -30.2976 -30.2959 -30.2930 -30.2912 -30.2911 -30.2891 -30.2859 -30.2838
   -30.2033 -30.2013 -30.1989 -30.1968 -30.1963 -30.1944 -30.1924 -30.1905
   -20.1171 -20.1170 -20.1168 -20.1168 -20.1167 -20.1167 -20.1165 -20.1164
   -20.1055 -20.1054 -20.1054 -20.1053 -20.1052 -20.1051 -20.1049 -20.1047
   -20.1041 -20.1040 -20.1039 -20.1039 -20.1035 -20.1034 -20.1034 -20.1034
   -20.1019 -20.1018 -20.1018 -20.1018 -20.1018 -20.1016 -20.1015 -20.1014
   -20.0848 -20.0847 -20.0845 -20.0845 -20.0844 -20.0844 -20.0842 -20.0841
   -20.0371 -20.0370 -20.0368 -20.0366 -20.0357 -20.0357 -20.0353 -20.0351
   -20.0319 -20.0317 -20.0313 -20.0313 -20.0303 -20.0301 -20.0300 -20.0299
    -9.6647  -9.6642  -9.2774  -9.2727  -9.1766  -9.1718  -8.9295  -8.9290
    -8.5098  -8.5098  -8.4484  -8.4479  -8.4405  -8.4404  -8.4350  -8.4345
    -7.8180  -7.8134  -7.6869  -7.6818  -7.6770  -7.6719  -7.5565  -7.5522
     1.3857   1.3881   1.3921   1.3955   1.6417   1.6451   1.8811   1.8834
     2.5943   2.5944   3.1937   3.2027   3.2230   3.2321   3.2668   3.2696
     3.3054   3.3170   3.3469   3.3647   3.4693   3.4860   3.5299   3.5409
     3.7089   3.7093   4.5295   4.5301   4.9521   4.9639   5.0006   5.0132
     5.1401   5.1404   5.2047   5.2059   5.3371   5.3382   5.5280   5.5310
     5.7668   5.7676   5.8412   5.8425   6.1628   6.1726   6.1933   6.1942
     6.4165   6.4191   6.4754   6.4866   6.7564   6.7640   6.9372   6.9444
     7.0402   7.0415   7.2280   7.2324   7.2695   7.2764   7.4598   7.4636
     7.4815   7.4845   7.5160   7.5191   7.5416   7.5434   7.8846   7.8846
     9.7619   9.7635  11.3061  11.3112  11.3803  11.3849  11.4345  11.4380
    11.5120  11.5178  12.3409  12.3485  12.4888  12.4967  13.0593  13.0593
    13.4675  13.4697  13.5716  13.5772  13.6517  13.6583  13.6998  13.7005
    15.4527  15.4583  15.6575  15.6622  15.7505  15.7576  16.0405  16.0459
    16.6195  16.6199  17.8301  17.8321  17.9182  18.1441

          k = 0.1667-0.4734 0.1667 ( 62292 PWs)   bands (ev):

   -65.9616 -65.9615 -65.9607 -65.9607 -65.9606 -65.9606 -65.9599 -65.9598
   -30.4053 -30.4053 -30.4027 -30.4026 -30.4025 -30.4024 -30.3998 -30.3998
   -30.2909 -30.2909 -30.2889 -30.2888 -30.2863 -30.2862 -30.2844 -30.2842
   -30.2031 -30.2030 -30.2013 -30.2011 -30.1992 -30.1991 -30.1972 -30.1970
   -20.1171 -20.1169 -20.1168 -20.1168 -20.1167 -20.1167 -20.1166 -20.1164
   -20.1055 -20.1054 -20.1053 -20.1052 -20.1050 -20.1049 -20.1049 -20.1047
   -20.1040 -20.1040 -20.1040 -20.1039 -20.1035 -20.1034 -20.1034 -20.1033
   -20.1020 -20.1019 -20.1019 -20.1018 -20.1018 -20.1017 -20.1017 -20.1016
   -20.0848 -20.0847 -20.0845 -20.0845 -20.0844 -20.0844 -20.0842 -20.0841
   -20.0368 -20.0367 -20.0367 -20.0365 -20.0354 -20.0353 -20.0353 -20.0352
   -20.0318 -20.0317 -20.0317 -20.0316 -20.0305 -20.0303 -20.0303 -20.0302
    -9.6080  -9.6080  -9.1933  -9.1932  -9.1887  -9.1884  -8.8921  -8.8920
    -8.5167  -8.5167  -8.4412  -8.4411  -8.4400  -8.4399  -8.4374  -8.4373
    -7.8080  -7.8078  -7.8034  -7.8031  -7.7056  -7.7056  -7.6626  -7.6625
     1.5585   1.5586   1.6479   1.6483   1.6514   1.6519   1.9644   1.9645
     2.6875   2.6875   3.2064   3.2068   3.2348   3.2365   3.2673   3.2679
[...]
    12.0865  12.0865  12.0879  12.0879  12.2894  12.2894  12.2901  12.2901
    13.0646  13.0646  13.0671  13.0671  13.2432  13.2432  13.2454  13.2454
    15.3432  15.3432  15.3435  15.3435  16.7307  16.7307  16.7339  16.7339
    17.7101  17.7101  17.7125  17.7125  17.9870  17.9870

          k =-0.5000 0.3156 0.0000 ( 62362 PWs)   bands (ev):

   -65.9613 -65.9613 -65.9611 -65.9611 -65.9603 -65.9603 -65.9601 -65.9601
   -30.4193 -30.4193 -30.4161 -30.4161 -30.3891 -30.3890 -30.3861 -30.3861
   -30.2957 -30.2957 -30.2932 -30.2932 -30.2475 -30.2475 -30.2450 -30.2450
   -30.2427 -30.2427 -30.2401 -30.2401 -30.1946 -30.1946 -30.1922 -30.1922
   -20.1183 -20.1183 -20.1180 -20.1180 -20.1155 -20.1155 -20.1153 -20.1153
   -20.1056 -20.1056 -20.1051 -20.1051 -20.1045 -20.1045 -20.1045 -20.1045
   -20.1041 -20.1041 -20.1036 -20.1036 -20.1032 -20.1032 -20.1031 -20.1031
   -20.1027 -20.1027 -20.1026 -20.1026 -20.1019 -20.1019 -20.1013 -20.1013
   -20.0847 -20.0847 -20.0845 -20.0845 -20.0843 -20.0843 -20.0842 -20.0842
   -20.0364 -20.0364 -20.0364 -20.0364 -20.0344 -20.0344 -20.0342 -20.0342
   -20.0329 -20.0329 -20.0327 -20.0327 -20.0306 -20.0306 -20.0306 -20.0306
    -9.5043  -9.5043  -9.3510  -9.3510  -8.9200  -8.9200  -8.7179  -8.7179
    -8.5127  -8.5127  -8.5047  -8.5047  -8.4505  -8.4505  -8.3541  -8.3541
    -8.1480  -8.1480  -8.1060  -8.1060  -7.6239  -7.6239  -7.6115  -7.6115
     1.4249   1.4249   1.4322   1.4322   2.3877   2.3877   2.5258   2.5258
     2.9284   2.9284   3.1055   3.1055   3.1578   3.1578   3.3376   3.3376
     3.3784   3.3784   3.4115   3.4115   3.4784   3.4784   3.6719   3.6719
     4.0933   4.0933   4.1226   4.1226   4.1572   4.1572   4.3811   4.3811
     4.8239   4.8239   4.9245   4.9245   5.1298   5.1298   5.3280   5.3280
     5.4847   5.4847   5.7373   5.7373   6.3509   6.3509   6.4196   6.4196
     6.5086   6.5086   6.5647   6.5647   6.5766   6.5766   6.7914   6.7914
     7.0549   7.0549   7.0710   7.0710   7.1111   7.1111   7.5404   7.5404
     7.5739   7.5739   7.5928   7.5928   7.6332   7.6332   7.8558   7.8558
    10.7385  10.7385  11.2694  11.2694  11.3106  11.3106  11.7620  11.7620
    12.0863  12.0863  12.2192  12.2192  12.6353  12.6354  12.7208  12.7208
    12.9286  12.9286  13.0642  13.0642  13.5265  13.5265  13.9158  13.9158
    15.2223  15.2223  15.7985  15.7985  16.2621  16.2621  16.5128  16.5128
    16.9234  16.9234  17.2070  17.2070  17.9648  17.9648

          k =-0.5000 0.3156 0.1667 ( 62320 PWs)   bands (ev):

   -65.9612 -65.9612 -65.9610 -65.9610 -65.9604 -65.9604 -65.9601 -65.9601
   -30.4192 -30.4192 -30.4164 -30.4164 -30.3890 -30.3890 -30.3864 -30.3863
   -30.2889 -30.2889 -30.2864 -30.2864 -30.2472 -30.2472 -30.2447 -30.2447
   -30.2430 -30.2430 -30.2404 -30.2404 -30.2014 -30.2014 -30.1990 -30.1990
   -20.1183 -20.1183 -20.1180 -20.1180 -20.1155 -20.1155 -20.1153 -20.1153
   -20.1055 -20.1055 -20.1049 -20.1049 -20.1045 -20.1045 -20.1045 -20.1045
   -20.1041 -20.1041 -20.1036 -20.1036 -20.1032 -20.1032 -20.1031 -20.1031
   -20.1027 -20.1027 -20.1027 -20.1027 -20.1021 -20.1021 -20.1015 -20.1015
   -20.0846 -20.0846 -20.0845 -20.0845 -20.0843 -20.0843 -20.0842 -20.0842
   -20.0360 -20.0360 -20.0360 -20.0360 -20.0343 -20.0343 -20.0341 -20.0341
   -20.0330 -20.0330 -20.0328 -20.0328 -20.0310 -20.0310 -20.0310 -20.0310
    -9.4357  -9.4357  -9.2687  -9.2687  -8.9337  -8.9337  -8.6959  -8.6959
    -8.5299  -8.5299  -8.5011  -8.5011  -8.4354  -8.4354  -8.3583  -8.3583
    -8.1447  -8.1447  -8.1106  -8.1106  -7.7470  -7.7470  -7.7349  -7.7349
     1.6776   1.6776   1.6905   1.6905   2.3900   2.3900   2.5077   2.5077
     3.0069   3.0069   3.1289   3.1289   3.1613   3.1613   3.3423   3.3423
     3.3797   3.3797   3.5017   3.5017   3.5360   3.5360   3.7225   3.7225
     4.0945   4.0945   4.1230   4.1230   4.1527   4.1527   4.3900   4.3900
     4.7523   4.7523   4.8188   4.8188   4.9999   4.9999   5.0726   5.0726
     5.1877   5.1877   5.5333   5.5333   5.9554   5.9554   5.9660   5.9660
     6.7022   6.7022   6.8040   6.8040   6.8707   6.8707   6.9066   6.9066
     7.0384   7.0384   7.0825   7.0825   7.1980   7.1980   7.5434   7.5434
     7.5813   7.5813   7.6177   7.6177   7.6525   7.6525   7.8374   7.8374
    10.9037  10.9037  11.3460  11.3460  11.3925  11.3925  11.8257  11.8257
    12.0976  12.0976  12.2554  12.2554  12.6220  12.6220  12.6894  12.6894
    12.8836  12.8836  13.0140  13.0140  13.3622  13.3622  13.7674  13.7675
    15.4324  15.4324  16.0693  16.0693  16.3309  16.3309  16.5002  16.5002
    16.9845  16.9845  17.2474  17.2474  17.8396  17.8396

          k =-0.5000 0.3156 0.3333 ( 62320 PWs)   bands (ev):

   -65.9610 -65.9610 -65.9608 -65.9608 -65.9605 -65.9605 -65.9603 -65.9603
   -30.4188 -30.4188 -30.4171 -30.4171 -30.3886 -30.3886 -30.3870 -30.3870
   -30.2704 -30.2704 -30.2680 -30.2680 -30.2463 -30.2463 -30.2439 -30.2439
   -30.2438 -30.2438 -30.2413 -30.2413 -30.2199 -30.2199 -30.2175 -30.2175
   -20.1182 -20.1182 -20.1181 -20.1181 -20.1155 -20.1155 -20.1154 -20.1154
   -20.1051 -20.1051 -20.1047 -20.1047 -20.1046 -20.1046 -20.1043 -20.1043
   -20.1040 -20.1040 -20.1034 -20.1034 -20.1032 -20.1032 -20.1030 -20.1030
   -20.1027 -20.1027 -20.1027 -20.1027 -20.1025 -20.1025 -20.1020 -20.1020
   -20.0845 -20.0845 -20.0844 -20.0844 -20.0844 -20.0844 -20.0843 -20.0843
   -20.0350 -20.0350 -20.0350 -20.0350 -20.0340 -20.0340 -20.0339 -20.0339
   -20.0333 -20.0333 -20.0331 -20.0331 -20.0321 -20.0321 -20.0321 -20.0321
    -9.2629  -9.2629  -9.0436  -9.0436  -8.9809  -8.9809  -8.6227  -8.6227
    -8.5873  -8.5873  -8.4691  -8.4691  -8.4072  -8.4072  -8.3667  -8.3667
    -8.1436  -8.1436  -8.1287  -8.1287  -8.0434  -8.0434  -8.0154  -8.0154
     2.2778   2.2778   2.3731   2.3731   2.4008   2.4008   2.5455   2.5455
     3.1082   3.1082   3.1647   3.1647   3.2362   3.2362   3.3388   3.3388
     3.4150   3.4150   3.6502   3.6502   3.7694   3.7694   3.8656   3.8656
     4.0810   4.0810   4.1208   4.1208   4.1641   4.1641   4.2737   4.2737
     4.3643   4.3643   4.5034   4.5034   4.6485   4.6485   4.8627   4.8627
     4.9896   4.9896   5.0508   5.0508   5.1372   5.1372   5.3189   5.3189
     6.8643   6.8643   6.9202   6.9202   6.9828   6.9828   7.0489   7.0489
     7.1883   7.1883   7.3351   7.3351   7.4474   7.4474   7.5300   7.5300
     7.5837   7.5837   7.6572   7.6572   7.6808   7.6808   7.7901   7.7901
    11.3295  11.3295  11.5868  11.5868  11.6688  11.6688  11.9310  11.9310
    12.1439  12.1439  12.3958  12.3958  12.4382  12.4382  12.4802  12.4802
    12.7894  12.7894  12.8790  12.8790  12.9656  12.9656  13.3780  13.3780
    15.9391  15.9391  16.4269  16.4269  16.5650  16.5650  16.7992  16.7992
    17.2118  17.2118  17.3174  17.3174  17.6042  17.6042

          k =-0.5000 0.3156-0.5000 ( 62336 PWs)   bands (ev):

   -65.9608 -65.9608 -65.9608 -65.9608 -65.9606 -65.9606 -65.9606 -65.9606
   -30.4180 -30.4180 -30.4180 -30.4180 -30.3879 -30.3879 -30.3879 -30.3879
   -30.2461 -30.2461 -30.2458 -30.2458 -30.2453 -30.2453 -30.2449 -30.2449
   -30.2428 -30.2428 -30.2425 -30.2425 -30.2420 -30.2420 -30.2417 -30.2417
   -20.1182 -20.1182 -20.1182 -20.1182 -20.1155 -20.1155 -20.1155 -20.1155
   -20.1047 -20.1047 -20.1047 -20.1047 -20.1045 -20.1045 -20.1045 -20.1045
   -20.1035 -20.1035 -20.1035 -20.1035 -20.1031 -20.1031 -20.1031 -20.1031
   -20.1027 -20.1027 -20.1027 -20.1027 -20.1025 -20.1025 -20.1025 -20.1025
   -20.0845 -20.0845 -20.0844 -20.0844 -20.0843 -20.0843 -20.0843 -20.0843
   -20.0338 -20.0338 -20.0338 -20.0338 -20.0337 -20.0337 -20.0337 -20.0337
   -20.0335 -20.0335 -20.0334 -20.0334 -20.0334 -20.0334 -20.0333 -20.0333
    -9.0856  -9.0856  -9.0852  -9.0852  -8.7669  -8.7669  -8.7656  -8.7656
    -8.4678  -8.4678  -8.4654  -8.4654  -8.3326  -8.3326  -8.3313  -8.3313
    -8.3141  -8.3141  -8.3114  -8.3114  -8.1154  -8.1154  -8.1152  -8.1152
     2.4021   2.4021   2.4022   2.4022   3.0732   3.0732   3.0752   3.0753
     3.1782   3.1782   3.1784   3.1784   3.3005   3.3005   3.3053   3.3053
     3.3695   3.3695   3.3716   3.3716   4.0021   4.0021   4.0181   4.0181
     4.0233   4.0233   4.0352   4.0352   4.1038   4.1038   4.1090   4.1090
     4.3799   4.3799   4.3859   4.3859   4.3997   4.3997   4.4023   4.4023
     4.7409   4.7409   4.7410   4.7410   5.0407   5.0407   5.0412   5.0412
     6.9199   6.9200   6.9226   6.9226   7.0216   7.0216   7.0238   7.0238
     7.4145   7.4145   7.4152   7.4152   7.5244   7.5244   7.5273   7.5273
     7.6443   7.6443   7.6444   7.6444   7.7248   7.7248   7.7262   7.7262
    11.8268  11.8268  11.8291  11.8291  11.8984  11.8984  11.9004  11.9004
    12.1270  12.1270  12.1279  12.1279  12.3752  12.3752  12.3758  12.3758
    12.7487  12.7487  12.7508  12.7508  12.9469  12.9469  12.9484  12.9484
    16.2905  16.2905  16.2907  16.2907  16.9176  16.9176  16.9199  16.9199
    17.4508  17.4508  17.4549  17.4549  17.9951  17.9957

          k =-0.5000-0.4734 0.0000 ( 62332 PWs)   bands (ev):

   -65.9612 -65.9612 -65.9611 -65.9611 -65.9602 -65.9602 -65.9601 -65.9601
   -30.4043 -30.4043 -30.4042 -30.4042 -30.4012 -30.4012 -30.4010 -30.4010
   -30.2954 -30.2953 -30.2935 -30.2935 -30.2473 -30.2473 -30.2452 -30.2452
   -30.2424 -30.2424 -30.2403 -30.2403 -30.1943 -30.1943 -30.1924 -30.1924
   -20.1170 -20.1170 -20.1169 -20.1169 -20.1167 -20.1167 -20.1166 -20.1166
   -20.1055 -20.1055 -20.1052 -20.1052 -20.1045 -20.1045 -20.1044 -20.1044
   -20.1041 -20.1041 -20.1036 -20.1036 -20.1032 -20.1031 -20.1030 -20.1030
   -20.1028 -20.1028 -20.1028 -20.1028 -20.1017 -20.1017 -20.1014 -20.1014
   -20.0847 -20.0847 -20.0845 -20.0845 -20.0843 -20.0843 -20.0842 -20.0842
   -20.0364 -20.0364 -20.0364 -20.0364 -20.0344 -20.0344 -20.0342 -20.0342
   -20.0329 -20.0329 -20.0327 -20.0327 -20.0306 -20.0306 -20.0306 -20.0306
    -9.4149  -9.4149  -9.4111  -9.4111  -8.6705  -8.6705  -8.6660  -8.6660
    -8.5723  -8.5722  -8.5688  -8.5688  -8.3752  -8.3752  -8.3672  -8.3672
    -8.2961  -8.2961  -8.2887  -8.2887  -7.6199  -7.6199  -7.6156  -7.6156
     1.4280   1.4280   1.4321   1.4321   3.0561   3.0561   3.0827   3.0827
     3.1885   3.1886   3.1930   3.1930   3.2419   3.2419   3.2602   3.2602
     3.3358   3.3358   3.3557   3.3557   3.4873   3.4873   3.5125   3.5125
     3.6159   3.6160   3.6829   3.6829   4.3180   4.3180   4.3310   4.3310
     4.4223   4.4223   4.4453   4.4453   5.2406   5.2407   5.2489   5.2489
     5.5452   5.5452   5.5547   5.5547   6.4061   6.4061   6.4114   6.4114
     6.5627   6.5627   6.5683   6.5683   6.6683   6.6683   6.6811   6.6811
     7.3021   7.3021   7.3124   7.3124   7.3646   7.3646   7.4081   7.4081
     7.4714   7.4714   7.4936   7.4936   7.6294   7.6295   7.6335   7.6335
    11.2615  11.2615  11.2655  11.2655  11.3687  11.3687  11.3722  11.3722
    12.3420  12.3420  12.3689  12.3689  12.3748  12.3748  12.4001  12.4001
    12.9636  12.9636  12.9687  12.9687  13.6770  13.6770  13.6834  13.6834
    15.5958  15.5958  15.6029  15.6029  16.8067  16.8068  16.8212  16.8212
    17.4034  17.4034  17.4179  17.4179  17.5450  17.5451

          k =-0.5000-0.4734 0.1667 ( 62276 PWs)   bands (ev):

   -65.9612 -65.9612 -65.9611 -65.9611 -65.9603 -65.9603 -65.9602 -65.9602
   -30.4042 -30.4042 -30.4041 -30.4041 -30.4015 -30.4015 -30.4013 -30.4013
   -30.2886 -30.2886 -30.2867 -30.2867 -30.2469 -30.2469 -30.2449 -30.2449
   -30.2428 -30.2428 -30.2406 -30.2406 -30.2011 -30.2011 -30.1992 -30.1992
   -20.1170 -20.1170 -20.1169 -20.1169 -20.1167 -20.1167 -20.1166 -20.1166
   -20.1053 -20.1053 -20.1050 -20.1050 -20.1045 -20.1045 -20.1044 -20.1044
   -20.1041 -20.1041 -20.1036 -20.1036 -20.1032 -20.1032 -20.1030 -20.1030
   -20.1028 -20.1028 -20.1028 -20.1028 -20.1019 -20.1019 -20.1016 -20.1016
   -20.0846 -20.0846 -20.0845 -20.0845 -20.0843 -20.0843 -20.0842 -20.0842
   -20.0360 -20.0360 -20.0360 -20.0360 -20.0343 -20.0343 -20.0341 -20.0341
   -20.0330 -20.0330 -20.0328 -20.0328 -20.0310 -20.0310 -20.0310 -20.0310
    -9.3371  -9.3371  -9.3335  -9.3335  -8.6892  -8.6892  -8.6842  -8.6842
    -8.5554  -8.5553  -8.5494  -8.5494  -8.3730  -8.3730  -8.3642  -8.3642
    -8.2984  -8.2984  -8.2910  -8.2910  -7.7432  -7.7432  -7.7388  -7.7388
     1.6853   1.6853   1.6896   1.6896   3.0579   3.0579   3.0848   3.0848
     3.1771   3.1772   3.1977   3.1977   3.2438   3.2438   3.3073   3.3073
     3.3408   3.3408   3.4415   3.4415   3.5396   3.5396   3.5673   3.5673
     3.6496   3.6496   3.7149   3.7149   4.3198   4.3198   4.3335   4.3335
     4.4153   4.4153   4.4384   4.4385   4.9115   4.9116   5.0769   5.0769
     5.1833   5.1833   5.3287   5.3287   5.9614   5.9614   5.9694   5.9694
     6.7819   6.7819   6.8150   6.8150   6.9163   6.9163   6.9527   6.9527
     7.2896   7.2896   7.3229   7.3229   7.3700   7.3700   7.4142   7.4142
     7.4631   7.4631   7.5073   7.5073   7.6409   7.6409   7.6633   7.6633
    11.3113  11.3113  11.3533  11.3533  11.4660  11.4660  11.5383  11.5383
    12.3363  12.3363  12.3697  12.3697  12.3839  12.3839  12.4097  12.4097
    12.8608  12.8608  12.9328  12.9328  13.4966  13.4966  13.5457  13.5457
    15.8488  15.8488  15.8754  15.8754  16.8614  16.8614  16.8832  16.8832
    17.4027  17.4027  17.4320  17.4320  17.5284  17.5284

          k =-0.5000-0.4734 0.3333 ( 62272 PWs)   bands (ev):

   -65.9610 -65.9610 -65.9609 -65.9609 -65.9605 -65.9605 -65.9604 -65.9604
   -30.4038 -30.4038 -30.4037 -30.4037 -30.4022 -30.4022 -30.4020 -30.4020
   -30.2701 -30.2701 -30.2683 -30.2683 -30.2460 -30.2460 -30.2440 -30.2440
   -30.2437 -30.2437 -30.2415 -30.2415 -30.2196 -30.2196 -30.2177 -30.2177
   -20.1169 -20.1169 -20.1168 -20.1168 -20.1168 -20.1168 -20.1167 -20.1167
   -20.1049 -20.1049 -20.1048 -20.1048 -20.1045 -20.1045 -20.1043 -20.1043
   -20.1040 -20.1040 -20.1034 -20.1034 -20.1032 -20.1032 -20.1029 -20.1029
   -20.1029 -20.1029 -20.1028 -20.1028 -20.1024 -20.1024 -20.1021 -20.1021
   -20.0845 -20.0845 -20.0844 -20.0844 -20.0844 -20.0844 -20.0843 -20.0843
   -20.0350 -20.0350 -20.0350 -20.0350 -20.0340 -20.0340 -20.0339 -20.0339
   -20.0333 -20.0333 -20.0331 -20.0331 -20.0321 -20.0321 -20.0321 -20.0321
    -9.1301  -9.1301  -9.1272  -9.1271  -8.7499  -8.7499  -8.7455  -8.7454
    -8.4941  -8.4941  -8.4886  -8.4886  -8.3669  -8.3668  -8.3592  -8.3592
    -8.3027  -8.3027  -8.2965  -8.2965  -8.0382  -8.0382  -8.0341  -8.0341
     2.3634   2.3634   2.3687   2.3687   3.0629   3.0629   3.0802   3.0802
     3.1702   3.1702   3.1830   3.1830   3.2997   3.2997   3.3296   3.3296
     3.4266   3.4266   3.4571   3.4571   3.6856   3.6856   3.6984   3.6984
     3.8448   3.8448   3.8812   3.8812   4.2930   4.2930   4.3119   4.3119
     4.3615   4.3616   4.4136   4.4136   4.4851   4.4851   4.6118   4.6118
     4.6810   4.6810   4.8361   4.8362   5.1466   5.1466   5.1580   5.1580
     7.0458   7.0459   7.0771   7.0771   7.2199   7.2199   7.2334   7.2334
     7.2887   7.2887   7.3356   7.3356   7.3520   7.3520   7.4201   7.4201
     7.5183   7.5183   7.5780   7.5780   7.6689   7.6689   7.6863   7.6863
    11.5419  11.5419  11.5826  11.5826  11.8233  11.8233  11.9065  11.9065
    12.2803  12.2803  12.3318  12.3318  12.4030  12.4030  12.4197  12.4197
    12.5945  12.5945  12.7060  12.7060  13.0588  13.0588  13.1417  13.1417
    16.5471  16.5471  16.6078  16.6078  17.0389  17.0389  17.0511  17.0511
    17.3629  17.3629  17.4429  17.4429  17.4939  17.4939

          k =-0.5000-0.4734-0.5000 ( 62336 PWs)   bands (ev):

   -65.9607 -65.9607 -65.9607 -65.9607 -65.9606 -65.9606 -65.9606 -65.9606
   -30.4031 -30.4031 -30.4030 -30.4030 -30.4029 -30.4029 -30.4029 -30.4029
   -30.2455 -30.2455 -30.2455 -30.2455 -30.2453 -30.2453 -30.2453 -30.2453
   -30.2426 -30.2426 -30.2424 -30.2424 -30.2423 -30.2423 -30.2422 -30.2422
   -20.1169 -20.1169 -20.1169 -20.1169 -20.1168 -20.1168 -20.1168 -20.1168
   -20.1046 -20.1046 -20.1046 -20.1046 -20.1045 -20.1045 -20.1045 -20.1045
   -20.1034 -20.1034 -20.1033 -20.1033 -20.1032 -20.1032 -20.1032 -20.1032
   -20.1027 -20.1027 -20.1027 -20.1027 -20.1027 -20.1027 -20.1026 -20.1026
   -20.0845 -20.0844 -20.0844 -20.0844 -20.0843 -20.0843 -20.0843 -20.0843
   -20.0338 -20.0338 -20.0338 -20.0338 -20.0337 -20.0337 -20.0337 -20.0337
   -20.0335 -20.0335 -20.0334 -20.0334 -20.0334 -20.0334 -20.0333 -20.0333
    -8.8941  -8.8941  -8.8910  -8.8910  -8.8902  -8.8902  -8.8887  -8.8886
    -8.3718  -8.3718  -8.3644  -8.3644  -8.3628  -8.3627  -8.3601  -8.3601
    -8.3006  -8.3006  -8.3001  -8.3001  -8.2984  -8.2984  -8.2958  -8.2958
     3.0632   3.0632   3.0668   3.0668   3.0695   3.0695   3.0742   3.0742
     3.2081   3.2081   3.2114   3.2114   3.2146   3.2146   3.2197   3.2197
     3.4702   3.4702   3.4931   3.4931   3.5000   3.5000   3.5179   3.5179
     4.2030   4.2030   4.2068   4.2068   4.2076   4.2076   4.2078   4.2078
     4.4026   4.4026   4.4037   4.4037   4.4062   4.4062   4.4091   4.4091
     4.4926   4.4927   4.5006   4.5006   4.5025   4.5025   4.5041   4.5041
     7.1854   7.1855   7.2117   7.2117   7.2208   7.2208   7.2504   7.2504
     7.3548   7.3548   7.3592   7.3592   7.3606   7.3606   7.3634   7.3634
     7.6505   7.6505   7.6557   7.6557   7.6578   7.6578   7.6647   7.6647
    11.9292  11.9292  11.9310  11.9310  11.9318  11.9318  11.9344  11.9344
    12.3299  12.3299  12.3530  12.3530  12.3613  12.3613  12.3883  12.3883
    12.6079  12.6079  12.6198  12.6198  12.6233  12.6233  12.6324  12.6324
    17.1357  17.1357  17.1493  17.1493  17.1541  17.1541  17.1685  17.1686
    17.4309  17.4309  17.4321  17.4322  17.4333  17.4333

     the Fermi energy is    10.0444 ev

!    total energy              =   -6260.39342214 Ry
     Harris-Foulkes estimate   =   -6260.39342214 Ry
     estimated scf accuracy    <          7.2E-09 Ry

     The total energy is the sum of the following terms:

     one-electron contribution =   -4727.95725767 Ry
     hartree contribution      =    2603.48629005 Ry
     xc contribution           =    -966.77882517 Ry
     ewald contribution        =   -3169.14361458 Ry
     smearing contrib. (-TS)   =      -0.00001475 Ry

     convergence has been achieved in  13 iterations

     Writing output data file Landau_2.save
 
     init_run     :     26.66s CPU     28.34s WALL (       1 calls)
     electrons    :   1156.59s CPU   1189.49s WALL (       1 calls)

     Called by init_run:
     wfcinit      :     24.16s CPU     25.68s WALL (       1 calls)
     potinit      :      1.01s CPU      1.05s WALL (       1 calls)

     Called by electrons:
     c_bands      :   1013.32s CPU   1044.36s WALL (      13 calls)
     sum_band     :    135.74s CPU    136.83s WALL (      13 calls)
     v_of_rho     :      1.12s CPU      1.14s WALL (      14 calls)
     mix_rho      :      1.91s CPU      2.39s WALL (      13 calls)

     Called by c_bands:
     init_us_2    :      7.01s CPU      7.74s WALL (      54 calls)
     cegterg      :    758.52s CPU    787.49s WALL (      26 calls)

     Called by sum_band:

     Called by *egterg:
     h_psi        :    611.55s CPU    615.89s WALL (     122 calls)
     g_psi        :      1.31s CPU      1.31s WALL (      94 calls)
     cdiaghg      :     11.86s CPU     11.90s WALL (     120 calls)

     Called by h_psi:
     h_psi:pot    :    607.51s CPU    611.49s WALL (     122 calls)
     h_psi:calbec :     60.17s CPU     61.83s WALL (     122 calls)
     vloc_psi     :    480.31s CPU    482.17s WALL (     122 calls)
     add_vuspsi   :     67.03s CPU     67.49s WALL (     122 calls)

     General routines
     calbec       :     60.17s CPU     61.83s WALL (     122 calls)
     fft          :      0.80s CPU      0.82s WALL (      56 calls)
     fftw         :    500.78s CPU    502.19s WALL (   33712 calls)
 
     Parallel routines
 
     PWSCF        : 19m47.48s CPU    20m25.35s WALL

 
   This run was terminated on:  22:46:34  25Mar2020            

=------------------------------------------------------------------------------=
   JOB DONE.
=------------------------------------------------------------------------------=
