
     Program PWSCF v.6.2 (svn rev. 14038) starts on 13Mar2020 at 15:39:44 

     This program is part of the open-source Quantum ESPRESSO suite
     for quantum simulation of materials; please cite
         "P. Giannozzi et al., J. Phys.:Condens. Matter 21 395502 (2009);
         "P. Giannozzi et al., J. Phys.:Condens. Matter 29 465901 (2017);
          URL http://www.quantum-espresso.org", 
     in publications or presentations arising from this work. More details at
     http://www.quantum-espresso.org/quote

     Parallel version (MPI), running on    40 processors

     MPI processes distributed on     3 nodes
     K-points division:     npool     =      40
     Reading input from rscf.in

     Current dimensions of program PWSCF are:
     Max number of different atomic species (ntypx) = 10
     Max number of k-points (npk) =  40000
     Max angular momentum in pseudopotentials (lmaxx) =  3

     Subspace diagonalization in iterative solution of the eigenvalue problem:
     a serial algorithm will be used

 
     G-vector sticks info
     --------------------
     sticks:   dense  smooth     PW     G-vecs:    dense   smooth      PW
     Sum        7747    7747   2077               498127   498127   69057
 


     bravais-lattice index     =            0
     lattice parameter (alat)  =      13.8397  a.u.
     unit-cell volume          =    2804.9816 (a.u.)^3
     number of atoms/cell      =           32
     number of atomic types    =            2
     number of electrons       =       368.00
     number of Kohn-Sham states=          221
     kinetic-energy cutoff     =     120.0000  Ry
     charge density cutoff     =     480.0000  Ry
     convergence threshold     =      1.0E-08
     mixing beta               =       0.7000
     number of iterations used =            8  plain     mixing
     Exchange-correlation      = SLA PW NOGX NOGC ( 1  4  0  0 0 0)
     nstep                     =           50


     celldm(1)=  13.839685  celldm(2)=   0.000000  celldm(3)=   0.000000
     celldm(4)=   0.000000  celldm(5)=   0.000000  celldm(6)=   0.000000

     crystal axes: (cart. coord. in units of alat)
               a(1) = (   1.000000   0.000000   0.000000 )  
               a(2) = (   0.000000   1.058160   0.000000 )  
               a(3) = (   0.000000   0.000000   1.000000 )  

     reciprocal axes: (cart. coord. in units 2 pi/alat)
               b(1) = (  1.000000  0.000000  0.000000 )  
               b(2) = (  0.000000  0.945037  0.000000 )  
               b(3) = (  0.000000  0.000000  1.000000 )  


     PseudoPot. # 1 for W  read from file:
     /cluster/scratch/mnoe/QE/pps/W_ONCV_LDA-4.0.upf
     MD5 check sum: ba0307d5d4cd419d6f1d13dc49d7c13a
     Pseudo is Norm-conserving + core correction, Zval = 28.0
     Generated using ONCVPSP code by D. R. Hamann
     Using radial grid of 1380 points,  8 beta functions with: 
                l(1) =   0
                l(2) =   0
                l(3) =   1
                l(4) =   1
                l(5) =   2
                l(6) =   2
                l(7) =   3
                l(8) =   3

     PseudoPot. # 2 for O  read from file:
     /cluster/scratch/mnoe/QE/pps/O_ONCV_LDA-3.0.upf
     MD5 check sum: a1bd6164e7280c17a38c229939bfbd54
     Pseudo is Norm-conserving + core correction, Zval =  6.0
     Generated using ONCVPSP code by D. R. Hamann
     Using radial grid of  926 points,  5 beta functions with: 
                l(1) =   0
                l(2) =   0
                l(3) =   1
                l(4) =   1
                l(5) =   2

     atomic species   valence    mass     pseudopotential
        W             28.00   183.84000     W ( 1.00)
        O              6.00    15.99940     O ( 1.00)

      8 Sym. Ops., with inversion, found ( 6 have fractional translation)



   Cartesian axes

     site n.     atom                  positions (alat units)
         1           W   tau(   1) = (   0.2472300   0.2966809   0.0026200  )
         2           W   tau(   2) = (   0.7527700   0.7614792   0.9973800  )
         3           W   tau(   3) = (   0.2527700   0.2323992   0.5026200  )
         4           W   tau(   4) = (   0.7472300   0.8257609   0.4973800  )
         5           W   tau(   5) = (   0.7527700   0.2966809   0.4973800  )
         6           W   tau(   6) = (   0.2472300   0.7614792   0.5026200  )
         7           W   tau(   7) = (   0.7472300   0.2323992   0.9973800  )
         8           W   tau(   8) = (   0.2527700   0.8257609   0.0026200  )
         9           O   tau(   9) = (   0.2448800   0.0083756   0.0008200  )
        10           O   tau(  10) = (   0.7551200   1.0497845   0.9991800  )
        11           O   tau(  11) = (   0.2551200   0.5207044   0.5008200  )
        12           O   tau(  12) = (   0.7448800   0.5374556   0.4991800  )
        13           O   tau(  13) = (   0.7551200   0.0083756   0.4991800  )
        14           O   tau(  14) = (   0.2448800   1.0497845   0.5008200  )
        15           O   tau(  15) = (   0.7448800   0.5207044   0.9991800  )
        16           O   tau(  16) = (   0.2551200   0.5374556   0.0008200  )
        17           O   tau(  17) = (   0.5007600   0.2589847   0.4531729  )
        18           O   tau(  18) = (   0.4992400   0.7991754   0.5468271  )
        19           O   tau(  19) = (   0.9992399   0.2700954   0.9531729  )
        20           O   tau(  20) = (   0.0007601   0.7880648   0.0468271  )
        21           O   tau(  21) = (   0.4992400   0.2589847   0.0468271  )
        22           O   tau(  22) = (   0.5007600   0.7991754   0.9531729  )
        23           O   tau(  23) = (   0.0007601   0.2700954   0.5468271  )
        24           O   tau(  24) = (   0.9992399   0.7880648   0.4531729  )
        25           O   tau(  25) = (   0.7031729   0.2633231   0.7488500  )
        26           O   tau(  26) = (   0.2968271   0.7948370   0.2511500  )
        27           O   tau(  27) = (   0.7968271   0.2657569   0.2488500  )
        28           O   tau(  28) = (   0.2031729   0.7924032   0.7511500  )
        29           O   tau(  29) = (   0.2968271   0.2633231   0.7511500  )
        30           O   tau(  30) = (   0.7031729   0.7948370   0.2488500  )
        31           O   tau(  31) = (   0.2031729   0.2657569   0.2511500  )
        32           O   tau(  32) = (   0.7968271   0.7924032   0.7488500  )

     number of k points=    64  gaussian smearing, width (Ry)=  0.0007
                       cart. coord. in units 2pi/alat
        k(    1) = (   0.0000000   0.0000000   0.0000000), wk =   0.0092593
        k(    2) = (   0.0000000   0.0000000   0.1666667), wk =   0.0185185
        k(    3) = (   0.0000000   0.0000000   0.3333333), wk =   0.0185185
        k(    4) = (   0.0000000   0.0000000  -0.5000000), wk =   0.0092593
        k(    5) = (   0.0000000   0.1575061   0.0000000), wk =   0.0185185
        k(    6) = (   0.0000000   0.1575061   0.1666667), wk =   0.0370370
        k(    7) = (   0.0000000   0.1575061   0.3333333), wk =   0.0370370
        k(    8) = (   0.0000000   0.1575061  -0.5000000), wk =   0.0185185
        k(    9) = (   0.0000000   0.3150122   0.0000000), wk =   0.0185185
        k(   10) = (   0.0000000   0.3150122   0.1666667), wk =   0.0370370
        k(   11) = (   0.0000000   0.3150122   0.3333333), wk =   0.0370370
        k(   12) = (   0.0000000   0.3150122  -0.5000000), wk =   0.0185185
        k(   13) = (   0.0000000  -0.4725183   0.0000000), wk =   0.0092593
        k(   14) = (   0.0000000  -0.4725183   0.1666667), wk =   0.0185185
        k(   15) = (   0.0000000  -0.4725183   0.3333333), wk =   0.0185185
        k(   16) = (   0.0000000  -0.4725183  -0.5000000), wk =   0.0092593
        k(   17) = (   0.1666667   0.0000000   0.1666667), wk =   0.0370370
        k(   18) = (   0.1666667   0.0000000   0.3333333), wk =   0.0370370
        k(   19) = (   0.1666667   0.0000000  -0.5000000), wk =   0.0185185
        k(   20) = (   0.1666667   0.1575061   0.1666667), wk =   0.0740741
        k(   21) = (   0.1666667   0.1575061   0.3333333), wk =   0.0740741
        k(   22) = (   0.1666667   0.1575061  -0.5000000), wk =   0.0370370
        k(   23) = (   0.1666667   0.3150122   0.1666667), wk =   0.0740741
        k(   24) = (   0.1666667   0.3150122   0.3333333), wk =   0.0740741
        k(   25) = (   0.1666667   0.3150122  -0.5000000), wk =   0.0370370
        k(   26) = (   0.1666667  -0.4725183   0.1666667), wk =   0.0370370
        k(   27) = (   0.1666667  -0.4725183   0.3333333), wk =   0.0370370
        k(   28) = (   0.1666667  -0.4725183  -0.5000000), wk =   0.0185185
        k(   29) = (   0.3333333   0.0000000   0.3333333), wk =   0.0370370
        k(   30) = (   0.3333333   0.0000000  -0.5000000), wk =   0.0185185
        k(   31) = (   0.3333333   0.1575061   0.3333333), wk =   0.0740741
        k(   32) = (   0.3333333   0.1575061  -0.5000000), wk =   0.0370370
        k(   33) = (   0.3333333   0.3150122   0.3333333), wk =   0.0740741
        k(   34) = (   0.3333333   0.3150122  -0.5000000), wk =   0.0370370
        k(   35) = (   0.3333333  -0.4725183   0.3333333), wk =   0.0370370
        k(   36) = (   0.3333333  -0.4725183  -0.5000000), wk =   0.0185185
        k(   37) = (  -0.5000000   0.0000000  -0.5000000), wk =   0.0092593
        k(   38) = (  -0.5000000   0.1575061  -0.5000000), wk =   0.0185185
        k(   39) = (  -0.5000000   0.3150122  -0.5000000), wk =   0.0185185
        k(   40) = (  -0.5000000  -0.4725183  -0.5000000), wk =   0.0092593
        k(   41) = (   0.1666667   0.0000000   0.0000000), wk =   0.0185185
        k(   42) = (   0.3333333   0.0000000   0.0000000), wk =   0.0185185
        k(   43) = (  -0.5000000   0.0000000   0.0000000), wk =   0.0092593
        k(   44) = (   0.1666667  -0.1575061   0.0000000), wk =   0.0370370
        k(   45) = (   0.3333333  -0.1575061   0.0000000), wk =   0.0370370
        k(   46) = (  -0.5000000  -0.1575061   0.0000000), wk =   0.0185185
        k(   47) = (   0.1666667  -0.3150122   0.0000000), wk =   0.0370370
        k(   48) = (   0.3333333  -0.3150122   0.0000000), wk =   0.0370370
        k(   49) = (  -0.5000000  -0.3150122   0.0000000), wk =   0.0185185
        k(   50) = (   0.1666667   0.4725183   0.0000000), wk =   0.0185185
        k(   51) = (   0.3333333   0.4725183   0.0000000), wk =   0.0185185
        k(   52) = (  -0.5000000   0.4725183   0.0000000), wk =   0.0092593
        k(   53) = (   0.3333333   0.0000000   0.1666667), wk =   0.0370370
        k(   54) = (  -0.5000000   0.0000000   0.1666667), wk =   0.0185185
        k(   55) = (   0.3333333  -0.1575061   0.1666667), wk =   0.0740741
        k(   56) = (  -0.5000000  -0.1575061   0.1666667), wk =   0.0370370
        k(   57) = (   0.3333333  -0.3150122   0.1666667), wk =   0.0740741
        k(   58) = (  -0.5000000  -0.3150122   0.1666667), wk =   0.0370370
        k(   59) = (   0.3333333   0.4725183   0.1666667), wk =   0.0370370
        k(   60) = (  -0.5000000   0.4725183   0.1666667), wk =   0.0185185
        k(   61) = (  -0.5000000   0.0000000   0.3333333), wk =   0.0185185
        k(   62) = (  -0.5000000  -0.1575061   0.3333333), wk =   0.0370370
        k(   63) = (  -0.5000000  -0.3150122   0.3333333), wk =   0.0370370
        k(   64) = (  -0.5000000   0.4725183   0.3333333), wk =   0.0185185

     Dense  grid:   498127 G-vectors     FFT dimensions: ( 100, 108, 100)

     Estimated max dynamical RAM per process >       3.15 GB

     Estimated total dynamical RAM >     125.81 GB

     Initial potential from superposition of free atoms

     starting charge  367.99656, renormalised to  368.00000
     Starting wfc are  232 randomized atomic wfcs

     total cpu time spent up to now is       69.4 secs

     Self-consistent Calculation

     iteration #  1     ecut=   120.00 Ry     beta= 0.70
     Davidson diagonalization with overlap
     ethr =  1.00E-02,  avg # of iterations =  5.0

     total cpu time spent up to now is      250.5 secs

     total energy              =   -6254.00661011 Ry
     Harris-Foulkes estimate   =   -6264.58793879 Ry
     estimated scf accuracy    <      13.40426609 Ry

     iteration #  2     ecut=   120.00 Ry     beta= 0.70
     Davidson diagonalization with overlap
     ethr =  3.64E-03,  avg # of iterations =  3.4

     total cpu time spent up to now is      427.9 secs

     total energy              =   -6250.90014168 Ry
     Harris-Foulkes estimate   =   -6270.73151357 Ry
     estimated scf accuracy    <      53.20973980 Ry

     iteration #  3     ecut=   120.00 Ry     beta= 0.70
     Davidson diagonalization with overlap
     ethr =  3.64E-03,  avg # of iterations =  3.4

     total cpu time spent up to now is      597.6 secs

     total energy              =   -6261.08079210 Ry
     Harris-Foulkes estimate   =   -6261.38663267 Ry
     estimated scf accuracy    <       0.99285566 Ry

     iteration #  4     ecut=   120.00 Ry     beta= 0.70
     Davidson diagonalization with overlap
     ethr =  2.70E-04,  avg # of iterations =  3.0

     total cpu time spent up to now is      736.8 secs

     total energy              =   -6261.09590311 Ry
     Harris-Foulkes estimate   =   -6261.16841798 Ry
     estimated scf accuracy    <       0.24929383 Ry

     iteration #  5     ecut=   120.00 Ry     beta= 0.70
     Davidson diagonalization with overlap
     ethr =  6.77E-05,  avg # of iterations =  4.6

     total cpu time spent up to now is      881.3 secs

     total energy              =   -6261.08893122 Ry
     Harris-Foulkes estimate   =   -6261.12496723 Ry
     estimated scf accuracy    <       0.07863735 Ry

     iteration #  6     ecut=   120.00 Ry     beta= 0.70
     Davidson diagonalization with overlap
     ethr =  2.14E-05,  avg # of iterations =  5.2

     total cpu time spent up to now is     1034.4 secs

     total energy              =   -6261.10648646 Ry
     Harris-Foulkes estimate   =   -6261.10841633 Ry
     estimated scf accuracy    <       0.00529907 Ry

     iteration #  7     ecut=   120.00 Ry     beta= 0.70
     Davidson diagonalization with overlap
     ethr =  1.44E-06,  avg # of iterations =  4.8

     total cpu time spent up to now is     1183.2 secs

     total energy              =   -6261.10711763 Ry
     Harris-Foulkes estimate   =   -6261.10720703 Ry
     estimated scf accuracy    <       0.00019214 Ry

     iteration #  8     ecut=   120.00 Ry     beta= 0.70
     Davidson diagonalization with overlap
     ethr =  5.22E-08,  avg # of iterations =  3.0

     total cpu time spent up to now is     1476.3 secs

     total energy              =   -6261.10717781 Ry
     Harris-Foulkes estimate   =   -6261.10718137 Ry
     estimated scf accuracy    <       0.00001400 Ry

     iteration #  9     ecut=   120.00 Ry     beta= 0.70
     Davidson diagonalization with overlap
     ethr =  3.80E-09,  avg # of iterations =  2.0

     total cpu time spent up to now is     1700.5 secs

     total energy              =   -6261.10717788 Ry
     Harris-Foulkes estimate   =   -6261.10717991 Ry
     estimated scf accuracy    <       0.00000973 Ry

     iteration # 10     ecut=   120.00 Ry     beta= 0.70
     Davidson diagonalization with overlap
     ethr =  2.64E-09,  avg # of iterations =  1.9

     total cpu time spent up to now is     1942.3 secs

     total energy              =   -6261.10717680 Ry
     Harris-Foulkes estimate   =   -6261.10717842 Ry
     estimated scf accuracy    <       0.00000368 Ry

     iteration # 11     ecut=   120.00 Ry     beta= 0.70
     Davidson diagonalization with overlap
     ethr =  9.99E-10,  avg # of iterations =  2.9

     total cpu time spent up to now is     2089.6 secs

     total energy              =   -6261.10717760 Ry
     Harris-Foulkes estimate   =   -6261.10717764 Ry
     estimated scf accuracy    <       0.00000011 Ry

     iteration # 12     ecut=   120.00 Ry     beta= 0.70
     Davidson diagonalization with overlap
     ethr =  3.03E-11,  avg # of iterations =  2.0

     total cpu time spent up to now is     2481.9 secs

     total energy              =   -6261.10717761 Ry
     Harris-Foulkes estimate   =   -6261.10717762 Ry
     estimated scf accuracy    <       0.00000002 Ry

     iteration # 13     ecut=   120.00 Ry     beta= 0.70
     Davidson diagonalization with overlap
     ethr =  6.17E-12,  avg # of iterations =  2.8

     total cpu time spent up to now is     2930.2 secs

     End of self-consistent calculation

          k = 0.0000 0.0000 0.0000 ( 62239 PWs)   bands (ev):

   -66.1715 -66.1711 -66.1705 -66.1705 -66.1701 -66.1701 -66.1695 -66.1691
   -30.5497 -30.5455 -30.5452 -30.5413 -30.5340 -30.5319 -30.5299 -30.5296
   -30.5285 -30.5263 -30.5246 -30.5245 -30.4883 -30.4861 -30.4858 -30.4836
   -30.4306 -30.4297 -30.4281 -30.4269 -30.4262 -30.4252 -30.4236 -30.4224
   -20.3295 -20.3295 -20.3294 -20.3294 -20.3294 -20.3294 -20.3293 -20.3293
   -20.3103 -20.3100 -20.3100 -20.3097 -20.3062 -20.3060 -20.3058 -20.3058
   -20.3056 -20.3055 -20.3053 -20.3050 -20.3048 -20.3046 -20.3046 -20.3046
   -20.3045 -20.3044 -20.3042 -20.3042 -20.3037 -20.3036 -20.3035 -20.3034
   -20.2979 -20.2979 -20.2975 -20.2974 -20.2973 -20.2971 -20.2969 -20.2969
   -20.2947 -20.2946 -20.2945 -20.2945 -20.2944 -20.2944 -20.2943 -20.2942
   -20.2893 -20.2892 -20.2888 -20.2887 -20.2886 -20.2886 -20.2881 -20.2881
    -9.9802  -9.7285  -9.5391  -9.5364  -9.3144  -9.3096  -9.1131  -9.1001
    -9.0329  -8.8629  -8.8526  -8.8515  -7.8203  -7.7891  -7.7831  -7.7622
    -7.7614  -7.7566  -7.7553  -7.7029  -7.6502  -7.6476  -7.6280  -7.6264
     1.0866   1.0871   1.1919   1.1971   1.2031   1.2093   1.3485   1.5519
     1.6473   1.6491   1.6536   1.8204   2.3310   2.4062   2.5729   2.5734
     2.7170   2.7170   4.1313   4.1373   4.3100   4.3186   4.7514   4.7524
     4.7806   4.7824   4.8738   4.8866   5.0411   5.0425   5.0585   5.4807
     5.4859   5.4982   5.5074   5.5423   5.5424   5.5742   5.5841   5.8643
     5.8693   5.8835   5.8843   5.8901   5.9915   6.0308   6.0341   6.1025
     6.1046   6.2584   6.2610   6.5125   6.5165   6.8396   6.8436   6.8495
     6.8761   6.8799   6.9902   7.0298   7.0719   7.0762   7.3348   7.3403
     7.3672   7.3725   7.8338   7.8477   8.0832   8.0883   8.1552   8.1606
     9.2076   9.2082   9.9215   9.9237   9.9447   9.9472  12.2736  12.2765
    12.3080  12.3176  12.3712  12.3752  12.4709  12.4749  12.9751  13.0023
    13.2396  13.2552  13.3880  13.3954  13.7948  14.1207  14.1571  14.1652
    14.1753  14.3412  14.3794  14.8966  15.4345  15.4461  15.4462  16.1133
    16.1136  16.9021  17.1180  17.1214  17.4948

          k = 0.0000 0.0000 0.1667 ( 62262 PWs)   bands (ev):

   -66.1714 -66.1711 -66.1706 -66.1704 -66.1702 -66.1700 -66.1696 -66.1692
   -30.5497 -30.5459 -30.5454 -30.5416 -30.5314 -30.5296 -30.5275 -30.5267
   -30.5249 -30.5226 -30.5222 -30.5175 -30.4877 -30.4862 -30.4856 -30.4841
   -30.4373 -30.4349 -30.4328 -30.4303 -30.4294 -30.4266 -30.4255 -30.4227
   -20.3295 -20.3295 -20.3294 -20.3294 -20.3294 -20.3294 -20.3293 -20.3293
   -20.3103 -20.3101 -20.3100 -20.3098 -20.3061 -20.3060 -20.3058 -20.3058
   -20.3057 -20.3054 -20.3053 -20.3051 -20.3049 -20.3047 -20.3046 -20.3046
   -20.3045 -20.3044 -20.3043 -20.3042 -20.3037 -20.3037 -20.3035 -20.3035
   -20.2979 -20.2976 -20.2975 -20.2971 -20.2971 -20.2970 -20.2969 -20.2966
   -20.2946 -20.2945 -20.2945 -20.2944 -20.2944 -20.2943 -20.2943 -20.2943
   -20.2897 -20.2892 -20.2892 -20.2891 -20.2888 -20.2887 -20.2884 -20.2882
    -9.9313  -9.6739  -9.5527  -9.4691  -9.3229  -9.2224  -9.0723  -9.0575
    -9.0418  -8.8558  -8.8532  -8.8286  -7.9153  -7.9000  -7.8236  -7.7853
    -7.7745  -7.7627  -7.7604  -7.7523  -7.7469  -7.7063  -7.6565  -7.6352
     1.1767   1.1825   1.2004   1.2149   1.4167   1.4272   1.4693   1.6410
     1.6462   1.6900   1.7267   1.9242   2.4196   2.4975   2.5825   2.6623
     2.7084   2.8046   4.0830   4.1344   4.3043   4.3157   4.3340   4.3995
     4.6769   4.7653   4.8253   4.8380   4.8658   5.0317   5.0410   5.2808
     5.3213   5.4501   5.4874   5.5287   5.5973   5.6083   5.6257   5.6289
     5.7174   5.8254   5.8610   5.9200   6.0030   6.0776   6.1044   6.1072
     6.2733   6.3922   6.4738   6.5061   6.7088   6.7451   6.8113   6.8187
     6.8256   6.8723   6.9630   6.9869   7.0177   7.0850   7.1011   7.1047
     7.1581   7.2172   7.8393   7.8429   8.0478   8.1032   8.1168   8.1562
     9.5662   9.5913   9.9238   9.9429  10.1947  10.2345  12.2119  12.2649
    12.2687  12.3499  12.3583  12.3963  12.4772  12.5728  12.9654  13.0261
    13.0414  13.2501  13.2997  13.3878  13.9111  14.0097  14.0319  14.1190
    14.1786  14.3740  14.4668  15.0120  15.4125  15.4767  15.5086  16.0860
    16.4376  16.8452  17.0738  17.3158  17.5458

          k = 0.0000 0.0000 0.3333 ( 62268 PWs)   bands (ev):

   -66.1713 -66.1709 -66.1708 -66.1704 -66.1702 -66.1699 -66.1697 -66.1693
   -30.5492 -30.5468 -30.5450 -30.5426 -30.5304 -30.5286 -30.5277 -30.5259
   -30.5102 -30.5056 -30.5039 -30.4989 -30.4877 -30.4857 -30.4853 -30.4837
   -30.4552 -30.4534 -30.4507 -30.4487 -30.4286 -30.4263 -30.4258 -30.4235
   -20.3295 -20.3294 -20.3294 -20.3294 -20.3294 -20.3294 -20.3293 -20.3293
   -20.3103 -20.3101 -20.3100 -20.3098 -20.3059 -20.3058 -20.3057 -20.3056
   -20.3055 -20.3052 -20.3052 -20.3052 -20.3050 -20.3049 -20.3048 -20.3048
   -20.3045 -20.3044 -20.3043 -20.3041 -20.3039 -20.3037 -20.3037 -20.3035
   -20.2978 -20.2976 -20.2972 -20.2970 -20.2964 -20.2964 -20.2961 -20.2959
   -20.2950 -20.2949 -20.2948 -20.2947 -20.2936 -20.2936 -20.2935 -20.2934
   -20.2909 -20.2904 -20.2904 -20.2900 -20.2891 -20.2887 -20.2886 -20.2883
    -9.8137  -9.6028  -9.5496  -9.3633  -9.2998  -9.0732  -8.9632  -8.9601
    -8.9049  -8.8686  -8.7976  -8.7300  -8.2294  -8.2270  -8.1356  -8.1172
    -7.7980  -7.7708  -7.7493  -7.7399  -7.7271  -7.7157  -7.6809  -7.6594
     1.2089   1.2200   1.2294   1.2462   1.5632   1.5906   1.6244   1.6300
     2.1828   2.2247   2.3852   2.4672   2.6067   2.6773   2.6930   2.7651
     2.9056   3.0350   3.6944   3.7785   3.8506   3.9418   4.1791   4.2286
     4.2594   4.4633   4.5267   4.7705   4.8245   4.8291   4.8974   4.9796
     5.1021   5.1257   5.1618   5.3490   5.4248   5.4484   5.6591   5.6978
     5.7735   5.7853   5.8305   5.9777   6.0297   6.1478   6.2354   6.2810
     6.2890   6.4093   6.4711   6.5462   6.5760   6.5801   6.6182   6.7300
     6.8072   6.8657   6.8696   6.9704   7.0035   7.0405   7.0790   7.0925
     7.3060   7.3460   7.7551   7.7757   7.9222   7.9763   8.1393   8.1576
     9.9215   9.9374  10.3077  10.3701  10.8295  10.9215  11.8229  11.8646
    12.0866  12.4788  12.4886  12.5033  12.5329  12.5852  12.6832  12.8387
    12.9695  13.1349  13.1797  13.3937  13.6669  13.6887  14.0755  14.1144
    14.2349  14.3566  14.7863  15.3039  15.3040  15.6455  15.9301  16.0014
    16.2964  17.3080  17.4456  17.6201  17.6897

          k = 0.0000 0.0000-0.5000 ( 62264 PWs)   bands (ev):

   -66.1710 -66.1710 -66.1706 -66.1706 -66.1700 -66.1700 -66.1696 -66.1696
   -30.5481 -30.5481 -30.5439 -30.5439 -30.5291 -30.5291 -30.5272 -30.5272
   -30.4921 -30.4921 -30.4907 -30.4907 -30.4787 -30.4787 -30.4762 -30.4762
   -30.4738 -30.4738 -30.4732 -30.4732 -30.4274 -30.4274 -30.4247 -30.4247
   -20.3295 -20.3295 -20.3294 -20.3294 -20.3294 -20.3294 -20.3293 -20.3293
   -20.3102 -20.3102 -20.3099 -20.3099 -20.3058 -20.3058 -20.3055 -20.3055
   -20.3053 -20.3053 -20.3052 -20.3052 -20.3050 -20.3050 -20.3050 -20.3050
   -20.3045 -20.3045 -20.3041 -20.3041 -20.3039 -20.3039 -20.3036 -20.3036
   -20.2977 -20.2977 -20.2971 -20.2971 -20.2956 -20.2956 -20.2956 -20.2956
   -20.2953 -20.2953 -20.2953 -20.2953 -20.2924 -20.2924 -20.2921 -20.2921
   -20.2921 -20.2921 -20.2918 -20.2918 -20.2889 -20.2889 -20.2884 -20.2884
    -9.6910  -9.6910  -9.4361  -9.4361  -9.1482  -9.1482  -8.8933  -8.8933
    -8.6103  -8.6103  -8.5744  -8.5744  -8.5704  -8.5703  -8.4849  -8.4848
    -7.7847  -7.7847  -7.7286  -7.7286  -7.7143  -7.7143  -7.6930  -7.6929
     1.2185   1.2185   1.2454   1.2454   1.6051   1.6051   1.6133   1.6133
     2.6378   2.6378   2.9442   2.9442   3.0700   3.0701   3.1263   3.1263
     3.2121   3.2121   3.2705   3.2705   3.4026   3.4027   3.7454   3.7454
     3.8724   3.8724   4.3863   4.3863   4.7673   4.7674   4.8764   4.8764
     5.2285   5.2285   5.2745   5.2745   5.2811   5.2811   5.7469   5.7469
     5.7563   5.7563   5.9699   5.9699   6.1514   6.1514   6.2388   6.2388
     6.2962   6.2962   6.4108   6.4108   6.4936   6.4936   6.5021   6.5021
     6.7868   6.7868   6.8626   6.8626   7.0613   7.0613   7.4723   7.4724
     7.5299   7.5299   7.6897   7.6898   7.7170   7.7170   8.1550   8.1550
     9.9295   9.9295  11.1230  11.1230  11.1848  11.1848  11.5494  11.5494
    11.7372  11.7372  12.5206  12.5206  12.7296  12.7296  12.8191  12.8191
    12.9281  12.9281  13.2387  13.2387  13.4420  13.4420  14.1066  14.1066
    14.3183  14.3183  15.0992  15.0992  15.7433  15.7433  15.8526  15.8526
    16.7092  16.7092  17.8706  17.8707  18.2108

          k = 0.0000 0.1575 0.0000 ( 62231 PWs)   bands (ev):

   -66.1715 -66.1711 -66.1705 -66.1705 -66.1701 -66.1701 -66.1695 -66.1691
   -30.5461 -30.5419 -30.5414 -30.5374 -30.5338 -30.5317 -30.5302 -30.5294
   -30.5283 -30.5259 -30.5248 -30.5247 -30.4922 -30.4900 -30.4897 -30.4875
   -30.4304 -30.4295 -30.4282 -30.4271 -30.4260 -30.4250 -30.4237 -30.4226
   -20.3295 -20.3295 -20.3294 -20.3294 -20.3294 -20.3294 -20.3293 -20.3293
   -20.3100 -20.3097 -20.3097 -20.3094 -20.3062 -20.3061 -20.3058 -20.3058
   -20.3056 -20.3056 -20.3054 -20.3051 -20.3050 -20.3048 -20.3048 -20.3045
   -20.3045 -20.3045 -20.3044 -20.3042 -20.3038 -20.3038 -20.3036 -20.3035
   -20.2979 -20.2978 -20.2975 -20.2974 -20.2973 -20.2972 -20.2970 -20.2969
   -20.2947 -20.2947 -20.2945 -20.2945 -20.2944 -20.2944 -20.2943 -20.2942
   -20.2892 -20.2892 -20.2888 -20.2887 -20.2886 -20.2886 -20.2881 -20.2881
    -9.9549  -9.7390  -9.5098  -9.5068  -9.3211  -9.3164  -9.1122  -9.1010
    -8.9593  -8.8131  -8.8072  -8.8062  -7.9120  -7.8565  -7.8556  -7.8096
    -7.7874  -7.7854  -7.7643  -7.7632  -7.6488  -7.6467  -7.6297  -7.6279
     1.0866   1.0871   1.1969   1.2025   1.2031   1.2094   1.4431   1.5513
     1.8291   1.8838   1.8855   2.0312   2.3359   2.4010   2.6441   2.6444
     2.7842   2.7845   3.9940   4.0006   4.0622   4.0695   4.7533   4.7543
     4.7755   4.7777   4.7992   4.9473   4.9636   5.0120   5.0138   5.2842
     5.2871   5.4500   5.4503   5.6073   5.6088   5.6386   5.6623   5.6740
     5.8185   5.8212   5.9298   5.9401   5.9429   6.0333   6.0353   6.1083
     6.1090   6.2494   6.2548   6.5347   6.5394   6.8340   6.8506   6.8630
     6.8680   6.9041   6.9045   6.9815   6.9816   6.9828   7.3422   7.3468
     7.3675   7.3719   7.8385   7.8471   8.0431   8.0472   8.0757   8.0793
     9.2077   9.2085  10.1242  10.1245  10.1277  10.1284  12.1474  12.1549
    12.3150  12.3185  12.3224  12.3248  12.3705  12.3729  12.9795  13.0022
    13.2743  13.2872  13.3979  13.4046  14.0225  14.0571  14.0600  14.0748
    14.1974  14.6261  14.6369  15.0481  15.4348  15.4447  15.8517  16.0781
    16.0789  16.5925  17.2462  17.2499  17.5240

          k = 0.0000 0.1575 0.1667 ( 62237 PWs)   bands (ev):

   -66.1714 -66.1711 -66.1705 -66.1704 -66.1702 -66.1701 -66.1695 -66.1692
   -30.5461 -30.5422 -30.5417 -30.5378 -30.5310 -30.5298 -30.5273 -30.5263
   -30.5252 -30.5226 -30.5220 -30.5176 -30.4915 -30.4901 -30.4895 -30.4880
   -30.4372 -30.4351 -30.4327 -30.4305 -30.4292 -30.4268 -30.4253 -30.4229
   -20.3295 -20.3295 -20.3294 -20.3294 -20.3294 -20.3294 -20.3293 -20.3293
   -20.3100 -20.3097 -20.3097 -20.3094 -20.3061 -20.3060 -20.3058 -20.3057
   -20.3056 -20.3056 -20.3053 -20.3051 -20.3051 -20.3049 -20.3048 -20.3046
   -20.3046 -20.3045 -20.3043 -20.3043 -20.3039 -20.3037 -20.3036 -20.3036
   -20.2978 -20.2976 -20.2975 -20.2971 -20.2971 -20.2970 -20.2969 -20.2966
   -20.2946 -20.2945 -20.2945 -20.2944 -20.2944 -20.2943 -20.2943 -20.2943
   -20.2897 -20.2892 -20.2892 -20.2891 -20.2888 -20.2888 -20.2884 -20.2882
    -9.9049  -9.6844  -9.5230  -9.4358  -9.3298  -9.2292  -9.0711  -9.0584
    -8.9683  -8.8107  -8.8048  -8.7871  -7.9187  -7.9137  -7.9063  -7.8565
    -7.8428  -7.8227  -7.7839  -7.7745  -7.7571  -7.7540  -7.6557  -7.6367
     1.1800   1.1825   1.2070   1.2150   1.4454   1.4692   1.5627   1.7260
     1.8360   1.8783   1.8978   2.0737   2.4251   2.4920   2.6532   2.7355
     2.7760   2.8724   3.9730   4.0127   4.0574   4.0996   4.3409   4.3972
     4.7189   4.7361   4.7801   4.8181   4.8308   4.9560   5.0180   5.2381
     5.2442   5.2885   5.3077   5.4647   5.5675   5.5745   5.6531   5.7148
     5.7231   5.7905   5.8663   5.8743   5.9179   6.0903   6.1015   6.1374
     6.2005   6.3822   6.4471   6.5288   6.7231   6.7995   6.8141   6.8249
     6.8291   6.9077   6.9424   6.9500   6.9944   6.9975   7.1019   7.1044
     7.1752   7.2178   7.8419   7.8430   8.0084   8.0410   8.0482   8.0770
     9.5711   9.5910  10.1252  10.1291  10.3643  10.3800  12.1364  12.2272
    12.2337  12.2645  12.3211  12.3390  12.3751  12.4737  12.9728  13.0295
    13.0774  13.2800  13.3058  13.3959  13.9098  13.9406  14.0371  14.0553
    14.3003  14.6318  14.7752  15.1508  15.4761  15.5093  15.8188  16.0514
    16.4003  16.7488  16.9651  17.4244  17.5917

          k = 0.0000 0.1575 0.3333 ( 62284 PWs)   bands (ev):

   -66.1712 -66.1709 -66.1707 -66.1704 -66.1702 -66.1699 -66.1697 -66.1694
   -30.5456 -30.5432 -30.5413 -30.5388 -30.5300 -30.5288 -30.5273 -30.5261
   -30.5104 -30.5060 -30.5040 -30.4990 -30.4915 -30.4895 -30.4886 -30.4872
   -30.4552 -30.4536 -30.4507 -30.4489 -30.4284 -30.4261 -30.4260 -30.4237
   -20.3295 -20.3294 -20.3294 -20.3294 -20.3294 -20.3294 -20.3293 -20.3293
   -20.3100 -20.3098 -20.3096 -20.3095 -20.3059 -20.3058 -20.3057 -20.3057
   -20.3055 -20.3054 -20.3053 -20.3052 -20.3052 -20.3050 -20.3048 -20.3048
   -20.3047 -20.3044 -20.3044 -20.3043 -20.3040 -20.3038 -20.3037 -20.3036
   -20.2978 -20.2976 -20.2973 -20.2971 -20.2964 -20.2964 -20.2961 -20.2959
   -20.2950 -20.2949 -20.2947 -20.2947 -20.2936 -20.2936 -20.2935 -20.2934
   -20.2909 -20.2905 -20.2904 -20.2900 -20.2891 -20.2887 -20.2886 -20.2883
    -9.7853  -9.5731  -9.5596  -9.3709  -9.2520  -9.0006  -8.9671  -8.9516
    -8.9065  -8.8245  -8.7616  -8.7029  -8.2346  -8.2247  -8.1466  -8.1149
    -7.8898  -7.8661  -7.8403  -7.8149  -7.7488  -7.7287  -7.6802  -7.6610
     1.2186   1.2294   1.2335   1.2461   1.7643   1.7882   1.8661   1.8751
     2.1816   2.2421   2.3857   2.4908   2.6766   2.6850   2.7423   2.7760
     2.9801   3.0975   3.6940   3.7739   3.8395   3.8908   4.0675   4.1008
     4.2386   4.3266   4.5443   4.7189   4.7430   4.7889   4.7895   4.8941
     5.0455   5.0826   5.0973   5.1624   5.3680   5.3897   5.4602   5.6485
     5.7134   5.7754   5.8432   5.8988   5.9598   6.1182   6.1764   6.2325
     6.3185   6.4941   6.5410   6.5626   6.6112   6.6726   6.7080   6.7716
     6.8235   6.8349   6.9153   6.9407   6.9825   7.0151   7.0583   7.0807
     7.3002   7.3407   7.7596   7.7741   7.8882   7.9175   8.0682   8.0794
    10.1204  10.1268  10.3159  10.3727  10.9449  11.0144  11.8242  11.8624
    12.0434  12.3320  12.4600  12.4798  12.5216  12.5550  12.6388  12.7381
    12.9601  13.1401  13.1953  13.3939  13.5707  13.6015  14.0438  14.0517
    14.4955  14.6168  15.1387  15.4182  15.6347  15.7147  15.9507  15.9694
    16.4169  17.2101  17.2623  17.4978  17.8284

          k = 0.0000 0.1575-0.5000 ( 62234 PWs)   bands (ev):

   -66.1710 -66.1710 -66.1706 -66.1706 -66.1700 -66.1700 -66.1696 -66.1696
   -30.5444 -30.5444 -30.5401 -30.5401 -30.5286 -30.5286 -30.5275 -30.5275
   -30.4949 -30.4949 -30.4935 -30.4935 -30.4788 -30.4788 -30.4774 -30.4774
   -30.4740 -30.4740 -30.4739 -30.4739 -30.4273 -30.4273 -30.4248 -30.4248
   -20.3295 -20.3295 -20.3294 -20.3294 -20.3294 -20.3294 -20.3293 -20.3293
   -20.3099 -20.3099 -20.3096 -20.3096 -20.3058 -20.3058 -20.3055 -20.3055
   -20.3054 -20.3054 -20.3052 -20.3052 -20.3051 -20.3051 -20.3051 -20.3050
   -20.3045 -20.3045 -20.3042 -20.3042 -20.3041 -20.3041 -20.3036 -20.3036
   -20.2977 -20.2977 -20.2972 -20.2972 -20.2956 -20.2956 -20.2956 -20.2956
   -20.2953 -20.2953 -20.2953 -20.2952 -20.2924 -20.2924 -20.2921 -20.2921
   -20.2921 -20.2921 -20.2918 -20.2918 -20.2889 -20.2889 -20.2885 -20.2885
    -9.6614  -9.6613  -9.4448  -9.4448  -9.0819  -9.0818  -8.8551  -8.8551
    -8.6136  -8.6136  -8.5782  -8.5782  -8.5663  -8.5663  -8.4763  -8.4763
    -7.8791  -7.8791  -7.8284  -7.8284  -7.7142  -7.7142  -7.6945  -7.6945
     1.2317   1.2317   1.2454   1.2454   1.7970   1.7970   1.8774   1.8774
     2.7050   2.7050   2.9591   2.9591   3.0630   3.0630   3.1641   3.1641
     3.2223   3.2224   3.2679   3.2679   3.3929   3.3929   3.7517   3.7517
     3.9236   3.9236   4.2062   4.2062   4.6250   4.6250   4.7548   4.7549
     5.0859   5.0859   5.2530   5.2530   5.2620   5.2621   5.4941   5.4941
     5.7296   5.7296   5.8743   5.8743   6.1487   6.1487   6.2925   6.2925
     6.3109   6.3109   6.4334   6.4334   6.4830   6.4830   6.6877   6.6877
     6.8579   6.8579   6.8715   6.8715   6.9649   6.9649   7.4847   7.4847
     7.5243   7.5243   7.6656   7.6656   7.6860   7.6860   8.0786   8.0786
    10.1267  10.1267  11.1280  11.1280  11.1827  11.1828  11.6142  11.6142
    11.7985  11.7985  12.3859  12.3859  12.7018  12.7018  12.8299  12.8299
    12.8633  12.8633  13.1440  13.1440  13.4167  13.4167  14.0472  14.0472
    14.5837  14.5837  15.4756  15.4756  15.8277  15.8277  15.8758  15.8758
    16.7513  16.7513  17.6736  17.6736  18.1913

          k = 0.0000 0.3150 0.0000 ( 62175 PWs)   bands (ev):

   -66.1714 -66.1712 -66.1704 -66.1704 -66.1702 -66.1702 -66.1694 -66.1692
   -30.5380 -30.5333 -30.5328 -30.5318 -30.5316 -30.5309 -30.5278 -30.5273
   -30.5266 -30.5256 -30.5242 -30.5237 -30.5028 -30.5007 -30.5002 -30.4981
   -30.4300 -30.4290 -30.4287 -30.4276 -30.4256 -30.4247 -30.4241 -30.4231
   -20.3295 -20.3295 -20.3294 -20.3294 -20.3294 -20.3294 -20.3293 -20.3293
   -20.3090 -20.3087 -20.3087 -20.3084 -20.3066 -20.3062 -20.3061 -20.3060
   -20.3058 -20.3057 -20.3056 -20.3055 -20.3054 -20.3054 -20.3051 -20.3051
   -20.3044 -20.3044 -20.3042 -20.3042 -20.3040 -20.3039 -20.3038 -20.3037
   -20.2978 -20.2977 -20.2975 -20.2974 -20.2973 -20.2972 -20.2971 -20.2970
   -20.2947 -20.2947 -20.2945 -20.2945 -20.2944 -20.2944 -20.2943 -20.2942
   -20.2891 -20.2891 -20.2889 -20.2888 -20.2885 -20.2885 -20.2882 -20.2882
    -9.8931  -9.7711  -9.4443  -9.4407  -9.3426  -9.3380  -9.1098  -9.1034
    -8.7519  -8.6607  -8.6605  -8.6601  -8.1545  -8.1098  -8.1092  -8.0816
    -7.7826  -7.7815  -7.7692  -7.7681  -7.6448  -7.6430  -7.6338  -7.6320
     1.0867   1.0869   1.2013   1.2031   1.2072   1.2093   1.5204   1.5489
     2.3493   2.3869   2.3993   2.5429   2.5456   2.7038   2.8530   2.8550
     2.9802   2.9828   3.6100   3.6172   3.6556   3.6632   4.1549   4.4797
     4.4827   4.7592   4.7605   4.7660   4.7863   4.7879   5.0803   5.0825
     5.1157   5.1184   5.3739   5.3752   5.6281   5.6291   5.6614   5.6633
     5.8902   5.8916   5.8925   5.8934   6.0267   6.0271   6.0431   6.1276
     6.1288   6.2092   6.2180   6.5039   6.5982   6.6014   6.8260   6.8266
     6.8799   6.9555   7.1087   7.1093   7.1153   7.1173   7.3521   7.3534
     7.3722   7.3735   7.8319   7.8367   7.8512   7.8513   7.8681   7.8696
     9.2079   9.2086  10.5940  10.5972  10.6428  10.6442  11.7634  11.7708
    11.8857  11.8887  12.3454  12.3487  12.3672  12.3694  12.9886  13.0008
    13.3844  13.3915  13.4650  13.4714  13.8259  13.8280  13.8512  13.8596
    14.8364  15.2221  15.2236  15.4360  15.4415  15.6137  15.9581  15.9600
    16.0290  16.8568  17.2291  17.6895  17.6937

          k = 0.0000 0.3150 0.1667 ( 62260 PWs)   bands (ev):

   -66.1713 -66.1711 -66.1705 -66.1703 -66.1703 -66.1701 -66.1695 -66.1693
   -30.5376 -30.5332 -30.5323 -30.5306 -30.5292 -30.5272 -30.5270 -30.5259
   -30.5241 -30.5218 -30.5217 -30.5174 -30.5019 -30.5006 -30.4999 -30.4985
   -30.4368 -30.4355 -30.4322 -30.4310 -30.4287 -30.4273 -30.4248 -30.4234
   -20.3295 -20.3295 -20.3294 -20.3294 -20.3294 -20.3294 -20.3293 -20.3293
   -20.3090 -20.3087 -20.3087 -20.3084 -20.3066 -20.3062 -20.3061 -20.3059
   -20.3057 -20.3057 -20.3056 -20.3054 -20.3054 -20.3053 -20.3051 -20.3050
   -20.3045 -20.3045 -20.3042 -20.3042 -20.3041 -20.3039 -20.3039 -20.3037
   -20.2977 -20.2976 -20.2974 -20.2972 -20.2972 -20.2971 -20.2968 -20.2967
   -20.2946 -20.2945 -20.2945 -20.2944 -20.2944 -20.2943 -20.2943 -20.2943
   -20.2896 -20.2893 -20.2891 -20.2890 -20.2888 -20.2888 -20.2884 -20.2883
    -9.8411  -9.7166  -9.4565  -9.3617  -9.3520  -9.2512  -9.0681  -9.0609
    -8.7605  -8.6654  -8.6555  -8.6490  -8.1550  -8.1199  -8.1064  -8.0892
    -7.9092  -7.8945  -7.7799  -7.7719  -7.7663  -7.7585  -7.6519  -7.6408
     1.1819   1.1825   1.2125   1.2149   1.4626   1.4687   1.6853   1.7230
     2.4009   2.4390   2.4775   2.5187   2.5450   2.6897   2.8607   2.9600
     2.9727   3.0799   3.6182   3.6543   3.6555   3.6989   4.1459   4.3591
     4.3703   4.4934   4.4984   4.7689   4.7913   4.8177   4.8408   4.8999
     5.0737   5.1225   5.1638   5.2843   5.4286   5.4428   5.6120   5.6292
     5.6848   5.7527   5.7895   5.8741   6.0438   6.0845   6.0990   6.1203
     6.2279   6.3971   6.3987   6.5725   6.5905   6.8145   6.8542   6.9081
     6.9497   6.9592   7.0669   7.0873   7.0924   7.0997   7.1059   7.1319
     7.2232   7.2341   7.8155   7.8305   7.8315   7.8471   7.8539   7.8659
     9.5792   9.5890  10.6022  10.6439  10.7803  10.8150  11.7700  11.8604
    11.8896  11.9671  12.2445  12.2604  12.3992  12.4264  12.9930  13.0312
    13.1947  13.3562  13.3784  13.4608  13.6714  13.7256  13.8253  13.8480
    14.9654  15.2160  15.4369  15.4719  15.5159  15.6860  15.9341  16.1913
    16.2712  16.8207  17.2979  17.3571  17.8093

          k = 0.0000 0.3150 0.3333 ( 62269 PWs)   bands (ev):

   -66.1712 -66.1710 -66.1707 -66.1705 -66.1701 -66.1700 -66.1696 -66.1694
   -30.5367 -30.5341 -30.5312 -30.5296 -30.5285 -30.5277 -30.5269 -30.5251
   -30.5118 -30.5089 -30.5040 -30.5018 -30.4998 -30.4992 -30.4965 -30.4951
   -30.4550 -30.4540 -30.4504 -30.4493 -30.4279 -30.4265 -30.4256 -30.4242
   -20.3295 -20.3295 -20.3294 -20.3294 -20.3294 -20.3294 -20.3293 -20.3293
   -20.3090 -20.3088 -20.3087 -20.3085 -20.3065 -20.3062 -20.3061 -20.3058
   -20.3057 -20.3057 -20.3055 -20.3053 -20.3053 -20.3052 -20.3051 -20.3048
   -20.3048 -20.3047 -20.3044 -20.3043 -20.3042 -20.3040 -20.3038 -20.3037
   -20.2977 -20.2975 -20.2974 -20.2972 -20.2964 -20.2964 -20.2960 -20.2959
   -20.2950 -20.2949 -20.2947 -20.2947 -20.2936 -20.2936 -20.2935 -20.2934
   -20.2908 -20.2906 -20.2903 -20.2901 -20.2890 -20.2887 -20.2886 -20.2884
    -9.7173  -9.5907  -9.5052  -9.3949  -9.1418  -8.9914  -8.9326  -8.9113
    -8.7955  -8.6840  -8.6332  -8.6008  -8.2673  -8.2306  -8.2173  -8.1179
    -8.1075  -8.1015  -8.0777  -8.0198  -7.7450  -7.7332  -7.6765  -7.6652
     1.2260   1.2293   1.2424   1.2459   2.1245   2.1779   2.2513   2.3824
     2.4116   2.5182   2.5458   2.6928   2.7402   2.7513   2.8813   2.9574
     3.2065   3.2889   3.5900   3.6264   3.7064   3.7348   3.7755   3.7863
     4.1206   4.2987   4.3921   4.4112   4.4946   4.5598   4.6023   4.7415
     4.7694   4.8495   4.9899   5.0968   5.1077   5.1871   5.2113   5.3453
     5.3743   5.5478   5.6841   5.8335   6.1295   6.1674   6.1881   6.2361
     6.3979   6.5536   6.6007   6.6062   6.6608   6.7813   6.7847   6.7944
     6.8839   6.9514   7.0243   7.0539   7.0745   7.1305   7.1665   7.1889
     7.2743   7.3289   7.7373   7.7476   7.7593   7.7690   7.8487   7.8636
    10.3322  10.3488  10.6189  10.6426  11.2584  11.2938  11.7550  11.8312
    11.8561  11.9223  12.1573  12.2080  12.5608  12.6176  12.6393  12.6862
    12.9097  13.1528  13.1611  13.3685  13.4539  13.4790  13.8277  13.8429
    15.1050  15.1953  15.5908  15.8610  15.9109  15.9521  16.0443  16.6968
    16.7018  16.8095  17.0990  17.5350  17.6876

          k = 0.0000 0.3150-0.5000 ( 62306 PWs)   bands (ev):

   -66.1709 -66.1709 -66.1707 -66.1707 -66.1699 -66.1699 -66.1697 -66.1697
   -30.5355 -30.5355 -30.5298 -30.5298 -30.5283 -30.5283 -30.5265 -30.5265
   -30.5039 -30.5039 -30.5023 -30.5022 -30.4791 -30.4791 -30.4790 -30.4790
   -30.4747 -30.4747 -30.4743 -30.4743 -30.4268 -30.4268 -30.4254 -30.4254
   -20.3295 -20.3295 -20.3294 -20.3294 -20.3294 -20.3294 -20.3293 -20.3293
   -20.3089 -20.3089 -20.3086 -20.3086 -20.3063 -20.3063 -20.3060 -20.3060
   -20.3056 -20.3056 -20.3054 -20.3054 -20.3051 -20.3051 -20.3050 -20.3050
   -20.3048 -20.3048 -20.3045 -20.3045 -20.3041 -20.3041 -20.3038 -20.3038
   -20.2976 -20.2976 -20.2973 -20.2973 -20.2956 -20.2956 -20.2956 -20.2956
   -20.2953 -20.2953 -20.2953 -20.2953 -20.2923 -20.2923 -20.2922 -20.2922
   -20.2920 -20.2920 -20.2919 -20.2919 -20.2888 -20.2888 -20.2886 -20.2886
    -9.5920  -9.5920  -9.4722  -9.4722  -8.9049  -8.9048  -8.7494  -8.7494
    -8.6256  -8.6255  -8.6095  -8.6094  -8.5258  -8.5258  -8.4409  -8.4409
    -8.1148  -8.1148  -8.0753  -8.0753  -7.7105  -7.7105  -7.6989  -7.6989
     1.2412   1.2412   1.2451   1.2451   2.3972   2.3972   2.5287   2.5287
     2.8971   2.8971   3.0028   3.0028   3.0413   3.0413   3.2139   3.2139
     3.2607   3.2607   3.2954   3.2954   3.3560   3.3561   3.6173   3.6173
     4.0488   4.0488   4.1027   4.1028   4.1059   4.1059   4.3556   4.3556
     4.8183   4.8183   4.9373   4.9373   5.1575   5.1575   5.2314   5.2314
     5.3694   5.3694   5.7570   5.7570   6.2608   6.2608   6.3067   6.3067
     6.4281   6.4281   6.4775   6.4775   6.5103   6.5103   6.7436   6.7436
     7.0496   7.0496   7.0636   7.0636   7.1036   7.1036   7.5012   7.5012
     7.5092   7.5092   7.5697   7.5697   7.5938   7.5938   7.8564   7.8564
    10.6230  10.6230  11.1399  11.1399  11.1779  11.1779  11.6827  11.6827
    11.9860  11.9860  12.1146  12.1146  12.5623  12.5623  12.6268  12.6268
    12.8520  12.8520  12.9682  12.9682  13.4486  13.4486  13.8351  13.8351
    15.1592  15.1592  15.7404  15.7404  16.2831  16.2831  16.4397  16.4397
    16.9169  16.9169  17.2908  17.2908  17.9922

          k = 0.0000-0.4725 0.0000 ( 62212 PWs)   bands (ev):

   -66.1713 -66.1713 -66.1703 -66.1703 -66.1703 -66.1703 -66.1693 -66.1693
   -30.5334 -30.5334 -30.5318 -30.5318 -30.5275 -30.5275 -30.5272 -30.5272
   -30.5166 -30.5166 -30.5148 -30.5148 -30.5140 -30.5140 -30.5125 -30.5125
   -30.4294 -30.4293 -30.4283 -30.4283 -30.4250 -30.4250 -30.4237 -30.4237
   -20.3295 -20.3295 -20.3294 -20.3294 -20.3294 -20.3294 -20.3293 -20.3293
   -20.3077 -20.3077 -20.3074 -20.3074 -20.3074 -20.3073 -20.3070 -20.3070
   -20.3058 -20.3058 -20.3056 -20.3056 -20.3054 -20.3054 -20.3053 -20.3052
   -20.3043 -20.3043 -20.3042 -20.3042 -20.3041 -20.3041 -20.3038 -20.3038
   -20.2977 -20.2977 -20.2974 -20.2974 -20.2972 -20.2972 -20.2971 -20.2971
   -20.2947 -20.2947 -20.2945 -20.2945 -20.2944 -20.2944 -20.2942 -20.2942
   -20.2890 -20.2890 -20.2890 -20.2890 -20.2885 -20.2885 -20.2882 -20.2882
    -9.8247  -9.8247  -9.3830  -9.3830  -9.3788  -9.3787  -9.1066  -9.1066
    -8.4572  -8.4572  -8.4110  -8.4110  -8.4106  -8.4106  -8.4050  -8.4050
    -7.7768  -7.7768  -7.7741  -7.7741  -7.6394  -7.6394  -7.6375  -7.6375
     1.0868   1.0868   1.2028   1.2028   1.2089   1.2089   1.5419   1.5419
     2.3679   2.3679   3.1659   3.1659   3.1860   3.1860   3.2756   3.2756
     3.2761   3.2761   3.2807   3.2807   3.4904   3.4904   3.4948   3.4948
     3.6918   3.6918   4.7690   4.7690   4.7702   4.7702   5.2362   5.2363
     5.2419   5.2419   5.3621   5.3621   5.3655   5.3655   5.7479   5.7479
     5.7501   5.7501   5.9892   5.9892   5.9962   5.9962   6.1572   6.1572
     6.1633   6.1633   6.2414   6.2414   6.6966   6.6966   6.6984   6.6984
     6.9184   6.9184   7.3464   7.3464   7.3504   7.3504   7.4834   7.4834
     7.4840   7.4840   7.5425   7.5425   7.5430   7.5431   7.8446   7.8446
     9.2083   9.2083  11.1976  11.1976  11.2036  11.2036  11.2804  11.2804
    11.2879  11.2879  12.3599  12.3599  12.3627  12.3627  12.9964  12.9964
    13.5730  13.5730  13.5820  13.5820  13.6245  13.6245  13.6312  13.6312
    15.4327  15.4327  15.4418  15.4418  15.6998  15.6998  15.7024  15.7024
    16.5004  16.5004  17.9691  17.9692  18.0977

          k = 0.0000-0.4725 0.1667 ( 62246 PWs)   bands (ev):

   -66.1713 -66.1712 -66.1704 -66.1704 -66.1702 -66.1702 -66.1694 -66.1694
   -30.5323 -30.5323 -30.5276 -30.5276 -30.5272 -30.5272 -30.5231 -30.5231
   -30.5146 -30.5146 -30.5143 -30.5143 -30.5129 -30.5129 -30.5128 -30.5128
   -30.4362 -30.4361 -30.4316 -30.4316 -30.4280 -30.4280 -30.4241 -30.4241
   -20.3295 -20.3295 -20.3294 -20.3294 -20.3294 -20.3294 -20.3293 -20.3293
   -20.3077 -20.3077 -20.3074 -20.3074 -20.3074 -20.3074 -20.3071 -20.3071
   -20.3057 -20.3057 -20.3055 -20.3055 -20.3053 -20.3053 -20.3053 -20.3053
   -20.3044 -20.3044 -20.3043 -20.3043 -20.3040 -20.3040 -20.3038 -20.3038
   -20.2976 -20.2976 -20.2973 -20.2973 -20.2972 -20.2972 -20.2967 -20.2967
   -20.2946 -20.2945 -20.2944 -20.2944 -20.2944 -20.2944 -20.2943 -20.2943
   -20.2894 -20.2894 -20.2890 -20.2890 -20.2889 -20.2889 -20.2884 -20.2884
    -9.7709  -9.7709  -9.3936  -9.3936  -9.2940  -9.2940  -9.0644  -9.0644
    -8.4626  -8.4626  -8.4178  -8.4178  -8.4059  -8.4059  -8.4052  -8.4052
    -7.9027  -7.9027  -7.7745  -7.7745  -7.7643  -7.7643  -7.6464  -7.6464
     1.1824   1.1824   1.2143   1.2144   1.4673   1.4673   1.7143   1.7143
     2.4582   2.4582   3.1781   3.1781   3.1990   3.1990   3.2717   3.2717
     3.2774   3.2774   3.3200   3.3200   3.4904   3.4904   3.5388   3.5388
     3.7169   3.7169   4.3783   4.3783   4.8231   4.8232   4.9822   4.9822
     5.1516   5.1516   5.2174   5.2174   5.3742   5.3742   5.4795   5.4795
     5.7205   5.7205   5.7606   5.7606   6.0961   6.0961   6.1155   6.1155
     6.3715   6.3715   6.3971   6.3971   6.6877   6.6878   6.8914   6.8914
     6.9859   6.9859   7.1012   7.1012   7.1675   7.1675   7.4696   7.4696
     7.4905   7.4905   7.5165   7.5165   7.5319   7.5319   7.8452   7.8452
     9.5852   9.5852  11.2083  11.2083  11.2798  11.2798  11.3285  11.3285
    11.4060  11.4060  12.2537  12.2537  12.4144  12.4144  13.0191  13.0191
    13.3920  13.3920  13.4911  13.4912  13.5907  13.5907  13.6212  13.6212
    15.4252  15.4252  15.6535  15.6535  15.6845  15.6845  15.9826  15.9826
    16.5654  16.5654  17.8958  17.8958  18.0562

          k = 0.0000-0.4725 0.3333 ( 62268 PWs)   bands (ev):

   -66.1711 -66.1711 -66.1706 -66.1706 -66.1701 -66.1700 -66.1695 -66.1695
   -30.5312 -30.5312 -30.5285 -30.5285 -30.5194 -30.5194 -30.5184 -30.5183
   -30.5155 -30.5155 -30.5140 -30.5140 -30.5028 -30.5028 -30.4988 -30.4988
   -30.4546 -30.4546 -30.4499 -30.4499 -30.4272 -30.4272 -30.4249 -30.4249
   -20.3295 -20.3295 -20.3294 -20.3294 -20.3294 -20.3294 -20.3293 -20.3293
   -20.3077 -20.3077 -20.3075 -20.3075 -20.3074 -20.3074 -20.3072 -20.3072
   -20.3056 -20.3056 -20.3053 -20.3053 -20.3053 -20.3053 -20.3051 -20.3051
   -20.3046 -20.3046 -20.3045 -20.3045 -20.3040 -20.3040 -20.3039 -20.3039
   -20.2975 -20.2975 -20.2973 -20.2973 -20.2964 -20.2964 -20.2960 -20.2960
   -20.2950 -20.2949 -20.2947 -20.2947 -20.2936 -20.2936 -20.2935 -20.2935
   -20.2907 -20.2907 -20.2902 -20.2902 -20.2889 -20.2889 -20.2885 -20.2885
    -9.6448  -9.6448  -9.4394  -9.4394  -9.0446  -9.0446  -8.9194  -8.9194
    -8.5029  -8.5029  -8.4535  -8.4535  -8.4013  -8.4013  -8.3865  -8.3865
    -8.1974  -8.1974  -8.0906  -8.0906  -7.7392  -7.7392  -7.6709  -7.6709
     1.2285   1.2285   1.2450   1.2450   2.1691   2.1691   2.3642   2.3642
     2.7210   2.7210   3.1871   3.1871   3.2282   3.2282   3.2565   3.2565
     3.2678   3.2678   3.4042   3.4042   3.4753   3.4753   3.6836   3.6836
     3.7614   3.7614   3.7674   3.7674   4.4732   4.4732   4.6283   4.6283
     4.7844   4.7844   4.8252   4.8252   5.1512   5.1512   5.2627   5.2628
     5.4114   5.4114   5.6412   5.6412   6.1691   6.1691   6.2344   6.2345
     6.5043   6.5043   6.6271   6.6271   6.6623   6.6623   6.8068   6.8068
     6.9737   6.9737   7.1842   7.1842   7.1897   7.1897   7.4445   7.4445
     7.4752   7.4752   7.5083   7.5083   7.5121   7.5122   7.7766   7.7766
    10.3453  10.3453  11.2224  11.2224  11.2620  11.2620  11.7118  11.7118
    11.7604  11.7604  11.8507  11.8507  12.5831  12.5831  12.7794  12.7794
    12.9120  12.9120  13.2216  13.2216  13.5930  13.5930  13.6154  13.6154
    15.4590  15.4591  15.6319  15.6319  16.2698  16.2698  16.7064  16.7064
    16.7968  16.7968  17.3747  17.3748  17.8928

          k = 0.0000-0.4725-0.5000 ( 62284 PWs)   bands (ev):

   -66.1708 -66.1708 -66.1708 -66.1708 -66.1698 -66.1698 -66.1698 -66.1698
   -30.5299 -30.5299 -30.5299 -30.5299 -30.5171 -30.5171 -30.5171 -30.5171
   -30.5157 -30.5157 -30.5157 -30.5157 -30.4794 -30.4794 -30.4794 -30.4794
   -30.4747 -30.4747 -30.4747 -30.4747 -30.4261 -30.4261 -30.4261 -30.4261
   -20.3294 -20.3294 -20.3294 -20.3294 -20.3294 -20.3294 -20.3294 -20.3293
   -20.3076 -20.3076 -20.3076 -20.3076 -20.3073 -20.3073 -20.3073 -20.3073
   -20.3054 -20.3054 -20.3054 -20.3054 -20.3050 -20.3050 -20.3050 -20.3050
   -20.3048 -20.3048 -20.3048 -20.3048 -20.3040 -20.3040 -20.3040 -20.3039
   -20.2974 -20.2974 -20.2974 -20.2974 -20.2956 -20.2956 -20.2956 -20.2956
   -20.2953 -20.2953 -20.2953 -20.2953 -20.2923 -20.2922 -20.2922 -20.2922
   -20.2919 -20.2919 -20.2919 -20.2919 -20.2887 -20.2887 -20.2887 -20.2887
    -9.5218  -9.5218  -9.5218  -9.5218  -8.7081  -8.7081  -8.7080  -8.7080
    -8.6566  -8.6566  -8.6566  -8.6565  -8.3739  -8.3739  -8.3739  -8.3739
    -8.3254  -8.3254  -8.3254  -8.3254  -7.7047  -7.7047  -7.7047  -7.7047
     1.2442   1.2442   1.2442   1.2442   2.9785   2.9785   2.9786   2.9786
     3.1215   3.1215   3.1215   3.1215   3.2091   3.2091   3.2092   3.2092
     3.2598   3.2598   3.2598   3.2598   3.4252   3.4252   3.4252   3.4252
     3.6101   3.6101   3.6101   3.6101   4.3006   4.3006   4.3006   4.3006
     4.4122   4.4122   4.4122   4.4122   5.2057   5.2057   5.2058   5.2058
     5.5053   5.5053   5.5053   5.5053   6.3015   6.3015   6.3015   6.3015
     6.4772   6.4772   6.4772   6.4772   6.6122   6.6122   6.6122   6.6122
     7.2953   7.2954   7.2954   7.2954   7.3786   7.3787   7.3787   7.3787
     7.4611   7.4611   7.4612   7.4612   7.5872   7.5872   7.5872   7.5872
    11.1320  11.1320  11.1320  11.1320  11.2687  11.2687  11.2687  11.2687
    12.2692  12.2692  12.2692  12.2692  12.2905  12.2905  12.2905  12.2905
    12.8837  12.8837  12.8837  12.8837  13.6037  13.6037  13.6037  13.6037
    15.5479  15.5479  15.5479  15.5479  16.8774  16.8774  16.8774  16.8774
    17.3734  17.3735  17.3735  17.3735  17.4959

          k = 0.1667 0.0000 0.1667 ( 62234 PWs)   bands (ev):

   -66.1714 -66.1710 -66.1705 -66.1705 -66.1701 -66.1701 -66.1696 -66.1692
   -30.5495 -30.5459 -30.5457 -30.5420 -30.5271 -30.5254 -30.5230 -30.5224
   -30.5224 -30.5200 -30.5182 -30.5173 -30.4870 -30.4861 -30.4856 -30.4846
   -30.4371 -30.4362 -30.4346 -30.4334 -30.4331 -30.4321 -30.4306 -30.4293
   -20.3295 -20.3294 -20.3294 -20.3294 -20.3294 -20.3294 -20.3293 -20.3293
   -20.3103 -20.3101 -20.3101 -20.3098 -20.3061 -20.3059 -20.3058 -20.3057
   -20.3056 -20.3055 -20.3052 -20.3050 -20.3048 -20.3047 -20.3047 -20.3046
   -20.3045 -20.3044 -20.3043 -20.3042 -20.3038 -20.3037 -20.3036 -20.3035
   -20.2976 -20.2975 -20.2972 -20.2972 -20.2970 -20.2967 -20.2966 -20.2964
   -20.2946 -20.2945 -20.2944 -20.2944 -20.2944 -20.2943 -20.2942 -20.2941
   -20.2898 -20.2896 -20.2893 -20.2892 -20.2891 -20.2890 -20.2886 -20.2886
    -9.8799  -9.6144  -9.4855  -9.4831  -9.2358  -9.2312  -9.0515  -9.0330
    -9.0193  -8.8446  -8.8329  -8.8315  -7.9084  -7.9069  -7.8878  -7.8866
    -7.8364  -7.8142  -7.7747  -7.7742  -7.7559  -7.7505  -7.7472  -7.7097
     1.3547   1.3559   1.4164   1.4198   1.4381   1.4752   1.4811   1.6384
     1.6861   1.6890   1.8194   1.9998   2.5107   2.5928   2.6706   2.6713
     2.7834   2.8110   4.0777   4.0915   4.2687   4.2699   4.4420   4.4434
     4.4654   4.4666   4.6783   4.6826   4.7206   4.8081   5.0172   5.2235
     5.2625   5.2987   5.3469   5.4996   5.5055   5.6086   5.6099   5.7072
     5.7074   5.7415   5.7423   5.8011   5.8633   6.0153   6.3128   6.4217
     6.4327   6.4799   6.5072   6.6414   6.6653   6.6967   6.7258   6.7434
     6.7443   6.8196   6.8215   6.8451   6.8903   6.9792   6.9811   7.0837
     7.2484   7.3045   7.8347   7.8354   8.0499   8.0903   8.1134   8.1178
     9.8032   9.8633  10.1860  10.1958  10.2008  10.2873  12.2673  12.2763
    12.2933  12.3001  12.3160  12.3521  12.5605  12.5640  12.9807  12.9867
    13.0353  13.1274  13.1752  13.3658  13.9483  13.9787  14.0062  14.0573
    14.0925  14.4587  14.4709  15.1386  15.3794  15.5729  15.5868  16.4046
    16.4053  17.0178  17.0190  17.2132  17.5942

          k = 0.1667 0.0000 0.3333 ( 62265 PWs)   bands (ev):

   -66.1712 -66.1708 -66.1707 -66.1703 -66.1703 -66.1699 -66.1698 -66.1694
   -30.5491 -30.5469 -30.5453 -30.5430 -30.5244 -30.5225 -30.5204 -30.5187
   -30.5099 -30.5058 -30.5035 -30.4992 -30.4871 -30.4862 -30.4848 -30.4841
   -30.4550 -30.4531 -30.4511 -30.4491 -30.4353 -30.4330 -30.4325 -30.4302
   -20.3295 -20.3294 -20.3294 -20.3294 -20.3294 -20.3294 -20.3294 -20.3293
   -20.3103 -20.3101 -20.3100 -20.3099 -20.3058 -20.3058 -20.3056 -20.3056
   -20.3055 -20.3053 -20.3052 -20.3051 -20.3049 -20.3049 -20.3048 -20.3047
   -20.3046 -20.3044 -20.3043 -20.3041 -20.3039 -20.3037 -20.3037 -20.3036
   -20.2975 -20.2974 -20.2970 -20.2969 -20.2963 -20.2962 -20.2959 -20.2957
   -20.2949 -20.2948 -20.2946 -20.2946 -20.2937 -20.2935 -20.2935 -20.2933
   -20.2909 -20.2904 -20.2904 -20.2901 -20.2895 -20.2892 -20.2890 -20.2888
    -9.7551  -9.5341  -9.4753  -9.3158  -9.2726  -9.0840  -8.9744  -8.9267
    -8.8818  -8.8439  -8.7934  -8.7355  -8.2196  -8.2177  -8.1509  -8.1281
    -7.8796  -7.8630  -7.8129  -7.8072  -7.7759  -7.7610  -7.7440  -7.7190
     1.4179   1.4185   1.4960   1.5047   1.5810   1.6199   1.6215   1.6827
     2.1891   2.2309   2.3716   2.4588   2.6935   2.7647   2.7969   2.8777
     2.9113   3.0360   3.7470   3.8514   3.8600   3.9210   4.1659   4.2366
     4.2593   4.4492   4.5097   4.5651   4.6241   4.6633   4.7163   4.8671
     4.9623   5.0101   5.0537   5.1696   5.2532   5.3618   5.5631   5.6438
     5.7353   5.7421   5.7981   5.8685   5.8716   6.0147   6.1174   6.1506
     6.4190   6.4554   6.5295   6.5661   6.5940   6.6402   6.7016   6.7135
     6.7820   6.8556   6.8646   6.8739   7.0979   7.1136   7.1320   7.1881
     7.3141   7.3704   7.7631   7.7766   7.9398   7.9785   8.1043   8.1156
    10.1843  10.1953  10.4605  10.5142  10.8369  10.9397  11.8800  11.9177
    12.1361  12.4247  12.4461  12.4991  12.5386  12.5616  12.7331  12.8158
    12.9329  13.0327  13.0805  13.2734  13.6442  13.6625  13.9825  14.0086
    14.2614  14.4442  14.7718  15.2742  15.4533  15.8565  16.0312  16.3105
    16.4455  17.2792  17.4798  17.5639  17.6591

          k = 0.1667 0.0000-0.5000 ( 62322 PWs)   bands (ev):

   -66.1709 -66.1709 -66.1705 -66.1705 -66.1701 -66.1701 -66.1697 -66.1697
   -30.5481 -30.5481 -30.5442 -30.5442 -30.5232 -30.5232 -30.5198 -30.5198
   -30.4919 -30.4919 -30.4906 -30.4906 -30.4783 -30.4783 -30.4761 -30.4761
   -30.4741 -30.4741 -30.4734 -30.4734 -30.4341 -30.4341 -30.4314 -30.4314
   -20.3295 -20.3295 -20.3294 -20.3294 -20.3294 -20.3294 -20.3293 -20.3293
   -20.3102 -20.3102 -20.3100 -20.3100 -20.3057 -20.3057 -20.3055 -20.3055
   -20.3053 -20.3053 -20.3052 -20.3052 -20.3050 -20.3050 -20.3049 -20.3049
   -20.3045 -20.3045 -20.3041 -20.3041 -20.3039 -20.3039 -20.3037 -20.3037
   -20.2974 -20.2974 -20.2969 -20.2969 -20.2955 -20.2955 -20.2955 -20.2954
   -20.2952 -20.2952 -20.2951 -20.2951 -20.2925 -20.2924 -20.2921 -20.2921
   -20.2921 -20.2921 -20.2918 -20.2918 -20.2894 -20.2894 -20.2889 -20.2889
    -9.6255  -9.6255  -9.3496  -9.3495  -9.1615  -9.1615  -8.8660  -8.8660
    -8.6044  -8.6044  -8.6002  -8.6002  -8.5494  -8.5494  -8.4878  -8.4878
    -7.8466  -7.8466  -7.8310  -7.8310  -7.7727  -7.7727  -7.7316  -7.7316
     1.4182   1.4182   1.5123   1.5123   1.6041   1.6041   1.6729   1.6729
     2.7183   2.7183   2.9603   2.9604   3.0444   3.0444   3.1618   3.1619
     3.2354   3.2354   3.3499   3.3499   3.4531   3.4531   3.7608   3.7608
     3.8648   3.8648   4.3616   4.3616   4.5626   4.5626   4.8395   4.8395
     4.9772   4.9772   4.9967   4.9968   5.2091   5.2091   5.6544   5.6544
     5.7566   5.7566   5.8226   5.8226   5.8711   5.8711   6.0100   6.0100
     6.3547   6.3547   6.4727   6.4727   6.6911   6.6911   6.7221   6.7221
     6.7878   6.7878   6.9435   6.9435   6.9964   6.9964   7.5168   7.5168
     7.5525   7.5526   7.7006   7.7006   7.7230   7.7230   8.1148   8.1148
    10.1994  10.1994  11.2017  11.2017  11.2643  11.2643  11.5706  11.5706
    11.7486  11.7486  12.5867  12.5867  12.6718  12.6718  12.7112  12.7112
    12.9104  12.9104  13.2141  13.2141  13.3262  13.3262  13.9931  13.9931
    14.3863  14.3863  15.0760  15.0760  15.8969  15.8969  16.1357  16.1357
    16.8180  16.8180  17.8860  17.8877  17.9268

          k = 0.1667 0.1575 0.1667 ( 62255 PWs)   bands (ev):

   -66.1714 -66.1710 -66.1705 -66.1705 -66.1701 -66.1701 -66.1696 -66.1693
   -30.5459 -30.5423 -30.5420 -30.5382 -30.5270 -30.5252 -30.5232 -30.5224
   -30.5223 -30.5197 -30.5184 -30.5173 -30.4908 -30.4899 -30.4895 -30.4884
   -30.4369 -30.4360 -30.4348 -30.4336 -30.4329 -30.4320 -30.4307 -30.4295
   -20.3295 -20.3295 -20.3294 -20.3294 -20.3294 -20.3294 -20.3293 -20.3293
   -20.3100 -20.3097 -20.3097 -20.3094 -20.3060 -20.3060 -20.3057 -20.3057
   -20.3056 -20.3056 -20.3053 -20.3050 -20.3050 -20.3049 -20.3047 -20.3046
   -20.3046 -20.3045 -20.3044 -20.3043 -20.3038 -20.3038 -20.3037 -20.3036
   -20.2976 -20.2975 -20.2972 -20.2972 -20.2970 -20.2967 -20.2966 -20.2964
   -20.2946 -20.2945 -20.2944 -20.2944 -20.2944 -20.2943 -20.2942 -20.2941
   -20.2897 -20.2895 -20.2893 -20.2892 -20.2891 -20.2891 -20.2887 -20.2886
    -9.8523  -9.6250  -9.4522  -9.4496  -9.2428  -9.2382  -9.0321  -9.0209
    -8.9773  -8.7971  -8.7915  -8.7903  -7.9257  -7.9074  -7.9021  -7.8994
    -7.8956  -7.8427  -7.8418  -7.8374  -7.8102  -7.7719  -7.7693  -7.7519
     1.3549   1.3557   1.4492   1.4536   1.4751   1.4805   1.6007   1.8185
     1.8371   1.8919   1.8937   2.1146   2.5170   2.5876   2.7434   2.7439
     2.8546   2.8757   3.9729   4.0017   4.0804   4.0838   4.4106   4.4136
     4.4681   4.4699   4.6874   4.7044   4.7302   4.7835   4.8127   5.1815
     5.1994   5.2523   5.2592   5.3259   5.3356   5.5699   5.5710   5.6524
     5.7214   5.7260   5.8144   5.8232   5.8243   5.9107   6.3242   6.3557
     6.3589   6.4688   6.4969   6.6321   6.6469   6.7089   6.7606   6.7911
     6.7944   6.8361   6.8575   6.8599   6.9433   6.9607   6.9652   7.0904
     7.2521   7.3037   7.8353   7.8360   7.9966   8.0367   8.0396   8.0422
     9.8187   9.8612  10.3407  10.3651  10.3685  10.4265  12.1916  12.2314
    12.2786  12.2809  12.2858  12.2887  12.4274  12.4295  12.9823  13.0084
    13.0714  13.1367  13.1850  13.3726  13.8866  13.8969  13.9071  13.9718
    14.3959  14.7687  14.7725  15.2646  15.5738  15.5859  15.7874  16.3687
    16.3700  16.8731  17.1175  17.1189  17.6331

          k = 0.1667 0.1575 0.3333 ( 62260 PWs)   bands (ev):

   -66.1712 -66.1708 -66.1707 -66.1703 -66.1703 -66.1699 -66.1698 -66.1694
   -30.5454 -30.5432 -30.5416 -30.5392 -30.5242 -30.5226 -30.5202 -30.5189
   -30.5101 -30.5061 -30.5036 -30.4993 -30.4908 -30.4899 -30.4881 -30.4875
   -30.4549 -30.4533 -30.4510 -30.4492 -30.4351 -30.4329 -30.4326 -30.4304
   -20.3295 -20.3294 -20.3294 -20.3294 -20.3294 -20.3294 -20.3294 -20.3293
   -20.3100 -20.3098 -20.3097 -20.3095 -20.3059 -20.3058 -20.3056 -20.3056
   -20.3055 -20.3055 -20.3053 -20.3051 -20.3050 -20.3050 -20.3048 -20.3048
   -20.3047 -20.3044 -20.3044 -20.3043 -20.3040 -20.3039 -20.3038 -20.3037
   -20.2975 -20.2974 -20.2970 -20.2969 -20.2963 -20.2962 -20.2959 -20.2957
   -20.2949 -20.2949 -20.2946 -20.2946 -20.2937 -20.2935 -20.2935 -20.2933
   -20.2909 -20.2905 -20.2904 -20.2901 -20.2895 -20.2892 -20.2891 -20.2888
    -9.7246  -9.5007  -9.4856  -9.2805  -9.2682  -9.0117  -8.9816  -8.9176
    -8.8830  -8.8034  -8.7571  -8.7081  -8.2248  -8.2155  -8.1627  -8.1257
    -7.8933  -7.8861  -7.8718  -7.8537  -7.8291  -7.8270  -7.8071  -7.7821
     1.4633   1.4758   1.4958   1.5045   1.7736   1.7868   1.8583   1.8876
     2.1880   2.2479   2.3720   2.4800   2.7649   2.7888   2.8456   2.8785
     2.9850   3.0965   3.7435   3.8441   3.8486   3.8835   4.0681   4.1397
     4.2370   4.3359   4.5195   4.5688   4.6233   4.6681   4.6942   4.7512
     4.8638   4.8797   4.9133   5.1399   5.1676   5.2025   5.3187   5.6103
     5.6320   5.6776   5.7409   5.8039   5.8628   5.8810   6.1042   6.1478
     6.3530   6.5187   6.5219   6.6444   6.7044   6.7066   6.7332   6.7501
     6.8331   6.8640   6.9012   6.9400   7.0899   7.1086   7.1256   7.1978
     7.3059   7.3649   7.7646   7.7741   7.8939   7.9197   8.0382   8.0429
    10.3202  10.3621  10.4815  10.5272  10.9515  11.0303  11.8807  11.9145
    12.1036  12.4014  12.4113  12.4507  12.4527  12.5481  12.6728  12.6996
    12.9365  13.0550  13.0631  13.2788  13.5393  13.5672  13.8979  13.9243
    14.5956  14.7513  15.1274  15.5397  15.6991  15.8509  16.0431  16.2784
    16.5471  17.2374  17.2699  17.5340  17.6066

          k = 0.1667 0.1575-0.5000 ( 62292 PWs)   bands (ev):

   -66.1709 -66.1709 -66.1706 -66.1706 -66.1700 -66.1700 -66.1697 -66.1697
   -30.5444 -30.5444 -30.5404 -30.5404 -30.5231 -30.5231 -30.5199 -30.5199
   -30.4945 -30.4945 -30.4935 -30.4935 -30.4785 -30.4785 -30.4773 -30.4773
   -30.4743 -30.4743 -30.4741 -30.4741 -30.4340 -30.4340 -30.4316 -30.4316
   -20.3295 -20.3295 -20.3294 -20.3294 -20.3294 -20.3294 -20.3293 -20.3293
   -20.3099 -20.3099 -20.3096 -20.3096 -20.3057 -20.3057 -20.3055 -20.3055
   -20.3054 -20.3054 -20.3053 -20.3053 -20.3051 -20.3051 -20.3049 -20.3049
   -20.3045 -20.3045 -20.3043 -20.3043 -20.3041 -20.3041 -20.3037 -20.3037
   -20.2974 -20.2974 -20.2969 -20.2969 -20.2955 -20.2955 -20.2955 -20.2955
   -20.2952 -20.2952 -20.2951 -20.2951 -20.2924 -20.2924 -20.2921 -20.2921
   -20.2921 -20.2921 -20.2918 -20.2918 -20.2893 -20.2893 -20.2890 -20.2890
    -9.5928  -9.5928  -9.3585  -9.3585  -9.0957  -9.0957  -8.8306  -8.8306
    -8.6075  -8.6075  -8.6027  -8.6027  -8.5465  -8.5465  -8.4796  -8.4795
    -7.8837  -7.8837  -7.8474  -7.8474  -7.8386  -7.8386  -7.8076  -7.8076
     1.4752   1.4752   1.5121   1.5121   1.8033   1.8033   1.8836   1.8836
     2.7849   2.7849   2.9771   2.9771   3.0521   3.0522   3.1804   3.1804
     3.2397   3.2397   3.3570   3.3570   3.4450   3.4451   3.7692   3.7692
     3.9160   3.9161   4.2137   4.2138   4.5688   4.5688   4.6467   4.6467
     4.9005   4.9005   4.9599   4.9600   5.0544   5.0544   5.4427   5.4428
     5.7095   5.7095   5.7419   5.7419   5.8534   5.8534   5.8895   5.8895
     6.4714   6.4715   6.6236   6.6236   6.6584   6.6584   6.7659   6.7659
     6.8824   6.8824   6.9026   6.9026   7.0294   7.0294   7.5183   7.5183
     7.5472   7.5473   7.6716   7.6716   7.6914   7.6914   8.0437   8.0437
    10.3625  10.3625  11.2072  11.2072  11.2635  11.2635  11.6372  11.6372
    11.8095  11.8095  12.4503  12.4503  12.6535  12.6535  12.7023  12.7023
    12.8881  12.8881  13.1118  13.1118  13.2739  13.2739  13.9069  13.9069
    14.7047  14.7047  15.4574  15.4574  16.0078  16.0078  16.1140  16.1140
    16.8502  16.8502  17.6935  17.6935  17.9497

          k = 0.1667 0.3150 0.1667 ( 62249 PWs)   bands (ev):

   -66.1713 -66.1711 -66.1704 -66.1704 -66.1702 -66.1702 -66.1695 -66.1693
   -30.5367 -30.5329 -30.5325 -30.5277 -30.5267 -30.5247 -30.5239 -30.5220
   -30.5220 -30.5187 -30.5183 -30.5168 -30.5009 -30.5003 -30.4997 -30.4989
   -30.4365 -30.4355 -30.4353 -30.4342 -30.4325 -30.4316 -30.4311 -30.4300
   -20.3295 -20.3295 -20.3294 -20.3294 -20.3294 -20.3294 -20.3293 -20.3293
   -20.3090 -20.3087 -20.3087 -20.3084 -20.3066 -20.3062 -20.3061 -20.3059
   -20.3058 -20.3056 -20.3056 -20.3053 -20.3053 -20.3053 -20.3051 -20.3050
   -20.3045 -20.3045 -20.3043 -20.3043 -20.3041 -20.3040 -20.3039 -20.3038
   -20.2975 -20.2974 -20.2972 -20.2971 -20.2970 -20.2968 -20.2966 -20.2965
   -20.2945 -20.2945 -20.2944 -20.2944 -20.2944 -20.2943 -20.2942 -20.2942
   -20.2897 -20.2895 -20.2894 -20.2892 -20.2891 -20.2890 -20.2887 -20.2887
    -9.7857  -9.6576  -9.3778  -9.3745  -9.2655  -9.2611  -9.0297  -9.0231
    -8.7697  -8.6540  -8.6535  -8.6503  -8.1574  -8.1167  -8.1161  -8.0964
    -7.9000  -7.8980  -7.8848  -7.8832  -7.8070  -7.7923  -7.7664  -7.7559
     1.3550   1.3554   1.4681   1.4732   1.4747   1.4801   1.7670   1.8152
     2.4022   2.5181   2.5208   2.5330   2.5653   2.6806   2.9649   2.9665
     3.0667   3.0778   3.6530   3.6597   3.6712   3.7197   4.1382   4.4105
     4.4110   4.4291   4.4314   4.5298   4.5351   4.7582   4.7609   4.8593
     4.9027   4.9065   5.1041   5.1349   5.3344   5.3760   5.4270   5.4273
     5.6502   5.6732   5.7299   5.7314   5.8153   5.8157   6.3564   6.3695
     6.4147   6.4580   6.4799   6.6121   6.6756   6.7036   6.8424   6.8450
     6.9077   6.9090   6.9935   6.9983   7.0915   7.1111   7.1124   7.1323
     7.2790   7.3116   7.8099   7.8140   7.8191   7.8296   7.8397   7.8669
     9.8390   9.8569  10.7556  10.8053  10.8164  10.8300  11.8393  11.8860
    11.9659  11.9678  12.2928  12.2942  12.3246  12.3257  12.9931  13.0422
    13.1917  13.2092  13.2530  13.4194  13.6559  13.6643  13.6719  13.7651
    15.1183  15.4260  15.4312  15.5780  15.5831  15.7584  16.2434  16.2453
    16.3137  16.7864  17.3570  17.4492  17.4505

          k = 0.1667 0.3150 0.3333 ( 62265 PWs)   bands (ev):

   -66.1711 -66.1709 -66.1706 -66.1704 -66.1702 -66.1700 -66.1697 -66.1695
   -30.5359 -30.5337 -30.5315 -30.5287 -30.5237 -30.5234 -30.5191 -30.5190
   -30.5115 -30.5086 -30.5037 -30.5009 -30.5002 -30.4995 -30.4964 -30.4951
   -30.4547 -30.4537 -30.4507 -30.4497 -30.4346 -30.4333 -30.4323 -30.4310
   -20.3295 -20.3294 -20.3294 -20.3294 -20.3294 -20.3294 -20.3293 -20.3293
   -20.3090 -20.3088 -20.3087 -20.3085 -20.3065 -20.3062 -20.3062 -20.3059
   -20.3056 -20.3055 -20.3054 -20.3053 -20.3052 -20.3051 -20.3051 -20.3048
   -20.3047 -20.3047 -20.3044 -20.3043 -20.3043 -20.3041 -20.3039 -20.3038
   -20.2974 -20.2973 -20.2971 -20.2970 -20.2963 -20.2962 -20.2959 -20.2958
   -20.2949 -20.2949 -20.2946 -20.2946 -20.2937 -20.2936 -20.2935 -20.2934
   -20.2908 -20.2906 -20.2904 -20.2902 -20.2894 -20.2892 -20.2891 -20.2889
    -9.6516  -9.5178  -9.4247  -9.3052  -9.1587  -9.0066  -8.9036  -8.8882
    -8.8058  -8.6708  -8.6287  -8.6056  -8.2587  -8.2463  -8.2084  -8.1195
    -8.1147  -8.1080  -8.0760  -8.0249  -7.8721  -7.8586  -7.8049  -7.7930
     1.4873   1.4951   1.4981   1.5040   2.1296   2.1843   2.2413   2.3694
     2.4100   2.5171   2.5265   2.6925   2.8102   2.8767   2.9814   3.0574
     3.2084   3.2856   3.6286   3.6483   3.7025   3.7399   3.8233   3.9033
     4.1150   4.3013   4.3871   4.4120   4.4787   4.5549   4.5581   4.6033
     4.6464   4.7957   4.8179   4.8800   4.9031   4.9568   5.1156   5.1470
     5.3081   5.3342   5.4600   5.6244   5.7547   5.8215   6.1338   6.1487
     6.5007   6.5892   6.6166   6.7425   6.7952   6.8155   6.9181   6.9623
     6.9954   7.0189   7.0415   7.0566   7.1196   7.1551   7.1878   7.2527
     7.2822   7.3504   7.7353   7.7407   7.7561   7.7724   7.8260   7.8516
    10.4592  10.4912  10.8050  10.8169  11.2683  11.3071  11.8406  11.8811
    11.8945  12.0320  12.1604  12.1996  12.4560  12.5354  12.6522  12.6935
    12.9003  13.0674  13.1118  13.3156  13.3316  13.3608  13.6673  13.7100
    15.3052  15.4092  15.8207  15.9464  15.9854  16.1000  16.1703  16.6683
    16.7616  16.8728  17.0978  17.5702  17.7004

          k = 0.1667 0.3150-0.5000 ( 62264 PWs)   bands (ev):

   -66.1708 -66.1708 -66.1706 -66.1706 -66.1700 -66.1700 -66.1698 -66.1698
   -30.5348 -30.5348 -30.5301 -30.5301 -30.5231 -30.5231 -30.5194 -30.5194
   -30.5031 -30.5031 -30.5025 -30.5025 -30.4788 -30.4788 -30.4787 -30.4787
   -30.4749 -30.4749 -30.4746 -30.4746 -30.4335 -30.4335 -30.4321 -30.4321
   -20.3295 -20.3295 -20.3294 -20.3294 -20.3294 -20.3294 -20.3293 -20.3293
   -20.3089 -20.3089 -20.3086 -20.3086 -20.3064 -20.3064 -20.3060 -20.3060
   -20.3055 -20.3055 -20.3053 -20.3053 -20.3050 -20.3050 -20.3050 -20.3050
   -20.3047 -20.3047 -20.3046 -20.3045 -20.3042 -20.3042 -20.3039 -20.3039
   -20.2973 -20.2973 -20.2970 -20.2970 -20.2955 -20.2955 -20.2955 -20.2955
   -20.2952 -20.2952 -20.2951 -20.2951 -20.2924 -20.2924 -20.2922 -20.2922
   -20.2920 -20.2920 -20.2919 -20.2919 -20.2893 -20.2893 -20.2890 -20.2890
    -9.5163  -9.5163  -9.3870  -9.3870  -8.9208  -8.9207  -8.7323  -8.7322
    -8.6279  -8.6278  -8.6128  -8.6127  -8.5166  -8.5166  -8.4447  -8.4446
    -8.1127  -8.1127  -8.0817  -8.0817  -7.8384  -7.8384  -7.8257  -7.8257
     1.5031   1.5031   1.5115   1.5115   2.3992   2.3992   2.5081   2.5081
     2.9606   2.9606   3.0360   3.0360   3.0533   3.0534   3.2239   3.2239
     3.2591   3.2591   3.3888   3.3888   3.4139   3.4140   3.6595   3.6595
     4.0535   4.0535   4.0976   4.0976   4.1025   4.1025   4.3632   4.3632
     4.7363   4.7363   4.8057   4.8057   4.9825   4.9825   5.0126   5.0126
     5.0880   5.0880   5.5294   5.5294   5.8536   5.8536   5.8793   5.8793
     6.6502   6.6502   6.7738   6.7738   6.8071   6.8071   6.8403   6.8403
     7.0221   7.0221   7.0723   7.0723   7.1719   7.1719   7.5133   7.5133
     7.5307   7.5307   7.5746   7.5746   7.6027   7.6028   7.8359   7.8359
    10.7902  10.7902  11.2192  11.2193  11.2633  11.2633  11.7464  11.7464
    11.9962  11.9962  12.1485  12.1485  12.5466  12.5466  12.5997  12.5997
    12.7941  12.7941  12.9129  12.9129  13.2790  13.2790  13.6830  13.6830
    15.3729  15.3729  16.0274  16.0274  16.3462  16.3462  16.4406  16.4406
    16.9815  16.9815  17.3325  17.3325  17.9011

          k = 0.1667-0.4725 0.1667 ( 62220 PWs)   bands (ev):

   -66.1712 -66.1712 -66.1703 -66.1703 -66.1703 -66.1703 -66.1694 -66.1694
   -30.5284 -30.5284 -30.5261 -30.5261 -30.5244 -30.5243 -30.5215 -30.5213
   -30.5137 -30.5136 -30.5133 -30.5132 -30.5126 -30.5125 -30.5118 -30.5117
   -30.4359 -30.4359 -30.4349 -30.4349 -30.4319 -30.4319 -30.4307 -30.4307
   -20.3295 -20.3295 -20.3294 -20.3294 -20.3294 -20.3294 -20.3293 -20.3293
   -20.3077 -20.3077 -20.3074 -20.3074 -20.3074 -20.3074 -20.3071 -20.3071
   -20.3057 -20.3057 -20.3054 -20.3054 -20.3054 -20.3054 -20.3052 -20.3052
   -20.3044 -20.3043 -20.3043 -20.3043 -20.3041 -20.3041 -20.3039 -20.3039
   -20.2975 -20.2975 -20.2971 -20.2971 -20.2969 -20.2969 -20.2966 -20.2966
   -20.2945 -20.2945 -20.2944 -20.2944 -20.2943 -20.2943 -20.2942 -20.2942
   -20.2895 -20.2895 -20.2893 -20.2893 -20.2890 -20.2890 -20.2888 -20.2888
    -9.7131  -9.7131  -9.3092  -9.3091  -9.3052  -9.3051  -9.0264  -9.0264
    -8.4699  -8.4698  -8.4129  -8.4125  -8.4122  -8.4119  -8.4048  -8.4047
    -7.8940  -7.8936  -7.8911  -7.8908  -7.8006  -7.8006  -7.7612  -7.7612
     1.3551   1.3552   1.4728   1.4734   1.4782   1.4787   1.8046   1.8047
     2.5514   2.5515   3.1886   3.1910   3.2051   3.2118   3.2716   3.2718
     3.2823   3.2828   3.3581   3.3613   3.5326   3.5359   3.5372   3.5414
     3.7359   3.7362   4.4235   4.4263   4.4647   4.4671   4.9359   4.9383
     5.0172   5.0180   5.1334   5.1368   5.1749   5.1779   5.4220   5.4225
     5.4659   5.4662   5.7394   5.7432   5.7704   5.7732   6.4136   6.4306
     6.4346   6.4554   6.5256   6.5272   6.6773   6.6806   6.8793   6.8800
     6.8900   6.8926   7.0612   7.0616   7.2368   7.2373   7.4711   7.4718
     7.4788   7.4817   7.4955   7.4986   7.5392   7.5394   7.8393   7.8395
     9.8504   9.8505  11.3067  11.3092  11.3584  11.3633  11.3976  11.4022
    11.4050  11.4071  12.2968  12.2983  12.3176  12.3192  13.0266  13.0267
    13.3879  13.3915  13.3996  13.4051  13.4224  13.4248  13.5586  13.5588
    15.5779  15.5783  15.7326  15.7340  15.9593  15.9623  15.9698  15.9717
    16.6233  16.6235  17.9059  17.9182  17.9263

          k = 0.1667-0.4725 0.3333 ( 62252 PWs)   bands (ev):

   -66.1710 -66.1710 -66.1705 -66.1705 -66.1701 -66.1701 -66.1696 -66.1696
   -30.5267 -30.5267 -30.5247 -30.5246 -30.5189 -30.5188 -30.5163 -30.5162
   -30.5144 -30.5144 -30.5131 -30.5130 -30.5025 -30.5025 -30.4990 -30.4990
   -30.4543 -30.4543 -30.4502 -30.4502 -30.4340 -30.4339 -30.4317 -30.4317
   -20.3295 -20.3295 -20.3294 -20.3294 -20.3294 -20.3294 -20.3293 -20.3293
   -20.3077 -20.3077 -20.3075 -20.3075 -20.3074 -20.3074 -20.3072 -20.3072
   -20.3055 -20.3055 -20.3053 -20.3053 -20.3052 -20.3052 -20.3051 -20.3051
   -20.3046 -20.3046 -20.3045 -20.3045 -20.3041 -20.3041 -20.3040 -20.3040
   -20.2973 -20.2973 -20.2971 -20.2971 -20.2963 -20.2963 -20.2958 -20.2958
   -20.2949 -20.2949 -20.2946 -20.2946 -20.2936 -20.2936 -20.2934 -20.2934
   -20.2907 -20.2907 -20.2903 -20.2902 -20.2893 -20.2893 -20.2890 -20.2890
    -9.5745  -9.5745  -9.3525  -9.3523  -9.0611  -9.0608  -8.8940  -8.8940
    -8.5153  -8.5148  -8.4468  -8.4450  -8.3996  -8.3985  -8.3921  -8.3919
    -8.1895  -8.1887  -8.0996  -8.0989  -7.8663  -7.8659  -7.7995  -7.7992
     1.4929   1.4937   1.5021   1.5032   2.1752   2.1759   2.3522   2.3533
     2.8234   2.8269   3.1984   3.2032   3.2272   3.2371   3.2532   3.2631
     3.2767   3.2971   3.4235   3.4554   3.5103   3.5341   3.6622   3.6696
     3.7683   3.7805   3.8299   3.8890   4.4452   4.4900   4.5678   4.5741
     4.6469   4.7045   4.7545   4.7874   4.9738   4.9780   4.9925   5.0727
     5.1580   5.2125   5.3161   5.4051   5.7639   5.7817   6.1423   6.1479
     6.5802   6.5864   6.6884   6.7050   6.8367   6.8444   6.9913   7.0444
     7.0547   7.0829   7.1684   7.1883   7.2074   7.2147   7.4414   7.4483
     7.4661   7.4742   7.4883   7.5009   7.5134   7.5294   7.7783   7.7786
    10.4824  10.4851  11.3401  11.3528  11.3793  11.3878  11.7169  11.7280
    11.7406  11.7613  11.8936  11.9420  12.4573  12.5103  12.7672  12.7981
    12.9083  12.9383  13.1091  13.1993  13.4023  13.4280  13.4543  13.5143
    15.7004  15.7175  15.9057  15.9200  16.3082  16.3341  16.6829  16.7067
    16.8281  16.8327  17.4042  17.4377  17.8639

          k = 0.1667-0.4725-0.5000 ( 62232 PWs)   bands (ev):

   -66.1707 -66.1707 -66.1707 -66.1707 -66.1699 -66.1699 -66.1699 -66.1699
   -30.5256 -30.5256 -30.5256 -30.5256 -30.5162 -30.5162 -30.5161 -30.5161
   -30.5144 -30.5144 -30.5143 -30.5143 -30.4791 -30.4791 -30.4791 -30.4791
   -30.4750 -30.4750 -30.4750 -30.4750 -30.4328 -30.4328 -30.4328 -30.4328
   -20.3294 -20.3294 -20.3294 -20.3294 -20.3294 -20.3294 -20.3294 -20.3294
   -20.3076 -20.3076 -20.3076 -20.3076 -20.3073 -20.3073 -20.3073 -20.3073
   -20.3053 -20.3053 -20.3053 -20.3053 -20.3050 -20.3050 -20.3049 -20.3049
   -20.3048 -20.3048 -20.3048 -20.3048 -20.3040 -20.3040 -20.3040 -20.3040
   -20.2972 -20.2972 -20.2972 -20.2972 -20.2955 -20.2955 -20.2955 -20.2955
   -20.2952 -20.2952 -20.2951 -20.2951 -20.2923 -20.2923 -20.2923 -20.2923
   -20.2919 -20.2919 -20.2919 -20.2919 -20.2892 -20.2892 -20.2892 -20.2891
    -9.4398  -9.4398  -9.4397  -9.4397  -8.7313  -8.7313  -8.7288  -8.7288
    -8.6389  -8.6389  -8.6350  -8.6350  -8.3734  -8.3733  -8.3684  -8.3684
    -8.3309  -8.3309  -8.3268  -8.3268  -7.8328  -7.8328  -7.8324  -7.8324
     1.5089   1.5089   1.5101   1.5101   2.9794   2.9794   2.9851   2.9851
     3.1085   3.1085   3.1423   3.1423   3.2129   3.2129   3.2283   3.2283
     3.2883   3.2883   3.3644   3.3644   3.4475   3.4475   3.4788   3.4788
     3.6330   3.6330   3.6474   3.6474   4.2975   4.2975   4.3056   4.3056
     4.4006   4.4006   4.4076   4.4076   4.8481   4.8481   5.0058   5.0058
     5.1469   5.1469   5.2942   5.2942   5.8555   5.8555   5.8685   5.8685
     6.7312   6.7312   6.7612   6.7612   6.8379   6.8379   6.8702   6.8702
     7.2783   7.2783   7.3229   7.3229   7.3641   7.3641   7.3960   7.3960
     7.4512   7.4512   7.4826   7.4826   7.5824   7.5824   7.6118   7.6118
    11.1873  11.1873  11.2223  11.2223  11.3685  11.3685  11.4301  11.4301
    12.2539  12.2539  12.2797  12.2797  12.2924  12.2924  12.3039  12.3039
    12.7722  12.7722  12.8414  12.8414  13.4167  13.4167  13.4631  13.4631
    15.8156  15.8156  15.8337  15.8337  16.9310  16.9310  16.9409  16.9409
    17.3776  17.3778  17.3936  17.3937  17.4762

          k = 0.3333 0.0000 0.3333 ( 62316 PWs)   bands (ev):

   -66.1710 -66.1706 -66.1705 -66.1705 -66.1701 -66.1701 -66.1700 -66.1696
   -30.5486 -30.5463 -30.5463 -30.5439 -30.5092 -30.5082 -30.5078 -30.5042
   -30.5031 -30.5017 -30.5007 -30.4990 -30.4876 -30.4855 -30.4848 -30.4826
   -30.4550 -30.4533 -30.4528 -30.4515 -30.4513 -30.4504 -30.4495 -30.4481
   -20.3295 -20.3294 -20.3294 -20.3294 -20.3294 -20.3294 -20.3294 -20.3293
   -20.3103 -20.3101 -20.3101 -20.3100 -20.3057 -20.3057 -20.3056 -20.3054
   -20.3054 -20.3054 -20.3051 -20.3050 -20.3050 -20.3049 -20.3047 -20.3046
   -20.3046 -20.3045 -20.3043 -20.3042 -20.3040 -20.3038 -20.3038 -20.3037
   -20.2970 -20.2969 -20.2965 -20.2965 -20.2964 -20.2962 -20.2953 -20.2952
   -20.2952 -20.2949 -20.2940 -20.2939 -20.2937 -20.2937 -20.2931 -20.2929
   -20.2912 -20.2908 -20.2906 -20.2905 -20.2904 -20.2901 -20.2900 -20.2899
    -9.6121  -9.3671  -9.3659  -9.2894  -9.1213  -9.0194  -9.0154  -8.8065
    -8.7910  -8.7752  -8.7495  -8.7474  -8.2598  -8.2031  -8.1965  -8.1957
    -8.1851  -8.1847  -8.0816  -8.0622  -7.7799  -7.7542  -7.7539  -7.7286
     1.5215   1.5608   1.5611   1.6034   2.0800   2.0852   2.2044   2.2087
     2.2454   2.2493   2.4603   2.5630   2.9247   2.9256   2.9631   2.9990
     3.1604   3.1875   3.7934   3.8038   3.8577   3.8713   4.0665   4.0667
     4.1404   4.1408   4.2021   4.3023   4.3803   4.3827   4.4612   4.4891
     4.8190   4.8346   4.8768   4.9330   5.0104   5.0128   5.1309   5.4075
     5.4127   5.4507   5.4547   5.6555   5.9257   5.9262   5.9336   6.0651
     6.4865   6.5027   6.5041   6.5256   6.5259   6.5520   6.5520   6.6330
     6.9887   7.1711   7.1738   7.1834   7.1855   7.2761   7.3299   7.3342
     7.3664   7.4875   7.7197   7.7247   7.9082   7.9822   7.9847   8.0260
    10.7110  10.8130  10.8388  10.8504  10.9363  11.1459  12.0519  12.0549
    12.1026  12.1048  12.2049  12.2806  12.5131  12.5186  12.7741  12.7890
    12.7934  12.8014  12.9352  13.0293  13.5568  13.6261  13.6291  13.7265
    14.4535  14.7237  14.7242  15.1792  15.8408  16.4052  16.4509  16.7995
    16.8000  17.2649  17.2663  17.8182  17.8353

          k = 0.3333 0.0000-0.5000 ( 62288 PWs)   bands (ev):

   -66.1708 -66.1708 -66.1704 -66.1704 -66.1702 -66.1702 -66.1699 -66.1699
   -30.5475 -30.5475 -30.5452 -30.5452 -30.5070 -30.5070 -30.5011 -30.5011
   -30.4921 -30.4921 -30.4892 -30.4892 -30.4775 -30.4775 -30.4761 -30.4761
   -30.4750 -30.4750 -30.4737 -30.4737 -30.4522 -30.4522 -30.4495 -30.4495
   -20.3295 -20.3295 -20.3294 -20.3294 -20.3294 -20.3294 -20.3293 -20.3293
   -20.3102 -20.3102 -20.3101 -20.3101 -20.3055 -20.3055 -20.3054 -20.3054
   -20.3053 -20.3053 -20.3052 -20.3052 -20.3051 -20.3051 -20.3047 -20.3047
   -20.3046 -20.3046 -20.3041 -20.3041 -20.3040 -20.3040 -20.3039 -20.3039
   -20.2968 -20.2968 -20.2965 -20.2965 -20.2958 -20.2958 -20.2957 -20.2957
   -20.2944 -20.2944 -20.2941 -20.2941 -20.2926 -20.2926 -20.2922 -20.2922
   -20.2921 -20.2921 -20.2917 -20.2917 -20.2905 -20.2905 -20.2902 -20.2902
    -9.4642  -9.4641  -9.2068  -9.2068  -9.1102  -9.1101  -8.7669  -8.7669
    -8.6534  -8.6534  -8.5810  -8.5810  -8.5259  -8.5258  -8.4922  -8.4921
    -8.1548  -8.1548  -8.1495  -8.1495  -7.7673  -7.7673  -7.7414  -7.7414
     1.5414   1.5414   1.5845   1.5845   2.2212   2.2213   2.2514   2.2514
     2.9116   2.9116   2.9958   2.9958   3.0296   3.0296   3.1791   3.1791
     3.2730   3.2730   3.5571   3.5571   3.6689   3.6689   3.8111   3.8111
     3.8490   3.8490   4.0377   4.0377   4.1692   4.1692   4.3193   4.3194
     4.6563   4.6563   4.8779   4.8779   4.9948   4.9948   5.0698   5.0698
[...]
   -20.3880 -20.3880 -20.3880 -20.3880 -20.3876 -20.3876 -20.3875 -20.3875
   -20.3803 -20.3803 -20.3801 -20.3801 -20.3788 -20.3788 -20.3788 -20.3787
   -20.3783 -20.3783 -20.3782 -20.3782 -20.3756 -20.3756 -20.3755 -20.3755
   -20.3752 -20.3752 -20.3751 -20.3751 -20.3725 -20.3725 -20.3722 -20.3722
    -9.5475  -9.5475  -9.3990  -9.3990  -9.0138  -9.0138  -8.7983  -8.7983
    -8.6580  -8.6579  -8.6328  -8.6328  -8.5615  -8.5614  -8.4912  -8.4912
    -8.2102  -8.2101  -8.1800  -8.1800  -7.8826  -7.8826  -7.8702  -7.8702
     1.4919   1.4919   1.5025   1.5025   2.2938   2.2938   2.4047   2.4047
     2.9176   2.9176   3.0021   3.0022   3.0241   3.0241   3.1970   3.1970
     3.2325   3.2325   3.3708   3.3708   3.3920   3.3920   3.6205   3.6205
     3.9827   3.9827   4.0133   4.0133   4.0678   4.0678   4.3016   4.3016
     4.6563   4.6563   4.7299   4.7299   4.9126   4.9126   4.9395   4.9395
     5.0444   5.0444   5.4424   5.4424   5.8023   5.8023   5.8211   5.8211
     6.6056   6.6056   6.7215   6.7216   6.7656   6.7656   6.7961   6.7961
     6.9582   6.9582   7.0089   7.0089   7.1126   7.1126   7.4555   7.4555
     7.4818   7.4818   7.5195   7.5195   7.5498   7.5498   7.7732   7.7732
    10.7189  10.7189  11.1306  11.1306  11.1726  11.1726  11.6645  11.6645
    11.9070  11.9070  12.0814  12.0814  12.4580  12.4580  12.5242  12.5242
    12.6913  12.6913  12.8205  12.8205  13.1714  13.1714  13.5913  13.5913
    15.2729  15.2729  15.8667  15.8667  16.3057  16.3057  16.3928  16.3928
    16.8313  16.8313  17.2453  17.2453  17.8195

          k = 0.3322 0.4739 0.1661 ( 62480 PWs)   bands (ev):

   -66.2505 -66.2505 -66.2500 -66.2500 -66.2496 -66.2496 -66.2492 -66.2492
   -30.6096 -30.6095 -30.6075 -30.6074 -30.6064 -30.6064 -30.6041 -30.6041
   -30.5845 -30.5845 -30.5820 -30.5820 -30.5668 -30.5668 -30.5627 -30.5627
   -30.5186 -30.5186 -30.5147 -30.5147 -30.5004 -30.5004 -30.4982 -30.4982
   -20.4128 -20.4128 -20.4128 -20.4128 -20.4127 -20.4127 -20.4127 -20.4127
   -20.3911 -20.3911 -20.3909 -20.3909 -20.3908 -20.3907 -20.3906 -20.3906
   -20.3891 -20.3891 -20.3889 -20.3889 -20.3886 -20.3886 -20.3883 -20.3883
   -20.3879 -20.3879 -20.3878 -20.3878 -20.3878 -20.3878 -20.3875 -20.3875
   -20.3804 -20.3804 -20.3800 -20.3800 -20.3794 -20.3794 -20.3788 -20.3788
   -20.3782 -20.3782 -20.3779 -20.3779 -20.3770 -20.3770 -20.3767 -20.3767
   -20.3740 -20.3740 -20.3735 -20.3735 -20.3725 -20.3725 -20.3723 -20.3723
    -9.5906  -9.5906  -9.3712  -9.3710  -9.0863  -9.0860  -8.9037  -8.9037
    -8.6198  -8.6190  -8.5402  -8.5388  -8.5007  -8.4998  -8.4908  -8.4907
    -8.2274  -8.2269  -8.1406  -8.1400  -7.9096  -7.9093  -7.8442  -7.8440
     1.4830   1.4836   1.4961   1.4969   2.1578   2.1585   2.3277   2.3292
     2.8333   2.8362   3.1267   3.1269   3.1604   3.1631   3.1867   3.1914
     3.2237   3.2409   3.3629   3.4012   3.4197   3.4524   3.5937   3.6029
     3.6839   3.6971   3.8193   3.8825   4.3656   4.4066   4.5246   4.5364
     4.5779   4.6403   4.7014   4.7206   4.8883   4.9235   4.9294   4.9756
     5.0599   5.1155   5.2640   5.3370   5.7047   5.7216   6.1030   6.1064
     6.5528   6.5593   6.6325   6.6466   6.7887   6.7942   6.9495   7.0011
     7.0248   7.0387   7.1040   7.1291   7.1547   7.1580   7.3741   7.3884
     7.3948   7.4211   7.4246   7.4378   7.4512   7.4707   7.7333   7.7333
    10.4029  10.4062  11.2753  11.2912  11.3086  11.3199  11.6536  11.6641
    11.6730  11.6905  11.7941  11.8463  12.3484  12.4007  12.6640  12.6926
    12.8167  12.8448  13.0085  13.0972  13.2984  13.3267  13.3483  13.4065
    15.5525  15.5689  15.7709  15.7866  16.1856  16.2089  16.5670  16.5923
    16.7975  16.8004  17.3453  17.3869  17.8345

          k =-0.4983 0.4739 0.1661 ( 62476 PWs)   bands (ev):

   -66.2502 -66.2502 -66.2502 -66.2502 -66.2494 -66.2494 -66.2494 -66.2494
   -30.6086 -30.6086 -30.6084 -30.6084 -30.6054 -30.6054 -30.6052 -30.6052
   -30.5833 -30.5833 -30.5832 -30.5832 -30.5428 -30.5428 -30.5426 -30.5426
   -30.5388 -30.5388 -30.5386 -30.5386 -30.4993 -30.4993 -30.4993 -30.4993
   -20.4128 -20.4128 -20.4128 -20.4128 -20.4127 -20.4127 -20.4127 -20.4127
   -20.3910 -20.3910 -20.3910 -20.3910 -20.3907 -20.3907 -20.3907 -20.3907
   -20.3890 -20.3890 -20.3890 -20.3890 -20.3882 -20.3882 -20.3882 -20.3882
   -20.3880 -20.3880 -20.3880 -20.3880 -20.3877 -20.3877 -20.3877 -20.3877
   -20.3802 -20.3802 -20.3802 -20.3802 -20.3788 -20.3788 -20.3787 -20.3787
   -20.3782 -20.3782 -20.3782 -20.3782 -20.3756 -20.3756 -20.3756 -20.3755
   -20.3752 -20.3752 -20.3752 -20.3752 -20.3724 -20.3724 -20.3724 -20.3724
    -9.4591  -9.4591  -9.4574  -9.4574  -8.7893  -8.7893  -8.7821  -8.7821
    -8.6737  -8.6737  -8.6668  -8.6668  -8.4652  -8.4652  -8.4531  -8.4531
    -8.4099  -8.4099  -8.3989  -8.3989  -7.8768  -7.8768  -7.8765  -7.8765
     1.4991   1.4991   1.5013   1.5013   2.9265   2.9265   2.9608   2.9608
     3.0669   3.0669   3.0828   3.0828   3.1502   3.1502   3.2025   3.2025
     3.2269   3.2269   3.3337   3.3337   3.4037   3.4037   3.4446   3.4446
     3.5220   3.5220   3.6187   3.6187   4.2185   4.2186   4.2392   4.2392
     4.3084   4.3084   4.3434   4.3434   4.7927   4.7927   4.9519   4.9519
     5.0698   5.0698   5.2156   5.2156   5.8035   5.8035   5.8158   5.8158
     6.6857   6.6857   6.7227   6.7227   6.7931   6.7931   6.8294   6.8294
     7.2187   7.2188   7.2509   7.2509   7.2965   7.2965   7.3443   7.3443
     7.3847   7.3847   7.4346   7.4346   7.5332   7.5332   7.5614   7.5614
    11.1080  11.1080  11.1379  11.1379  11.2972  11.2972  11.3534  11.3534
    12.1627  12.1627  12.1937  12.1937  12.2130  12.2130  12.2387  12.2387
    12.6643  12.6643  12.7329  12.7330  13.3144  13.3144  13.3607  13.3607
    15.6747  15.6747  15.6929  15.6929  16.8477  16.8478  16.8743  16.8743
    17.2876  17.2877  17.3184  17.3185  17.4008

          k =-0.4983 0.0000 0.3321 ( 62558 PWs)   bands (ev):

   -66.2503 -66.2502 -66.2498 -66.2498 -66.2498 -66.2498 -66.2494 -66.2494
   -30.6377 -30.6377 -30.6358 -30.6358 -30.5806 -30.5806 -30.5768 -30.5768
   -30.5650 -30.5650 -30.5642 -30.5642 -30.5430 -30.5430 -30.5411 -30.5411
   -30.5398 -30.5398 -30.5380 -30.5380 -30.5181 -30.5181 -30.5157 -30.5157
   -20.4128 -20.4128 -20.4128 -20.4128 -20.4128 -20.4128 -20.4127 -20.4127
   -20.3936 -20.3936 -20.3935 -20.3935 -20.3891 -20.3891 -20.3890 -20.3889
   -20.3885 -20.3885 -20.3885 -20.3885 -20.3883 -20.3883 -20.3882 -20.3882
   -20.3877 -20.3877 -20.3877 -20.3877 -20.3875 -20.3875 -20.3872 -20.3872
   -20.3798 -20.3798 -20.3797 -20.3797 -20.3790 -20.3790 -20.3790 -20.3790
   -20.3775 -20.3775 -20.3771 -20.3771 -20.3758 -20.3758 -20.3754 -20.3754
   -20.3754 -20.3753 -20.3750 -20.3750 -20.3738 -20.3738 -20.3733 -20.3733
    -9.5341  -9.5341  -9.3131  -9.3131  -9.1245  -9.1245  -8.8282  -8.8282
    -8.6749  -8.6749  -8.6061  -8.6061  -8.5511  -8.5510  -8.5231  -8.5231
    -8.1898  -8.1898  -8.1826  -8.1826  -7.8614  -7.8614  -7.8370  -7.8370
     1.4204   1.4204   1.4599   1.4599   2.2019   2.2019   2.2312   2.2312
     2.8588   2.8588   2.9523   2.9523   2.9897   2.9897   3.1425   3.1425
     3.2460   3.2460   3.5372   3.5372   3.6503   3.6503   3.7822   3.7822
     3.7844   3.7844   3.9688   3.9688   4.1104   4.1104   4.2952   4.2952
     4.6364   4.6364   4.8500   4.8500   4.9634   4.9634   5.0310   5.0310
     5.1922   5.1922   5.4583   5.4583   5.8597   5.8597   5.9478   5.9478
     6.3417   6.3417   6.3591   6.3591   6.4181   6.4181   6.5194   6.5194
     7.0965   7.0965   7.2338   7.2338   7.3167   7.3167   7.4947   7.4947
     7.5176   7.5176   7.6305   7.6305   7.6803   7.6803   7.9287   7.9287
    10.7533  10.7533  11.3314  11.3314  11.4122  11.4122  11.5202  11.5202
    11.7206  11.7206  12.1652  12.1652  12.3150  12.3150  12.5285  12.5285
    12.7525  12.7525  13.1104  13.1104  13.1478  13.1478  13.5681  13.5681
    14.5878  14.5878  14.9699  14.9699  16.2163  16.2163  16.6771  16.6771
    17.0226  17.0226  17.4092  17.4092  17.8684

          k =-0.4983-0.1580 0.3321 ( 62536 PWs)   bands (ev):

   -66.2502 -66.2502 -66.2499 -66.2499 -66.2497 -66.2497 -66.2494 -66.2494
   -30.6337 -30.6337 -30.6318 -30.6318 -30.5839 -30.5839 -30.5807 -30.5807
   -30.5654 -30.5654 -30.5644 -30.5644 -30.5429 -30.5429 -30.5410 -30.5410
   -30.5400 -30.5400 -30.5383 -30.5383 -30.5180 -30.5180 -30.5159 -30.5158
   -20.4128 -20.4128 -20.4128 -20.4128 -20.4128 -20.4128 -20.4127 -20.4127
   -20.3933 -20.3933 -20.3931 -20.3931 -20.3891 -20.3891 -20.3891 -20.3891
   -20.3887 -20.3887 -20.3885 -20.3885 -20.3883 -20.3883 -20.3882 -20.3882
   -20.3879 -20.3879 -20.3878 -20.3878 -20.3876 -20.3876 -20.3874 -20.3874
   -20.3798 -20.3798 -20.3797 -20.3797 -20.3790 -20.3790 -20.3790 -20.3790
   -20.3775 -20.3774 -20.3771 -20.3771 -20.3758 -20.3758 -20.3754 -20.3754
   -20.3753 -20.3753 -20.3750 -20.3750 -20.3738 -20.3738 -20.3733 -20.3733
    -9.4849  -9.4849  -9.2455  -9.2455  -9.1350  -9.1350  -8.8039  -8.8039
    -8.6832  -8.6832  -8.6038  -8.6038  -8.5494  -8.5494  -8.5195  -8.5195
    -8.1882  -8.1882  -8.1877  -8.1877  -7.9582  -7.9582  -7.9338  -7.9338
     1.6514   1.6514   1.6916   1.6916   2.2011   2.2011   2.2408   2.2408
     2.9090   2.9090   2.9844   2.9844   3.0087   3.0087   3.1519   3.1520
     3.2469   3.2469   3.5539   3.5540   3.6484   3.6484   3.7755   3.7755
     3.8307   3.8307   3.9998   3.9998   4.1096   4.1096   4.3028   4.3028
     4.5078   4.5078   4.6269   4.6269   4.9115   4.9115   4.9580   4.9580
     5.0041   5.0042   5.2424   5.2424   5.6362   5.6362   5.7237   5.7237
     6.4778   6.4779   6.5112   6.5113   6.5701   6.5701   6.6944   6.6944
     7.1006   7.1006   7.2255   7.2255   7.3165   7.3165   7.4896   7.4896
     7.5119   7.5119   7.6042   7.6042   7.6515   7.6515   7.8738   7.8738
    10.8600  10.8600  11.3487  11.3487  11.4249  11.4249  11.5814  11.5815
    11.7726  11.7726  12.1862  12.1862  12.3116  12.3116  12.5438  12.5438
    12.6223  12.6223  12.9886  12.9886  13.0266  13.0266  13.4598  13.4598
    14.9596  14.9596  15.3581  15.3581  16.3016  16.3016  16.6769  16.6769
    17.0272  17.0272  17.4244  17.4244  17.7218

          k =-0.4983-0.3159 0.3321 ( 62530 PWs)   bands (ev):

   -66.2502 -66.2501 -66.2499 -66.2499 -66.2497 -66.2497 -66.2495 -66.2495
   -30.6229 -30.6229 -30.6210 -30.6210 -30.5938 -30.5938 -30.5914 -30.5914
   -30.5657 -30.5657 -30.5649 -30.5648 -30.5425 -30.5425 -30.5412 -30.5412
   -30.5401 -30.5401 -30.5389 -30.5389 -30.5176 -30.5176 -30.5163 -30.5163
   -20.4128 -20.4128 -20.4128 -20.4128 -20.4128 -20.4128 -20.4127 -20.4127
   -20.3923 -20.3923 -20.3921 -20.3921 -20.3897 -20.3897 -20.3895 -20.3895
   -20.3889 -20.3889 -20.3885 -20.3885 -20.3883 -20.3883 -20.3882 -20.3882
   -20.3882 -20.3882 -20.3879 -20.3879 -20.3877 -20.3877 -20.3877 -20.3877
   -20.3798 -20.3798 -20.3797 -20.3797 -20.3790 -20.3790 -20.3790 -20.3790
   -20.3774 -20.3774 -20.3772 -20.3772 -20.3757 -20.3757 -20.3755 -20.3755
   -20.3753 -20.3753 -20.3751 -20.3751 -20.3737 -20.3737 -20.3734 -20.3734
    -9.3655  -9.3655  -9.1712  -9.1712  -9.0629  -9.0629  -8.7394  -8.7394
    -8.7025  -8.7024  -8.5992  -8.5992  -8.5388  -8.5388  -8.4999  -8.4999
    -8.2382  -8.2382  -8.1986  -8.1986  -8.1798  -8.1798  -8.1280  -8.1280
     2.1234   2.1234   2.1979   2.1979   2.3012   2.3012   2.4235   2.4235
     2.9820   2.9820   3.0286   3.0286   3.1173   3.1173   3.1901   3.1901
     3.2760   3.2760   3.5478   3.5478   3.6354   3.6354   3.7236   3.7236
     3.9713   3.9713   4.0163   4.0163   4.0674   4.0674   4.1645   4.1645
     4.2538   4.2538   4.3875   4.3875   4.5336   4.5336   4.7678   4.7678
     4.8793   4.8793   4.9317   4.9317   4.9767   4.9767   5.2255   5.2255
     6.7999   6.7999   6.8559   6.8559   6.9149   6.9149   6.9742   6.9742
     7.1092   7.1092   7.2071   7.2071   7.3258   7.3258   7.4440   7.4440
     7.4810   7.4810   7.5462   7.5462   7.5752   7.5752   7.7149   7.7149
    11.1459  11.1459  11.3767  11.3767  11.4568  11.4568  11.7583  11.7583
    11.9462  11.9462  12.2155  12.2155  12.2632  12.2632  12.2966  12.2966
    12.6016  12.6016  12.6983  12.6983  12.7735  12.7735  13.1969  13.1969
    15.8096  15.8096  16.3073  16.3074  16.5633  16.5633  16.6529  16.6530
    17.0592  17.0592  17.3176  17.3176  17.5785

          k =-0.4983 0.4739 0.3321 ( 62472 PWs)   bands (ev):

   -66.2501 -66.2500 -66.2500 -66.2500 -66.2496 -66.2496 -66.2496 -66.2496
   -30.6083 -30.6083 -30.6081 -30.6081 -30.6063 -30.6063 -30.6060 -30.6060
   -30.5654 -30.5654 -30.5654 -30.5654 -30.5420 -30.5420 -30.5417 -30.5417
   -30.5397 -30.5397 -30.5395 -30.5395 -30.5170 -30.5170 -30.5170 -30.5170
   -20.4128 -20.4128 -20.4128 -20.4128 -20.4127 -20.4127 -20.4127 -20.4127
   -20.3910 -20.3910 -20.3909 -20.3909 -20.3908 -20.3908 -20.3908 -20.3908
   -20.3887 -20.3887 -20.3887 -20.3887 -20.3882 -20.3882 -20.3882 -20.3882
   -20.3881 -20.3881 -20.3880 -20.3880 -20.3878 -20.3878 -20.3878 -20.3878
   -20.3798 -20.3798 -20.3797 -20.3797 -20.3790 -20.3790 -20.3790 -20.3790
   -20.3773 -20.3773 -20.3773 -20.3773 -20.3756 -20.3756 -20.3756 -20.3756
   -20.3752 -20.3752 -20.3752 -20.3752 -20.3736 -20.3736 -20.3736 -20.3736
    -9.2472  -9.2472  -9.2446  -9.2446  -8.8508  -8.8508  -8.8442  -8.8442
    -8.6172  -8.6172  -8.6105  -8.6105  -8.4587  -8.4587  -8.4486  -8.4486
    -8.4143  -8.4143  -8.4058  -8.4058  -8.1733  -8.1733  -8.1723  -8.1723
     2.1871   2.1871   2.1913   2.1913   2.9339   2.9339   2.9552   2.9552
     3.0574   3.0574   3.0651   3.0652   3.2007   3.2007   3.2225   3.2225
     3.3096   3.3096   3.3398   3.3398   3.5704   3.5704   3.5940   3.5940
     3.6983   3.6983   3.7578   3.7578   4.1810   4.1810   4.2066   4.2067
     4.2535   4.2535   4.3134   4.3134   4.3826   4.3826   4.4811   4.4811
     4.5848   4.5848   4.7293   4.7293   4.9886   4.9886   5.0048   5.0048
     6.9672   6.9672   7.0065   7.0065   7.1194   7.1194   7.1230   7.1230
     7.2177   7.2177   7.2564   7.2564   7.2826   7.2826   7.3438   7.3438
     7.4196   7.4196   7.4821   7.4821   7.5510   7.5510   7.5757   7.5757
    11.3427  11.3427  11.3758  11.3758  11.6486  11.6486  11.7187  11.7187
    12.1038  12.1038  12.1545  12.1545  12.2218  12.2218  12.2437  12.2437
    12.3994  12.3994  12.5071  12.5071  12.8691  12.8691  12.9463  12.9463
    16.4272  16.4272  16.4716  16.4716  17.0131  17.0131  17.0306  17.0306
    17.2853  17.2853  17.3446  17.3458  17.3722

     the Fermi energy is     8.9030 ev

!    total energy              =   -6261.10924195 Ry
     Harris-Foulkes estimate   =   -6261.10924195 Ry
     estimated scf accuracy    <          3.1E-11 Ry

     The total energy is the sum of the following terms:

     one-electron contribution =   -4738.87894902 Ry
     hartree contribution      =    2605.17933706 Ry
     xc contribution           =    -965.66896808 Ry
     ewald contribution        =   -3161.74066191 Ry
     smearing contrib. (-TS)   =      -0.00000000 Ry

     convergence has been achieved in  14 iterations

     Forces acting on atoms (cartesian axes, Ry/au):

     atom    1 type  1   force =    -0.00148232    0.00356510    0.00108014
     atom    2 type  1   force =     0.00148232   -0.00356510   -0.00108014
     atom    3 type  1   force =     0.00148232   -0.00356510    0.00108014
     atom    4 type  1   force =    -0.00148232    0.00356510   -0.00108014
     atom    5 type  1   force =     0.00148232    0.00356510   -0.00108014
     atom    6 type  1   force =    -0.00148232   -0.00356510    0.00108014
     atom    7 type  1   force =    -0.00148232   -0.00356510   -0.00108014
     atom    8 type  1   force =     0.00148232    0.00356510    0.00108014
     atom    9 type  2   force =    -0.00016517   -0.00175175    0.00005472
     atom   10 type  2   force =     0.00016517    0.00175175   -0.00005472
     atom   11 type  2   force =     0.00016517    0.00175175    0.00005472
     atom   12 type  2   force =    -0.00016517   -0.00175175   -0.00005472
     atom   13 type  2   force =     0.00016517   -0.00175175   -0.00005472
     atom   14 type  2   force =    -0.00016517    0.00175175    0.00005472
     atom   15 type  2   force =    -0.00016517    0.00175175   -0.00005472
     atom   16 type  2   force =     0.00016517   -0.00175175    0.00005472
     atom   17 type  2   force =    -0.00075613   -0.00002960   -0.00056320
     atom   18 type  2   force =     0.00075613    0.00002960    0.00056320
     atom   19 type  2   force =     0.00075613    0.00002960   -0.00056320
     atom   20 type  2   force =    -0.00075613   -0.00002960    0.00056320
     atom   21 type  2   force =     0.00075613   -0.00002960    0.00056320
     atom   22 type  2   force =    -0.00075613    0.00002960   -0.00056320
     atom   23 type  2   force =    -0.00075613    0.00002960    0.00056320
     atom   24 type  2   force =     0.00075613   -0.00002960   -0.00056320
     atom   25 type  2   force =    -0.00067551   -0.00036443    0.00067521
     atom   26 type  2   force =     0.00067551    0.00036443   -0.00067521
     atom   27 type  2   force =     0.00067551    0.00036443    0.00067521
     atom   28 type  2   force =    -0.00067551   -0.00036443   -0.00067521
     atom   29 type  2   force =     0.00067551   -0.00036443   -0.00067521
     atom   30 type  2   force =    -0.00067551    0.00036443    0.00067521
     atom   31 type  2   force =    -0.00067551    0.00036443   -0.00067521
     atom   32 type  2   force =     0.00067551   -0.00036443    0.00067521

     Total force =     0.000000     Total SCF correction =     0.000000


     Computing stress (Cartesian axis) and pressure

          total   stress  (Ry/bohr**3)                   (kbar)     P=    0.10
   0.00000106   0.00000000   0.00000000          0.16      0.00      0.00
   0.00000000  -0.00000014   0.00000000          0.00     -0.02      0.00
   0.00000000   0.00000000   0.00000110          0.00      0.00      0.16


     Writing output data file Landau_6.save
 
     init_run     :    118.78s CPU    121.79s WALL (       2 calls)
     electrons    :  16788.81s CPU  17078.49s WALL (       6 calls)
     update_pot   :    115.74s CPU    115.89s WALL (       4 calls)
     forces       :    214.21s CPU    216.67s WALL (       6 calls)
     stress       :   1880.66s CPU   1900.67s WALL (       6 calls)

     Called by init_run:
     wfcinit      :     92.08s CPU     94.82s WALL (       2 calls)
     potinit      :     12.14s CPU     12.22s WALL (       2 calls)

     Called by electrons:
     c_bands      :  14437.82s CPU  14715.08s WALL (      84 calls)
     sum_band     :   1609.77s CPU   1616.32s WALL (      84 calls)
     v_of_rho     :     12.98s CPU     13.24s WALL (      89 calls)
     mix_rho      :     33.34s CPU     37.79s WALL (      84 calls)

     Called by c_bands:
     init_us_2    :    147.94s CPU    155.23s WALL (     364 calls)
     cegterg      :   9634.07s CPU   9893.96s WALL (     168 calls)

     Called by sum_band:

     Called by *egterg:
     h_psi        :   7485.99s CPU   7517.20s WALL (     649 calls)
     g_psi        :     28.90s CPU     29.00s WALL (     477 calls)
     cdiaghg      :     93.93s CPU     94.15s WALL (     635 calls)

     Called by h_psi:
     h_psi:pot    :   7434.16s CPU   7463.77s WALL (     649 calls)
     h_psi:calbec :    847.68s CPU    868.85s WALL (     649 calls)
     vloc_psi     :   5700.52s CPU   5706.74s WALL (     649 calls)
     add_vuspsi   :    885.95s CPU    888.18s WALL (     649 calls)

     General routines
     calbec       :    970.21s CPU    991.47s WALL (     709 calls)
     fft          :      9.25s CPU      9.26s WALL (     404 calls)
     fftw         :   5543.41s CPU   5547.03s WALL (  216436 calls)
 
     Parallel routines
 
     PWSCF        :     5h18m CPU        5h24m WALL

 
   This run was terminated on:  21: 3:49  13Mar2020            

=------------------------------------------------------------------------------=
   JOB DONE.
=------------------------------------------------------------------------------=
