
     Program PWSCF v.6.2 (svn rev. 14038) starts on 17Sep2019 at 14:27:16 

     This program is part of the open-source Quantum ESPRESSO suite
     for quantum simulation of materials; please cite
         "P. Giannozzi et al., J. Phys.:Condens. Matter 21 395502 (2009);
         "P. Giannozzi et al., J. Phys.:Condens. Matter 29 465901 (2017);
          URL http://www.quantum-espresso.org", 
     in publications or presentations arising from this work. More details at
     http://www.quantum-espresso.org/quote

     Parallel version (MPI), running on    40 processors

     MPI processes distributed on     3 nodes
     K-points division:     npool     =      40
     Reading input from scf.in

     Current dimensions of program PWSCF are:
     Max number of different atomic species (ntypx) = 10
     Max number of k-points (npk) =  40000
     Max angular momentum in pseudopotentials (lmaxx) =  3

     Subspace diagonalization in iterative solution of the eigenvalue problem:
     a serial algorithm will be used

 
     G-vector sticks info
     --------------------
     sticks:   dense  smooth     PW     G-vecs:    dense   smooth      PW
     Sum        7507    7507   2009               485083   485083   67379
 


     bravais-lattice index     =            0
     lattice parameter (alat)  =      13.9104  a.u.
     unit-cell volume          =    2732.2478 (a.u.)^3
     number of atoms/cell      =           32
     number of atomic types    =            2
     number of electrons       =       369.00
     number of Kohn-Sham states=          222
     kinetic-energy cutoff     =     120.0000  Ry
     charge density cutoff     =     480.0000  Ry
     convergence threshold     =      1.0E-08
     mixing beta               =       0.7000
     number of iterations used =            8  plain     mixing
     Exchange-correlation      = SLA PW NOGX NOGC ( 1  4  0  0 0 0)

     celldm(1)=  13.910375  celldm(2)=   0.000000  celldm(3)=   0.000000
     celldm(4)=   0.000000  celldm(5)=   0.000000  celldm(6)=   0.000000

     crystal axes: (cart. coord. in units of alat)
               a(1) = (   1.000000   0.000000   0.000000 )  
               a(2) = (   0.000000   1.015088   0.000000 )  
               a(3) = (   0.000000   0.000000   1.000000 )  

     reciprocal axes: (cart. coord. in units 2 pi/alat)
               b(1) = (  1.000000  0.000000  0.000000 )  
               b(2) = (  0.000000  0.985137  0.000000 )  
               b(3) = (  0.000000  0.000000  1.000000 )  


     PseudoPot. # 1 for W  read from file:
     /cluster/scratch/mnoe/QE/pps/W_ONCV_LDA-4.0.upf
     MD5 check sum: ba0307d5d4cd419d6f1d13dc49d7c13a
     Pseudo is Norm-conserving + core correction, Zval = 28.0
     Generated using ONCVPSP code by D. R. Hamann
     Using radial grid of 1380 points,  8 beta functions with: 
                l(1) =   0
                l(2) =   0
                l(3) =   1
                l(4) =   1
                l(5) =   2
                l(6) =   2
                l(7) =   3
                l(8) =   3

     PseudoPot. # 2 for O  read from file:
     /cluster/scratch/mnoe/QE/pps/O_ONCV_LDA-3.0.upf
     MD5 check sum: ca1549d10c4e927e51167f6fca52ae32
     Pseudo is Norm-conserving + core correction, Zval =  6.0
     Generated using ONCVPSP code by D. R. Hamann
     Using radial grid of  926 points,  5 beta functions with: 
                l(1) =   0
                l(2) =   0
                l(3) =   1
                l(4) =   1
                l(5) =   2

     atomic species   valence    mass     pseudopotential
        W             28.00   183.84000     W ( 1.00)
        O              6.00    15.99940     O ( 1.00)

      8 Sym. Ops. (no inversion) found ( 4 have fractional translation)



   Cartesian axes

     site n.     atom                  positions (alat units)
         1           W   tau(   1) = (   0.2850800   0.2861126   0.2510000  )
         2           W   tau(   2) = (  -0.2510000   0.7289750  -0.7149199  )
         3           W   tau(   3) = (   0.2149200   0.2214312   0.7510000  )
         4           W   tau(   4) = (   0.7510000   0.7936564   0.7850800  )
         5           W   tau(   5) = (   0.7149200   0.2861126   0.7490000  )
         6           W   tau(   6) = (   0.2510000   0.7289750   0.7149200  )
         7           W   tau(   7) = (  -0.2149199   0.2214312  -0.7510000  )
         8           W   tau(   8) = (   0.2490000   0.7936564   0.2149200  )
         9           O   tau(   9) = (   0.2885700   0.0084455   0.2779700  )
        10           O   tau(  10) = (  -0.2779701   1.0066421  -0.7114300  )
        11           O   tau(  11) = (   0.2114300   0.4990983   0.7779700  )
        12           O   tau(  12) = (   0.7779700   0.5159893   0.7885700  )
        13           O   tau(  13) = (   0.7114300   0.0084455   0.7220300  )
        14           O   tau(  14) = (   0.2779700   1.0066421   0.7114300  )
        15           O   tau(  15) = (  -0.2114300   0.4990983  -0.7779701  )
        16           O   tau(  16) = (   0.2220300   0.5159893   0.2114300  )
        17           O   tau(  17) = (   0.4875899   0.2959793   0.6995400  )
        18           O   tau(  18) = (   0.4974500   0.7342331   0.8004600  )
        19           O   tau(  19) = (  -0.9875900   0.2115646   1.1995400  )
        20           O   tau(  20) = (   0.0025500   0.7883982   0.3004600  )
        21           O   tau(  21) = (   0.5124101   0.2959793   0.3004600  )
        22           O   tau(  22) = (   0.5025500   0.7342331   1.1995400  )
        23           O   tau(  23) = (  -0.0124100   0.2115646   0.8004600  )
        24           O   tau(  24) = (  -1.0025500   0.7883982   0.6995400  )
        25           O   tau(  25) = (   0.6995400   0.2266894   2.0025500  )
        26           O   tau(  26) = (   0.3004600   0.7191084   0.4875900  )
        27           O   tau(  27) = (   0.8004600   0.2808545   0.5025500  )
        28           O   tau(  28) = (   0.1995400   0.8035230   1.9875899  )
        29           O   tau(  29) = (   0.3004600   0.2266894   0.9974500  )
        30           O   tau(  30) = (   0.6995400   0.7191084   0.5124100  )
        31           O   tau(  31) = (   0.1995400   0.2808545   0.4974500  )
        32           O   tau(  32) = (   0.8004600   0.8035230   1.0124101  )

     number of k points=    40  gaussian smearing, width (Ry)=  0.0007
                       cart. coord. in units 2pi/alat
        k(    1) = (   0.0000000   0.0000000   0.0000000), wk =   0.0092593
        k(    2) = (   0.0000000   0.0000000   0.1666667), wk =   0.0370370
        k(    3) = (   0.0000000   0.0000000   0.3333333), wk =   0.0370370
        k(    4) = (   0.0000000   0.0000000  -0.5000000), wk =   0.0185185
        k(    5) = (   0.0000000   0.1641894   0.0000000), wk =   0.0185185
        k(    6) = (   0.0000000   0.1641894   0.1666667), wk =   0.0740741
        k(    7) = (   0.0000000   0.1641894   0.3333333), wk =   0.0740741
        k(    8) = (   0.0000000   0.1641894  -0.5000000), wk =   0.0370370
        k(    9) = (   0.0000000   0.3283789   0.0000000), wk =   0.0185185
        k(   10) = (   0.0000000   0.3283789   0.1666667), wk =   0.0740741
        k(   11) = (   0.0000000   0.3283789   0.3333333), wk =   0.0740741
        k(   12) = (   0.0000000   0.3283789  -0.5000000), wk =   0.0370370
        k(   13) = (   0.0000000  -0.4925683   0.0000000), wk =   0.0092593
        k(   14) = (   0.0000000  -0.4925683   0.1666667), wk =   0.0370370
        k(   15) = (   0.0000000  -0.4925683   0.3333333), wk =   0.0370370
        k(   16) = (   0.0000000  -0.4925683  -0.5000000), wk =   0.0185185
        k(   17) = (   0.1666667   0.0000000   0.1666667), wk =   0.0370370
        k(   18) = (   0.1666667   0.0000000   0.3333333), wk =   0.0740741
        k(   19) = (   0.1666667   0.0000000  -0.5000000), wk =   0.0370370
        k(   20) = (   0.1666667   0.1641894   0.1666667), wk =   0.0740741
        k(   21) = (   0.1666667   0.1641894   0.3333333), wk =   0.1481481
        k(   22) = (   0.1666667   0.1641894  -0.5000000), wk =   0.0740741
        k(   23) = (   0.1666667   0.3283789   0.1666667), wk =   0.0740741
        k(   24) = (   0.1666667   0.3283789   0.3333333), wk =   0.1481481
        k(   25) = (   0.1666667   0.3283789  -0.5000000), wk =   0.0740741
        k(   26) = (   0.1666667  -0.4925683   0.1666667), wk =   0.0370370
        k(   27) = (   0.1666667  -0.4925683   0.3333333), wk =   0.0740741
        k(   28) = (   0.1666667  -0.4925683  -0.5000000), wk =   0.0370370
        k(   29) = (   0.3333333   0.0000000   0.3333333), wk =   0.0370370
        k(   30) = (   0.3333333   0.0000000  -0.5000000), wk =   0.0370370
        k(   31) = (   0.3333333   0.1641894   0.3333333), wk =   0.0740741
        k(   32) = (   0.3333333   0.1641894  -0.5000000), wk =   0.0740741
        k(   33) = (   0.3333333   0.3283789   0.3333333), wk =   0.0740741
        k(   34) = (   0.3333333   0.3283789  -0.5000000), wk =   0.0740741
        k(   35) = (   0.3333333  -0.4925683   0.3333333), wk =   0.0370370
        k(   36) = (   0.3333333  -0.4925683  -0.5000000), wk =   0.0370370
        k(   37) = (  -0.5000000   0.0000000  -0.5000000), wk =   0.0092593
        k(   38) = (  -0.5000000   0.1641894  -0.5000000), wk =   0.0185185
        k(   39) = (  -0.5000000   0.3283789  -0.5000000), wk =   0.0185185
        k(   40) = (  -0.5000000  -0.4925683  -0.5000000), wk =   0.0092593

     Dense  grid:   485083 G-vectors     FFT dimensions: ( 100, 100, 100)

     Estimated max dynamical RAM per process >       2.65 GB

     Estimated total dynamical RAM >     106.12 GB

     Initial potential from superposition of free atoms

     starting charge  367.99656, renormalised to  369.00000
     Starting wfc are  232 randomized atomic wfcs

     total cpu time spent up to now is       24.6 secs

     Self-consistent Calculation

     iteration #  1     ecut=   120.00 Ry     beta= 0.70
     Davidson diagonalization with overlap
     ethr =  1.00E-02,  avg # of iterations =  5.0

     total cpu time spent up to now is      108.5 secs

     total energy              =   -6252.97404819 Ry
     Harris-Foulkes estimate   =   -6263.85558547 Ry
     estimated scf accuracy    <      13.66581506 Ry

     iteration #  2     ecut=   120.00 Ry     beta= 0.70
     Davidson diagonalization with overlap
     ethr =  3.70E-03,  avg # of iterations =  3.5

     total cpu time spent up to now is      190.0 secs

     total energy              =   -6249.82526124 Ry
     Harris-Foulkes estimate   =   -6269.79913074 Ry
     estimated scf accuracy    <      53.08274273 Ry

     iteration #  3     ecut=   120.00 Ry     beta= 0.70
     Davidson diagonalization with overlap
     ethr =  3.70E-03,  avg # of iterations =  3.2

     total cpu time spent up to now is      267.9 secs

     total energy              =   -6260.23294337 Ry
     Harris-Foulkes estimate   =   -6260.49659146 Ry
     estimated scf accuracy    <       0.88625136 Ry

     iteration #  4     ecut=   120.00 Ry     beta= 0.70
     Davidson diagonalization with overlap
     ethr =  2.40E-04,  avg # of iterations =  2.3

     total cpu time spent up to now is      329.3 secs

     total energy              =   -6260.22242221 Ry
     Harris-Foulkes estimate   =   -6260.29714925 Ry
     estimated scf accuracy    <       0.23033401 Ry

     iteration #  5     ecut=   120.00 Ry     beta= 0.70
     Davidson diagonalization with overlap
     ethr =  6.24E-05,  avg # of iterations =  5.4

     total cpu time spent up to now is      399.3 secs

     total energy              =   -6260.22508022 Ry
     Harris-Foulkes estimate   =   -6260.25643816 Ry
     estimated scf accuracy    <       0.06833012 Ry

     iteration #  6     ecut=   120.00 Ry     beta= 0.70
     Davidson diagonalization with overlap
     ethr =  1.85E-05,  avg # of iterations =  4.7

     total cpu time spent up to now is      472.1 secs

     total energy              =   -6260.24048777 Ry
     Harris-Foulkes estimate   =   -6260.24315066 Ry
     estimated scf accuracy    <       0.00731496 Ry

     iteration #  7     ecut=   120.00 Ry     beta= 0.70
     Davidson diagonalization with overlap
     ethr =  1.98E-06,  avg # of iterations =  3.7

     total cpu time spent up to now is      537.6 secs

     total energy              =   -6260.24127492 Ry
     Harris-Foulkes estimate   =   -6260.24144757 Ry
     estimated scf accuracy    <       0.00032356 Ry

     iteration #  8     ecut=   120.00 Ry     beta= 0.70
     Davidson diagonalization with overlap
     ethr =  8.77E-08,  avg # of iterations =  3.0

     total cpu time spent up to now is      614.8 secs

     total energy              =   -6260.24138291 Ry
     Harris-Foulkes estimate   =   -6260.24140703 Ry
     estimated scf accuracy    <       0.00007824 Ry

     iteration #  9     ecut=   120.00 Ry     beta= 0.70
     Davidson diagonalization with overlap
     ethr =  2.12E-08,  avg # of iterations =  2.0

     total cpu time spent up to now is      678.5 secs

     total energy              =   -6260.24138843 Ry
     Harris-Foulkes estimate   =   -6260.24139456 Ry
     estimated scf accuracy    <       0.00002207 Ry

     iteration # 10     ecut=   120.00 Ry     beta= 0.70
     Davidson diagonalization with overlap
     ethr =  5.98E-09,  avg # of iterations =  1.2

     total cpu time spent up to now is      738.7 secs

     total energy              =   -6260.24138822 Ry
     Harris-Foulkes estimate   =   -6260.24139024 Ry
     estimated scf accuracy    <       0.00000483 Ry

     iteration # 11     ecut=   120.00 Ry     beta= 0.70
     Davidson diagonalization with overlap
     ethr =  1.31E-09,  avg # of iterations =  3.0

     total cpu time spent up to now is      807.5 secs

     total energy              =   -6260.24138927 Ry
     Harris-Foulkes estimate   =   -6260.24138931 Ry
     estimated scf accuracy    <       0.00000009 Ry

     iteration # 12     ecut=   120.00 Ry     beta= 0.70
     Davidson diagonalization with overlap
     ethr =  2.38E-11,  avg # of iterations =  2.0

     total cpu time spent up to now is      885.4 secs

     End of self-consistent calculation

          k = 0.0000 0.0000 0.0000 ( 60685 PWs)   bands (ev):

   -65.4783 -65.4776 -65.4775 -65.4774 -65.4766 -65.4766 -65.4765 -65.4757
   -30.0559 -30.0520 -30.0495 -30.0495 -29.9709 -29.9709 -29.9704 -29.9626
   -29.8496 -29.8424 -29.8424 -29.8350 -29.7698 -29.7657 -29.7657 -29.7604
   -29.7489 -29.7479 -29.7390 -29.7390 -29.6683 -29.6683 -29.6633 -29.6616
   -19.6155 -19.6155 -19.6154 -19.6154 -19.6115 -19.6115 -19.6115 -19.6114
   -19.6025 -19.6023 -19.6022 -19.6020 -19.6014 -19.6010 -19.6010 -19.6006
   -19.5988 -19.5983 -19.5983 -19.5981 -19.5970 -19.5970 -19.5970 -19.5966
   -19.5814 -19.5810 -19.5802 -19.5802 -19.5793 -19.5793 -19.5792 -19.5787
   -19.5781 -19.5781 -19.5776 -19.5770 -19.5746 -19.5740 -19.5740 -19.5734
   -19.5704 -19.5697 -19.5697 -19.5697 -19.5689 -19.5689 -19.5689 -19.5687
   -19.5685 -19.5679 -19.5679 -19.5678 -19.5651 -19.5651 -19.5649 -19.5646
    -9.5130  -9.1575  -9.0901  -9.0900  -8.6040  -8.6040  -8.5875  -8.4652
    -8.2940  -8.2027  -8.2027  -8.1994  -7.6778  -7.6052  -7.4893  -7.4893
    -7.3104  -7.2362  -7.2362  -7.1795  -7.1719  -7.1528  -7.0264  -7.0263
     1.8488   1.9078   1.9253   1.9253   2.1089   2.1204   2.1457   2.1457
     2.3328   2.3328   2.4467   2.6044   2.7917   2.8755   2.9755   3.1268
     3.1409   3.1409   4.6607   4.6607   4.8680   5.0651   5.0651   5.0666
     5.0673   5.1859   5.2258   5.2258   5.5754   5.6311   5.6311   5.7549
     5.7887   5.8693   5.8852   5.8852   6.1477   6.1477   6.1731   6.1902
     6.2112   6.2112   6.2375   6.3615   6.3743   6.3743   6.4913   6.5311
     6.6965   6.7622   6.8397   6.8397   7.0166   7.0947   7.2626   7.2626
     7.2752   7.4359   7.4529   7.4529   7.4556   7.6026   7.6026   7.6621
     7.9513   7.9513   8.0709   8.1414   8.2635   8.3987   8.3987   8.5822
    10.5340  10.7170  10.8239  10.8239  10.8722  10.9470  12.5837  12.6395
    12.6395  12.8478  12.8478  12.9414  13.1749  13.4109  13.4109  13.5217
    13.6184  13.7289  13.7467  13.7467  14.1876  14.1876  14.1936  14.4873
    15.2461  15.3491  15.4165  15.4165  15.7783  16.1926  16.3729  16.3734
    16.3734  17.1064  17.3673  17.3673  18.0754  18.3900

          k = 0.0000 0.0000 0.1667 ( 60691 PWs)   bands (ev):

   -65.4783 -65.4775 -65.4775 -65.4774 -65.4767 -65.4766 -65.4766 -65.4758
   -30.0543 -30.0498 -30.0477 -30.0439 -29.9763 -29.9739 -29.9706 -29.9647
   -29.8492 -29.8430 -29.8420 -29.8356 -29.7695 -29.7660 -29.7654 -29.7608
   -29.7479 -29.7429 -29.7397 -29.7340 -29.6737 -29.6679 -29.6678 -29.6627
   -19.6155 -19.6154 -19.6152 -19.6151 -19.6117 -19.6117 -19.6115 -19.6115
   -19.6025 -19.6023 -19.6022 -19.6020 -19.6014 -19.6010 -19.6010 -19.6006
   -19.5988 -19.5983 -19.5983 -19.5981 -19.5972 -19.5971 -19.5970 -19.5967
   -19.5813 -19.5809 -19.5803 -19.5801 -19.5794 -19.5793 -19.5792 -19.5787
   -19.5782 -19.5781 -19.5777 -19.5771 -19.5745 -19.5741 -19.5740 -19.5734
   -19.5703 -19.5698 -19.5697 -19.5695 -19.5689 -19.5688 -19.5688 -19.5686
   -19.5685 -19.5679 -19.5679 -19.5678 -19.5654 -19.5651 -19.5651 -19.5647
    -9.4701  -9.1083  -9.1080  -9.0294  -8.6225  -8.6002  -8.5558  -8.4496
    -8.2641  -8.2147  -8.1679  -8.1539  -7.7400  -7.6239  -7.5872  -7.4971
    -7.3101  -7.2666  -7.2419  -7.2311  -7.1843  -7.1517  -7.1264  -7.0348
     1.8777   1.9166   2.0495   2.0852   2.1186   2.1418   2.1517   2.2247
     2.3371   2.5210   2.5586   2.7404   2.8540   2.9383   3.0629   3.1308
     3.1781   3.2336   4.5243   4.6510   4.6744   4.7842   4.8386   5.0256
     5.0857   5.1396   5.1853   5.2202   5.3710   5.5890   5.6826   5.6909
     5.7663   5.8518   5.9053   5.9367   6.0415   6.0592   6.1073   6.1306
     6.2013   6.2089   6.2553   6.2766   6.3455   6.3586   6.4528   6.5771
     6.6908   6.8065   6.8078   6.9312   7.0752   7.1459   7.1981   7.2651
     7.2816   7.3520   7.3602   7.4449   7.4987   7.5956   7.5994   7.6767
     7.8205   7.8520   8.1007   8.1607   8.2609   8.3765   8.4133   8.5769
    10.6490  10.8200  10.8437  10.9530  11.0901  11.1883  12.6088  12.6188
    12.6689  12.7791  12.9035  12.9909  13.2041  13.3160  13.4305  13.5394
    13.6469  13.6873  13.7560  13.7643  14.1014  14.1930  14.2634  14.4225
    15.2511  15.4018  15.4049  15.4957  15.7933  16.2377  16.2822  16.3764
    16.5509  17.1892  17.2487  17.5148  18.1345  18.2064

          k = 0.0000 0.0000 0.3333 ( 60666 PWs)   bands (ev):

   -65.4781 -65.4777 -65.4773 -65.4772 -65.4769 -65.4767 -65.4764 -65.4760
   -30.0530 -30.0506 -30.0327 -30.0286 -29.9913 -29.9875 -29.9696 -29.9669
   -29.8481 -29.8446 -29.8409 -29.8372 -29.7687 -29.7667 -29.7644 -29.7618
   -29.7463 -29.7416 -29.7283 -29.7202 -29.6883 -29.6819 -29.6669 -29.6640
   -19.6155 -19.6155 -19.6145 -19.6144 -19.6124 -19.6124 -19.6115 -19.6115
   -19.6025 -19.6023 -19.6020 -19.6018 -19.6016 -19.6013 -19.6010 -19.6008
   -19.5986 -19.5984 -19.5981 -19.5979 -19.5974 -19.5973 -19.5970 -19.5968
   -19.5811 -19.5806 -19.5805 -19.5799 -19.5798 -19.5794 -19.5790 -19.5785
   -19.5784 -19.5780 -19.5779 -19.5774 -19.5744 -19.5742 -19.5738 -19.5735
   -19.5701 -19.5698 -19.5695 -19.5691 -19.5691 -19.5686 -19.5686 -19.5685
   -19.5681 -19.5681 -19.5680 -19.5675 -19.5662 -19.5658 -19.5650 -19.5648
    -9.3661  -9.1629  -8.9730  -8.8797  -8.6844  -8.6427  -8.4204  -8.3997
    -8.2514  -8.2029  -8.0340  -7.9986  -7.9499  -7.8399  -7.6205  -7.5175
    -7.5035  -7.3792  -7.2945  -7.2572  -7.2296  -7.1973  -7.1258  -7.0583
     1.8857   1.9008   2.1170   2.1183   2.1338   2.1366   2.3352   2.3491
     2.7626   2.9516   2.9665   3.0731   3.1366   3.1492   3.2745   3.3090
     3.3707   3.4777   4.1059   4.2168   4.3720   4.4134   4.4355   4.7920
     4.9120   4.9398   5.1004   5.1246   5.2046   5.2279   5.4616   5.5151
     5.7233   5.7269   5.7329   5.8659   5.9270   5.9480   6.0406   6.1477
     6.1605   6.2642   6.2877   6.3265   6.3471   6.4163   6.4486   6.6608
     6.6617   6.7182   6.8246   6.9420   6.9916   7.0470   7.1708   7.1852
     7.2687   7.4072   7.4356   7.5090   7.5559   7.5981   7.6353   7.7006
     7.8019   7.8766   8.0688   8.1537   8.2185   8.2906   8.4519   8.5447
    10.7339  10.8039  11.2635  11.4357  11.5323  11.7976  12.3561  12.4281
    12.6384  12.7460  12.8598  13.0605  13.0770  13.2890  13.4534  13.4848
    13.6142  13.6793  13.7425  13.8355  14.0473  14.1881  14.2129  14.3317
    15.2880  15.3724  15.5499  15.7376  16.0929  16.0930  16.2736  16.4283
    16.8367  17.1302  17.6935  17.7023  17.9749  18.2730

          k = 0.0000 0.0000-0.5000 ( 60612 PWs)   bands (ev):

   -65.4779 -65.4779 -65.4771 -65.4771 -65.4770 -65.4770 -65.4762 -65.4762
   -30.0518 -30.0518 -30.0119 -30.0119 -30.0078 -30.0078 -29.9684 -29.9684
   -29.8464 -29.8464 -29.8392 -29.8392 -29.7678 -29.7677 -29.7631 -29.7631
   -29.7441 -29.7441 -29.7083 -29.7083 -29.7012 -29.7012 -29.6655 -29.6655
   -19.6155 -19.6155 -19.6134 -19.6134 -19.6134 -19.6134 -19.6115 -19.6115
   -19.6024 -19.6024 -19.6018 -19.6018 -19.6016 -19.6015 -19.6009 -19.6009
   -19.5985 -19.5985 -19.5978 -19.5977 -19.5976 -19.5976 -19.5969 -19.5969
   -19.5807 -19.5807 -19.5802 -19.5802 -19.5796 -19.5796 -19.5787 -19.5787
   -19.5783 -19.5783 -19.5776 -19.5776 -19.5743 -19.5743 -19.5737 -19.5737
   -19.5699 -19.5699 -19.5693 -19.5693 -19.5688 -19.5688 -19.5683 -19.5683
   -19.5683 -19.5682 -19.5672 -19.5672 -19.5667 -19.5667 -19.5649 -19.5649
    -9.2522  -9.2522  -8.8065  -8.8065  -8.7313  -8.7313  -8.3193  -8.3192
    -8.2005  -8.2005  -8.0888  -8.0888  -7.7937  -7.7937  -7.7471  -7.7470
    -7.5328  -7.5327  -7.2775  -7.2775  -7.2145  -7.2145  -7.0914  -7.0914
     1.8905   1.8905   2.1188   2.1188   2.1359   2.1359   2.3600   2.3600
     3.0181   3.0181   3.4133   3.4133   3.5505   3.5506   3.6436   3.6436
     3.7007   3.7007   3.8361   3.8361   4.0371   4.0371   4.1791   4.1792
     4.4152   4.4153   5.0319   5.0319   5.1395   5.1395   5.5719   5.5719
     5.6361   5.6361   5.7602   5.7602   5.8927   5.8927   6.1098   6.1098
     6.2027   6.2027   6.3367   6.3367   6.3699   6.3699   6.5694   6.5695
     6.7366   6.7366   6.8150   6.8150   6.9865   6.9865   7.1212   7.1212
     7.3534   7.3534   7.4399   7.4399   7.5212   7.5212   7.9014   7.9014
     7.9811   7.9811   8.0642   8.0642   8.1247   8.1248   8.4949   8.4949
    10.7744  10.7744  11.8343  11.8343  12.0060  12.0060  12.1093  12.1093
    12.4704  12.4704  12.8391  12.8391  13.3068  13.3068  13.4446  13.4446
    13.5627  13.5627  13.8925  13.8926  14.0023  14.0023  14.2572  14.2572
    15.3274  15.3274  15.8093  15.8094  16.0433  16.0433  16.5255  16.5255
    16.9614  16.9614  17.9666  17.9666  18.4016  18.4016

          k = 0.0000 0.1642 0.0000 ( 60701 PWs)   bands (ev):

   -65.4783 -65.4776 -65.4774 -65.4774 -65.4767 -65.4767 -65.4765 -65.4758
   -30.0556 -30.0523 -30.0494 -30.0494 -29.9707 -29.9707 -29.9697 -29.9629
   -29.8442 -29.8374 -29.8374 -29.8303 -29.7749 -29.7708 -29.7708 -29.7657
   -29.7491 -29.7480 -29.7392 -29.7392 -29.6683 -29.6683 -29.6632 -29.6617
   -19.6155 -19.6155 -19.6154 -19.6154 -19.6115 -19.6115 -19.6115 -19.6114
   -19.6025 -19.6022 -19.6022 -19.6021 -19.6013 -19.6010 -19.6010 -19.6006
   -19.5988 -19.5983 -19.5983 -19.5982 -19.5971 -19.5970 -19.5970 -19.5967
   -19.5814 -19.5810 -19.5801 -19.5801 -19.5792 -19.5792 -19.5790 -19.5784
   -19.5780 -19.5779 -19.5776 -19.5770 -19.5748 -19.5743 -19.5743 -19.5737
   -19.5704 -19.5698 -19.5698 -19.5698 -19.5689 -19.5689 -19.5688 -19.5687
   -19.5685 -19.5679 -19.5679 -19.5679 -19.5651 -19.5651 -19.5649 -19.5646
    -9.4782  -9.1726  -9.0590  -9.0590  -8.5837  -8.5837  -8.5097  -8.4314
    -8.2943  -8.1883  -8.1849  -8.1849  -7.6836  -7.6062  -7.4988  -7.4988
    -7.3989  -7.3288  -7.3288  -7.2915  -7.1711  -7.1546  -7.0268  -7.0268
     1.8628   1.9021   1.9314   1.9314   2.2365   2.2459   2.2459   2.3249
     2.4391   2.4391   2.4471   2.6847   2.8226   2.9329   2.9649   3.2281
     3.2281   3.2316   4.5428   4.5428   4.6678   4.7304   4.9013   5.0408
     5.0408   5.2340   5.2340   5.2828   5.5046   5.5046   5.5729   5.7827
     5.7961   5.8345   5.8345   5.8858   6.0267   6.0268   6.0653   6.1457
     6.2266   6.2266   6.2451   6.3215   6.3215   6.3763   6.5272   6.5658
     6.6560   6.7623   6.9650   6.9650   7.0182   7.0280   7.2520   7.2520
     7.2889   7.4374   7.4374   7.4502   7.4848   7.5756   7.5924   7.5924
     7.9480   7.9480   8.0696   8.1343   8.2736   8.3969   8.3969   8.5212
    10.6066  10.7291  10.9731  10.9731  11.0194  11.0697  12.5945  12.6427
    12.6427  12.8445  12.8445  12.9399  13.0458  13.3793  13.3793  13.4820
    13.5160  13.6930  13.6930  13.7599  14.1660  14.1660  14.2376  14.4163
    15.2599  15.4838  15.4838  15.5722  15.7557  16.1456  16.3900  16.3900
    16.7258  16.9312  17.5029  17.5029  18.0799  18.3719

          k = 0.0000 0.1642 0.1667 ( 60677 PWs)   bands (ev):

   -65.4782 -65.4775 -65.4775 -65.4773 -65.4767 -65.4766 -65.4765 -65.4759
   -30.0541 -30.0497 -30.0478 -30.0438 -29.9762 -29.9733 -29.9704 -29.9650
   -29.8439 -29.8380 -29.8371 -29.8309 -29.7747 -29.7711 -29.7705 -29.7660
   -29.7481 -29.7430 -29.7399 -29.7342 -29.6737 -29.6680 -29.6678 -29.6628
   -19.6155 -19.6154 -19.6152 -19.6152 -19.6117 -19.6117 -19.6115 -19.6115
   -19.6025 -19.6022 -19.6022 -19.6020 -19.6014 -19.6010 -19.6010 -19.6007
   -19.5987 -19.5983 -19.5982 -19.5981 -19.5972 -19.5971 -19.5970 -19.5967
   -19.5813 -19.5809 -19.5801 -19.5800 -19.5794 -19.5791 -19.5791 -19.5784
   -19.5780 -19.5779 -19.5777 -19.5771 -19.5748 -19.5743 -19.5743 -19.5738
   -19.5703 -19.5698 -19.5698 -19.5696 -19.5689 -19.5688 -19.5688 -19.5686
   -19.5685 -19.5680 -19.5680 -19.5678 -19.5654 -19.5651 -19.5651 -19.5647
    -9.4345  -9.1229  -9.0767  -8.9942  -8.6042  -8.5362  -8.5217  -8.4150
    -8.2641  -8.1954  -8.1590  -8.1411  -7.7425  -7.6271  -7.5910  -7.5062
    -7.3999  -7.3422  -7.3358  -7.2964  -7.2538  -7.1524  -7.1250  -7.0353
     1.8883   1.9232   2.0853   2.1262   2.2492   2.2610   2.3352   2.3475
     2.4437   2.5451   2.5782   2.7799   2.9009   2.9847   3.0520   3.2159
     3.2840   3.3179   4.4639   4.5413   4.6390   4.6562   4.7996   4.8345
     4.9056   5.0694   5.1800   5.2043   5.3035   5.5045   5.6324   5.6432
     5.7124   5.8047   5.8639   5.9610   5.9720   6.0084   6.0380   6.0698
     6.1309   6.1735   6.2169   6.2306   6.3212   6.3369   6.4638   6.5598
     6.7228   6.7998   6.9417   6.9967   7.0750   7.1338   7.1931   7.2777
     7.2841   7.3432   7.4030   7.4655   7.4984   7.5642   7.6007   7.6603
     7.8049   7.8614   8.0965   8.1552   8.2759   8.3742   8.4033   8.5195
    10.7537  10.8846  10.9729  11.1027  11.1576  11.2844  12.6122  12.6273
    12.6817  12.7915  12.8980  12.9978  13.0778  13.3033  13.3901  13.4814
    13.5241  13.6363  13.7056  13.7698  14.0848  14.1702  14.2658  14.3679
    15.2872  15.4716  15.5700  15.6346  15.7767  16.1981  16.3440  16.5628
    16.7016  17.0689  17.3163  17.6213  18.1355  18.2536

          k = 0.0000 0.1642 0.3333 ( 60667 PWs)   bands (ev):

   -65.4781 -65.4776 -65.4774 -65.4772 -65.4769 -65.4767 -65.4765 -65.4760
   -30.0529 -30.0506 -30.0327 -30.0285 -29.9912 -29.9872 -29.9695 -29.9669
   -29.8428 -29.8395 -29.8360 -29.8324 -29.7740 -29.7719 -29.7696 -29.7670
   -29.7465 -29.7418 -29.7283 -29.7203 -29.6883 -29.6819 -29.6669 -29.6640
   -19.6155 -19.6155 -19.6145 -19.6144 -19.6124 -19.6124 -19.6115 -19.6115
   -19.6024 -19.6023 -19.6020 -19.6018 -19.6015 -19.6013 -19.6010 -19.6008
   -19.5986 -19.5984 -19.5980 -19.5979 -19.5974 -19.5973 -19.5970 -19.5968
   -19.5810 -19.5806 -19.5804 -19.5797 -19.5797 -19.5792 -19.5789 -19.5783
   -19.5782 -19.5779 -19.5778 -19.5773 -19.5747 -19.5744 -19.5742 -19.5739
   -19.5701 -19.5699 -19.5695 -19.5692 -19.5691 -19.5687 -19.5686 -19.5685
   -19.5681 -19.5681 -19.5681 -19.5675 -19.5662 -19.5658 -19.5650 -19.5648
    -9.3299  -9.1304  -8.9842  -8.8304  -8.6731  -8.5671  -8.4043  -8.3645
    -8.2293  -8.2000  -8.0327  -7.9962  -7.9489  -7.8403  -7.6268  -7.5309
    -7.5024  -7.4010  -7.3767  -7.3471  -7.3284  -7.2923  -7.1264  -7.0588
     1.8965   1.9091   2.2541   2.2701   2.2961   2.3157   2.4139   2.4419
     2.7627   2.9814   3.0383   3.0764   3.1637   3.1924   3.2840   3.3028
     3.4733   3.5519   4.1109   4.2369   4.3549   4.4020   4.4295   4.7718
     4.8004   4.8516   4.9063   4.9694   5.1463   5.1536   5.3592   5.4536
     5.5400   5.6154   5.6897   5.8130   5.9017   5.9337   5.9869   6.0722
     6.0884   6.1184   6.2317   6.2485   6.3116   6.3523   6.4645   6.5279
     6.7668   6.8372   6.8452   6.9967   7.0718   7.1483   7.2147   7.2522
     7.3051   7.3494   7.4346   7.4997   7.5537   7.6097   7.6349   7.7157
     7.8062   7.8982   8.0658   8.1521   8.2426   8.2908   8.4258   8.4952
    10.8907  10.9572  11.3105  11.5271  11.5715  11.8402  12.3753  12.4602
    12.6635  12.7658  12.8777  13.0632  13.0714  13.1635  13.3483  13.4329
    13.5663  13.6291  13.6625  13.7772  13.9804  14.1321  14.1900  14.3141
    15.3359  15.4335  15.7201  15.9085  16.0807  16.2322  16.4263  16.5987
    16.9047  17.1399  17.4983  17.7913  18.0048  18.2835

          k = 0.0000 0.1642-0.5000 ( 60682 PWs)   bands (ev):

   -65.4778 -65.4778 -65.4772 -65.4771 -65.4769 -65.4769 -65.4762 -65.4762
   -30.0517 -30.0517 -30.0119 -30.0119 -30.0077 -30.0077 -29.9683 -29.9683
   -29.8412 -29.8412 -29.8343 -29.8343 -29.7730 -29.7730 -29.7683 -29.7683
   -29.7442 -29.7442 -29.7083 -29.7083 -29.7012 -29.7012 -29.6655 -29.6655
   -19.6155 -19.6155 -19.6135 -19.6134 -19.6134 -19.6134 -19.6115 -19.6115
   -19.6024 -19.6023 -19.6017 -19.6017 -19.6016 -19.6016 -19.6009 -19.6009
   -19.5984 -19.5984 -19.5978 -19.5977 -19.5976 -19.5976 -19.5969 -19.5969
   -19.5807 -19.5807 -19.5802 -19.5802 -19.5794 -19.5794 -19.5786 -19.5786
   -19.5782 -19.5782 -19.5775 -19.5775 -19.5746 -19.5746 -19.5740 -19.5740
   -19.5700 -19.5700 -19.5693 -19.5693 -19.5689 -19.5689 -19.5684 -19.5683
   -19.5683 -19.5683 -19.5672 -19.5672 -19.5667 -19.5667 -19.5649 -19.5649
    -9.2175  -9.2175  -8.8075  -8.8075  -8.6633  -8.6633  -8.2880  -8.2880
    -8.1970  -8.1970  -8.0881  -8.0881  -7.7958  -7.7957  -7.7513  -7.7513
    -7.5372  -7.5371  -7.3681  -7.3681  -7.3161  -7.3161  -7.0919  -7.0919
     1.9004   1.9004   2.2662   2.2662   2.3108   2.3108   2.4478   2.4478
     3.0972   3.0972   3.4224   3.4224   3.5448   3.5448   3.6864   3.6864
     3.7147   3.7147   3.8418   3.8418   4.0615   4.0615   4.2130   4.2130
     4.4184   4.4185   4.8310   4.8311   5.0332   5.0332   5.3235   5.3236
     5.5781   5.5781   5.7234   5.7234   5.8218   5.8218   6.0671   6.0671
     6.1008   6.1008   6.2030   6.2031   6.3656   6.3656   6.4771   6.4771
     6.7813   6.7813   6.9697   6.9697   7.0759   7.0759   7.2059   7.2059
     7.3545   7.3545   7.3782   7.3783   7.5629   7.5629   7.8994   7.8995
     7.9759   7.9759   8.0884   8.0884   8.1389   8.1390   8.4561   8.4561
    10.9348  10.9348  11.8653  11.8653  12.0638  12.0638  12.1406  12.1406
    12.4916  12.4917  12.8630  12.8630  13.2156  13.2156  13.4029  13.4029
    13.5092  13.5092  13.7822  13.7822  13.9476  13.9476  14.2339  14.2339
    15.3780  15.3781  15.9263  15.9263  16.3137  16.3137  16.5976  16.5976
    16.9837  16.9837  17.9333  17.9333  18.2842  18.2842

          k = 0.0000 0.3284 0.0000 ( 60709 PWs)   bands (ev):

   -65.4782 -65.4778 -65.4773 -65.4772 -65.4768 -65.4768 -65.4763 -65.4759
   -30.0548 -30.0529 -30.0493 -30.0493 -29.9704 -29.9703 -29.9679 -29.9640
   -29.8296 -29.8237 -29.8237 -29.8171 -29.7895 -29.7849 -29.7849 -29.7798
   -29.7491 -29.7484 -29.7396 -29.7396 -29.6683 -29.6683 -29.6629 -29.6620
   -19.6155 -19.6155 -19.6154 -19.6154 -19.6115 -19.6115 -19.6115 -19.6115
   -19.6024 -19.6022 -19.6022 -19.6021 -19.6012 -19.6010 -19.6010 -19.6008
   -19.5986 -19.5983 -19.5983 -19.5983 -19.5971 -19.5971 -19.5969 -19.5967
   -19.5812 -19.5811 -19.5799 -19.5799 -19.5792 -19.5792 -19.5784 -19.5777
   -19.5777 -19.5774 -19.5773 -19.5766 -19.5756 -19.5751 -19.5751 -19.5746
   -19.5703 -19.5700 -19.5699 -19.5699 -19.5689 -19.5688 -19.5688 -19.5688
   -19.5684 -19.5681 -19.5680 -19.5680 -19.5651 -19.5651 -19.5648 -19.5647
    -9.3921  -9.2186  -8.9998  -8.9998  -8.5313  -8.5313  -8.3544  -8.2966
    -8.2915  -8.1238  -8.1068  -8.1068  -7.7532  -7.6340  -7.6340  -7.6088
    -7.5777  -7.5653  -7.4472  -7.4472  -7.1687  -7.1591  -7.0277  -7.0277
     1.8736   1.8905   1.9332   1.9332   2.2786   2.2786   2.4048   2.4469
     2.7901   2.8595   2.9340   2.9340   2.9370   3.1295   3.1307   3.5067
     3.5067   3.5842   4.1647   4.2125   4.2126   4.2412   4.5361   4.9833
     4.9833   5.0766   5.0766   5.2677   5.2678   5.2858   5.4245   5.5907
     5.6350   5.6350   5.6935   5.8126   5.9198   5.9198   5.9394   6.1474
     6.1743   6.2349   6.2349   6.3096   6.3096   6.3836   6.5046   6.5212
     6.7972   6.8293   6.9362   6.9681   6.9681   7.0740   7.3553   7.3553
     7.4174   7.4303   7.4828   7.4828   7.5450   7.5729   7.6197   7.6197
     7.9549   7.9549   8.0563   8.1185   8.2418   8.3297   8.3297   8.3498
    10.7018  10.7352  11.3416  11.3809  11.3809  11.5610  12.5736  12.5736
    12.6204  12.6219  12.7688  12.7689  12.9915  13.1298  13.3180  13.3180
    13.5393  13.6659  13.6659  13.7581  14.0114  14.0114  14.2148  14.2683
    15.3681  15.6439  15.6439  15.6917  16.0804  16.2915  16.4214  16.4214
    16.5612  17.5491  17.7805  17.9645  17.9645  18.4160

          k = 0.0000 0.3284 0.1667 ( 60627 PWs)   bands (ev):

   -65.4781 -65.4777 -65.4773 -65.4772 -65.4769 -65.4768 -65.4764 -65.4760
   -30.0537 -30.0496 -30.0480 -30.0437 -29.9758 -29.9720 -29.9700 -29.9656
   -29.8293 -29.8242 -29.8234 -29.8177 -29.7893 -29.7852 -29.7846 -29.7802
   -29.7482 -29.7432 -29.7403 -29.7344 -29.6737 -29.6680 -29.6677 -29.6629
   -19.6155 -19.6154 -19.6152 -19.6152 -19.6117 -19.6117 -19.6115 -19.6115
   -19.6024 -19.6022 -19.6021 -19.6021 -19.6012 -19.6011 -19.6010 -19.6008
   -19.5986 -19.5983 -19.5982 -19.5982 -19.5972 -19.5971 -19.5970 -19.5968
   -19.5811 -19.5809 -19.5800 -19.5798 -19.5793 -19.5791 -19.5785 -19.5778
   -19.5777 -19.5774 -19.5773 -19.5767 -19.5755 -19.5752 -19.5751 -19.5747
   -19.5702 -19.5699 -19.5699 -19.5697 -19.5689 -19.5688 -19.5688 -19.5687
   -19.5684 -19.5681 -19.5680 -19.5679 -19.5654 -19.5651 -19.5650 -19.5648
    -9.3472  -9.1678  -9.0163  -8.9265  -8.5574  -8.4770  -8.3325  -8.3043
    -8.2641  -8.1142  -8.1059  -8.0798  -7.7790  -7.6681  -7.6519  -7.6312
    -7.5913  -7.5698  -7.5195  -7.4555  -7.2567  -7.1538  -7.1253  -7.0362
     1.8915   1.9253   2.0904   2.1382   2.2839   2.4548   2.4806   2.6259
     2.8064   2.9164   2.9269   2.9680   3.0239   3.1240   3.1915   3.4858
     3.5768   3.6346   4.1819   4.1932   4.2245   4.3050   4.4989   4.7636
     4.8160   4.9682   5.0349   5.0515   5.2124   5.3056   5.3644   5.4098
     5.5634   5.6032   5.6502   5.7347   5.8309   5.8672   6.0196   6.0469
     6.1364   6.1465   6.1660   6.1968   6.2198   6.3169   6.4109   6.5056
     6.8389   6.8860   6.9421   7.0130   7.1023   7.1718   7.1982   7.3806
     7.4461   7.4723   7.4853   7.5205   7.5690   7.5937   7.6299   7.6711
     7.8174   7.8751   8.0778   8.1414   8.2477   8.3148   8.3268   8.3558
    10.8907  10.9466  11.3770  11.4123  11.5056  11.6695  12.5522  12.6092
    12.6479  12.6788  12.7706  12.8313  13.0613  13.1499  13.2522  13.3308
    13.4288  13.5994  13.6768  13.7489  13.9157  14.0153  14.1715  14.2651
    15.4077  15.6198  15.7187  15.8213  16.1415  16.3435  16.3944  16.6027
    16.7023  17.5172  17.7154  17.8446  18.0358  18.3872

          k = 0.0000 0.3284 0.3333 ( 60659 PWs)   bands (ev):

   -65.4779 -65.4775 -65.4775 -65.4771 -65.4770 -65.4766 -65.4766 -65.4762
   -30.0528 -30.0505 -30.0327 -30.0283 -29.9909 -29.9867 -29.9692 -29.9668
   -29.8284 -29.8254 -29.8223 -29.8191 -29.7885 -29.7862 -29.7838 -29.7812
   -29.7467 -29.7421 -29.7284 -29.7204 -29.6884 -29.6819 -29.6670 -29.6640
   -19.6155 -19.6155 -19.6145 -19.6144 -19.6125 -19.6124 -19.6115 -19.6115
   -19.6023 -19.6022 -19.6019 -19.6019 -19.6014 -19.6013 -19.6010 -19.6009
   -19.5985 -19.5983 -19.5981 -19.5980 -19.5974 -19.5973 -19.5970 -19.5968
   -19.5809 -19.5806 -19.5802 -19.5797 -19.5795 -19.5788 -19.5787 -19.5781
   -19.5776 -19.5774 -19.5772 -19.5769 -19.5755 -19.5753 -19.5750 -19.5748
   -19.5701 -19.5700 -19.5696 -19.5693 -19.5690 -19.5687 -19.5686 -19.5686
   -19.5682 -19.5682 -19.5681 -19.5675 -19.5662 -19.5658 -19.5650 -19.5648
    -9.2464  -9.0670  -9.0155  -8.7281  -8.6451  -8.3651  -8.3329  -8.2709
    -8.1925  -8.1335  -8.0184  -7.9804  -7.9499  -7.8494  -7.7010  -7.6562
    -7.5980  -7.5759  -7.5498  -7.4931  -7.4651  -7.3589  -7.1275  -7.0598
     1.9003   1.9119   2.2971   2.3070   2.6652   2.7502   2.8205   2.9196
     2.9879   3.0527   3.1035   3.1900   3.2288   3.2708   3.3509   3.4628
     3.7472   3.7794   4.0910   4.1617   4.1850   4.2702   4.3386   4.4916
     4.5106   4.6474   4.7072   4.9020   4.9618   5.0724   5.1246   5.1510
     5.3541   5.4521   5.4744   5.5768   5.6360   5.7457   5.7824   5.8217
     5.9438   5.9847   6.0374   6.1380   6.3069   6.3390   6.3477   6.4943
     6.9029   6.9477   6.9744   7.0011   7.1497   7.3045   7.3428   7.3744
     7.4416   7.4727   7.5332   7.5555   7.5718   7.6287   7.6484   7.7311
     7.8800   7.9499   8.0517   8.1475   8.2338   8.2589   8.3224   8.3478
    11.2448  11.3437  11.4387  11.6301  11.8497  12.0435  12.4060  12.5169
    12.6737  12.7399  12.7985  12.9480  12.9949  13.0262  13.2225  13.2280
    13.3917  13.4262  13.6123  13.7253  13.7569  14.0329  14.0426  14.2007
    15.4164  15.5513  15.9702  16.2339  16.3551  16.5080  16.5673  17.0923
    17.1213  17.3348  17.4203  17.9291  17.9803  18.2400

          k = 0.0000 0.3284-0.5000 ( 60606 PWs)   bands (ev):

   -65.4777 -65.4777 -65.4773 -65.4773 -65.4768 -65.4768 -65.4764 -65.4764
   -30.0516 -30.0516 -30.0118 -30.0117 -30.0074 -30.0074 -29.9680 -29.9680
   -29.8270 -29.8270 -29.8208 -29.8208 -29.7874 -29.7874 -29.7826 -29.7826
   -29.7445 -29.7445 -29.7084 -29.7084 -29.7012 -29.7012 -29.6655 -29.6655
   -19.6155 -19.6155 -19.6135 -19.6134 -19.6134 -19.6134 -19.6115 -19.6115
   -19.6023 -19.6023 -19.6017 -19.6016 -19.6016 -19.6016 -19.6010 -19.6010
   -19.5984 -19.5984 -19.5978 -19.5978 -19.5976 -19.5976 -19.5969 -19.5969
   -19.5805 -19.5805 -19.5802 -19.5802 -19.5791 -19.5791 -19.5785 -19.5785
   -19.5775 -19.5775 -19.5771 -19.5771 -19.5754 -19.5754 -19.5749 -19.5749
   -19.5701 -19.5701 -19.5693 -19.5693 -19.5689 -19.5688 -19.5685 -19.5684
   -19.5684 -19.5684 -19.5672 -19.5672 -19.5667 -19.5667 -19.5649 -19.5649
    -9.1447  -9.1447  -8.8111  -8.8111  -8.4918  -8.4918  -8.1864  -8.1864
    -8.1773  -8.1772  -8.0822  -8.0821  -7.8121  -7.8120  -7.7799  -7.7799
    -7.6214  -7.6214  -7.5528  -7.5528  -7.4985  -7.4985  -7.0930  -7.0929
     1.9040   1.9040   2.3127   2.3127   2.8005   2.8005   2.9744   2.9744
     3.3167   3.3167   3.4499   3.4499   3.5355   3.5355   3.6988   3.6988
     3.8177   3.8178   3.8484   3.8484   4.1114   4.1114   4.2167   4.2167
     4.3934   4.3934   4.5223   4.5223   4.7945   4.7945   4.8884   4.8884
     5.3998   5.3999   5.4823   5.4823   5.6362   5.6362   5.7171   5.7171
     5.8603   5.8603   6.1082   6.1082   6.3283   6.3284   6.4239   6.4239
     6.9253   6.9253   7.0583   7.0583   7.1925   7.1925   7.3028   7.3028
     7.4989   7.4989   7.5400   7.5400   7.5863   7.5863   7.8869   7.8870
     7.9740   7.9740   8.1230   8.1230   8.1551   8.1551   8.3274   8.3274
    11.3508  11.3508  11.9388  11.9389  12.1401  12.1401  12.3228  12.3228
    12.5826  12.5826  12.7698  12.7698  13.0437  13.0438  13.2164  13.2165
    13.4214  13.4214  13.5047  13.5047  13.8844  13.8844  14.0881  14.0881
    15.4605  15.4605  16.1624  16.1624  16.8413  16.8413  17.0287  17.0287
    17.1251  17.1252  17.7985  17.7986  18.1129  18.1129

          k = 0.0000-0.4926 0.0000 ( 60618 PWs)   bands (ev):

   -65.4780 -65.4779 -65.4771 -65.4771 -65.4769 -65.4769 -65.4761 -65.4761
   -30.0538 -30.0538 -30.0493 -30.0493 -29.9702 -29.9702 -29.9658 -29.9658
   -29.8096 -29.8096 -29.8069 -29.8069 -29.8019 -29.8019 -29.7987 -29.7987
   -29.7488 -29.7488 -29.7397 -29.7397 -29.6683 -29.6683 -29.6625 -29.6625
   -19.6155 -19.6155 -19.6154 -19.6154 -19.6115 -19.6115 -19.6115 -19.6115
   -19.6023 -19.6023 -19.6021 -19.6021 -19.6010 -19.6010 -19.6009 -19.6009
   -19.5984 -19.5984 -19.5983 -19.5983 -19.5971 -19.5971 -19.5968 -19.5968
   -19.5811 -19.5811 -19.5798 -19.5798 -19.5791 -19.5791 -19.5779 -19.5779
   -19.5766 -19.5766 -19.5765 -19.5765 -19.5761 -19.5760 -19.5758 -19.5758
   -19.5702 -19.5702 -19.5700 -19.5700 -19.5689 -19.5689 -19.5688 -19.5688
   -19.5682 -19.5682 -19.5680 -19.5680 -19.5651 -19.5651 -19.5648 -19.5647
    -9.2952  -9.2952  -8.9726  -8.9726  -8.4995  -8.4995  -8.3085  -8.3085
    -7.9974  -7.9974  -7.9410  -7.9410  -7.9130  -7.9130  -7.8789  -7.8788
    -7.6080  -7.6080  -7.4583  -7.4583  -7.1644  -7.1644  -7.0282  -7.0282
     1.8808   1.8808   1.9329   1.9329   2.2821   2.2821   2.4403   2.4403
     2.8970   2.8970   3.2341   3.2341   3.3042   3.3042   3.7912   3.7912
     3.8461   3.8461   3.9023   3.9023   4.0757   4.0757   4.3756   4.3756
     4.3820   4.3821   5.0405   5.0405   5.2155   5.2155   5.5745   5.5745
     5.7145   5.7145   5.7577   5.7577   5.8072   5.8072   5.9976   5.9976
     6.2390   6.2390   6.2971   6.2971   6.2987   6.2987   6.5032   6.5032
     6.8023   6.8023   6.9109   6.9109   6.9989   6.9989   7.3774   7.3774
     7.4198   7.4198   7.4522   7.4522   7.7422   7.7422   7.8083   7.8083
     7.9879   7.9879   8.0517   8.0517   8.1980   8.1980   8.2133   8.2133
    10.7314  10.7315  11.7350  11.7350  11.7975  11.7975  12.3303  12.3303
    12.4343  12.4343  12.7569  12.7569  12.9374  12.9374  13.3170  13.3170
    13.6588  13.6588  13.7493  13.7493  13.8188  13.8188  14.1766  14.1766
    15.5610  15.5610  15.7223  15.7224  16.2391  16.2391  16.4353  16.4353
    17.0919  17.0919  18.4111  18.4111  18.5644  18.5644

          k = 0.0000-0.4926 0.1667 ( 60608 PWs)   bands (ev):

   -65.4779 -65.4779 -65.4772 -65.4771 -65.4770 -65.4769 -65.4762 -65.4762
   -30.0535 -30.0496 -30.0481 -30.0436 -29.9757 -29.9713 -29.9698 -29.9661
   -29.8095 -29.8091 -29.8071 -29.8064 -29.8025 -29.8018 -29.7993 -29.7989
   -29.7483 -29.7433 -29.7404 -29.7345 -29.6737 -29.6680 -29.6677 -29.6629
   -19.6155 -19.6154 -19.6152 -19.6152 -19.6117 -19.6117 -19.6115 -19.6115
   -19.6023 -19.6022 -19.6021 -19.6020 -19.6011 -19.6010 -19.6010 -19.6010
   -19.5984 -19.5984 -19.5983 -19.5982 -19.5972 -19.5971 -19.5969 -19.5968
   -19.5810 -19.5810 -19.5799 -19.5797 -19.5793 -19.5790 -19.5780 -19.5780
   -19.5766 -19.5766 -19.5765 -19.5765 -19.5761 -19.5760 -19.5759 -19.5758
   -19.5702 -19.5700 -19.5700 -19.5698 -19.5689 -19.5688 -19.5688 -19.5687
   -19.5683 -19.5683 -19.5680 -19.5679 -19.5654 -19.5651 -19.5650 -19.5648
    -9.2655  -9.2280  -8.9883  -8.8954  -8.5290  -8.4376  -8.2907  -8.2650
    -8.0070  -8.0064  -7.9513  -7.9335  -7.9197  -7.9071  -7.8823  -7.8653
    -7.6914  -7.5990  -7.5544  -7.4667  -7.2572  -7.1545  -7.1257  -7.0367
     1.8910   1.9250   2.0891   2.1390   2.2874   2.4806   2.4892   2.6446
     2.9768   2.9872   3.2320   3.2344   3.3413   3.3648   3.7498   3.7821
     3.7947   3.8410   3.9114   3.9985   4.0930   4.1574   4.3496   4.3990
     4.3995   4.4174   4.7947   4.8026   5.0363   5.1359   5.4833   5.4910
     5.5560   5.5748   5.6508   5.7129   5.7331   5.8624   5.9154   6.0170
     6.0885   6.1405   6.1613   6.1673   6.2189   6.3044   6.3751   6.5045
     6.8406   6.8814   6.8923   7.0169   7.0921   7.1499   7.2058   7.4251
     7.4287   7.4708   7.5280   7.6209   7.6947   7.7511   7.7620   7.7736
     7.9006   7.9321   8.0626   8.0915   8.1923   8.2032   8.2181   8.2300
    10.9141  10.9707  11.7361  11.8017  11.8252  11.9235  12.3272  12.4051
    12.4373  12.5181  12.7227  12.8149  13.0056  13.0263  13.2061  13.3321
    13.5200  13.6501  13.6625  13.7191  13.7613  13.8245  14.1111  14.1991
    15.5210  15.6669  15.6986  15.9283  16.2955  16.3560  16.4561  16.6127
    17.1347  17.1504  18.1980  18.3884  18.4494  18.4819

          k = 0.0000-0.4926 0.3333 ( 60610 PWs)   bands (ev):

   -65.4777 -65.4777 -65.4773 -65.4772 -65.4769 -65.4767 -65.4764 -65.4763
   -30.0527 -30.0504 -30.0327 -30.0283 -29.9908 -29.9865 -29.9690 -29.9668
   -29.8092 -29.8080 -29.8076 -29.8051 -29.8040 -29.8014 -29.8009 -29.7996
   -29.7467 -29.7422 -29.7285 -29.7205 -29.6884 -29.6819 -29.6670 -29.6640
   -19.6155 -19.6155 -19.6145 -19.6144 -19.6125 -19.6124 -19.6115 -19.6115
   -19.6023 -19.6022 -19.6019 -19.6018 -19.6013 -19.6013 -19.6010 -19.6010
   -19.5984 -19.5983 -19.5981 -19.5980 -19.5975 -19.5972 -19.5970 -19.5969
   -19.5808 -19.5807 -19.5801 -19.5797 -19.5794 -19.5788 -19.5784 -19.5782
   -19.5766 -19.5766 -19.5765 -19.5764 -19.5762 -19.5761 -19.5759 -19.5759
   -19.5701 -19.5700 -19.5696 -19.5693 -19.5690 -19.5687 -19.5686 -19.5685
   -19.5684 -19.5682 -19.5681 -19.5675 -19.5662 -19.5658 -19.5650 -19.5648
    -9.1916  -9.0522  -9.0281  -8.6794  -8.6279  -8.2820  -8.2323  -8.1500
    -8.0993  -8.0359  -7.9760  -7.9284  -7.9153  -7.9102  -7.8958  -7.8464
    -7.8097  -7.7389  -7.5794  -7.4893  -7.4873  -7.3628  -7.1281  -7.0602
     1.8999   1.9117   2.3014   2.3087   2.7000   2.9093   2.9982   3.1804
     3.2023   3.2262   3.2585   3.2628   3.4574   3.5185   3.6364   3.7461
     3.7892   3.8210   3.9419   3.9900   4.1359   4.2863   4.3012   4.3323
     4.3691   4.4344   4.4676   4.4897   4.7455   4.8799   4.9876   5.1201
     5.1414   5.3372   5.4049   5.4366   5.6004   5.7207   5.7315   5.7384
     5.8485   5.9766   5.9793   6.0418   6.3145   6.3353   6.3594   6.5030
     6.9179   6.9268   6.9622   6.9945   7.1695   7.3438   7.3615   7.3802
     7.5146   7.5389   7.5573   7.6722   7.6913   7.7601   7.7617   7.7745
     7.9560   7.9902   8.0390   8.1213   8.1776   8.1955   8.2165   8.2296
    11.3505  11.4938  11.7489  11.8287  12.1014  12.2480  12.3096  12.4373
    12.5272  12.6064  12.7145  12.8417  12.9816  13.0150  13.1028  13.1620
    13.3798  13.4488  13.4526  13.5608  13.8079  13.8499  14.0126  14.1174
    15.4584  15.6020  15.9960  16.3326  16.4653  16.7009  16.9026  17.1458
    17.2634  17.3335  17.8541  17.9360  18.2074  18.2781

          k = 0.0000-0.4926-0.5000 ( 60624 PWs)   bands (ev):

   -65.4775 -65.4775 -65.4775 -65.4774 -65.4766 -65.4766 -65.4765 -65.4765
   -30.0516 -30.0515 -30.0117 -30.0117 -30.0073 -30.0073 -29.9679 -29.9679
   -29.8086 -29.8086 -29.8060 -29.8060 -29.8032 -29.8032 -29.8005 -29.8005
   -29.7446 -29.7446 -29.7084 -29.7084 -29.7013 -29.7013 -29.6655 -29.6655
   -19.6155 -19.6155 -19.6135 -19.6135 -19.6134 -19.6134 -19.6115 -19.6115
   -19.6022 -19.6022 -19.6017 -19.6016 -19.6016 -19.6015 -19.6010 -19.6010
   -19.5983 -19.5983 -19.5978 -19.5978 -19.5976 -19.5976 -19.5969 -19.5969
   -19.5804 -19.5804 -19.5802 -19.5802 -19.5789 -19.5789 -19.5785 -19.5785
   -19.5766 -19.5766 -19.5764 -19.5764 -19.5763 -19.5762 -19.5759 -19.5759
   -19.5701 -19.5701 -19.5693 -19.5693 -19.5688 -19.5688 -19.5685 -19.5685
   -19.5684 -19.5684 -19.5672 -19.5672 -19.5667 -19.5667 -19.5649 -19.5649
    -9.1064  -9.1064  -8.8139  -8.8138  -8.3786  -8.3785  -8.1263  -8.1263
    -8.1081  -8.1081  -8.0154  -8.0154  -7.8981  -7.8981  -7.8717  -7.8717
    -7.7352  -7.7351  -7.6554  -7.6553  -7.5117  -7.5116  -7.0935  -7.0935
     1.9038   1.9038   2.3167   2.3167   3.1539   3.1539   3.4295   3.4295
     3.5011   3.5011   3.5293   3.5293   3.5719   3.5719   3.6747   3.6747
     3.8153   3.8153   3.8739   3.8739   3.9774   3.9775   4.0734   4.0734
     4.3341   4.3342   4.4389   4.4389   4.7803   4.7803   4.8463   4.8464
     4.9377   4.9377   5.0322   5.0322   5.6330   5.6330   5.7467   5.7467
     5.7938   5.7938   6.0277   6.0277   6.3533   6.3533   6.4182   6.4182
     6.9223   6.9223   7.0533   7.0533   7.2087   7.2088   7.3309   7.3309
     7.5880   7.5880   7.6478   7.6478   7.7767   7.7768   7.8636   7.8637
     7.9737   7.9737   8.1222   8.1222   8.1549   8.1549   8.2041   8.2041
    11.6654  11.6654  12.0567  12.0567  12.0948  12.0948  12.4629  12.4629
    12.5604  12.5604  12.7266  12.7266  12.9648  12.9649  13.0968  13.0969
    13.2185  13.2185  13.4487  13.4487  13.9061  13.9061  13.9426  13.9426
    15.4965  15.4965  16.2172  16.2172  17.1036  17.1036  17.4314  17.4314
    17.5058  17.5058  17.7614  17.7614  17.8927  17.8927

          k = 0.1667 0.0000 0.1667 ( 60640 PWs)   bands (ev):

   -65.4782 -65.4775 -65.4774 -65.4774 -65.4766 -65.4766 -65.4766 -65.4759
   -30.0500 -30.0461 -30.0442 -30.0441 -29.9763 -29.9760 -29.9755 -29.9685
   -29.8488 -29.8427 -29.8426 -29.8363 -29.7692 -29.7657 -29.7656 -29.7611
   -29.7430 -29.7419 -29.7348 -29.7347 -29.6733 -29.6733 -29.6690 -29.6672
   -19.6153 -19.6152 -19.6152 -19.6152 -19.6118 -19.6117 -19.6117 -19.6117
   -19.6025 -19.6022 -19.6022 -19.6020 -19.6015 -19.6011 -19.6010 -19.6007
   -19.5987 -19.5983 -19.5983 -19.5980 -19.5972 -19.5971 -19.5971 -19.5968
   -19.5812 -19.5808 -19.5802 -19.5802 -19.5795 -19.5793 -19.5792 -19.5786
   -19.5782 -19.5781 -19.5778 -19.5772 -19.5745 -19.5740 -19.5740 -19.5734
   -19.5702 -19.5698 -19.5696 -19.5694 -19.5689 -19.5688 -19.5687 -19.5686
   -19.5685 -19.5679 -19.5679 -19.5678 -19.5654 -19.5654 -19.5652 -19.5649
    -9.4250  -9.0590  -9.0492  -9.0456  -8.6141  -8.5761  -8.5692  -8.4355
    -8.2273  -8.1719  -8.1676  -8.1412  -7.7522  -7.6912  -7.5973  -7.5931
    -7.3108  -7.2686  -7.2556  -7.2328  -7.2284  -7.1891  -7.1376  -7.1289
     2.0092   2.0529   2.0583   2.1166   2.1549   2.2166   2.2231   2.2241
     2.5295   2.5379   2.6685   2.7947   2.9156   3.0132   3.1551   3.1918
     3.2377   3.2418   4.4827   4.5628   4.6460   4.6614   4.8028   4.8702
     4.9404   5.0775   5.1080   5.1763   5.3245   5.4043   5.5807   5.6024
     5.7949   5.7973   5.8838   5.9285   5.9417   6.0149   6.0661   6.1247
     6.1280   6.1809   6.1836   6.2470   6.2866   6.3534   6.3817   6.6621
     6.6851   6.8169   6.9060   6.9305   7.1151   7.1216   7.2441   7.2816
     7.2985   7.3009   7.3482   7.4096   7.4618   7.5542   7.6445   7.6645
     7.7994   7.8069   8.1141   8.1556   8.2557   8.3723   8.4167   8.5695
    10.7982  10.8537  11.0315  11.0348  11.2769  11.3087  12.6267  12.6371
    12.6661  12.7662  12.8906  13.0156  13.2339  13.3459  13.3547  13.5705
    13.6625  13.6680  13.7692  13.7719  14.0956  14.1311  14.3016  14.3439
    15.2718  15.4433  15.4716  15.5182  15.8084  16.2903  16.3043  16.4938
    16.4975  17.2959  17.3422  17.4127  18.1842  18.1857

          k = 0.1667 0.0000 0.3333 ( 60676 PWs)   bands (ev):

   -65.4781 -65.4776 -65.4773 -65.4773 -65.4768 -65.4768 -65.4765 -65.4760
   -30.0475 -30.0450 -30.0324 -30.0289 -29.9910 -29.9879 -29.9751 -29.9722
   -29.8477 -29.8442 -29.8415 -29.8379 -29.7685 -29.7664 -29.7647 -29.7621
   -29.7410 -29.7365 -29.7278 -29.7209 -29.6879 -29.6824 -29.6723 -29.6692
   -19.6152 -19.6152 -19.6145 -19.6144 -19.6124 -19.6124 -19.6117 -19.6117
   -19.6024 -19.6023 -19.6020 -19.6018 -19.6016 -19.6013 -19.6010 -19.6008
   -19.5986 -19.5983 -19.5981 -19.5979 -19.5974 -19.5973 -19.5971 -19.5969
   -19.5810 -19.5805 -19.5803 -19.5799 -19.5797 -19.5794 -19.5790 -19.5785
   -19.5784 -19.5781 -19.5779 -19.5775 -19.5744 -19.5741 -19.5739 -19.5736
   -19.5699 -19.5697 -19.5694 -19.5691 -19.5690 -19.5687 -19.5686 -19.5684
   -19.5681 -19.5681 -19.5680 -19.5675 -19.5661 -19.5658 -19.5653 -19.5651
    -9.3153  -9.1038  -8.9221  -8.8977  -8.6590  -8.6304  -8.4334  -8.3885
    -8.2146  -8.1594  -8.0282  -8.0155  -7.9418  -7.8423  -7.7056  -7.6141
    -7.4933  -7.3866  -7.2947  -7.2633  -7.2350  -7.2163  -7.2021  -7.1541
     2.0336   2.0470   2.1130   2.1141   2.2228   2.2290   2.5022   2.5515
     2.7662   2.9652   3.0215   3.0770   3.1919   3.2139   3.2995   3.3965
     3.4269   3.4844   4.1262   4.2311   4.3850   4.3863   4.4387   4.7100
     4.7998   4.9121   4.9451   5.0634   5.1466   5.2119   5.2712   5.3868
     5.5061   5.6231   5.7099   5.7525   5.7829   5.9030   5.9663   6.0750
     6.1008   6.1508   6.1548   6.1892   6.3402   6.3779   6.4664   6.6804
     6.7254   6.8118   6.8835   6.9600   7.0093   7.0551   7.2072   7.2425
     7.2730   7.3555   7.4380   7.5095   7.5731   7.6343   7.6579   7.7384
     7.8162   7.8790   8.0877   8.1351   8.2129   8.3035   8.4418   8.5333
    10.9198  10.9558  11.3522  11.4529  11.6614  11.8655  12.3960  12.4516
    12.6621  12.7344  12.8204  13.0630  13.0821  13.3202  13.4109  13.5055
    13.6314  13.6814  13.7543  13.8176  14.0557  14.0775  14.2062  14.2824
    15.3521  15.4503  15.6244  15.7464  16.1035  16.1708  16.3098  16.5392
    16.9842  17.0462  17.7256  17.7482  17.8577  18.2703

          k = 0.1667 0.0000-0.5000 ( 60732 PWs)   bands (ev):

   -65.4778 -65.4778 -65.4770 -65.4770 -65.4770 -65.4770 -65.4763 -65.4763
   -30.0462 -30.0462 -30.0116 -30.0116 -30.0082 -30.0081 -29.9738 -29.9738
   -29.8461 -29.8461 -29.8398 -29.8398 -29.7674 -29.7674 -29.7634 -29.7634
   -29.7388 -29.7388 -29.7079 -29.7079 -29.7017 -29.7017 -29.6708 -29.6708
   -19.6152 -19.6152 -19.6135 -19.6134 -19.6134 -19.6134 -19.6117 -19.6117
   -19.6023 -19.6023 -19.6018 -19.6018 -19.6016 -19.6015 -19.6010 -19.6010
   -19.5984 -19.5984 -19.5978 -19.5977 -19.5976 -19.5976 -19.5970 -19.5970
   -19.5807 -19.5807 -19.5801 -19.5801 -19.5797 -19.5797 -19.5787 -19.5787
   -19.5783 -19.5783 -19.5777 -19.5777 -19.5743 -19.5743 -19.5737 -19.5737
   -19.5698 -19.5698 -19.5692 -19.5692 -19.5689 -19.5689 -19.5683 -19.5683
   -19.5682 -19.5682 -19.5672 -19.5671 -19.5668 -19.5668 -19.5652 -19.5652
    -9.1959  -9.1959  -8.7568  -8.7568  -8.7439  -8.7439  -8.3024  -8.3024
    -8.2060  -8.2059  -8.0595  -8.0594  -7.8158  -7.8158  -7.7629  -7.7629
    -7.5909  -7.5909  -7.2804  -7.2804  -7.2198  -7.2198  -7.1850  -7.1850
     2.0377   2.0377   2.1147   2.1147   2.2286   2.2286   2.5567   2.5567
     3.0892   3.0892   3.4376   3.4376   3.5551   3.5551   3.6655   3.6655
     3.7359   3.7359   3.8585   3.8585   4.0704   4.0704   4.1658   4.1658
     4.4360   4.4360   4.8357   4.8357   5.1140   5.1140   5.3960   5.3960
     5.4539   5.4539   5.6449   5.6450   5.8199   5.8200   5.9708   5.9708
     6.1170   6.1170   6.1666   6.1666   6.3812   6.3812   6.6049   6.6049
     6.7686   6.7686   6.8900   6.8900   6.9658   6.9658   7.2190   7.2190
     7.3752   7.3753   7.4529   7.4529   7.5546   7.5546   7.9179   7.9180
     7.9852   7.9852   8.0671   8.0672   8.1373   8.1373   8.4809   8.4809
    10.9553  10.9553  11.8862  11.8862  12.0163  12.0163  12.1845  12.1845
    12.5210  12.5210  12.8021  12.8021  13.2891  13.2891  13.4558  13.4558
    13.5875  13.5875  13.8833  13.8833  13.9402  13.9402  14.2147  14.2147
    15.4129  15.4129  15.8969  15.8969  16.0466  16.0466  16.6371  16.6371
    17.0253  17.0254  17.8747  17.8747  18.3592  18.3593

          k = 0.1667 0.1642 0.1667 ( 60670 PWs)   bands (ev):

   -65.4782 -65.4775 -65.4774 -65.4774 -65.4767 -65.4767 -65.4766 -65.4759
   -30.0497 -30.0463 -30.0441 -30.0441 -29.9760 -29.9758 -29.9750 -29.9689
   -29.8435 -29.8377 -29.8376 -29.8315 -29.7744 -29.7709 -29.7707 -29.7664
   -29.7431 -29.7420 -29.7349 -29.7348 -29.6733 -29.6733 -29.6689 -29.6674
   -19.6153 -19.6152 -19.6152 -19.6152 -19.6118 -19.6117 -19.6117 -19.6117
   -19.6024 -19.6022 -19.6022 -19.6020 -19.6014 -19.6011 -19.6010 -19.6007
   -19.5986 -19.5983 -19.5982 -19.5981 -19.5972 -19.5971 -19.5971 -19.5968
   -19.5812 -19.5808 -19.5801 -19.5800 -19.5793 -19.5792 -19.5791 -19.5784
   -19.5780 -19.5780 -19.5778 -19.5771 -19.5748 -19.5743 -19.5743 -19.5738
   -19.5701 -19.5698 -19.5696 -19.5695 -19.5689 -19.5688 -19.5687 -19.5685
   -19.5685 -19.5680 -19.5679 -19.5678 -19.5654 -19.5654 -19.5652 -19.5649
    -9.3882  -9.0733  -9.0144  -9.0101  -8.5595  -8.5506  -8.5347  -8.4004
    -8.2282  -8.1575  -8.1533  -8.1332  -7.7548  -7.6923  -7.6025  -7.5950
    -7.4030  -7.3483  -7.3482  -7.3006  -7.2510  -7.2370  -7.1346  -7.1297
     2.0709   2.1068   2.1156   2.1518   2.3031   2.3467   2.3495   2.3598
     2.5538   2.5646   2.6687   2.8288   2.9783   3.0483   3.1448   3.2842
     3.3186   3.3391   4.4400   4.4889   4.5981   4.6285   4.7441   4.8533
     4.8641   4.9262   4.9333   5.1939   5.2337   5.2744   5.5403   5.5484
     5.6301   5.7751   5.8446   5.9004   5.9054   5.9685   5.9830   6.0530
     6.0668   6.1319   6.1332   6.2080   6.2461   6.3319   6.3715   6.5436
     6.7983   6.8356   6.9779   7.0413   7.1123   7.1166   7.2466   7.2626
     7.2981   7.3205   7.4120   7.4426   7.4961   7.5325   7.6548   7.6691
     7.7980   7.8035   8.1100   8.1522   8.2739   8.3657   8.4028   8.5149
    10.8948  10.9561  11.1512  11.1764  11.3098  11.3855  12.6350  12.6392
    12.6926  12.7792  12.8972  13.0247  13.1096  13.3338  13.3355  13.4901
    13.5306  13.5774  13.7307  13.7677  14.0873  14.0904  14.2804  14.3041
    15.3391  15.5629  15.5776  15.6818  15.7937  16.2699  16.4867  16.5209
    16.6883  17.1839  17.4381  17.4412  18.1835  18.2287

          k = 0.1667 0.1642 0.3333 ( 60681 PWs)   bands (ev):

   -65.4780 -65.4776 -65.4773 -65.4772 -65.4769 -65.4768 -65.4765 -65.4761
   -30.0474 -30.0450 -30.0324 -30.0288 -29.9908 -29.9876 -29.9749 -29.9722
   -29.8425 -29.8391 -29.8365 -29.8330 -29.7737 -29.7716 -29.7699 -29.7674
   -29.7411 -29.7367 -29.7278 -29.7209 -29.6880 -29.6824 -29.6723 -29.6693
   -19.6152 -19.6152 -19.6145 -19.6144 -19.6124 -19.6124 -19.6117 -19.6117
   -19.6024 -19.6022 -19.6020 -19.6018 -19.6015 -19.6013 -19.6011 -19.6009
   -19.5985 -19.5983 -19.5980 -19.5979 -19.5974 -19.5973 -19.5971 -19.5969
   -19.5809 -19.5805 -19.5802 -19.5798 -19.5796 -19.5793 -19.5790 -19.5783
   -19.5783 -19.5780 -19.5778 -19.5774 -19.5747 -19.5744 -19.5742 -19.5739
   -19.5699 -19.5698 -19.5695 -19.5692 -19.5690 -19.5687 -19.5686 -19.5684
   -19.5681 -19.5681 -19.5680 -19.5675 -19.5662 -19.5658 -19.5653 -19.5651
    -9.2766  -9.0674  -8.9339  -8.8488  -8.6213  -8.5816  -8.4187  -8.3540
    -8.1963  -8.1577  -8.0264  -8.0122  -7.9414  -7.8427  -7.7086  -7.6171
    -7.4993  -7.4138  -7.3761  -7.3523  -7.3329  -7.2985  -7.2186  -7.1537
     2.0980   2.1134   2.2999   2.3153   2.3511   2.3673   2.5128   2.5714
     2.7672   2.9762   3.0750   3.1098   3.2126   3.2537   3.3342   3.4160
     3.4992   3.5533   4.1314   4.2534   4.3509   4.4021   4.4328   4.7181
     4.7620   4.8334   4.8766   4.9534   5.0129   5.1038   5.2162   5.2977
     5.4293   5.4853   5.5677   5.6204   5.7671   5.7976   5.8715   5.9669
     6.0511   6.0907   6.1219   6.1494   6.2151   6.2909   6.4007   6.5134
     6.8327   6.8664   7.0026   7.0507   7.0912   7.1472   7.2367   7.2865
     7.3237   7.3380   7.4667   7.5291   7.5838   7.6393   7.6683   7.7392
     7.8280   7.9011   8.0864   8.1356   8.2377   8.2970   8.4170   8.4863
    11.0530  11.0866  11.4155  11.5638  11.6773  11.8992  12.4203  12.4868
    12.6834  12.7599  12.8483  13.0538  13.0923  13.1935  13.3453  13.4304
    13.5503  13.6115  13.6613  13.7756  13.9850  14.0212  14.1701  14.2582
    15.4490  15.5558  15.7633  15.9284  16.1060  16.3335  16.5154  16.6030
    17.0025  17.0998  17.5594  17.8281  17.8534  18.3005

          k = 0.1667 0.1642-0.5000 ( 60630 PWs)   bands (ev):

   -65.4778 -65.4778 -65.4771 -65.4771 -65.4770 -65.4770 -65.4763 -65.4763
   -30.0461 -30.0461 -30.0116 -30.0116 -30.0080 -30.0080 -29.9737 -29.9737
   -29.8409 -29.8409 -29.8349 -29.8349 -29.7727 -29.7727 -29.7687 -29.7687
   -29.7390 -29.7390 -29.7079 -29.7079 -29.7017 -29.7017 -29.6708 -29.6708
   -19.6152 -19.6152 -19.6135 -19.6134 -19.6134 -19.6134 -19.6117 -19.6117
   -19.6023 -19.6023 -19.6018 -19.6018 -19.6016 -19.6016 -19.6010 -19.6010
   -19.5984 -19.5984 -19.5978 -19.5977 -19.5976 -19.5976 -19.5970 -19.5970
   -19.5806 -19.5806 -19.5801 -19.5801 -19.5795 -19.5795 -19.5787 -19.5786
   -19.5782 -19.5782 -19.5776 -19.5776 -19.5745 -19.5745 -19.5740 -19.5740
   -19.5698 -19.5698 -19.5692 -19.5692 -19.5689 -19.5689 -19.5684 -19.5684
   -19.5682 -19.5682 -19.5672 -19.5671 -19.5668 -19.5668 -19.5652 -19.5652
    -9.1578  -9.1578  -8.7551  -8.7551  -8.6805  -8.6805  -8.2737  -8.2737
    -8.2027  -8.2027  -8.0590  -8.0590  -7.8182  -7.8181  -7.7656  -7.7656
    -7.5925  -7.5925  -7.3736  -7.3736  -7.3217  -7.3217  -7.1853  -7.1853
     2.1035   2.1035   2.3157   2.3157   2.3591   2.3591   2.5770   2.5770
     3.1655   3.1655   3.4481   3.4481   3.5567   3.5567   3.6922   3.6922
     3.7606   3.7606   3.8684   3.8684   4.0909   4.0909   4.1996   4.1997
     4.4381   4.4381   4.8086   4.8086   4.9262   4.9262   5.2696   5.2696
     5.3746   5.3746   5.5275   5.5276   5.6400   5.6400   5.9303   5.9303
     6.0442   6.0442   6.1176   6.1176   6.2307   6.2307   6.4568   6.4568
     6.8665   6.8665   7.0252   7.0252   7.1240   7.1240   7.2536   7.2537
     7.3631   7.3631   7.4520   7.4520   7.6009   7.6009   7.9181   7.9181
     7.9823   7.9823   8.0931   8.0932   8.1443   8.1443   8.4447   8.4447
    11.0942  11.0942  11.9227  11.9227  12.0867  12.0867  12.2012  12.2012
    12.5390  12.5390  12.8366  12.8366  13.2200  13.2200  13.3805  13.3805
    13.5403  13.5403  13.7698  13.7698  13.8757  13.8757  14.1817  14.1817
    15.5126  15.5126  15.9987  15.9987  16.3277  16.3278  16.6875  16.6875
    17.0429  17.0430  17.8606  17.8606  18.2697  18.2697

          k = 0.1667 0.3284 0.1667 ( 60651 PWs)   bands (ev):

   -65.4780 -65.4776 -65.4773 -65.4772 -65.4768 -65.4768 -65.4764 -65.4761
   -30.0489 -30.0469 -30.0440 -30.0440 -29.9756 -29.9755 -29.9735 -29.9699
   -29.8290 -29.8239 -29.8238 -29.8182 -29.7890 -29.7850 -29.7849 -29.7806
   -29.7431 -29.7424 -29.7352 -29.7351 -29.6733 -29.6733 -29.6686 -29.6677
   -19.6152 -19.6152 -19.6152 -19.6152 -19.6118 -19.6118 -19.6117 -19.6117
   -19.6023 -19.6021 -19.6021 -19.6020 -19.6013 -19.6011 -19.6011 -19.6009
   -19.5985 -19.5982 -19.5982 -19.5981 -19.5972 -19.5972 -19.5970 -19.5968
   -19.5810 -19.5808 -19.5799 -19.5799 -19.5792 -19.5792 -19.5785 -19.5779
   -19.5777 -19.5774 -19.5773 -19.5768 -19.5755 -19.5752 -19.5751 -19.5747
   -19.5701 -19.5699 -19.5697 -19.5697 -19.5688 -19.5688 -19.5687 -19.5686
   -19.5685 -19.5682 -19.5679 -19.5679 -19.5654 -19.5654 -19.5651 -19.5650
    -9.2975  -9.1190  -8.9449  -8.9417  -8.5058  -8.4993  -8.3194  -8.3102
    -8.2322  -8.0922  -8.0919  -8.0823  -7.7914  -7.7002  -7.6656  -7.6438
    -7.6146  -7.5936  -7.5392  -7.5158  -7.2509  -7.2423  -7.1339  -7.1314
     2.0999   2.1155   2.1399   2.1476   2.4867   2.4880   2.5878   2.6665
     2.8202   2.9142   2.9460   3.0406   3.0928   3.1480   3.2450   3.5558
     3.5593   3.6806   4.1979   4.2026   4.2401   4.3287   4.4734   4.7326
     4.8077   4.8556   4.8687   4.9988   5.0620   5.2850   5.2874   5.3876
     5.3941   5.4586   5.5593   5.6252   5.7211   5.8108   5.9485   5.9524
     6.0592   6.0874   6.1101   6.1370   6.2038   6.2119   6.2666   6.3916
     6.8874   6.9662   6.9840   7.0748   7.1683   7.1840   7.3005   7.3198
     7.4727   7.4945   7.5148   7.5522   7.5881   7.6053   7.6657   7.6826
     7.8124   7.8218   8.0919   8.1417   8.2464   8.3023   8.3275   8.3569
    11.0700  11.0887  11.4802  11.5229  11.5337  11.7382  12.5923  12.6067
    12.6817  12.7172  12.7831  12.8607  13.1104  13.1620  13.2735  13.2889
    13.3992  13.4845  13.6672  13.7362  13.9062  13.9257  14.1648  14.2130
    15.4854  15.7191  15.7924  15.8293  16.2027  16.4002  16.5619  16.5876
    16.8181  17.4871  17.7482  17.8073  17.9297  18.3713

          k = 0.1667 0.3284 0.3333 ( 60657 PWs)   bands (ev):

   -65.4779 -65.4775 -65.4774 -65.4771 -65.4770 -65.4767 -65.4766 -65.4762
   -30.0471 -30.0448 -30.0324 -30.0286 -29.9906 -29.9870 -29.9747 -29.9723
   -29.8281 -29.8251 -29.8228 -29.8196 -29.7883 -29.7859 -29.7842 -29.7816
   -29.7413 -29.7369 -29.7280 -29.7211 -29.6880 -29.6824 -29.6723 -29.6693
   -19.6152 -19.6152 -19.6145 -19.6144 -19.6125 -19.6124 -19.6118 -19.6117
   -19.6023 -19.6022 -19.6019 -19.6019 -19.6014 -19.6013 -19.6011 -19.6010
   -19.5984 -19.5982 -19.5980 -19.5980 -19.5974 -19.5973 -19.5971 -19.5969
   -19.5807 -19.5805 -19.5801 -19.5796 -19.5795 -19.5790 -19.5788 -19.5782
   -19.5776 -19.5774 -19.5773 -19.5769 -19.5754 -19.5752 -19.5750 -19.5748
   -19.5699 -19.5698 -19.5695 -19.5693 -19.5690 -19.5687 -19.5686 -19.5685
   -19.5683 -19.5681 -19.5680 -19.5675 -19.5662 -19.5658 -19.5653 -19.5651
    -9.1854  -8.9971  -8.9681  -8.7459  -8.5907  -8.3829  -8.3529  -8.2566
    -8.1591  -8.1118  -8.0108  -7.9917  -7.9462  -7.8517  -7.7398  -7.6667
    -7.6177  -7.6006  -7.5831  -7.5429  -7.4671  -7.3641  -7.2204  -7.1545
     2.1188   2.1383   2.4817   2.5090   2.6708   2.7537   2.8335   2.9096
     2.9779   3.0427   3.1064   3.2324   3.2860   3.3658   3.4117   3.5375
     3.7335   3.8131   4.1023   4.1966   4.2086   4.2642   4.3895   4.4927
     4.5296   4.6346   4.7251   4.8044   4.9615   5.0293   5.0538   5.1196
     5.2171   5.3400   5.3616   5.4601   5.4865   5.5334   5.6477   5.7212
     5.7620   5.8647   5.8984   6.0437   6.1311   6.1844   6.2285   6.2886
     6.9737   7.0004   7.1057   7.1455   7.2256   7.3556   7.3778   7.4174
     7.4876   7.5109   7.5549   7.5784   7.6244   7.6541   7.7175   7.7428
     7.8843   7.9476   8.0757   8.1347   8.2266   8.2535   8.3222   8.3456
    11.3628  11.4229  11.5848  11.7485  11.8651  12.0777  12.4655  12.5553
    12.7175  12.7421  12.8304  12.9091  13.0317  13.0654  13.1867  13.2614
    13.3600  13.4007  13.5235  13.6893  13.7832  13.8805  14.0438  14.1245
    15.5680  15.7494  16.0157  16.2917  16.4335  16.5512  16.6591  17.0584
    17.1787  17.3591  17.4406  17.9101  18.0204  18.0912

          k = 0.1667 0.3284-0.5000 ( 60616 PWs)   bands (ev):

   -65.4776 -65.4776 -65.4772 -65.4772 -65.4768 -65.4768 -65.4764 -65.4764
   -30.0460 -30.0460 -30.0115 -30.0114 -30.0077 -30.0077 -29.9735 -29.9735
   -29.8267 -29.8266 -29.8213 -29.8213 -29.7872 -29.7871 -29.7829 -29.7829
   -29.7392 -29.7392 -29.7080 -29.7080 -29.7018 -29.7018 -29.6708 -29.6708
   -19.6152 -19.6152 -19.6135 -19.6134 -19.6134 -19.6134 -19.6118 -19.6117
   -19.6022 -19.6022 -19.6017 -19.6017 -19.6016 -19.6016 -19.6011 -19.6011
   -19.5983 -19.5983 -19.5978 -19.5978 -19.5976 -19.5976 -19.5970 -19.5970
   -19.5804 -19.5804 -19.5801 -19.5801 -19.5791 -19.5791 -19.5786 -19.5786
   -19.5775 -19.5775 -19.5771 -19.5771 -19.5753 -19.5753 -19.5749 -19.5749
   -19.5699 -19.5699 -19.5692 -19.5692 -19.5689 -19.5689 -19.5685 -19.5685
   -19.5683 -19.5683 -19.5672 -19.5672 -19.5668 -19.5668 -19.5652 -19.5652
    -9.0761  -9.0760  -8.7622  -8.7622  -8.5100  -8.5100  -8.1913  -8.1913
    -8.1727  -8.1727  -8.0549  -8.0549  -7.8345  -7.8345  -7.7846  -7.7846
    -7.6296  -7.6296  -7.5735  -7.5735  -7.5389  -7.5389  -7.1866  -7.1865
     2.1271   2.1271   2.5163   2.5163   2.8130   2.8130   2.9630   2.9630
     3.3590   3.3590   3.4835   3.4835   3.5524   3.5524   3.7205   3.7205
     3.8450   3.8451   3.8912   3.8913   4.1271   4.1272   4.2312   4.2312
     4.4164   4.4164   4.5425   4.5425   4.7679   4.7679   4.8866   4.8866
     5.2377   5.2377   5.3626   5.3626   5.4959   5.4959   5.5763   5.5764
     5.6502   5.6502   5.9102   5.9102   6.1535   6.1535   6.2467   6.2467
     6.9991   6.9991   7.2233   7.2233   7.2907   7.2907   7.3758   7.3758
     7.5041   7.5041   7.5660   7.5660   7.6607   7.6607   7.9094   7.9095
     7.9767   7.9767   8.1221   8.1221   8.1525   8.1525   8.3252   8.3252
    11.4657  11.4657  12.0143  12.0143  12.2063  12.2063  12.3380  12.3380
    12.6173  12.6173  12.8094  12.8094  13.0258  13.0258  13.2277  13.2277
    13.3896  13.3896  13.4847  13.4848  13.8020  13.8020  14.0140  14.0140
    15.6530  15.6530  16.2789  16.2789  16.8814  16.8814  17.0665  17.0665
    17.1389  17.1389  17.7859  17.7859  18.0951  18.0951

          k = 0.1667-0.4926 0.1667 ( 60640 PWs)   bands (ev):

   -65.4778 -65.4778 -65.4771 -65.4771 -65.4770 -65.4770 -65.4763 -65.4762
   -30.0479 -30.0478 -30.0439 -30.0439 -29.9754 -29.9754 -29.9716 -29.9716
   -29.8091 -29.8091 -29.8067 -29.8066 -29.8024 -29.8024 -29.7996 -29.7996
   -29.7428 -29.7428 -29.7352 -29.7352 -29.6733 -29.6733 -29.6681 -29.6681
   -19.6152 -19.6152 -19.6152 -19.6152 -19.6118 -19.6118 -19.6117 -19.6117
   -19.6022 -19.6022 -19.6021 -19.6021 -19.6011 -19.6011 -19.6010 -19.6010
   -19.5983 -19.5983 -19.5982 -19.5982 -19.5972 -19.5972 -19.5969 -19.5969
   -19.5809 -19.5809 -19.5798 -19.5798 -19.5792 -19.5792 -19.5781 -19.5781
   -19.5766 -19.5766 -19.5765 -19.5765 -19.5761 -19.5761 -19.5759 -19.5759
   -19.5700 -19.5700 -19.5698 -19.5698 -19.5688 -19.5688 -19.5686 -19.5686
   -19.5683 -19.5683 -19.5679 -19.5679 -19.5654 -19.5654 -19.5651 -19.5651
    -9.1968  -9.1968  -8.9113  -8.9113  -8.4678  -8.4678  -8.2491  -8.2491
    -8.0188  -8.0188  -7.9438  -7.9438  -7.9108  -7.9108  -7.8690  -7.8690
    -7.6827  -7.6827  -7.5621  -7.5621  -7.2473  -7.2473  -7.1331  -7.1331
     2.1084   2.1084   2.1443   2.1443   2.4960   2.4960   2.6554   2.6554
     3.0696   3.0696   3.2454   3.2454   3.3880   3.3880   3.7492   3.7492
     3.7828   3.7828   4.0257   4.0257   4.1599   4.1599   4.3749   4.3749
     4.4289   4.4289   4.7653   4.7653   4.8907   4.8907   5.3949   5.3949
     5.4662   5.4662   5.5405   5.5405   5.6503   5.6503   5.9641   5.9641
     5.9916   5.9916   6.1102   6.1102   6.1445   6.1445   6.2918   6.2918
     6.9226   6.9226   7.0409   7.0409   7.1728   7.1728   7.3364   7.3364
     7.5578   7.5578   7.6047   7.6047   7.6885   7.6885   7.7655   7.7655
     7.9067   7.9067   8.0900   8.0900   8.1930   8.1930   8.2294   8.2294
    11.1175  11.1175  11.8269  11.8269  11.9269  11.9269  12.4025  12.4025
    12.5196  12.5196  12.7856  12.7856  13.0753  13.0753  13.2361  13.2361
    13.5095  13.5095  13.6716  13.6716  13.7290  13.7290  14.1284  14.1284
    15.6398  15.6398  15.9075  15.9075  16.4378  16.4378  16.6024  16.6024
    17.1910  17.1911  18.2069  18.2069  18.4039  18.4039

          k = 0.1667-0.4926 0.3333 ( 60654 PWs)   bands (ev):

   -65.4777 -65.4776 -65.4773 -65.4771 -65.4769 -65.4768 -65.4764 -65.4764
   -30.0470 -30.0448 -30.0324 -30.0286 -29.9905 -29.9867 -29.9745 -29.9723
   -29.8087 -29.8078 -29.8072 -29.8053 -29.8039 -29.8020 -29.8012 -29.8003
   -29.7413 -29.7370 -29.7280 -29.7211 -29.6880 -29.6824 -29.6723 -29.6693
   -19.6152 -19.6152 -19.6145 -19.6144 -19.6125 -19.6124 -19.6118 -19.6118
   -19.6022 -19.6021 -19.6020 -19.6019 -19.6013 -19.6013 -19.6011 -19.6011
   -19.5983 -19.5982 -19.5981 -19.5980 -19.5974 -19.5973 -19.5971 -19.5970
   -19.5806 -19.5806 -19.5800 -19.5796 -19.5795 -19.5789 -19.5785 -19.5783
   -19.5766 -19.5766 -19.5765 -19.5764 -19.5762 -19.5761 -19.5760 -19.5759
   -19.5699 -19.5698 -19.5696 -19.5693 -19.5690 -19.5687 -19.5685 -19.5685
   -19.5684 -19.5681 -19.5680 -19.5675 -19.5662 -19.5658 -19.5653 -19.5651
    -9.1197  -9.0121  -8.9557  -8.6962  -8.5705  -8.3133  -8.1987  -8.1393
    -8.1128  -8.0551  -7.9695  -7.9206  -7.9081  -7.9020  -7.8964  -7.8450
    -7.8104  -7.7452  -7.6594  -7.5832  -7.4770  -7.3679  -7.2211  -7.1550
     2.1202   2.1404   2.4853   2.5173   2.7042   2.9019   3.0109   3.1593
     3.2692   3.2789   3.3004   3.3236   3.4949   3.5333   3.6402   3.7221
     3.7663   3.7863   4.0321   4.0727   4.1911   4.3028   4.3189   4.3489
     4.3756   4.4554   4.4726   4.5195   4.7239   4.7918   4.9850   5.0509
     5.1192   5.2167   5.3400   5.4053   5.4175   5.5057   5.5371   5.5728
     5.6571   5.7220   5.8287   5.9440   6.1198   6.1437   6.2057   6.2159
     6.9856   7.0147   7.1374   7.1554   7.2571   7.3964   7.4649   7.5012
     7.5562   7.5858   7.6236   7.6727   7.7096   7.7341   7.7711   7.8115
     7.9516   7.9843   8.0681   8.1206   8.1801   8.1945   8.2127   8.2263
    11.4807  11.5838  11.8340  11.9589  12.1041  12.2449  12.3994  12.5037
    12.5903  12.6252  12.7200  12.8633  12.9650  13.0381  13.1259  13.2073
    13.2956  13.4146  13.4555  13.4730  13.7223  13.7518  13.9951  14.0293
    15.6192  15.8243  16.0367  16.4807  16.5571  16.7182  16.9362  17.1270
    17.3154  17.3662  17.8921  17.9706  18.1551  18.2393

          k = 0.1667-0.4926-0.5000 ( 60620 PWs)   bands (ev):

   -65.4775 -65.4775 -65.4774 -65.4774 -65.4767 -65.4767 -65.4766 -65.4766
   -30.0459 -30.0459 -30.0114 -30.0114 -30.0076 -30.0076 -29.9734 -29.9734
   -29.8081 -29.8081 -29.8059 -29.8059 -29.8034 -29.8034 -29.8011 -29.8011
   -29.7392 -29.7392 -29.7080 -29.7080 -29.7018 -29.7018 -29.6708 -29.6708
   -19.6152 -19.6152 -19.6135 -19.6135 -19.6134 -19.6134 -19.6118 -19.6118
   -19.6022 -19.6022 -19.6017 -19.6017 -19.6016 -19.6015 -19.6011 -19.6011
   -19.5983 -19.5983 -19.5978 -19.5978 -19.5976 -19.5976 -19.5970 -19.5970
   -19.5803 -19.5803 -19.5801 -19.5801 -19.5790 -19.5790 -19.5786 -19.5786
   -19.5766 -19.5766 -19.5764 -19.5764 -19.5763 -19.5762 -19.5760 -19.5760
   -19.5699 -19.5699 -19.5692 -19.5692 -19.5688 -19.5688 -19.5686 -19.5686
   -19.5683 -19.5683 -19.5672 -19.5672 -19.5668 -19.5668 -19.5652 -19.5652
    -9.0318  -9.0318  -8.7679  -8.7679  -8.3948  -8.3947  -8.1441  -8.1441
    -8.0976  -8.0975  -8.0030  -8.0030  -7.8915  -7.8915  -7.8756  -7.8755
    -7.7356  -7.7356  -7.6748  -7.6748  -7.5742  -7.5741  -7.1871  -7.1871
     2.1290   2.1290   2.5245   2.5245   3.1814   3.1814   3.4357   3.4357
     3.5118   3.5119   3.5325   3.5325   3.5798   3.5798   3.6710   3.6710
     3.8520   3.8521   3.9088   3.9088   4.0002   4.0002   4.1588   4.1588
     4.3554   4.3554   4.4565   4.4565   4.7608   4.7608   4.8320   4.8320
     4.9415   4.9415   5.0187   5.0187   5.3583   5.3583   5.4937   5.4937
     5.5928   5.5928   5.8085   5.8085   6.1549   6.1549   6.1714   6.1714
     7.0108   7.0108   7.2519   7.2519   7.3302   7.3302   7.4505   7.4505
     7.6076   7.6076   7.6868   7.6869   7.7852   7.7852   7.8890   7.8890
     7.9642   7.9642   8.1298   8.1299   8.1571   8.1571   8.2026   8.2026
    11.7561  11.7561  12.1223  12.1223  12.1846  12.1846  12.5174  12.5174
    12.5624  12.5624  12.7659  12.7659  12.9823  12.9823  13.0904  13.0904
    13.2304  13.2304  13.3535  13.3535  13.8275  13.8275  13.8551  13.8552
    15.7027  15.7027  16.3589  16.3589  17.1483  17.1483  17.4068  17.4068
    17.5611  17.5611  17.7660  17.7660  17.8838  17.8838

          k = 0.3333 0.0000 0.3333 ( 60614 PWs)   bands (ev):

   -65.4779 -65.4774 -65.4774 -65.4771 -65.4770 -65.4767 -65.4766 -65.4762
   -30.0340 -30.0301 -30.0297 -30.0292 -29.9914 -29.9900 -29.9899 -29.9848
   -29.8466 -29.8432 -29.8430 -29.8394 -29.7677 -29.7657 -29.7653 -29.7630
   -29.7272 -29.7257 -29.7226 -29.7223 -29.6869 -29.6868 -29.6845 -29.6828
   -19.6145 -19.6144 -19.6144 -19.6144 -19.6125 -19.6124 -19.6124 -19.6124
   -19.6023 -19.6021 -19.6020 -19.6017 -19.6017 -19.6013 -19.6012 -19.6010
   -19.5984 -19.5982 -19.5981 -19.5978 -19.5975 -19.5973 -19.5972 -19.5971
   -19.5807 -19.5803 -19.5801 -19.5800 -19.5797 -19.5793 -19.5793 -19.5785
   -19.5784 -19.5782 -19.5781 -19.5777 -19.5743 -19.5740 -19.5740 -19.5737
   -19.5696 -19.5696 -19.5691 -19.5691 -19.5688 -19.5688 -19.5687 -19.5682
   -19.5680 -19.5679 -19.5677 -19.5675 -19.5662 -19.5660 -19.5660 -19.5657
    -9.1906  -8.9652  -8.9476  -8.7781  -8.7072  -8.4969  -8.4661  -8.3499
    -8.1208  -8.0889  -8.0434  -7.9748  -7.9618  -7.9007  -7.8328  -7.8084
    -7.4762  -7.4568  -7.4268  -7.3830  -7.2799  -7.2486  -7.2467  -7.2151
     2.0894   2.0954   2.1121   2.1136   2.7338   2.7550   2.7767   2.7860
     3.0808   3.0962   3.1698   3.1855   3.2719   3.4013   3.4131   3.5069
     3.6403   3.6936   4.0739   4.1987   4.2353   4.2681   4.3876   4.5507
     4.5805   4.6437   4.7531   4.7712   4.9217   5.0164   5.1182   5.1223
     5.1745   5.3131   5.5057   5.5741   5.6088   5.6735   5.7111   5.7619
     5.8004   5.9706   6.0582   6.1288   6.4091   6.4757   6.4976   6.6854
     6.8025   6.8654   6.9254   6.9376   6.9752   7.0608   7.0789   7.0925
     7.4578   7.4972   7.6227   7.6228   7.6682   7.7406   7.8044   7.8055
     7.8910   7.9192   8.0860   8.0908   8.1720   8.2879   8.4119   8.4865
    11.2793  11.3126  11.5335  11.5531  12.0377  12.1406  12.4103  12.4208
    12.5561  12.6049  12.8371  12.8711  13.1805  13.1987  13.4133  13.4410
    13.5334  13.6885  13.7450  13.7890  13.9372  14.0391  14.1073  14.2138
    15.5115  15.6786  15.7027  16.0117  16.1190  16.3145  16.6701  16.8551
    16.8738  17.3888  17.5324  17.8537  17.8675  18.1713

          k = 0.3333 0.0000-0.5000 ( 60636 PWs)   bands (ev):

   -65.4777 -65.4777 -65.4772 -65.4772 -65.4769 -65.4769 -65.4764 -65.4764
   -30.0310 -30.0310 -30.0107 -30.0107 -30.0090 -30.0090 -29.9887 -29.9887
   -29.8450 -29.8450 -29.8414 -29.8414 -29.7666 -29.7666 -29.7643 -29.7643
   -29.7246 -29.7246 -29.7066 -29.7066 -29.7031 -29.7031 -29.6852 -29.6852
   -19.6144 -19.6144 -19.6135 -19.6134 -19.6134 -19.6134 -19.6124 -19.6124
   -19.6022 -19.6022 -19.6019 -19.6019 -19.6015 -19.6015 -19.6011 -19.6011
   -19.5982 -19.5982 -19.5978 -19.5978 -19.5976 -19.5976 -19.5972 -19.5972
   -19.5805 -19.5804 -19.5800 -19.5800 -19.5797 -19.5796 -19.5789 -19.5789
   -19.5783 -19.5783 -19.5779 -19.5779 -19.5741 -19.5741 -19.5738 -19.5738
   -19.5695 -19.5695 -19.5690 -19.5690 -19.5689 -19.5689 -19.5684 -19.5684
   -19.5678 -19.5678 -19.5671 -19.5671 -19.5668 -19.5668 -19.5659 -19.5659
    -9.0563  -9.0563  -8.8041  -8.8040  -8.5986  -8.5986  -8.2718  -8.2717
    -8.2231  -8.2231  -7.9816  -7.9816  -7.9507  -7.9507  -7.7696  -7.7696
    -7.6578  -7.6577  -7.4324  -7.4323  -7.2654  -7.2654  -7.2325  -7.2325
     2.0923   2.0923   2.1142   2.1142   2.7782   2.7782   3.0761   3.0761
     3.2619   3.2620   3.4901   3.4901   3.5981   3.5981   3.7144   3.7144
     3.7885   3.7885   3.9448   3.9448   4.1048   4.1048   4.1874   4.1874
     4.4273   4.4273   4.5362   4.5362   4.7269   4.7269   4.9538   4.9538
     5.1848   5.1848   5.3773   5.3773   5.6197   5.6197   5.6505   5.6505
     5.8349   5.8349   6.0604   6.0604   6.4789   6.4789   6.6340   6.6340
     6.8197   6.8197   6.9074   6.9075   6.9555   6.9555   7.0624   7.0624
     7.5917   7.5917   7.6517   7.6517   7.7584   7.7584   7.9397   7.9398
     7.9962   7.9962   8.0604   8.0604   8.1478   8.1479   8.4245   8.4245
    11.3956  11.3956  11.9748  11.9748  12.0206  12.0206  12.4473  12.4473
    12.5561  12.5561  12.6897  12.6897  13.1490  13.1490  13.4120  13.4120
    13.5286  13.5286  13.8011  13.8011  13.9038  13.9038  14.1266  14.1266
    15.6317  15.6318  15.9509  15.9509  16.3820  16.3820  16.9397  16.9397
    17.2810  17.2810  17.6167  17.6167  18.1755  18.1755

          k = 0.3333 0.1642 0.3333 ( 60639 PWs)   bands (ev):

   -65.4778 -65.4774 -65.4774 -65.4772 -65.4769 -65.4767 -65.4767 -65.4762
   -30.0337 -30.0302 -30.0296 -30.0293 -29.9909 -29.9899 -29.9897 -29.9852
   -29.8414 -29.8381 -29.8379 -29.8345 -29.7730 -29.7709 -29.7706 -29.7683
   -29.7272 -29.7259 -29.7227 -29.7224 -29.6869 -29.6868 -29.6844 -29.6829
   -19.6145 -19.6144 -19.6144 -19.6144 -19.6125 -19.6125 -19.6124 -19.6124
   -19.6022 -19.6021 -19.6020 -19.6018 -19.6016 -19.6013 -19.6012 -19.6010
   -19.5983 -19.5981 -19.5980 -19.5978 -19.5975 -19.5974 -19.5973 -19.5971
   -19.5806 -19.5803 -19.5800 -19.5799 -19.5796 -19.5793 -19.5793 -19.5785
   -19.5782 -19.5780 -19.5779 -19.5776 -19.5746 -19.5743 -19.5743 -19.5740
   -19.5696 -19.5696 -19.5692 -19.5692 -19.5688 -19.5688 -19.5687 -19.5683
   -19.5680 -19.5679 -19.5677 -19.5676 -19.5662 -19.5660 -19.5660 -19.5657
    -9.1461  -8.9170  -8.8976  -8.7917  -8.6340  -8.4899  -8.4573  -8.3178
    -8.1146  -8.0780  -8.0451  -7.9718  -7.9668  -7.8973  -7.8327  -7.8078
    -7.4843  -7.4661  -7.4493  -7.3841  -7.3674  -7.3404  -7.3376  -7.3041
     2.2689   2.2964   2.3109   2.3428   2.7317   2.7611   2.7796   2.7840
     3.0805   3.1000   3.1783   3.2643   3.2681   3.4612   3.4911   3.5983
     3.6599   3.6895   4.0824   4.1985   4.2755   4.2767   4.4176   4.5428
[...]
    12.5991  12.5991  12.7089  12.7089  13.1333  13.1333  13.3620  13.3620
    13.4389  13.4389  13.6768  13.6768  13.8044  13.8044  14.0574  14.0574
    15.8632  15.8632  16.1873  16.1873  16.4804  16.4805  16.9520  16.9520
    17.2808  17.2809  17.6398  17.6398  18.1563  18.1563

          k = 0.3333 0.3284 0.3333 ( 60653 PWs)   bands (ev):

   -65.4777 -65.4773 -65.4773 -65.4772 -65.4768 -65.4768 -65.4768 -65.4764
   -30.0327 -30.0306 -30.0295 -30.0294 -29.9900 -29.9897 -29.9890 -29.9861
   -29.8271 -29.8242 -29.8240 -29.8209 -29.7875 -29.7853 -29.7850 -29.7826
   -29.7270 -29.7262 -29.7227 -29.7226 -29.6869 -29.6868 -29.6841 -29.6832
   -19.6145 -19.6145 -19.6144 -19.6144 -19.6125 -19.6125 -19.6124 -19.6124
   -19.6021 -19.6020 -19.6019 -19.6018 -19.6015 -19.6013 -19.6013 -19.6011
   -19.5982 -19.5981 -19.5980 -19.5979 -19.5974 -19.5974 -19.5973 -19.5972
   -19.5805 -19.5802 -19.5798 -19.5798 -19.5794 -19.5793 -19.5790 -19.5786
   -19.5776 -19.5774 -19.5773 -19.5771 -19.5754 -19.5752 -19.5751 -19.5749
   -19.5696 -19.5695 -19.5693 -19.5693 -19.5689 -19.5688 -19.5687 -19.5684
   -19.5680 -19.5680 -19.5677 -19.5676 -19.5661 -19.5661 -19.5659 -19.5658
    -9.0376  -8.8448  -8.8021  -8.7913  -8.4742  -8.4324  -8.4197  -8.2188
    -8.0873  -8.0519  -8.0303  -7.9903  -7.9542  -7.8863  -7.8353  -7.8051
    -7.6399  -7.6158  -7.6070  -7.5778  -7.4447  -7.4429  -7.3861  -7.3810
     2.6392   2.6769   2.6814   2.7349   2.8687   2.8784   2.9034   2.9223
     3.1028   3.1430   3.1855   3.2847   3.4544   3.5691   3.6424   3.7221
     3.7378   3.9075   4.0793   4.1266   4.2423   4.3253   4.3861   4.4548
     4.5535   4.5966   4.6253   4.6883   4.7352   4.8187   4.8773   4.9377
     5.0429   5.0491   5.1761   5.2589   5.2787   5.3361   5.3515   5.4097
     5.4966   5.5813   5.6315   5.6592   5.7731   5.8895   5.9112   6.0141
     7.1239   7.1570   7.2502   7.3070   7.4020   7.4212   7.4481   7.4890
     7.5372   7.5654   7.6702   7.6825   7.7016   7.7800   7.8405   7.8527
     7.9399   7.9693   8.0786   8.1072   8.1973   8.2270   8.3109   8.3291
    11.6469  11.6508  11.8363  11.9538  12.0801  12.2607  12.5411  12.6108
    12.6845  12.7610  12.8268  12.8842  12.9960  13.0859  13.1154  13.1745
    13.2550  13.3427  13.4528  13.5338  13.6725  13.7928  13.8079  13.9786
    16.0422  16.2333  16.2940  16.3740  16.5644  16.8658  16.9581  16.9730
    17.2898  17.3918  17.5915  17.7120  18.0092  18.1339

          k = 0.3333 0.3284-0.5000 ( 60664 PWs)   bands (ev):

   -65.4775 -65.4775 -65.4771 -65.4771 -65.4770 -65.4770 -65.4766 -65.4766
   -30.0306 -30.0306 -30.0106 -30.0106 -30.0085 -30.0085 -29.9886 -29.9886
   -29.8257 -29.8257 -29.8226 -29.8226 -29.7864 -29.7864 -29.7839 -29.7839
   -29.7247 -29.7247 -29.7067 -29.7067 -29.7032 -29.7032 -29.6853 -29.6853
   -19.6145 -19.6145 -19.6135 -19.6134 -19.6134 -19.6134 -19.6125 -19.6125
   -19.6020 -19.6020 -19.6017 -19.6017 -19.6016 -19.6016 -19.6013 -19.6012
   -19.5981 -19.5981 -19.5978 -19.5978 -19.5976 -19.5976 -19.5973 -19.5973
   -19.5801 -19.5801 -19.5798 -19.5798 -19.5794 -19.5793 -19.5789 -19.5789
   -19.5775 -19.5775 -19.5772 -19.5772 -19.5753 -19.5753 -19.5750 -19.5750
   -19.5695 -19.5695 -19.5691 -19.5691 -19.5690 -19.5690 -19.5686 -19.5686
   -19.5678 -19.5678 -19.5671 -19.5671 -19.5669 -19.5668 -19.5660 -19.5660
    -8.8961  -8.8961  -8.6342  -8.6341  -8.5658  -8.5658  -8.2495  -8.2495
    -8.1505  -8.1505  -7.9722  -7.9722  -7.9372  -7.9372  -7.7792  -7.7792
    -7.6892  -7.6892  -7.5909  -7.5909  -7.5619  -7.5619  -7.4125  -7.4124
     2.6796   2.6796   2.8554   2.8554   2.9019   2.9019   3.0991   3.0991
     3.4243   3.4243   3.5520   3.5520   3.6240   3.6240   3.7597   3.7597
     3.9199   3.9199   4.0178   4.0178   4.1588   4.1588   4.2708   4.2708
     4.4635   4.4636   4.5721   4.5721   4.6301   4.6301   4.7718   4.7718
     4.9117   4.9117   5.0776   5.0777   5.1458   5.1458   5.3401   5.3401
     5.4258   5.4258   5.5046   5.5046   5.6632   5.6632   5.9137   5.9137
     7.1800   7.1800   7.3663   7.3663   7.3861   7.3861   7.5091   7.5091
     7.6303   7.6303   7.6783   7.6783   7.8308   7.8308   7.9433   7.9433
     7.9927   7.9927   8.1173   8.1173   8.1414   8.1414   8.3048   8.3048
    11.7721  11.7721  12.1572  12.1572  12.3170  12.3170  12.4811  12.4811
    12.6894  12.6894  12.8158  12.8158  12.9764  12.9764  13.1424  13.1424
    13.2999  13.2999  13.4482  13.4482  13.5593  13.5593  13.8214  13.8214
    16.2641  16.2641  16.6167  16.6167  16.9542  16.9542  17.1054  17.1054
    17.3158  17.3158  17.6816  17.6816  18.0717  18.0717

          k = 0.3333-0.4926 0.3333 ( 60670 PWs)   bands (ev):

   -65.4775 -65.4775 -65.4771 -65.4771 -65.4770 -65.4770 -65.4766 -65.4766
   -30.0316 -30.0316 -30.0294 -30.0293 -29.9897 -29.9897 -29.9875 -29.9875
   -29.8074 -29.8074 -29.8059 -29.8059 -29.8035 -29.8035 -29.8019 -29.8019
   -29.7267 -29.7267 -29.7227 -29.7227 -29.6869 -29.6869 -29.6837 -29.6837
   -19.6145 -19.6145 -19.6144 -19.6144 -19.6125 -19.6125 -19.6124 -19.6124
   -19.6020 -19.6020 -19.6019 -19.6019 -19.6014 -19.6014 -19.6013 -19.6013
   -19.5981 -19.5981 -19.5980 -19.5980 -19.5974 -19.5974 -19.5972 -19.5972
   -19.5803 -19.5803 -19.5797 -19.5797 -19.5793 -19.5793 -19.5787 -19.5787
   -19.5766 -19.5766 -19.5764 -19.5764 -19.5762 -19.5762 -19.5760 -19.5760
   -19.5695 -19.5695 -19.5694 -19.5694 -19.5689 -19.5689 -19.5686 -19.5686
   -19.5680 -19.5680 -19.5677 -19.5677 -19.5661 -19.5661 -19.5659 -19.5659
    -8.9224  -8.9224  -8.7439  -8.7439  -8.4270  -8.4270  -8.1712  -8.1711
    -8.0978  -8.0977  -7.9412  -7.9412  -7.8883  -7.8883  -7.8527  -7.8526
    -7.8048  -7.8048  -7.7540  -7.7539  -7.4508  -7.4508  -7.3875  -7.3875
     2.7016   2.7016   2.7314   2.7314   3.0392   3.0392   3.1503   3.1503
     3.3354   3.3354   3.4595   3.4595   3.6199   3.6199   3.6937   3.6937
     3.7604   3.7604   4.1174   4.1174   4.3383   4.3384   4.3550   4.3551
     4.3922   4.3922   4.5561   4.5561   4.6436   4.6436   4.7882   4.7882
     5.0389   5.0389   5.0802   5.0803   5.2137   5.2137   5.3583   5.3583
     5.4217   5.4217   5.5055   5.5055   5.6117   5.6117   5.7724   5.7724
     7.1999   7.1999   7.3512   7.3512   7.4928   7.4928   7.5775   7.5775
     7.6599   7.6599   7.7009   7.7009   7.7731   7.7731   7.8928   7.8928
     7.9897   7.9897   8.0870   8.0870   8.1817   8.1817   8.2143   8.2143
    11.8141  11.8141  12.0969  12.0969  12.2925  12.2925  12.5853  12.5853
    12.7208  12.7208  12.8218  12.8218  12.9426  12.9426  13.0266  13.0266
    13.2370  13.2370  13.4240  13.4240  13.5076  13.5076  13.8288  13.8288
    16.1778  16.1778  16.5078  16.5078  16.9675  16.9675  17.1180  17.1180
    17.4692  17.4692  17.9329  17.9329  18.0779  18.0779

          k = 0.3333-0.4926-0.5000 ( 60672 PWs)   bands (ev):

   -65.4773 -65.4773 -65.4772 -65.4772 -65.4768 -65.4768 -65.4768 -65.4768
   -30.0305 -30.0305 -30.0106 -30.0106 -30.0083 -30.0083 -29.9886 -29.9886
   -29.8068 -29.8068 -29.8055 -29.8055 -29.8040 -29.8040 -29.8027 -29.8027
   -29.7248 -29.7248 -29.7068 -29.7068 -29.7032 -29.7032 -29.6853 -29.6853
   -19.6145 -19.6145 -19.6135 -19.6135 -19.6134 -19.6134 -19.6125 -19.6125
   -19.6020 -19.6020 -19.6017 -19.6017 -19.6016 -19.6015 -19.6013 -19.6013
   -19.5980 -19.5980 -19.5978 -19.5978 -19.5976 -19.5976 -19.5973 -19.5973
   -19.5800 -19.5800 -19.5798 -19.5798 -19.5792 -19.5792 -19.5790 -19.5790
   -19.5765 -19.5765 -19.5764 -19.5764 -19.5763 -19.5763 -19.5761 -19.5761
   -19.5694 -19.5694 -19.5691 -19.5691 -19.5689 -19.5689 -19.5687 -19.5687
   -19.5678 -19.5678 -19.5671 -19.5671 -19.5669 -19.5668 -19.5660 -19.5660
    -8.8250  -8.8250  -8.6557  -8.6557  -8.4423  -8.4422  -8.2661  -8.2661
    -8.0517  -8.0517  -7.9560  -7.9560  -7.8962  -7.8962  -7.8594  -7.8594
    -7.7845  -7.7845  -7.7232  -7.7232  -7.6243  -7.6242  -7.4176  -7.4176
     2.7257   2.7257   3.0420   3.0420   3.2487   3.2487   3.4064   3.4064
     3.5039   3.5039   3.5890   3.5890   3.6492   3.6492   3.6682   3.6682
     3.9013   3.9013   3.9785   3.9785   4.0911   4.0911   4.3639   4.3639
     4.4051   4.4051   4.5130   4.5130   4.5883   4.5884   4.7905   4.7906
     4.9187   4.9187   4.9741   4.9741   5.0329   5.0329   5.0727   5.0727
     5.2200   5.2200   5.3763   5.3763   5.5355   5.5355   5.5747   5.5747
     7.2533   7.2533   7.4796   7.4796   7.5217   7.5217   7.5930   7.5930
     7.6797   7.6797   7.7335   7.7335   7.8823   7.8823   7.9263   7.9263
     7.9948   7.9948   8.1222   8.1223   8.1513   8.1513   8.2033   8.2034
    12.0152  12.0152  12.2603  12.2603  12.4160  12.4160  12.5904  12.5904
    12.6542  12.6542  12.8751  12.8751  12.9479  12.9479  13.0135  13.0135
    13.1443  13.1443  13.1891  13.1891  13.5582  13.5582  13.6199  13.6199
    16.3639  16.3639  16.7831  16.7831  17.2745  17.2745  17.3754  17.3754
    17.6494  17.6494  17.7893  17.7893  17.8617  17.8617

          k =-0.5000 0.0000-0.5000 ( 60676 PWs)   bands (ev):

   -65.4774 -65.4774 -65.4774 -65.4774 -65.4767 -65.4767 -65.4766 -65.4766
   -30.0128 -30.0128 -30.0121 -30.0121 -30.0075 -30.0074 -30.0068 -30.0068
   -29.8434 -29.8434 -29.8432 -29.8432 -29.7657 -29.7656 -29.7653 -29.7652
   -29.7059 -29.7058 -29.7057 -29.7057 -29.7043 -29.7043 -29.7039 -29.7039
   -19.6135 -19.6135 -19.6135 -19.6134 -19.6134 -19.6134 -19.6134 -19.6134
   -19.6021 -19.6021 -19.6019 -19.6019 -19.6015 -19.6015 -19.6013 -19.6013
   -19.5981 -19.5980 -19.5979 -19.5979 -19.5975 -19.5975 -19.5974 -19.5973
   -19.5803 -19.5802 -19.5801 -19.5801 -19.5794 -19.5794 -19.5792 -19.5792
   -19.5782 -19.5782 -19.5781 -19.5781 -19.5740 -19.5740 -19.5740 -19.5739
   -19.5694 -19.5694 -19.5691 -19.5690 -19.5687 -19.5687 -19.5686 -19.5686
   -19.5673 -19.5672 -19.5671 -19.5671 -19.5668 -19.5668 -19.5667 -19.5667
    -8.9199  -8.9199  -8.8943  -8.8943  -8.4157  -8.4157  -8.3329  -8.3329
    -8.2219  -8.2219  -8.1317  -8.1317  -7.8001  -7.8000  -7.7476  -7.7475
    -7.6992  -7.6992  -7.6404  -7.6404  -7.2520  -7.2519  -7.2488  -7.2488
     2.0925   2.0925   2.1157   2.1157   3.3139   3.3139   3.3415   3.3415
     3.4835   3.4835   3.4994   3.4994   3.7386   3.7386   3.8420   3.8420
     3.8682   3.8683   3.9269   3.9269   3.9807   3.9807   4.1244   4.1244
     4.1475   4.1475   4.4126   4.4127   4.6695   4.6695   4.7278   4.7278
     4.8388   4.8388   4.9809   4.9809   5.5543   5.5543   5.6144   5.6145
     5.8749   5.8749   5.9538   5.9538   6.5835   6.5835   6.6131   6.6131
     6.8187   6.8187   6.8938   6.8938   6.9522   6.9522   6.9526   6.9526
     7.7453   7.7453   7.7708   7.7708   7.8400   7.8401   7.9650   7.9650
     8.0325   8.0325   8.0449   8.0449   8.1323   8.1323   8.3675   8.3675
    11.7812  11.7812  11.9853  11.9853  12.0324  12.0324  12.2437  12.2437
    12.8092  12.8092  12.8617  12.8617  12.9724  12.9724  13.0601  13.0601
    13.6007  13.6007  13.7517  13.7517  13.9133  13.9133  14.0447  14.0447
    15.7983  15.7983  15.8634  15.8634  16.8333  16.8333  17.3020  17.3020
    17.3934  17.3934  17.4946  17.4946  17.7929  17.7929

          k =-0.5000 0.1642-0.5000 ( 60660 PWs)   bands (ev):

   -65.4774 -65.4774 -65.4774 -65.4774 -65.4767 -65.4767 -65.4767 -65.4767
   -30.0124 -30.0124 -30.0117 -30.0116 -30.0077 -30.0077 -30.0071 -30.0071
   -29.8383 -29.8383 -29.8381 -29.8381 -29.7710 -29.7709 -29.7706 -29.7706
   -29.7057 -29.7057 -29.7057 -29.7057 -29.7044 -29.7044 -29.7040 -29.7040
   -19.6135 -19.6135 -19.6135 -19.6135 -19.6134 -19.6134 -19.6134 -19.6134
   -19.6020 -19.6020 -19.6019 -19.6018 -19.6015 -19.6015 -19.6013 -19.6013
   -19.5980 -19.5980 -19.5979 -19.5978 -19.5976 -19.5976 -19.5974 -19.5974
   -19.5801 -19.5801 -19.5800 -19.5799 -19.5794 -19.5794 -19.5793 -19.5792
   -19.5780 -19.5780 -19.5780 -19.5779 -19.5743 -19.5743 -19.5743 -19.5742
   -19.5693 -19.5693 -19.5691 -19.5691 -19.5687 -19.5687 -19.5687 -19.5687
   -19.5672 -19.5672 -19.5671 -19.5671 -19.5669 -19.5669 -19.5667 -19.5667
    -8.8619  -8.8619  -8.8323  -8.8323  -8.4273  -8.4273  -8.3462  -8.3461
    -8.2016  -8.2016  -8.1146  -8.1146  -7.8020  -7.8020  -7.7477  -7.7477
    -7.7041  -7.7041  -7.6408  -7.6408  -7.3488  -7.3488  -7.3434  -7.3434
     2.3008   2.3008   2.3247   2.3247   3.3269   3.3269   3.3631   3.3631
     3.4904   3.4904   3.4977   3.4977   3.7498   3.7498   3.8757   3.8757
     3.8870   3.8871   3.9353   3.9353   4.0213   4.0213   4.1503   4.1503
     4.1933   4.1933   4.4591   4.4592   4.6551   4.6551   4.7238   4.7238
     4.8209   4.8210   4.9766   4.9766   5.3089   5.3089   5.3623   5.3624
     5.6469   5.6469   5.6857   5.6857   6.3587   6.3587   6.3614   6.3614
     6.9707   6.9708   7.0640   7.0640   7.1328   7.1328   7.1801   7.1801
     7.7514   7.7514   7.7771   7.7771   7.8585   7.8585   7.9676   7.9676
     8.0382   8.0382   8.0679   8.0679   8.1305   8.1305   8.3463   8.3463
    11.8514  11.8514  12.0668  12.0668  12.0759  12.0760  12.3138  12.3138
    12.8149  12.8149  12.8487  12.8487  12.9826  12.9826  13.0645  13.0645
    13.4669  13.4669  13.6188  13.6188  13.8198  13.8198  13.9478  13.9478
    16.0828  16.0828  16.1317  16.1317  16.8946  16.8947  17.2963  17.2963
    17.3618  17.3618  17.5158  17.5158  17.8247  17.8247

          k =-0.5000 0.3284-0.5000 ( 60724 PWs)   bands (ev):

   -65.4773 -65.4772 -65.4772 -65.4772 -65.4769 -65.4769 -65.4768 -65.4768
   -30.0113 -30.0113 -30.0105 -30.0105 -30.0085 -30.0085 -30.0079 -30.0079
   -29.8243 -29.8243 -29.8241 -29.8241 -29.7854 -29.7854 -29.7851 -29.7850
   -29.7055 -29.7055 -29.7054 -29.7054 -29.7048 -29.7047 -29.7044 -29.7044
   -19.6135 -19.6135 -19.6135 -19.6135 -19.6134 -19.6134 -19.6134 -19.6134
   -19.6019 -19.6019 -19.6017 -19.6017 -19.6016 -19.6016 -19.6014 -19.6014
   -19.5979 -19.5979 -19.5978 -19.5978 -19.5977 -19.5976 -19.5975 -19.5974
   -19.5798 -19.5798 -19.5797 -19.5796 -19.5794 -19.5794 -19.5793 -19.5793
   -19.5774 -19.5774 -19.5774 -19.5773 -19.5752 -19.5752 -19.5751 -19.5751
   -19.5693 -19.5692 -19.5691 -19.5690 -19.5689 -19.5688 -19.5688 -19.5688
   -19.5672 -19.5671 -19.5670 -19.5670 -19.5670 -19.5669 -19.5668 -19.5668
    -8.7186  -8.7186  -8.6731  -8.6731  -8.4657  -8.4657  -8.3935  -8.3935
    -8.1297  -8.1297  -8.0521  -8.0521  -7.8178  -7.8178  -7.7459  -7.7458
    -7.7431  -7.7430  -7.6416  -7.6416  -7.5737  -7.5737  -7.5450  -7.5450
     2.8338   2.8338   2.8583   2.8583   3.3510   3.3510   3.3983   3.3983
     3.5011   3.5011   3.5032   3.5032   3.7943   3.7943   3.8616   3.8616
     3.9233   3.9233   3.9637   3.9638   4.1270   4.1271   4.1839   4.1839
     4.3935   4.3936   4.4817   4.4817   4.6923   4.6923   4.7090   4.7090
     4.7153   4.7153   4.9572   4.9572   4.9696   4.9696   5.0323   5.0323
     5.2366   5.2366   5.2582   5.2582   5.6893   5.6893   5.7315   5.7315
     7.2564   7.2564   7.3879   7.3879   7.3961   7.3961   7.5282   7.5282
     7.7536   7.7536   7.7883   7.7884   7.8719   7.8720   7.9663   7.9663
     8.0684   8.0684   8.0931   8.0931   8.1207   8.1208   8.2753   8.2753
    12.0757  12.0757  12.2116  12.2116  12.3020  12.3020  12.4971  12.4971
    12.8039  12.8039  12.8154  12.8154  13.0032  13.0032  13.0832  13.0832
    13.1747  13.1747  13.3140  13.3140  13.5360  13.5360  13.6395  13.6395
    16.7670  16.7670  16.7889  16.7889  17.1316  17.1316  17.2655  17.2655
    17.2981  17.2981  17.5636  17.5637  17.9051  17.9051

          k =-0.5000-0.4926-0.5000 ( 60632 PWs)   bands (ev):

   -65.4771 -65.4771 -65.4771 -65.4771 -65.4770 -65.4770 -65.4770 -65.4770
   -30.0103 -30.0103 -30.0093 -30.0093 -30.0091 -30.0091 -30.0091 -30.0091
   -29.8052 -29.8051 -29.8050 -29.8050 -29.8050 -29.8049 -29.8042 -29.8042
   -29.7052 -29.7052 -29.7051 -29.7051 -29.7051 -29.7051 -29.7048 -29.7048
   -19.6135 -19.6135 -19.6135 -19.6135 -19.6134 -19.6134 -19.6134 -19.6134
   -19.6018 -19.6018 -19.6016 -19.6016 -19.6016 -19.6016 -19.6015 -19.6015
   -19.5978 -19.5978 -19.5978 -19.5978 -19.5977 -19.5977 -19.5975 -19.5975
   -19.5797 -19.5796 -19.5795 -19.5795 -19.5794 -19.5794 -19.5794 -19.5794
   -19.5765 -19.5765 -19.5764 -19.5764 -19.5763 -19.5763 -19.5761 -19.5761
   -19.5691 -19.5691 -19.5691 -19.5690 -19.5690 -19.5690 -19.5690 -19.5689
   -19.5671 -19.5671 -19.5671 -19.5670 -19.5670 -19.5670 -19.5668 -19.5668
    -8.6030  -8.6030  -8.5212  -8.5211  -8.5003  -8.5002  -8.5002  -8.5002
    -8.0279  -8.0279  -7.9196  -7.9196  -7.9195  -7.9195  -7.8599  -7.8598
    -7.7240  -7.7240  -7.7239  -7.7239  -7.6421  -7.6421  -7.6210  -7.6210
     3.2989   3.2989   3.3147   3.3148   3.3148   3.3148   3.3979   3.3979
     3.4757   3.4757   3.6591   3.6591   3.6591   3.6591   3.8608   3.8609
     3.9347   3.9347   3.9620   3.9620   4.0430   4.0430   4.0430   4.0430
     4.5579   4.5579   4.5719   4.5719   4.6931   4.6931   4.6931   4.6931
     4.8581   4.8581   4.8957   4.8958   4.8958   4.8958   4.9611   4.9611
     5.0821   5.0822   5.1447   5.1447   5.1447   5.1447   5.1730   5.1730
     7.3759   7.3759   7.5164   7.5164   7.5164   7.5164   7.6889   7.6889
     7.7743   7.7743   7.7743   7.7743   7.8740   7.8740   7.9560   7.9560
     8.1045   8.1045   8.1045   8.1046   8.1394   8.1394   8.1760   8.1760
    12.3290  12.3290  12.4112  12.4112  12.4112  12.4112  12.4910  12.4910
    12.8337  12.8337  12.8337  12.8337  12.9051  12.9051  13.0380  13.0380
    13.1231  13.1231  13.2731  13.2731  13.2731  13.2731  13.3170  13.3170
    17.1014  17.1014  17.1014  17.1014  17.2566  17.2566  17.3310  17.3310
    17.7521  17.7521  17.8315  17.8315  17.8315  17.8360

     the Fermi energy is    10.9409 ev

!    total energy              =   -6260.24138929 Ry
     Harris-Foulkes estimate   =   -6260.24138929 Ry
     estimated scf accuracy    <          4.5E-09 Ry

     The total energy is the sum of the following terms:

     one-electron contribution =   -4585.84589164 Ry
     hartree contribution      =    2538.71425396 Ry
     xc contribution           =    -966.71670713 Ry
     ewald contribution        =   -3246.39301323 Ry
     smearing contrib. (-TS)   =      -0.00003124 Ry

     convergence has been achieved in  12 iterations

     Writing output data file Landau_39.save
 
     init_run     :     22.36s CPU     23.43s WALL (       1 calls)
     electrons    :    845.21s CPU    860.92s WALL (       1 calls)

     Called by init_run:
     wfcinit      :     20.54s CPU     21.47s WALL (       1 calls)
     potinit      :      0.65s CPU      0.69s WALL (       1 calls)

     Called by electrons:
     c_bands      :    738.13s CPU    752.68s WALL (      12 calls)
     sum_band     :    100.40s CPU    100.87s WALL (      12 calls)
     v_of_rho     :      1.79s CPU      1.82s WALL (      13 calls)
     mix_rho      :      4.18s CPU      4.66s WALL (      12 calls)

     Called by c_bands:
     init_us_2    :      9.72s CPU     10.24s WALL (      25 calls)
     cegterg      :    640.43s CPU    654.78s WALL (      12 calls)

     Called by sum_band:

     Called by *egterg:
     h_psi        :    504.82s CPU    506.94s WALL (      48 calls)
     g_psi        :      2.09s CPU      2.09s WALL (      35 calls)
     cdiaghg      :      6.84s CPU      6.87s WALL (      47 calls)

     Called by h_psi:
     h_psi:pot    :    501.10s CPU    503.05s WALL (      48 calls)
     h_psi:calbec :     60.01s CPU     61.29s WALL (      48 calls)
     vloc_psi     :    377.99s CPU    378.47s WALL (      48 calls)
     add_vuspsi   :     63.10s CPU     63.29s WALL (      48 calls)

     General routines
     calbec       :     60.01s CPU     61.29s WALL (      48 calls)
     fft          :      1.12s CPU      1.13s WALL (      52 calls)
     fftw         :    359.79s CPU    360.01s WALL (   15840 calls)
 
     Parallel routines
 
     PWSCF        : 14m28.67s CPU    14m50.60s WALL

 
   This run was terminated on:  14:42: 6  17Sep2019            

=------------------------------------------------------------------------------=
   JOB DONE.
=------------------------------------------------------------------------------=
