
     Program PWSCF v.6.4.1 starts on 21Nov2019 at 23:55: 9 

     This program is part of the open-source Quantum ESPRESSO suite
     for quantum simulation of materials; please cite
         "P. Giannozzi et al., J. Phys.:Condens. Matter 21 395502 (2009);
         "P. Giannozzi et al., J. Phys.:Condens. Matter 29 465901 (2017);
          URL http://www.quantum-espresso.org", 
     in publications or presentations arising from this work. More details at
     http://www.quantum-espresso.org/quote

     Parallel version (MPI), running on    40 processors

     MPI processes distributed on     7 nodes
     K-points division:     npool     =      40
     Reading input from scf.in

     Current dimensions of program PWSCF are:
     Max number of different atomic species (ntypx) = 10
     Max number of k-points (npk) =  40000
     Max angular momentum in pseudopotentials (lmaxx) =  3

     Subspace diagonalization in iterative solution of the eigenvalue problem:
     a serial algorithm will be used

     Message from routine setup:
     using ibrav=0 with symmetry is DISCOURAGED, use correct ibrav instead
 
     G-vector sticks info
     --------------------
     sticks:   dense  smooth     PW     G-vecs:    dense   smooth      PW
     Sum        7697    7697   2061               503027   503027   69771
 


     bravais-lattice index     =            0
     lattice parameter (alat)  =      14.0808  a.u.
     unit-cell volume          =    2833.1644 (a.u.)^3
     number of atoms/cell      =           32
     number of atomic types    =            2
     number of electrons       =       368.10
     number of Kohn-Sham states=          221
     kinetic-energy cutoff     =     120.0000  Ry
     charge density cutoff     =     480.0000  Ry
     convergence threshold     =      1.0E-08
     mixing beta               =       0.7000
     number of iterations used =            8  plain     mixing
     Exchange-correlation      = SLA PW NOGX NOGC ( 1  4  0  0 0 0)

     celldm(1)=  14.080788  celldm(2)=   0.000000  celldm(3)=   0.000000
     celldm(4)=   0.000000  celldm(5)=   0.000000  celldm(6)=   0.000000

     crystal axes: (cart. coord. in units of alat)
               a(1) = (   1.000000   0.000000   0.000000 )  
               a(2) = (   0.000000   1.016839   0.000000 )  
               a(3) = (   0.000000   0.000000   0.998019 )  

     reciprocal axes: (cart. coord. in units 2 pi/alat)
               b(1) = (  1.000000  0.000000  0.000000 )  
               b(2) = (  0.000000  0.983440  0.000000 )  
               b(3) = (  0.000000  0.000000  1.001985 )  


     PseudoPot. # 1 for W  read from file:
     /cluster/scratch/mnoe/QE/pps/W_ONCV_LDA-4.0.upf
     MD5 check sum: ba0307d5d4cd419d6f1d13dc49d7c13a
     Pseudo is Norm-conserving + core correction, Zval = 28.0
     Generated using ONCVPSP code by D. R. Hamann
     Using radial grid of 1380 points,  8 beta functions with: 
                l(1) =   0
                l(2) =   0
                l(3) =   1
                l(4) =   1
                l(5) =   2
                l(6) =   2
                l(7) =   3
                l(8) =   3

     PseudoPot. # 2 for O  read from file:
     /cluster/scratch/mnoe/QE/pps/O_ONCV_LDA-3.0.upf
     MD5 check sum: b55cdb4f45ae2203d24ad12cf8d61a31
     Pseudo is Norm-conserving + core correction, Zval =  6.0
     Generated using ONCVPSP code by D. R. Hamann
     Using radial grid of  926 points,  5 beta functions with: 
                l(1) =   0
                l(2) =   0
                l(3) =   1
                l(4) =   1
                l(5) =   2

     atomic species   valence    mass     pseudopotential
        W             28.00   183.84000     W ( 1.00)
        O              6.00    15.99940     O ( 1.00)

      8 Sym. Ops., with inversion, found ( 6 have fractional translation)



   Cartesian axes

     site n.     atom                  positions (alat units)
         1           W   tau(   1) = (   0.2370500   0.2962750   0.0122058  )
         2           W   tau(   2) = (   0.7629500   0.7205636   0.9858135  )
         3           W   tau(   3) = (   0.2629500   0.2121443   0.5112154  )
         4           W   tau(   4) = (   0.7370500   0.8046943   0.4868038  )
         5           W   tau(   5) = (   0.7629500   0.2962750   0.4868038  )
         6           W   tau(   6) = (   0.2370500   0.7205636   0.5112154  )
         7           W   tau(   7) = (   0.7370500   0.2121443   0.9858135  )
         8           W   tau(   8) = (   0.2629500   0.8046943   0.0122058  )
         9           O   tau(   9) = (   0.2261100   0.0267559   0.0037925  )
        10           O   tau(  10) = (   0.7738900   0.9900828   0.9942268  )
        11           O   tau(  11) = (   0.2738900   0.4816634   0.5028021  )
        12           O   tau(  12) = (   0.7261100   0.5351752   0.4952171  )
        13           O   tau(  13) = (   0.7738900   0.0267559   0.4952171  )
        14           O   tau(  14) = (   0.2261100   0.9900828   0.5028021  )
        15           O   tau(  15) = (   0.7261100   0.4816634   0.9942268  )
        16           O   tau(  16) = (   0.2738900   0.5351752   0.0037925  )
        17           O   tau(  17) = (   0.5035400   0.2292869   0.4977007  )
        18           O   tau(  18) = (   0.4964600   0.7875517   0.5003186  )
        19           O   tau(  19) = (   0.9964600   0.2791324   0.9967103  )
        20           O   tau(  20) = (   0.0035400   0.7377062   0.0013090  )
        21           O   tau(  21) = (   0.4964600   0.2292869   0.0013090  )
        22           O   tau(  22) = (   0.5035400   0.7875517   0.9967103  )
        23           O   tau(  23) = (   0.0035400   0.2791324   0.5003186  )
        24           O   tau(  24) = (   0.9964600   0.7377062   0.4977007  )
        25           O   tau(  25) = (   0.7486885   0.2487696   0.7431550  )
        26           O   tau(  26) = (   0.2513116   0.7680690   0.2548642  )
        27           O   tau(  27) = (   0.7513116   0.2596497   0.2441454  )
        28           O   tau(  28) = (   0.2486885   0.7571888   0.7538738  )
        29           O   tau(  29) = (   0.2513116   0.2487696   0.7538738  )
        30           O   tau(  30) = (   0.7486885   0.7680690   0.2441454  )
        31           O   tau(  31) = (   0.2486885   0.2596497   0.2548642  )
        32           O   tau(  32) = (   0.7513116   0.7571888   0.7431550  )

     number of k points=    64  gaussian smearing, width (Ry)=  0.0007
                       cart. coord. in units 2pi/alat
        k(    1) = (   0.0000000   0.0000000   0.0000000), wk =   0.0092593
        k(    2) = (   0.0000000   0.0000000   0.1669974), wk =   0.0185185
        k(    3) = (   0.0000000   0.0000000   0.3339949), wk =   0.0185185
        k(    4) = (   0.0000000   0.0000000  -0.5009923), wk =   0.0092593
        k(    5) = (   0.0000000   0.1639067   0.0000000), wk =   0.0185185
        k(    6) = (   0.0000000   0.1639067   0.1669974), wk =   0.0370370
        k(    7) = (   0.0000000   0.1639067   0.3339949), wk =   0.0370370
        k(    8) = (   0.0000000   0.1639067  -0.5009923), wk =   0.0185185
        k(    9) = (   0.0000000   0.3278134   0.0000000), wk =   0.0185185
        k(   10) = (   0.0000000   0.3278134   0.1669974), wk =   0.0370370
        k(   11) = (   0.0000000   0.3278134   0.3339949), wk =   0.0370370
        k(   12) = (   0.0000000   0.3278134  -0.5009923), wk =   0.0185185
        k(   13) = (   0.0000000  -0.4917201   0.0000000), wk =   0.0092593
        k(   14) = (   0.0000000  -0.4917201   0.1669974), wk =   0.0185185
        k(   15) = (   0.0000000  -0.4917201   0.3339949), wk =   0.0185185
        k(   16) = (   0.0000000  -0.4917201  -0.5009923), wk =   0.0092593
        k(   17) = (   0.1666667   0.0000000   0.0000000), wk =   0.0185185
        k(   18) = (   0.1666667   0.0000000   0.1669974), wk =   0.0370370
        k(   19) = (   0.1666667   0.0000000   0.3339949), wk =   0.0370370
        k(   20) = (   0.1666667   0.0000000  -0.5009923), wk =   0.0185185
        k(   21) = (   0.1666667   0.1639067   0.0000000), wk =   0.0370370
        k(   22) = (   0.1666667   0.1639067   0.1669974), wk =   0.0740741
        k(   23) = (   0.1666667   0.1639067   0.3339949), wk =   0.0740741
        k(   24) = (   0.1666667   0.1639067  -0.5009923), wk =   0.0370370
        k(   25) = (   0.1666667   0.3278134   0.0000000), wk =   0.0370370
        k(   26) = (   0.1666667   0.3278134   0.1669974), wk =   0.0740741
        k(   27) = (   0.1666667   0.3278134   0.3339949), wk =   0.0740741
        k(   28) = (   0.1666667   0.3278134  -0.5009923), wk =   0.0370370
        k(   29) = (   0.1666667  -0.4917201   0.0000000), wk =   0.0185185
        k(   30) = (   0.1666667  -0.4917201   0.1669974), wk =   0.0370370
        k(   31) = (   0.1666667  -0.4917201   0.3339949), wk =   0.0370370
        k(   32) = (   0.1666667  -0.4917201  -0.5009923), wk =   0.0185185
        k(   33) = (   0.3333333   0.0000000   0.0000000), wk =   0.0185185
        k(   34) = (   0.3333333   0.0000000   0.1669974), wk =   0.0370370
        k(   35) = (   0.3333333   0.0000000   0.3339949), wk =   0.0370370
        k(   36) = (   0.3333333   0.0000000  -0.5009923), wk =   0.0185185
        k(   37) = (   0.3333333   0.1639067   0.0000000), wk =   0.0370370
        k(   38) = (   0.3333333   0.1639067   0.1669974), wk =   0.0740741
        k(   39) = (   0.3333333   0.1639067   0.3339949), wk =   0.0740741
        k(   40) = (   0.3333333   0.1639067  -0.5009923), wk =   0.0370370
        k(   41) = (   0.3333333   0.3278134   0.0000000), wk =   0.0370370
        k(   42) = (   0.3333333   0.3278134   0.1669974), wk =   0.0740741
        k(   43) = (   0.3333333   0.3278134   0.3339949), wk =   0.0740741
        k(   44) = (   0.3333333   0.3278134  -0.5009923), wk =   0.0370370
        k(   45) = (   0.3333333  -0.4917201   0.0000000), wk =   0.0185185
        k(   46) = (   0.3333333  -0.4917201   0.1669974), wk =   0.0370370
        k(   47) = (   0.3333333  -0.4917201   0.3339949), wk =   0.0370370
        k(   48) = (   0.3333333  -0.4917201  -0.5009923), wk =   0.0185185
        k(   49) = (  -0.5000000   0.0000000   0.0000000), wk =   0.0092593
        k(   50) = (  -0.5000000   0.0000000   0.1669974), wk =   0.0185185
        k(   51) = (  -0.5000000   0.0000000   0.3339949), wk =   0.0185185
        k(   52) = (  -0.5000000   0.0000000  -0.5009923), wk =   0.0092593
        k(   53) = (  -0.5000000   0.1639067   0.0000000), wk =   0.0185185
        k(   54) = (  -0.5000000   0.1639067   0.1669974), wk =   0.0370370
        k(   55) = (  -0.5000000   0.1639067   0.3339949), wk =   0.0370370
        k(   56) = (  -0.5000000   0.1639067  -0.5009923), wk =   0.0185185
        k(   57) = (  -0.5000000   0.3278134   0.0000000), wk =   0.0185185
        k(   58) = (  -0.5000000   0.3278134   0.1669974), wk =   0.0370370
        k(   59) = (  -0.5000000   0.3278134   0.3339949), wk =   0.0370370
        k(   60) = (  -0.5000000   0.3278134  -0.5009923), wk =   0.0185185
        k(   61) = (  -0.5000000  -0.4917201   0.0000000), wk =   0.0092593
        k(   62) = (  -0.5000000  -0.4917201   0.1669974), wk =   0.0185185
        k(   63) = (  -0.5000000  -0.4917201   0.3339949), wk =   0.0185185
        k(   64) = (  -0.5000000  -0.4917201  -0.5009923), wk =   0.0092593

     Dense  grid:   503027 G-vectors     FFT dimensions: ( 100, 100, 100)

     Estimated max dynamical RAM per process >       3.15 GB

     Estimated total dynamical RAM >     126.08 GB

     Initial potential from superposition of free atoms

     starting charge  367.99656, renormalised to  368.10000
     Starting wfcs are  232 randomized atomic wfcs

     total cpu time spent up to now is       43.2 secs

     Self-consistent Calculation

     iteration #  1     ecut=   120.00 Ry     beta= 0.70
     Davidson diagonalization with overlap
     ethr =  1.00E-02,  avg # of iterations =  5.1

     total cpu time spent up to now is      192.6 secs

     total energy              =   -6253.66175943 Ry
     Harris-Foulkes estimate   =   -6264.50772436 Ry
     estimated scf accuracy    <      13.71303236 Ry

     iteration #  2     ecut=   120.00 Ry     beta= 0.70
     Davidson diagonalization with overlap
     ethr =  3.73E-03,  avg # of iterations =  3.5

     total cpu time spent up to now is      334.2 secs

     total energy              =   -6250.40633430 Ry
     Harris-Foulkes estimate   =   -6270.98228471 Ry
     estimated scf accuracy    <      55.48179463 Ry

     iteration #  3     ecut=   120.00 Ry     beta= 0.70
     Davidson diagonalization with overlap
     ethr =  3.73E-03,  avg # of iterations =  3.5

     total cpu time spent up to now is      471.5 secs

     total energy              =   -6260.94185046 Ry
     Harris-Foulkes estimate   =   -6261.22284952 Ry
     estimated scf accuracy    <       0.93519961 Ry

     iteration #  4     ecut=   120.00 Ry     beta= 0.70
     Davidson diagonalization with overlap
     ethr =  2.54E-04,  avg # of iterations =  3.1

     total cpu time spent up to now is      580.1 secs

     total energy              =   -6260.93129117 Ry
     Harris-Foulkes estimate   =   -6261.00758201 Ry
     estimated scf accuracy    <       0.22783215 Ry

     iteration #  5     ecut=   120.00 Ry     beta= 0.70
     Davidson diagonalization with overlap
     ethr =  6.19E-05,  avg # of iterations =  4.9

     total cpu time spent up to now is      701.8 secs

     total energy              =   -6260.94033442 Ry
     Harris-Foulkes estimate   =   -6260.96785300 Ry
     estimated scf accuracy    <       0.06197118 Ry

     iteration #  6     ecut=   120.00 Ry     beta= 0.70
     Davidson diagonalization with overlap
     ethr =  1.68E-05,  avg # of iterations =  6.0

     total cpu time spent up to now is      835.9 secs

     total energy              =   -6260.95350074 Ry
     Harris-Foulkes estimate   =   -6260.95625015 Ry
     estimated scf accuracy    <       0.00740638 Ry

     iteration #  7     ecut=   120.00 Ry     beta= 0.70
     Davidson diagonalization with overlap
     ethr =  2.01E-06,  avg # of iterations =  6.0

     total cpu time spent up to now is      955.8 secs

     total energy              =   -6260.95440471 Ry
     Harris-Foulkes estimate   =   -6260.95452344 Ry
     estimated scf accuracy    <       0.00022573 Ry

     iteration #  8     ecut=   120.00 Ry     beta= 0.70
     Davidson diagonalization with overlap
     ethr =  6.13E-08,  avg # of iterations =  3.1

     total cpu time spent up to now is     1096.9 secs

     total energy              =   -6260.95448453 Ry
     Harris-Foulkes estimate   =   -6260.95449765 Ry
     estimated scf accuracy    <       0.00005165 Ry

     iteration #  9     ecut=   120.00 Ry     beta= 0.70
     Davidson diagonalization with overlap
     ethr =  1.40E-08,  avg # of iterations =  2.2

     total cpu time spent up to now is     1210.1 secs

     total energy              =   -6260.95448591 Ry
     Harris-Foulkes estimate   =   -6260.95449303 Ry
     estimated scf accuracy    <       0.00003233 Ry

     iteration # 10     ecut=   120.00 Ry     beta= 0.70
     Davidson diagonalization with overlap
     ethr =  8.78E-09,  avg # of iterations =  1.6

     total cpu time spent up to now is     1314.0 secs

     total energy              =   -6260.95448331 Ry
     Harris-Foulkes estimate   =   -6260.95448785 Ry
     estimated scf accuracy    <       0.00001069 Ry

     iteration # 11     ecut=   120.00 Ry     beta= 0.70
     Davidson diagonalization with overlap
     ethr =  2.90E-09,  avg # of iterations =  2.8

     total cpu time spent up to now is     1424.3 secs

     total energy              =   -6260.95448551 Ry
     Harris-Foulkes estimate   =   -6260.95448557 Ry
     estimated scf accuracy    <       0.00000013 Ry

     iteration # 12     ecut=   120.00 Ry     beta= 0.70
     Davidson diagonalization with overlap
     ethr =  3.43E-11,  avg # of iterations =  2.1

     total cpu time spent up to now is     1562.9 secs

     total energy              =   -6260.95448555 Ry
     Harris-Foulkes estimate   =   -6260.95448556 Ry
     estimated scf accuracy    <       0.00000003 Ry

     iteration # 13     ecut=   120.00 Ry     beta= 0.70
     Davidson diagonalization with overlap
     ethr =  8.52E-12,  avg # of iterations =  2.5

     total cpu time spent up to now is     1690.7 secs

     End of self-consistent calculation

          k = 0.0000 0.0000 0.0000 ( 62873 PWs)   bands (ev):

   -66.2976 -66.2970 -66.2969 -66.2969 -66.2964 -66.2963 -66.2963 -66.2957
   -30.6755 -30.6706 -30.6691 -30.6633 -30.6488 -30.6462 -30.6452 -30.6442
   -30.6359 -30.6329 -30.6290 -30.6214 -30.5943 -30.5911 -30.5862 -30.5834
   -30.5724 -30.5688 -30.5597 -30.5542 -30.5537 -30.5480 -30.5467 -30.5412
   -20.4674 -20.4673 -20.4669 -20.4668 -20.4661 -20.4660 -20.4656 -20.4656
   -20.4561 -20.4560 -20.4554 -20.4553 -20.4543 -20.4542 -20.4537 -20.4536
   -20.4415 -20.4415 -20.4406 -20.4405 -20.4399 -20.4398 -20.4389 -20.4388
   -20.4366 -20.4363 -20.4360 -20.4357 -20.4330 -20.4325 -20.4323 -20.4317
   -20.4257 -20.4257 -20.4257 -20.4256 -20.4225 -20.4222 -20.4218 -20.4216
   -20.4199 -20.4196 -20.4192 -20.4190 -20.4187 -20.4187 -20.4186 -20.4185
   -20.4110 -20.4110 -20.4108 -20.4108 -20.4099 -20.4098 -20.4096 -20.4095
   -10.1088  -9.7273  -9.7234  -9.7059  -9.3530  -9.3301  -9.2884  -9.0543
    -9.0220  -8.9406  -8.9389  -8.9388  -8.0258  -7.9465  -7.9449  -7.9029
    -7.8997  -7.8815  -7.8733  -7.8665  -7.7954  -7.7629  -7.7450  -7.7209
     1.0946   1.0970   1.1341   1.1559   1.1824   1.1907   1.2775   1.3050
     1.3172   1.3778   1.4038   1.5161   2.3309   2.3542   2.3901   2.4234
     2.4303   2.5433   3.9501   4.0358   4.1289   4.2461   4.4830   4.5220
     4.5487   4.5813   4.6082   4.7038   4.7491   4.7663   5.0945   5.4271
     5.4523   5.4702   5.4841   5.5427   5.5608   5.6515   5.7415   5.7434
     5.7654   5.7926   5.8354   5.8881   5.8922   5.8948   6.0336   6.0590
     6.0899   6.3062   6.3316   6.3503   6.3528   6.5923   6.6169   6.6648
     6.6676   6.6731   6.9508   6.9582   6.9854   6.9933   7.0145   7.0154
     7.0593   7.0637   8.0646   8.1071   8.2185   8.2388   8.2728   8.2990
     9.2165   9.2315   9.5804   9.6589   9.7211   9.8176  12.3642  12.4367
    12.4632  12.5229  12.5717  12.5996  12.6092  12.6249  12.6402  12.7929
    13.0608  13.1094  13.1696  13.3237  13.7177  13.8313  13.9082  13.9524
    14.0149  14.0392  14.3183  14.5911  14.6209  14.6569  15.2326  15.3734
    15.6366  16.2789  16.7867  16.8749  17.0050

          k = 0.0000 0.0000 0.1670 ( 62855 PWs)   bands (ev):

   -66.2975 -66.2970 -66.2969 -66.2969 -66.2964 -66.2964 -66.2963 -66.2958
   -30.6752 -30.6709 -30.6685 -30.6636 -30.6460 -30.6430 -30.6414 -30.6391
   -30.6363 -30.6298 -30.6295 -30.6190 -30.5940 -30.5915 -30.5873 -30.5829
   -30.5770 -30.5734 -30.5646 -30.5586 -30.5534 -30.5477 -30.5475 -30.5421
   -20.4673 -20.4673 -20.4668 -20.4668 -20.4662 -20.4661 -20.4657 -20.4657
   -20.4560 -20.4559 -20.4555 -20.4554 -20.4542 -20.4541 -20.4538 -20.4536
   -20.4414 -20.4414 -20.4404 -20.4404 -20.4400 -20.4399 -20.4390 -20.4389
   -20.4366 -20.4364 -20.4360 -20.4357 -20.4329 -20.4325 -20.4323 -20.4317
   -20.4258 -20.4257 -20.4257 -20.4257 -20.4224 -20.4221 -20.4216 -20.4214
   -20.4202 -20.4199 -20.4194 -20.4192 -20.4187 -20.4186 -20.4185 -20.4184
   -20.4109 -20.4109 -20.4107 -20.4107 -20.4100 -20.4099 -20.4097 -20.4096
   -10.0687  -9.7414  -9.6697  -9.6561  -9.3393  -9.2991  -9.2706  -9.0221
    -8.9879  -8.9407  -8.9261  -8.9104  -8.0637  -8.0302  -7.9932  -7.9834
    -7.9528  -7.9500  -7.9204  -7.8846  -7.8020  -7.7664  -7.7563  -7.7242
     1.1279   1.1761   1.1967   1.2174   1.2363   1.2755   1.2980   1.3728
     1.4350   1.4907   1.5611   1.6488   2.3343   2.3876   2.4380   2.5078
     2.5099   2.6229   3.9242   3.9978   4.1175   4.1958   4.2586   4.2918
     4.4406   4.4823   4.5919   4.6070   4.6159   4.7203   5.1016   5.2856
     5.3987   5.4079   5.4740   5.4869   5.5411   5.5567   5.6235   5.6313
     5.7284   5.7365   5.7816   5.8886   5.9161   5.9461   6.0774   6.0852
     6.1145   6.3248   6.4447   6.5036   6.5174   6.5500   6.6151   6.6698
     6.7091   6.7626   6.8068   6.8207   6.8245   6.8720   6.8794   6.9434
     7.0130   7.0166   8.0683   8.1015   8.1486   8.1723   8.2115   8.2388
     9.5457   9.5612   9.6733   9.8136   9.9092  10.0119  12.4039  12.4178
    12.4337  12.4905  12.5300  12.5722  12.5968  12.6000  12.6538  12.7960
    12.8482  12.8954  13.2268  13.3212  13.6469  13.6961  13.8132  13.8932
    14.2036  14.2746  14.4917  14.6190  14.6398  14.7614  15.3544  15.6038
    15.6508  16.4643  16.6265  16.9355  17.0935

          k = 0.0000 0.0000 0.3340 ( 62883 PWs)   bands (ev):

   -66.2974 -66.2971 -66.2968 -66.2968 -66.2965 -66.2965 -66.2962 -66.2959
   -30.6742 -30.6718 -30.6672 -30.6645 -30.6415 -30.6383 -30.6374 -30.6311
   -30.6278 -30.6253 -30.6191 -30.6102 -30.5934 -30.5932 -30.5919 -30.5902
   -30.5856 -30.5812 -30.5777 -30.5690 -30.5524 -30.5493 -30.5468 -30.5438
   -20.4671 -20.4670 -20.4666 -20.4665 -20.4664 -20.4664 -20.4660 -20.4659
   -20.4559 -20.4558 -20.4556 -20.4555 -20.4541 -20.4540 -20.4538 -20.4537
   -20.4411 -20.4411 -20.4403 -20.4402 -20.4401 -20.4401 -20.4393 -20.4392
   -20.4365 -20.4364 -20.4359 -20.4358 -20.4328 -20.4326 -20.4322 -20.4319
   -20.4258 -20.4258 -20.4257 -20.4257 -20.4220 -20.4218 -20.4211 -20.4209
   -20.4208 -20.4205 -20.4199 -20.4196 -20.4186 -20.4185 -20.4184 -20.4183
   -20.4107 -20.4106 -20.4105 -20.4105 -20.4102 -20.4100 -20.4100 -20.4099
    -9.9707  -9.7856  -9.5405  -9.5404  -9.3700  -9.3358  -9.0364  -8.9726
    -8.9463  -8.8650  -8.8317  -8.8011  -8.3207  -8.2962  -8.2872  -8.2627
    -7.9797  -7.9593  -7.9159  -7.8933  -7.7991  -7.7758  -7.7547  -7.7330
     1.1355   1.1617   1.2518   1.2520   1.2709   1.2826   1.3215   1.3618
     2.0836   2.1105   2.1889   2.2191   2.3410   2.3956   2.6586   2.7052
     2.7590   2.8527   3.6319   3.6844   3.7852   3.9169   3.9296   3.9748
     4.1316   4.1362   4.4669   4.6091   4.6248   4.6646   4.8304   4.9547
     5.0761   5.1104   5.2446   5.2963   5.3411   5.4917   5.6405   5.6447
     5.7162   5.7320   5.8333   5.9139   5.9657   6.0352   6.0830   6.1193
     6.1609   6.1883   6.3015   6.3359   6.3789   6.4537   6.4614   6.5943
     6.6610   6.6786   6.7667   6.7726   7.0119   7.0172   7.0998   7.1065
     7.2039   7.2353   7.9337   7.9619   8.0194   8.0474   8.0766   8.0923
     9.7087   9.7826  10.2820  10.2856  10.6509  10.7000  11.8543  11.8732
    12.2834  12.3220  12.5982  12.5989  12.6449  12.6625  12.6973  12.7071
    12.7334  12.8417  13.2498  13.3136  13.3473  13.3638  13.4759  13.5320
    14.5538  14.6126  14.8164  14.8779  15.0472  15.1868  15.2896  15.4916
    16.0980  16.6787  16.9050  17.0784  17.4232

          k = 0.0000 0.0000-0.5010 ( 62806 PWs)   bands (ev):

   -66.2973 -66.2973 -66.2967 -66.2967 -66.2966 -66.2966 -66.2960 -66.2960
   -30.6730 -30.6730 -30.6658 -30.6658 -30.6391 -30.6391 -30.6339 -30.6339
   -30.6090 -30.6090 -30.6068 -30.6068 -30.6037 -30.6037 -30.5948 -30.5948
   -30.5918 -30.5918 -30.5774 -30.5774 -30.5510 -30.5510 -30.5455 -30.5455
   -20.4667 -20.4667 -20.4667 -20.4667 -20.4663 -20.4663 -20.4662 -20.4662
   -20.4557 -20.4557 -20.4556 -20.4556 -20.4540 -20.4540 -20.4539 -20.4539
   -20.4407 -20.4406 -20.4406 -20.4406 -20.4397 -20.4397 -20.4397 -20.4397
   -20.4365 -20.4365 -20.4358 -20.4358 -20.4327 -20.4327 -20.4320 -20.4320
   -20.4258 -20.4258 -20.4258 -20.4258 -20.4215 -20.4215 -20.4212 -20.4212
   -20.4205 -20.4205 -20.4203 -20.4203 -20.4185 -20.4185 -20.4184 -20.4184
   -20.4105 -20.4105 -20.4103 -20.4103 -20.4103 -20.4103 -20.4102 -20.4102
    -9.8644  -9.8644  -9.4335  -9.4335  -9.4133  -9.4133  -8.9554  -8.9554
    -8.6919  -8.6919  -8.6198  -8.6197  -8.6006  -8.6005  -8.5755  -8.5755
    -7.9712  -7.9712  -7.9049  -7.9049  -7.7881  -7.7881  -7.7446  -7.7446
     1.1468   1.1468   1.2647   1.2647   1.2665   1.2665   1.3477   1.3477
     2.3463   2.3463   2.7406   2.7406   2.8012   2.8012   2.9608   2.9608
     3.0255   3.0255   3.1473   3.1473   3.3988   3.3989   3.8072   3.8073
     3.8189   3.8189   4.1253   4.1253   4.6143   4.6143   5.0219   5.0219
     5.0778   5.0779   5.2048   5.2049   5.2328   5.2328   5.6863   5.6863
     5.7793   5.7793   5.9255   5.9255   5.9722   5.9722   6.0110   6.0110
     6.1407   6.1407   6.2585   6.2585   6.3058   6.3058   6.4510   6.4510
     6.6680   6.6680   6.7191   6.7191   7.0151   7.0151   7.5710   7.5710
     7.5974   7.5975   7.6795   7.6795   7.7051   7.7052   8.0840   8.0840
     9.7496   9.7496  11.1003  11.1003  11.1140  11.1140  11.5033  11.5033
    11.5310  11.5310  12.5988  12.5988  12.7320  12.7320  12.9515  12.9515
    12.9786  12.9786  13.0633  13.0633  13.1188  13.1188  13.3006  13.3006
    14.5975  14.5975  15.1505  15.1505  15.2526  15.2526  15.5355  15.5355
    16.1116  16.1116  17.4539  17.4539  17.7088

          k = 0.0000 0.1639 0.0000 ( 62922 PWs)   bands (ev):

   -66.2975 -66.2970 -66.2969 -66.2969 -66.2964 -66.2964 -66.2963 -66.2958
   -30.6748 -30.6698 -30.6694 -30.6637 -30.6478 -30.6461 -30.6439 -30.6436
   -30.6314 -30.6303 -30.6246 -30.6180 -30.5954 -30.5920 -30.5857 -30.5826
   -30.5739 -30.5701 -30.5598 -30.5587 -30.5542 -30.5523 -30.5500 -30.5441
   -20.4674 -20.4673 -20.4669 -20.4668 -20.4661 -20.4660 -20.4656 -20.4656
   -20.4561 -20.4560 -20.4554 -20.4553 -20.4543 -20.4542 -20.4537 -20.4536
   -20.4415 -20.4415 -20.4406 -20.4405 -20.4399 -20.4398 -20.4389 -20.4388
   -20.4366 -20.4363 -20.4360 -20.4357 -20.4329 -20.4324 -20.4323 -20.4318
   -20.4253 -20.4253 -20.4252 -20.4252 -20.4225 -20.4222 -20.4219 -20.4216
   -20.4200 -20.4197 -20.4193 -20.4192 -20.4192 -20.4190 -20.4189 -20.4189
   -20.4110 -20.4110 -20.4108 -20.4108 -20.4099 -20.4098 -20.4097 -20.4096
   -10.0688  -9.7221  -9.6807  -9.6760  -9.3636  -9.3417  -9.2052  -9.0521
    -9.0242  -8.9023  -8.9000  -8.8931  -8.0593  -7.9712  -7.9460  -7.9281
    -7.9195  -7.9024  -7.8841  -7.8646  -7.8552  -7.8526  -7.8438  -7.8081
     1.0941   1.0965   1.1835   1.1911   1.2439   1.2766   1.2861   1.4027
     1.5047   1.5423   1.5800   1.6800   2.4014   2.4024   2.4630   2.4655
     2.5093   2.5411   3.7761   3.8657   3.8837   3.9891   4.4828   4.5169
     4.5345   4.5480   4.5717   4.7410   4.8162   4.8263   4.9802   5.1650
     5.2481   5.4869   5.5277   5.5307   5.5431   5.5528   5.5621   5.5754
     5.7575   5.8499   5.8514   5.9002   5.9331   5.9401   6.0764   6.1000
     6.1052   6.2701   6.2850   6.3771   6.4763   6.5758   6.6189   6.6332
     6.7023   6.7255   6.8637   6.8851   6.9495   6.9498   6.9813   7.0035
     7.0116   7.0271   8.0181   8.0550   8.1824   8.2119   8.2199   8.2372
     9.2226   9.2422   9.7985   9.9149   9.9168  10.0481  12.2255  12.2863
    12.4203  12.4235  12.4404  12.4863  12.6246  12.6266  12.6476  12.8263
    13.0803  13.1383  13.2463  13.3900  13.7485  13.8114  13.8550  13.9402
    14.0477  14.2253  14.2941  14.5695  14.6714  14.8517  15.2095  15.3440
    16.0308  16.0448  16.9884  17.0872  17.1995

          k = 0.0000 0.1639 0.1670 ( 62902 PWs)   bands (ev):

   -66.2975 -66.2970 -66.2970 -66.2969 -66.2964 -66.2963 -66.2963 -66.2958
   -30.6745 -30.6702 -30.6688 -30.6640 -30.6445 -30.6413 -30.6407 -30.6388
   -30.6318 -30.6281 -30.6251 -30.6160 -30.5951 -30.5924 -30.5869 -30.5821
   -30.5780 -30.5745 -30.5647 -30.5585 -30.5583 -30.5519 -30.5512 -30.5453
   -20.4673 -20.4673 -20.4668 -20.4668 -20.4662 -20.4661 -20.4657 -20.4657
   -20.4560 -20.4560 -20.4555 -20.4554 -20.4542 -20.4541 -20.4538 -20.4537
   -20.4414 -20.4414 -20.4404 -20.4404 -20.4400 -20.4399 -20.4390 -20.4389
   -20.4366 -20.4363 -20.4360 -20.4358 -20.4329 -20.4324 -20.4323 -20.4318
   -20.4253 -20.4253 -20.4253 -20.4252 -20.4224 -20.4221 -20.4217 -20.4214
   -20.4203 -20.4200 -20.4194 -20.4192 -20.4191 -20.4191 -20.4188 -20.4188
   -20.4109 -20.4109 -20.4107 -20.4107 -20.4100 -20.4099 -20.4098 -20.4097
   -10.0274  -9.6934  -9.6724  -9.6196  -9.3513  -9.2812  -9.2160  -9.0191
    -8.9901  -8.9030  -8.8824  -8.8752  -8.0942  -8.0281  -8.0149  -7.9814
    -7.9719  -7.9552  -7.9228  -7.8872  -7.8858  -7.8651  -7.8512  -7.8381
     1.1792   1.1956   1.2400   1.2745   1.3692   1.3799   1.4352   1.5182
     1.5603   1.5720   1.5943   1.7434   2.4075   2.4601   2.4845   2.5533
     2.5870   2.6180   3.7734   3.8521   3.8996   3.9644   4.2387   4.2870
     4.4849   4.5376   4.5476   4.5868   4.5984   4.7475   4.9941   5.1270
     5.2131   5.2938   5.4092   5.4305   5.4560   5.4925   5.4975   5.5668
     5.6600   5.8280   5.8289   5.8917   5.8970   5.9948   6.0371   6.0709
     6.1777   6.4155   6.4283   6.4694   6.4778   6.5794   6.6043   6.7014
     6.7128   6.7693   6.7975   6.8334   6.8379   6.8829   6.8942   6.8974
     6.9417   6.9846   8.0225   8.0487   8.1317   8.1511   8.1593   8.1722
     9.5490   9.5662   9.9283  10.0425  10.0779  10.1711  12.2969  12.3579
    12.3904  12.4210  12.4254  12.4444  12.4946  12.5384  12.6929  12.8260
    12.8825  12.9260  13.2894  13.3902  13.6497  13.6829  13.7296  13.7876
    14.3286  14.4830  14.4849  14.6191  14.6924  14.9538  15.3231  15.6282
    16.0113  16.1991  16.8067  17.1006  17.1754

          k = 0.0000 0.1639 0.3340 ( 62893 PWs)   bands (ev):

   -66.2974 -66.2971 -66.2969 -66.2967 -66.2965 -66.2964 -66.2962 -66.2959
   -30.6735 -30.6710 -30.6676 -30.6649 -30.6381 -30.6353 -30.6328 -30.6278
   -30.6269 -30.6251 -30.6188 -30.6085 -30.5944 -30.5939 -30.5918 -30.5905
   -30.5866 -30.5804 -30.5775 -30.5687 -30.5573 -30.5536 -30.5509 -30.5475
   -20.4671 -20.4670 -20.4666 -20.4665 -20.4664 -20.4664 -20.4659 -20.4659
   -20.4559 -20.4558 -20.4556 -20.4555 -20.4541 -20.4540 -20.4538 -20.4537
   -20.4411 -20.4410 -20.4403 -20.4402 -20.4401 -20.4401 -20.4393 -20.4393
   -20.4365 -20.4364 -20.4360 -20.4358 -20.4328 -20.4325 -20.4322 -20.4319
   -20.4254 -20.4254 -20.4253 -20.4253 -20.4220 -20.4218 -20.4212 -20.4209
   -20.4209 -20.4206 -20.4199 -20.4196 -20.4190 -20.4189 -20.4188 -20.4187
   -20.4107 -20.4106 -20.4105 -20.4105 -20.4102 -20.4100 -20.4100 -20.4099
    -9.9263  -9.7377  -9.5564  -9.4784  -9.3829  -9.2542  -9.0473  -8.9511
    -8.9094  -8.8677  -8.8095  -8.7781  -8.3348  -8.2965  -8.2930  -8.2592
    -7.9969  -7.9803  -7.9187  -7.8959  -7.8855  -7.8740  -7.8581  -7.8492
     1.2142   1.2327   1.2505   1.2698   1.4661   1.4841   1.5513   1.5675
     2.0850   2.1202   2.1877   2.2336   2.4149   2.4642   2.7071   2.7772
     2.7973   2.8463   3.6150   3.6278   3.7773   3.8106   3.9061   3.9523
     3.9965   4.0861   4.4630   4.5180   4.6344   4.6511   4.7850   4.9180
     4.9259   4.9661   5.0158   5.0509   5.3455   5.3569   5.3850   5.6100
     5.7414   5.7460   5.8716   5.8812   5.8866   5.8975   5.9378   6.0094
     6.2684   6.3484   6.3617   6.4355   6.4601   6.5550   6.5622   6.5953
     6.6090   6.6596   6.8316   6.8680   6.8937   6.9094   7.1006   7.1393
     7.2081   7.2425   7.9404   7.9511   7.9650   7.9881   8.0308   8.0516
     9.9478  10.0145  10.2829  10.2936  10.7503  10.8016  11.8578  11.8723
    12.3169  12.3427  12.4403  12.4473  12.5300  12.5762  12.6640  12.6857
    12.7518  12.8346  13.3058  13.3491  13.3535  13.3678  13.3875  13.4139
    14.5934  14.6382  14.8663  15.1281  15.1767  15.2603  15.3245  15.8945
    16.2562  16.6487  16.7170  17.0031  17.4056

          k = 0.0000 0.1639-0.5010 ( 62886 PWs)   bands (ev):

   -66.2972 -66.2972 -66.2967 -66.2967 -66.2966 -66.2966 -66.2961 -66.2961
   -30.6722 -30.6722 -30.6662 -30.6662 -30.6348 -30.6348 -30.6301 -30.6301
   -30.6091 -30.6091 -30.6067 -30.6067 -30.6038 -30.6038 -30.5942 -30.5942
   -30.5930 -30.5930 -30.5767 -30.5767 -30.5557 -30.5557 -30.5495 -30.5495
   -20.4667 -20.4667 -20.4667 -20.4667 -20.4663 -20.4663 -20.4662 -20.4662
   -20.4557 -20.4557 -20.4556 -20.4556 -20.4540 -20.4540 -20.4539 -20.4539
   -20.4407 -20.4406 -20.4406 -20.4406 -20.4397 -20.4397 -20.4397 -20.4397
   -20.4364 -20.4364 -20.4359 -20.4359 -20.4327 -20.4327 -20.4320 -20.4320
   -20.4254 -20.4254 -20.4253 -20.4253 -20.4215 -20.4215 -20.4213 -20.4213
   -20.4205 -20.4205 -20.4203 -20.4203 -20.4189 -20.4189 -20.4188 -20.4188
   -20.4105 -20.4105 -20.4103 -20.4103 -20.4103 -20.4103 -20.4102 -20.4102
    -9.8174  -9.8174  -9.4480  -9.4480  -9.3378  -9.3378  -8.9214  -8.9214
    -8.7038  -8.7037  -8.6245  -8.6245  -8.5933  -8.5932  -8.5661  -8.5661
    -7.9917  -7.9917  -7.9076  -7.9076  -7.8767  -7.8767  -7.8584  -7.8584
     1.2245   1.2245   1.2635   1.2635   1.4819   1.4819   1.5611   1.5611
     2.4180   2.4180   2.7695   2.7695   2.8343   2.8344   2.9502   2.9503
     3.0176   3.0176   3.1657   3.1657   3.3842   3.3842   3.8443   3.8443
     3.8703   3.8703   3.9372   3.9372   4.5125   4.5125   4.8469   4.8469
     4.9101   4.9101   5.1443   5.1444   5.1464   5.1464   5.4997   5.4997
     5.7145   5.7145   5.8291   5.8291   5.9139   5.9139   5.9625   5.9625
     6.2004   6.2004   6.4084   6.4084   6.4526   6.4526   6.5908   6.5908
     6.5930   6.5930   6.8100   6.8100   6.8940   6.8940   7.5848   7.5848
     7.5913   7.5913   7.6581   7.6582   7.6760   7.6760   8.0388   8.0388
     9.9863   9.9863  11.1006  11.1006  11.1149  11.1149  11.5643  11.5643
    11.5903  11.5903  12.4334  12.4334  12.7619  12.7619  12.9094  12.9094
    12.9498  12.9498  12.9551  12.9551  13.0255  13.0255  13.3671  13.3671
    14.6276  14.6276  15.1270  15.1270  15.6264  15.6264  15.6969  15.6969
    16.2185  16.2185  17.2370  17.2370  17.7266

          k = 0.0000 0.3278 0.0000 ( 62940 PWs)   bands (ev):

   -66.2974 -66.2971 -66.2968 -66.2968 -66.2965 -66.2965 -66.2962 -66.2959
   -30.6733 -30.6703 -30.6681 -30.6647 -30.6463 -30.6458 -30.6433 -30.6423
   -30.6208 -30.6195 -30.6122 -30.6071 -30.5994 -30.5957 -30.5842 -30.5809
   -30.5798 -30.5748 -30.5722 -30.5627 -30.5599 -30.5562 -30.5540 -30.5496
   -20.4674 -20.4673 -20.4668 -20.4668 -20.4660 -20.4660 -20.4656 -20.4656
   -20.4561 -20.4560 -20.4554 -20.4554 -20.4543 -20.4542 -20.4537 -20.4536
   -20.4415 -20.4415 -20.4405 -20.4405 -20.4399 -20.4398 -20.4389 -20.4388
   -20.4365 -20.4362 -20.4361 -20.4359 -20.4328 -20.4325 -20.4323 -20.4319
   -20.4241 -20.4241 -20.4241 -20.4240 -20.4224 -20.4222 -20.4219 -20.4217
   -20.4208 -20.4208 -20.4204 -20.4204 -20.4193 -20.4193 -20.4191 -20.4190
   -20.4110 -20.4110 -20.4108 -20.4108 -20.4099 -20.4098 -20.4097 -20.4096
    -9.9695  -9.7723  -9.5716  -9.5635  -9.3982  -9.3794  -9.0466  -9.0302
    -8.9691  -8.7707  -8.7664  -8.7473  -8.2768  -8.2015  -8.1895  -8.1533
    -7.9537  -7.9497  -7.9036  -7.8999  -7.8910  -7.8851  -7.8592  -7.8401
     1.0939   1.0953   1.1920   1.1921   1.2658   1.2745   1.3762   1.3994
     2.1096   2.2074   2.2615   2.3448   2.4483   2.4873   2.6537   2.6719
     2.7174   2.7607   3.3789   3.4087   3.4863   3.5186   4.0042   4.3143
     4.3656   4.4888   4.5255   4.5347   4.5753   4.6429   4.9974   5.0070
     5.0109   5.0306   5.3655   5.3967   5.5205   5.5308   5.5547   5.5890
     5.7993   5.8248   5.8391   5.8588   5.9353   5.9382   5.9549   5.9931
     6.1464   6.1786   6.2284   6.4292   6.5099   6.5328   6.6808   6.7708
     6.7763   6.8606   6.9412   6.9452   6.9811   6.9898   7.0215   7.0401
     7.0474   7.0810   7.8335   7.8580   7.9171   7.9513   8.2232   8.2331
     9.2349   9.2495  10.3677  10.4503  10.5292  10.6144  11.7584  11.8089
    11.9467  11.9603  12.4463  12.4654  12.6237  12.6266  12.7640  12.9453
    13.1017  13.2440  13.2649  13.3512  13.6306  13.7022  13.7918  13.8300
    14.2688  14.2698  14.5747  14.6345  14.8673  15.1274  15.2537  15.5179
    15.5219  16.9382  17.0441  17.3086  17.6122

          k = 0.0000 0.3278 0.1670 ( 62936 PWs)   bands (ev):

   -66.2974 -66.2971 -66.2968 -66.2968 -66.2965 -66.2965 -66.2962 -66.2959
   -30.6729 -30.6697 -30.6684 -30.6650 -30.6421 -30.6410 -30.6383 -30.6380
   -30.6201 -30.6199 -30.6129 -30.6059 -30.5991 -30.5960 -30.5856 -30.5834
   -30.5792 -30.5783 -30.5717 -30.5645 -30.5623 -30.5588 -30.5581 -30.5519
   -20.4673 -20.4673 -20.4668 -20.4668 -20.4661 -20.4661 -20.4657 -20.4657
   -20.4560 -20.4560 -20.4554 -20.4554 -20.4542 -20.4541 -20.4537 -20.4537
   -20.4414 -20.4414 -20.4404 -20.4404 -20.4400 -20.4399 -20.4390 -20.4390
   -20.4364 -20.4362 -20.4361 -20.4359 -20.4328 -20.4324 -20.4323 -20.4319
   -20.4242 -20.4242 -20.4241 -20.4241 -20.4224 -20.4221 -20.4217 -20.4215
   -20.4210 -20.4209 -20.4203 -20.4203 -20.4194 -20.4193 -20.4192 -20.4192
   -20.4109 -20.4109 -20.4107 -20.4107 -20.4100 -20.4098 -20.4098 -20.4097
    -9.9249  -9.7230  -9.5792  -9.5012  -9.3903  -9.3162  -9.0128  -8.9960
    -8.9805  -8.7734  -8.7514  -8.7407  -8.2918  -8.2149  -8.1898  -8.1578
    -8.0219  -7.9892  -7.9760  -7.9529  -7.9373  -7.9292  -7.9058  -7.8942
     1.1876   1.1932   1.2633   1.2723   1.4287   1.4355   1.5279   1.5573
     2.1157   2.2026   2.2587   2.3451   2.5246   2.5547   2.6588   2.6778
     2.8020   2.8384   3.4035   3.4531   3.4818   3.5140   3.9923   4.2392
     4.2552   4.3407   4.3629   4.5302   4.5781   4.6593   4.7255   4.7453
     5.0047   5.0558   5.2212   5.3110   5.3260   5.3386   5.5128   5.5178
     5.5850   5.6999   5.7515   5.8145   5.8397   5.8573   5.9384   5.9983
     6.2770   6.3736   6.4538   6.4556   6.5746   6.6874   6.7394   6.7507
     6.7878   6.8039   6.8076   6.8766   6.9075   6.9271   7.0006   7.0479
     7.0871   7.1079   7.8384   7.8513   7.8900   7.9169   8.1571   8.1688
     9.5579   9.5698  10.5375  10.5553  10.6094  10.6290  11.8455  11.8954
    11.9476  11.9616  12.4174  12.4206  12.5012  12.5193  12.8113  12.9432
    12.9816  13.0362  13.2479  13.3490  13.4762  13.5332  13.6648  13.6942
    14.4734  14.5232  14.6733  14.8107  15.0343  15.2261  15.5473  15.6166
    15.6794  17.0054  17.0300  17.2487  17.3661

          k = 0.0000 0.3278 0.3340 ( 62927 PWs)   bands (ev):

   -66.2973 -66.2970 -66.2970 -66.2967 -66.2966 -66.2963 -66.2963 -66.2960
   -30.6718 -30.6693 -30.6686 -30.6659 -30.6320 -30.6281 -30.6278 -30.6248
   -30.6211 -30.6167 -30.6146 -30.6015 -30.5985 -30.5972 -30.5923 -30.5914
   -30.5895 -30.5777 -30.5766 -30.5704 -30.5672 -30.5641 -30.5611 -30.5560
   -20.4671 -20.4670 -20.4666 -20.4666 -20.4664 -20.4664 -20.4659 -20.4659
   -20.4559 -20.4558 -20.4555 -20.4555 -20.4541 -20.4540 -20.4538 -20.4538
   -20.4411 -20.4410 -20.4402 -20.4402 -20.4401 -20.4401 -20.4393 -20.4393
   -20.4364 -20.4363 -20.4361 -20.4359 -20.4327 -20.4324 -20.4323 -20.4320
   -20.4243 -20.4242 -20.4242 -20.4242 -20.4221 -20.4219 -20.4213 -20.4212
   -20.4211 -20.4209 -20.4201 -20.4200 -20.4199 -20.4197 -20.4195 -20.4194
   -20.4107 -20.4107 -20.4105 -20.4105 -20.4102 -20.4101 -20.4100 -20.4099
    -9.8167  -9.6223  -9.6068  -9.4248  -9.3249  -9.0857  -9.0245  -8.9125
    -8.8756  -8.7849  -8.7072  -8.6897  -8.4225  -8.3483  -8.2823  -8.2477
    -8.1935  -8.1715  -8.1351  -8.1047  -7.9391  -7.9260  -7.9151  -7.9030
     1.2375   1.2474   1.2575   1.2672   1.9783   2.0429   2.0837   2.1334
     2.1813   2.2476   2.2868   2.4184   2.6207   2.6662   2.7539   2.8360
     2.9975   3.0175   3.3952   3.4546   3.5009   3.5115   3.7441   3.7537
     3.9771   4.1857   4.2367   4.2749   4.3149   4.4783   4.5172   4.6803
     4.7685   4.8143   4.9037   4.9396   5.0319   5.0800   5.2358   5.2574
     5.2771   5.4188   5.6379   5.7798   5.8771   5.8919   5.9841   6.0168
     6.3838   6.3863   6.4155   6.4799   6.4895   6.5798   6.6570   6.6857
     6.7985   6.9596   6.9766   7.0153   7.0524   7.0790   7.1275   7.1969
     7.2401   7.2488   7.7864   7.8009   7.8215   7.8486   7.9527   7.9811
    10.2644  10.2832  10.5653  10.5978  11.0642  11.1182  11.8470  11.8655
    11.9511  11.9838  12.1274  12.1593  12.4745  12.5065  12.6693  12.6782
    12.8685  12.9346  13.0632  13.1181  13.2902  13.3060  13.3642  13.3771
    14.6805  14.8067  14.8314  15.1701  15.3687  15.8065  15.9466  16.1979
    16.5444  16.6462  16.8740  17.3361  17.3725

          k = 0.0000 0.3278-0.5010 ( 62898 PWs)   bands (ev):

   -66.2971 -66.2971 -66.2968 -66.2968 -66.2965 -66.2965 -66.2962 -66.2962
   -30.6705 -30.6705 -30.6672 -30.6672 -30.6240 -30.6240 -30.6202 -30.6202
   -30.6099 -30.6099 -30.6068 -30.6068 -30.6039 -30.6039 -30.5972 -30.5972
   -30.5913 -30.5913 -30.5742 -30.5742 -30.5680 -30.5680 -30.5591 -30.5591
   -20.4667 -20.4667 -20.4667 -20.4667 -20.4663 -20.4663 -20.4662 -20.4662
   -20.4557 -20.4557 -20.4556 -20.4556 -20.4539 -20.4539 -20.4539 -20.4539
   -20.4406 -20.4406 -20.4406 -20.4406 -20.4397 -20.4397 -20.4397 -20.4397
   -20.4363 -20.4363 -20.4360 -20.4360 -20.4325 -20.4325 -20.4322 -20.4322
   -20.4243 -20.4243 -20.4242 -20.4242 -20.4218 -20.4218 -20.4216 -20.4216
   -20.4205 -20.4205 -20.4203 -20.4203 -20.4198 -20.4198 -20.4197 -20.4197
   -20.4105 -20.4105 -20.4104 -20.4104 -20.4103 -20.4103 -20.4102 -20.4102
    -9.7026  -9.7026  -9.4946  -9.4946  -9.1340  -9.1340  -8.8167  -8.8167
    -8.7519  -8.7519  -8.6416  -8.6416  -8.5619  -8.5619  -8.5287  -8.5286
    -8.1910  -8.1910  -8.1430  -8.1430  -7.9273  -7.9273  -7.9148  -7.9148
     1.2502   1.2502   1.2605   1.2605   2.1133   2.1133   2.2375   2.2375
     2.6139   2.6139   2.8539   2.8540   2.9160   2.9160   2.9230   2.9230
     2.9977   2.9977   3.2150   3.2150   3.3352   3.3352   3.5298   3.5298
     3.9887   3.9887   4.0020   4.0020   4.0409   4.0410   4.2502   4.2503
     4.8344   4.8344   4.9478   4.9478   5.0199   5.0199   5.0821   5.0822
     5.2124   5.2124   5.7089   5.7089   5.9347   5.9347   5.9595   5.9595
     6.3324   6.3324   6.4072   6.4072   6.4527   6.4527   6.6731   6.6731
     6.9357   6.9357   7.0243   7.0243   7.0940   7.0940   7.5618   7.5618
     7.5647   7.5647   7.5756   7.5756   7.6146   7.6146   7.8667   7.8667
    10.5628  10.5628  11.0988  11.0989  11.1209  11.1209  11.7544  11.7544
    11.7812  11.7812  12.0003  12.0003  12.5481  12.5481  12.5918  12.5918
    12.8851  12.8851  12.9585  12.9585  13.0212  13.0212  13.3307  13.3307
    14.7605  14.7605  15.0536  15.0536  16.0599  16.0599  16.5111  16.5111
    16.6511  16.6511  16.8276  16.8276  17.7771

          k = 0.0000-0.4917 0.0000 ( 63006 PWs)   bands (ev):

   -66.2973 -66.2973 -66.2967 -66.2967 -66.2966 -66.2966 -66.2960 -66.2960
   -30.6716 -30.6716 -30.6663 -30.6663 -30.6457 -30.6457 -30.6425 -30.6425
   -30.6083 -30.6083 -30.6053 -30.6053 -30.5955 -30.5955 -30.5902 -30.5902
   -30.5808 -30.5807 -30.5734 -30.5734 -30.5593 -30.5593 -30.5530 -30.5530
   -20.4673 -20.4673 -20.4668 -20.4668 -20.4660 -20.4660 -20.4656 -20.4656
   -20.4561 -20.4561 -20.4554 -20.4554 -20.4542 -20.4542 -20.4537 -20.4537
   -20.4415 -20.4415 -20.4405 -20.4405 -20.4398 -20.4398 -20.4389 -20.4389
   -20.4363 -20.4363 -20.4360 -20.4360 -20.4326 -20.4326 -20.4321 -20.4321
   -20.4227 -20.4227 -20.4227 -20.4227 -20.4224 -20.4224 -20.4224 -20.4224
   -20.4217 -20.4217 -20.4216 -20.4216 -20.4193 -20.4193 -20.4191 -20.4191
   -20.4110 -20.4110 -20.4108 -20.4108 -20.4098 -20.4098 -20.4097 -20.4097
    -9.8583  -9.8583  -9.4660  -9.4660  -9.4521  -9.4521  -9.0383  -9.0383
    -8.6285  -8.6285  -8.5227  -8.5226  -8.5150  -8.5149  -8.4916  -8.4915
    -7.9550  -7.9550  -7.8996  -7.8996  -7.8943  -7.8943  -7.8511  -7.8511
     1.0943   1.0943   1.1928   1.1928   1.2715   1.2715   1.3931   1.3931
     2.4641   2.4641   2.8393   2.8394   2.9041   2.9041   2.9337   2.9337
     3.0025   3.0025   3.1637   3.1637   3.3832   3.3832   3.3907   3.3907
     3.5513   3.5513   4.5050   4.5050   4.5441   4.5441   5.1836   5.1836
     5.2477   5.2477   5.2681   5.2681   5.2914   5.2914   5.6364   5.6364
     5.7040   5.7040   5.8356   5.8356   5.8973   5.8973   5.9502   5.9502
     6.2102   6.2102   6.2505   6.2505   6.5243   6.5243   6.6263   6.6263
     6.8445   6.8445   6.9434   6.9434   6.9913   6.9913   7.4844   7.4844
     7.4847   7.4847   7.5074   7.5075   7.5410   7.5410   8.2280   8.2280
     9.2455   9.2455  11.0815  11.0815  11.1194  11.1194  11.2686  11.2686
    11.3355  11.3356  12.4549  12.4549  12.6252  12.6252  12.9481  12.9481
    13.1442  13.1442  13.4018  13.4018  13.4438  13.4438  13.8153  13.8153
    14.2798  14.2798  14.9500  14.9500  14.9759  14.9759  15.0951  15.0951
    16.3322  16.3322  17.6386  17.6387  17.8777

          k = 0.0000-0.4917 0.1670 ( 62908 PWs)   bands (ev):

   -66.2972 -66.2972 -66.2967 -66.2967 -66.2966 -66.2966 -66.2961 -66.2961
   -30.6712 -30.6712 -30.6666 -30.6666 -30.6410 -30.6410 -30.6377 -30.6377
   -30.6079 -30.6079 -30.6057 -30.6057 -30.5967 -30.5967 -30.5895 -30.5895
   -30.5829 -30.5829 -30.5729 -30.5729 -30.5634 -30.5634 -30.5564 -30.5564
   -20.4673 -20.4673 -20.4668 -20.4668 -20.4661 -20.4661 -20.4657 -20.4657
   -20.4560 -20.4560 -20.4554 -20.4554 -20.4542 -20.4542 -20.4537 -20.4537
   -20.4414 -20.4413 -20.4404 -20.4404 -20.4399 -20.4399 -20.4390 -20.4390
   -20.4363 -20.4363 -20.4360 -20.4360 -20.4326 -20.4326 -20.4321 -20.4321
   -20.4228 -20.4228 -20.4227 -20.4227 -20.4225 -20.4225 -20.4225 -20.4225
   -20.4215 -20.4215 -20.4213 -20.4213 -20.4195 -20.4195 -20.4192 -20.4192
   -20.4109 -20.4109 -20.4107 -20.4107 -20.4099 -20.4099 -20.4098 -20.4098
    -9.8106  -9.8106  -9.4653  -9.4653  -9.3871  -9.3871  -9.0041  -9.0041
    -8.6407  -8.6407  -8.5290  -8.5290  -8.5090  -8.5090  -8.4896  -8.4896
    -8.0113  -8.0113  -7.9675  -7.9675  -7.9365  -7.9365  -7.9027  -7.9027
     1.1905   1.1905   1.2691   1.2691   1.4346   1.4346   1.5504   1.5504
     2.5444   2.5444   2.8476   2.8476   2.8994   2.8994   2.9448   2.9448
     3.0587   3.0587   3.1514   3.1514   3.3810   3.3811   3.4273   3.4273
     3.5712   3.5712   4.2587   4.2587   4.5540   4.5540   4.9867   4.9867
     5.0402   5.0403   5.1987   5.1987   5.3090   5.3090   5.4250   5.4250
     5.5672   5.5672   5.6191   5.6191   5.8563   5.8563   5.9777   5.9777
     6.3627   6.3627   6.4379   6.4380   6.5340   6.5340   6.7766   6.7766
     6.8069   6.8069   6.8392   6.8392   6.9606   6.9606   7.4705   7.4705
     7.4965   7.4965   7.5070   7.5070   7.5315   7.5315   8.1632   8.1632
     9.5662   9.5662  11.1821  11.1821  11.2225  11.2225  11.2802  11.2802
    11.3637  11.3637  12.4193  12.4194  12.5096  12.5096  12.9901  12.9901
    13.1405  13.1405  13.2224  13.2224  13.2640  13.2640  13.6819  13.6819
    14.4827  14.4828  15.0553  15.0553  15.1377  15.1378  15.3679  15.3680
    16.4294  16.4294  17.5748  17.5748  17.6770

          k = 0.0000-0.4917 0.3340 ( 62908 PWs)   bands (ev):

   -66.2971 -66.2971 -66.2968 -66.2968 -66.2965 -66.2965 -66.2962 -66.2962
   -30.6701 -30.6700 -30.6675 -30.6675 -30.6286 -30.6286 -30.6250 -30.6250
   -30.6071 -30.6071 -30.6068 -30.6068 -30.6010 -30.6010 -30.5911 -30.5911
   -30.5871 -30.5871 -30.5733 -30.5733 -30.5714 -30.5714 -30.5635 -30.5635
   -20.4671 -20.4670 -20.4666 -20.4666 -20.4664 -20.4664 -20.4659 -20.4659
   -20.4559 -20.4558 -20.4555 -20.4555 -20.4541 -20.4541 -20.4538 -20.4538
   -20.4410 -20.4410 -20.4402 -20.4402 -20.4401 -20.4401 -20.4393 -20.4393
   -20.4362 -20.4362 -20.4361 -20.4361 -20.4325 -20.4325 -20.4322 -20.4322
   -20.4229 -20.4229 -20.4228 -20.4228 -20.4226 -20.4226 -20.4226 -20.4226
   -20.4210 -20.4210 -20.4208 -20.4208 -20.4198 -20.4198 -20.4196 -20.4196
   -20.4107 -20.4107 -20.4105 -20.4105 -20.4101 -20.4101 -20.4100 -20.4100
    -9.6964  -9.6964  -9.5044  -9.5044  -9.1726  -9.1726  -8.8890  -8.8890
    -8.7007  -8.7007  -8.5595  -8.5595  -8.4869  -8.4868  -8.4793  -8.4793
    -8.2560  -8.2560  -8.2188  -8.2188  -7.9351  -7.9351  -7.9116  -7.9116
     1.2435   1.2435   1.2637   1.2637   2.0720   2.0720   2.1621   2.1621
     2.7566   2.7566   2.8496   2.8496   2.9257   2.9257   2.9711   2.9711
     3.1314   3.1314   3.1638   3.1638   3.3533   3.3533   3.5027   3.5027
     3.6079   3.6079   3.7498   3.7498   4.4393   4.4393   4.5534   4.5534
     4.7183   4.7183   4.8352   4.8352   4.9336   4.9336   5.1619   5.1619
     5.3457   5.3457   5.5300   5.5301   5.8907   5.8907   6.0147   6.0147
     6.4102   6.4102   6.4596   6.4596   6.5329   6.5329   6.5673   6.5673
     7.0182   7.0182   7.1436   7.1436   7.1916   7.1916   7.4438   7.4438
     7.4719   7.4719   7.4977   7.4977   7.5275   7.5275   7.9642   7.9642
    10.2795  10.2796  11.2655  11.2655  11.2815  11.2815  11.5766  11.5766
    11.6345  11.6345  11.8835  11.8835  12.6732  12.6732  12.7278  12.7278
    12.7595  12.7595  13.0924  13.0924  13.1310  13.1310  13.3608  13.3608
    14.7697  14.7697  15.0149  15.0150  15.7219  15.7219  16.3047  16.3047
    16.7546  16.7546  17.0519  17.0519  17.7392

          k = 0.0000-0.4917-0.5010 ( 62904 PWs)   bands (ev):

   -66.2970 -66.2970 -66.2970 -66.2969 -66.2963 -66.2963 -66.2963 -66.2963
   -30.6687 -30.6687 -30.6687 -30.6687 -30.6137 -30.6137 -30.6137 -30.6137
   -30.6098 -30.6098 -30.6098 -30.6098 -30.6030 -30.6030 -30.6030 -30.6030
   -30.5824 -30.5824 -30.5824 -30.5824 -30.5687 -30.5686 -30.5686 -30.5686
   -20.4667 -20.4667 -20.4667 -20.4667 -20.4663 -20.4663 -20.4663 -20.4662
   -20.4557 -20.4557 -20.4557 -20.4557 -20.4539 -20.4539 -20.4539 -20.4539
   -20.4406 -20.4406 -20.4406 -20.4406 -20.4397 -20.4397 -20.4397 -20.4397
   -20.4362 -20.4362 -20.4362 -20.4362 -20.4324 -20.4323 -20.4323 -20.4323
   -20.4228 -20.4228 -20.4228 -20.4228 -20.4227 -20.4227 -20.4227 -20.4227
   -20.4204 -20.4204 -20.4204 -20.4204 -20.4202 -20.4202 -20.4202 -20.4202
   -20.4104 -20.4104 -20.4104 -20.4104 -20.4103 -20.4103 -20.4103 -20.4102
    -9.5807  -9.5807  -9.5807  -9.5807  -8.8918  -8.8917  -8.8917  -8.8917
    -8.6924  -8.6923  -8.6923  -8.6923  -8.4418  -8.4418  -8.4418  -8.4417
    -8.4128  -8.4128  -8.4128  -8.4128  -7.9236  -7.9236  -7.9236  -7.9236
     1.2567   1.2567   1.2567   1.2567   2.7225   2.7225   2.7225   2.7226
     2.8259   2.8259   2.8259   2.8259   3.0544   3.0544   3.0544   3.0544
     3.1311   3.1311   3.1311   3.1311   3.3229   3.3229   3.3229   3.3229
     3.4679   3.4679   3.4679   3.4679   4.3170   4.3170   4.3170   4.3170
     4.3738   4.3738   4.3738   4.3739   5.0504   5.0504   5.0504   5.0504
     5.4099   5.4099   5.4099   5.4099   5.9592   5.9592   5.9592   5.9592
     6.3845   6.3845   6.3845   6.3845   6.5162   6.5162   6.5162   6.5162
     7.3518   7.3518   7.3518   7.3518   7.3727   7.3727   7.3727   7.3727
     7.4016   7.4016   7.4017   7.4017   7.6679   7.6679   7.6680   7.6680
    11.0749  11.0749  11.0749  11.0749  11.3140  11.3140  11.3140  11.3140
    12.1199  12.1199  12.1199  12.1199  12.1736  12.1736  12.1736  12.1736
    12.9510  12.9510  12.9510  12.9510  13.1435  13.1435  13.1435  13.1435
    14.9265  14.9265  14.9265  14.9265  16.4269  16.4269  16.4269  16.4269
    17.3381  17.3381  17.3381  17.3382  17.4205

          k = 0.1667 0.0000 0.0000 ( 62849 PWs)   bands (ev):

   -66.2975 -66.2970 -66.2969 -66.2969 -66.2964 -66.2964 -66.2963 -66.2958
   -30.6712 -30.6666 -30.6646 -30.6587 -30.6484 -30.6455 -30.6455 -30.6445
   -30.6368 -30.6341 -30.6279 -30.6203 -30.5989 -30.5963 -30.5904 -30.5872
   -30.5722 -30.5690 -30.5594 -30.5548 -30.5534 -30.5486 -30.5464 -30.5418
   -20.4673 -20.4673 -20.4669 -20.4669 -20.4660 -20.4660 -20.4656 -20.4656
   -20.4560 -20.4559 -20.4553 -20.4552 -20.4544 -20.4543 -20.4538 -20.4537
   -20.4414 -20.4414 -20.4406 -20.4406 -20.4398 -20.4398 -20.4390 -20.4389
   -20.4364 -20.4361 -20.4358 -20.4355 -20.4332 -20.4327 -20.4326 -20.4320
   -20.4257 -20.4257 -20.4256 -20.4256 -20.4225 -20.4222 -20.4218 -20.4216
   -20.4198 -20.4196 -20.4192 -20.4190 -20.4187 -20.4187 -20.4186 -20.4185
   -20.4110 -20.4109 -20.4108 -20.4108 -20.4099 -20.4098 -20.4096 -20.4095
   -10.0695  -9.7381  -9.6769  -9.6586  -9.3623  -9.3001  -9.2506  -9.0254
    -8.9875  -8.9430  -8.9241  -8.9088  -8.1064  -8.0448  -8.0437  -8.0077
    -7.9103  -7.9065  -7.8768  -7.8699  -7.7941  -7.7668  -7.7489  -7.7249
     1.1223   1.1500   1.1520   1.1903   1.1988   1.2373   1.2989   1.3126
     1.5105   1.5506   1.6082   1.6764   2.3621   2.4161   2.4256   2.4662
     2.5032   2.6243   3.9361   3.9714   4.1373   4.1694   4.2283   4.2718
     4.3760   4.3859   4.6010   4.6330   4.7758   4.7830   5.0427   5.2427
     5.3749   5.4376   5.4665   5.5073   5.5431   5.5850   5.6303   5.6744
     5.7120   5.8277   5.8606   5.8867   5.8917   5.9578   6.0671   6.1022
     6.1748   6.3344   6.3724   6.3850   6.4707   6.5241   6.5658   6.5941
     6.6152   6.7167   6.8400   6.8601   6.8675   6.9110   6.9313   6.9848
     7.0586   7.0806   8.0237   8.0601   8.1449   8.1689   8.2741   8.2956
     9.4845   9.5257   9.5897   9.7482   9.9693  10.0855  12.2335  12.2449
    12.4449  12.4619  12.5379  12.6304  12.6503  12.6673  12.6794  12.6891
    13.0820  13.1084  13.3302  13.4317  13.6504  13.7178  13.9434  13.9446
    14.0111  14.0374  14.3980  14.6558  14.6695  14.7531  15.2118  15.6030
    15.7142  16.4493  16.5415  17.0200  17.0932

          k = 0.1667 0.0000 0.1670 ( 62898 PWs)   bands (ev):

   -66.2975 -66.2970 -66.2969 -66.2969 -66.2964 -66.2964 -66.2963 -66.2958
   -30.6708 -30.6668 -30.6639 -30.6590 -30.6457 -30.6432 -30.6409 -30.6394
   -30.6371 -30.6309 -30.6284 -30.6180 -30.5987 -30.5966 -30.5913 -30.5867
   -30.5767 -30.5736 -30.5643 -30.5593 -30.5531 -30.5483 -30.5472 -30.5427
   -20.4672 -20.4672 -20.4668 -20.4668 -20.4661 -20.4661 -20.4657 -20.4657
   -20.4559 -20.4558 -20.4553 -20.4552 -20.4544 -20.4542 -20.4539 -20.4538
   -20.4413 -20.4413 -20.4405 -20.4405 -20.4399 -20.4399 -20.4391 -20.4390
   -20.4364 -20.4361 -20.4357 -20.4355 -20.4332 -20.4328 -20.4326 -20.4321
   -20.4257 -20.4257 -20.4257 -20.4257 -20.4224 -20.4221 -20.4216 -20.4214
   -20.4201 -20.4199 -20.4194 -20.4192 -20.4186 -20.4186 -20.4185 -20.4184
   -20.4109 -20.4109 -20.4107 -20.4107 -20.4100 -20.4099 -20.4097 -20.4096
   -10.0278  -9.6900  -9.6847  -9.6054  -9.3115  -9.2797  -9.2599  -8.9896
    -8.9581  -8.9168  -8.9123  -8.9104  -8.1194  -8.0598  -8.0455  -8.0273
    -8.0109  -8.0027  -7.9753  -7.9595  -7.8031  -7.7702  -7.7602  -7.7282
     1.1675   1.2191   1.2284   1.2915   1.3369   1.3389   1.4349   1.4868
     1.5141   1.5517   1.6706   1.7472   2.4190   2.4404   2.4725   2.5046
     2.5861   2.7048   3.9111   3.9355   4.1050   4.1192   4.3109   4.3130
     4.3488   4.3638   4.3680   4.4241   4.4846   4.5377   5.0409   5.2095
     5.2499   5.3425   5.3926   5.4169   5.4971   5.5594   5.6261   5.6473
     5.6535   5.6968   5.7206   5.8223   5.9081   6.0397   6.0641   6.0873
     6.2038   6.4441   6.4562   6.4970   6.5143   6.5500   6.5709   6.5736
     6.6286   6.6382   6.7085   6.8177   6.8260   6.9236   6.9393   6.9633
     6.9843   7.0149   8.0272   8.0535   8.0883   8.1094   8.2142   8.2372
     9.7670   9.7837   9.8991   9.9610  10.0562  10.0807  12.2952  12.2995
    12.4557  12.4594  12.4967  12.5294  12.5757  12.6568  12.6598  12.6826
    12.8737  12.8990  13.3641  13.4262  13.5366  13.5834  13.8308  13.8914
    14.2047  14.2693  14.5695  14.7286  14.7313  14.8681  15.5644  15.6367
    15.6963  16.5966  16.6667  16.7545  17.2951

          k = 0.1667 0.0000 0.3340 ( 62907 PWs)   bands (ev):

   -66.2974 -66.2971 -66.2968 -66.2968 -66.2965 -66.2965 -66.2962 -66.2959
   -30.6699 -30.6676 -30.6626 -30.6599 -30.6419 -30.6382 -30.6378 -30.6301
   -30.6274 -30.6257 -30.6202 -30.6096 -30.5980 -30.5979 -30.5950 -30.5900
   -30.5865 -30.5846 -30.5774 -30.5704 -30.5521 -30.5490 -30.5474 -30.5444
   -20.4670 -20.4670 -20.4666 -20.4666 -20.4664 -20.4664 -20.4660 -20.4659
   -20.4558 -20.4557 -20.4554 -20.4553 -20.4542 -20.4541 -20.4540 -20.4538
   -20.4410 -20.4410 -20.4402 -20.4402 -20.4402 -20.4402 -20.4394 -20.4393
   -20.4363 -20.4362 -20.4357 -20.4355 -20.4331 -20.4329 -20.4324 -20.4322
   -20.4258 -20.4258 -20.4257 -20.4257 -20.4220 -20.4218 -20.4211 -20.4210
   -20.4208 -20.4205 -20.4199 -20.4197 -20.4185 -20.4185 -20.4184 -20.4183
   -20.4107 -20.4106 -20.4105 -20.4105 -20.4102 -20.4101 -20.4100 -20.4099
    -9.9258  -9.7348  -9.5557  -9.4777  -9.3489  -9.2915  -9.0461  -8.9371
    -8.9168  -8.8460  -8.8290  -8.8033  -8.3325  -8.2946  -8.2881  -8.2688
    -8.0697  -8.0514  -8.0253  -8.0025  -7.8017  -7.7794  -7.7588  -7.7370
     1.1798   1.2111   1.2448   1.2758   1.4881   1.4992   1.5165   1.5460
     2.0890   2.1116   2.1921   2.2246   2.4238   2.4699   2.6679   2.7023
     2.8383   2.9368   3.6449   3.6796   3.8544   3.9121   3.9674   3.9907
     4.0592   4.1057   4.3710   4.3919   4.4424   4.5828   4.6299   4.7228
     5.0100   5.0791   5.1080   5.1993   5.2849   5.3235   5.5328   5.6412
     5.6929   5.7408   5.7781   5.8048   5.8166   5.8647   5.9597   6.0710
     6.2446   6.3294   6.3549   6.3886   6.3997   6.5245   6.5266   6.5597
     6.6325   6.7982   6.8424   6.8594   6.9154   6.9245   7.1149   7.1520
     7.2077   7.2662   7.8996   7.9180   8.0181   8.0281   8.0361   8.0732
     9.9899  10.0565  10.4187  10.4229  10.6570  10.7061  11.9168  11.9284
    12.2969  12.3187  12.4760  12.4982  12.5938  12.6080  12.6546  12.6607
    12.7356  12.7889  13.1867  13.2141  13.4134  13.4438  13.4872  13.5293
    14.5325  14.6218  14.8089  15.1475  15.1523  15.3059  15.4632  15.6409
    16.2045  16.6567  17.0101  17.0357  17.1290

          k = 0.1667 0.0000-0.5010 ( 62840 PWs)   bands (ev):

   -66.2972 -66.2972 -66.2967 -66.2967 -66.2966 -66.2966 -66.2961 -66.2961
   -30.6687 -30.6687 -30.6611 -30.6611 -30.6397 -30.6397 -30.6330 -30.6330
   -30.6087 -30.6087 -30.6077 -30.6077 -30.6055 -30.6055 -30.5960 -30.5960
   -30.5944 -30.5944 -30.5803 -30.5803 -30.5507 -30.5507 -30.5460 -30.5460
   -20.4667 -20.4667 -20.4667 -20.4667 -20.4663 -20.4663 -20.4663 -20.4663
   -20.4556 -20.4556 -20.4555 -20.4555 -20.4541 -20.4541 -20.4540 -20.4540
   -20.4406 -20.4406 -20.4406 -20.4406 -20.4398 -20.4398 -20.4397 -20.4397
   -20.4363 -20.4363 -20.4356 -20.4356 -20.4330 -20.4330 -20.4323 -20.4323
   -20.4258 -20.4258 -20.4257 -20.4257 -20.4214 -20.4214 -20.4212 -20.4212
   -20.4205 -20.4205 -20.4203 -20.4203 -20.4184 -20.4184 -20.4184 -20.4184
   -20.4105 -20.4105 -20.4103 -20.4103 -20.4103 -20.4103 -20.4102 -20.4102
    -9.8156  -9.8156  -9.4278  -9.4278  -9.3592  -9.3592  -8.9243  -8.9243
    -8.7026  -8.7026  -8.6129  -8.6129  -8.5975  -8.5974  -8.5786  -8.5786
    -8.0630  -8.0630  -8.0158  -8.0158  -7.7914  -7.7914  -7.7486  -7.7486
     1.1934   1.1934   1.2594   1.2594   1.5049   1.5049   1.5382   1.5382
     2.4254   2.4254   2.7406   2.7406   2.7913   2.7913   2.9640   2.9640
     3.0125   3.0125   3.2480   3.2480   3.4726   3.4726   3.8082   3.8083
     3.8193   3.8194   4.0791   4.0791   4.3747   4.3747   4.8389   4.8390
     4.9649   4.9650   5.0031   5.0031   5.1698   5.1699   5.5741   5.5741
     5.7076   5.7076   5.7672   5.7672   5.8573   5.8573   6.0054   6.0054
     6.1826   6.1826   6.3038   6.3038   6.4442   6.4442   6.5460   6.5460
     6.7045   6.7045   6.8449   6.8449   6.9137   6.9137   7.5731   7.5731
     7.5802   7.5802   7.6887   7.6887   7.7027   7.7027   8.0444   8.0444
    10.0269  10.0269  11.1821  11.1821  11.2012  11.2012  11.5101  11.5101
    11.5339  11.5340  12.6054  12.6054  12.6548  12.6548  12.7907  12.7907
    12.8366  12.8366  13.0688  13.0688  13.1090  13.1090  13.4317  13.4317
    14.6024  14.6024  15.2341  15.2341  15.4636  15.4636  15.6419  15.6419
    16.2364  16.2364  17.3864  17.3865  17.6521

          k = 0.1667 0.1639 0.0000 ( 62901 PWs)   bands (ev):

   -66.2975 -66.2970 -66.2969 -66.2969 -66.2964 -66.2964 -66.2963 -66.2958
   -30.6704 -30.6658 -30.6647 -30.6590 -30.6475 -30.6454 -30.6443 -30.6439
   -30.6323 -30.6316 -30.6236 -30.6169 -30.5999 -30.5970 -30.5898 -30.5863
   -30.5737 -30.5704 -30.5595 -30.5584 -30.5548 -30.5529 -30.5497 -30.5447
   -20.4673 -20.4673 -20.4669 -20.4669 -20.4660 -20.4660 -20.4656 -20.4656
   -20.4560 -20.4559 -20.4553 -20.4552 -20.4544 -20.4543 -20.4538 -20.4537
   -20.4414 -20.4414 -20.4406 -20.4406 -20.4398 -20.4398 -20.4390 -20.4389
   -20.4364 -20.4361 -20.4358 -20.4355 -20.4332 -20.4327 -20.4326 -20.4321
   -20.4253 -20.4253 -20.4252 -20.4252 -20.4224 -20.4222 -20.4218 -20.4217
   -20.4200 -20.4197 -20.4193 -20.4192 -20.4191 -20.4190 -20.4189 -20.4189
   -20.4110 -20.4109 -20.4108 -20.4108 -20.4099 -20.4098 -20.4097 -20.4096
   -10.0283  -9.6921  -9.6761  -9.6234  -9.3730  -9.2626  -9.2169  -9.0215
    -8.9897  -8.9042  -8.8812  -8.8747  -8.1203  -8.0541  -8.0470  -8.0213
    -7.9401  -7.9299  -7.9080  -7.8737  -7.8680  -7.8521  -7.8441  -7.8109
     1.1468   1.1496   1.1828   1.1908   1.3782   1.4110   1.4942   1.5326
     1.5443   1.6078   1.6387   1.7550   2.4376   2.4842   2.5067   2.5075
     2.5493   2.6238   3.7713   3.8086   3.9165   4.0018   4.1836   4.2542
     4.3913   4.4310   4.5901   4.6333   4.8294   4.8431   4.8541   5.1466
     5.1926   5.2852   5.2870   5.4329   5.4610   5.5146   5.5190   5.6471
     5.6856   5.8426   5.8658   5.9211   5.9374   6.0071   6.1011   6.1068
     6.1813   6.2748   6.3244   6.3581   6.4905   6.5710   6.6018   6.6327
     6.6550   6.7791   6.8270   6.8459   6.8619   6.8632   6.9482   6.9551
     7.0055   7.0474   7.9831   8.0147   8.1464   8.1628   8.1853   8.2125
     9.5214   9.5268   9.8079   9.9204  10.1714  10.2759  12.1772  12.2413
    12.2912  12.3365  12.4809  12.4820  12.5844  12.6708  12.6715  12.7011
    13.1098  13.1393  13.3690  13.4385  13.6564  13.7135  13.8647  13.9394
    14.0627  14.2293  14.3966  14.6657  14.7738  14.9408  15.1909  15.6823
    16.0079  16.1870  16.7313  17.2004  17.2682

          k = 0.1667 0.1639 0.1670 ( 62892 PWs)   bands (ev):

   -66.2974 -66.2969 -66.2969 -66.2969 -66.2964 -66.2964 -66.2964 -66.2959
   -30.6700 -30.6659 -30.6642 -30.6594 -30.6442 -30.6410 -30.6407 -30.6392
   -30.6327 -30.6293 -30.6242 -30.6150 -30.5996 -30.5973 -30.5908 -30.5858
   -30.5778 -30.5748 -30.5644 -30.5593 -30.5580 -30.5526 -30.5509 -30.5459
   -20.4672 -20.4672 -20.4668 -20.4668 -20.4661 -20.4661 -20.4657 -20.4657
   -20.4559 -20.4558 -20.4553 -20.4552 -20.4543 -20.4542 -20.4539 -20.4538
   -20.4413 -20.4413 -20.4405 -20.4405 -20.4399 -20.4399 -20.4391 -20.4390
   -20.4363 -20.4361 -20.4358 -20.4355 -20.4332 -20.4327 -20.4326 -20.4321
   -20.4253 -20.4253 -20.4252 -20.4252 -20.4223 -20.4221 -20.4216 -20.4215
   -20.4202 -20.4200 -20.4194 -20.4193 -20.4191 -20.4191 -20.4188 -20.4188
   -20.4109 -20.4109 -20.4107 -20.4107 -20.4100 -20.4099 -20.4097 -20.4097
    -9.9851  -9.6401  -9.6336  -9.6207  -9.2910  -9.2721  -9.2280  -8.9874
    -8.9599  -8.8787  -8.8763  -8.8729  -8.1389  -8.0619  -8.0548  -8.0374
    -8.0181  -8.0090  -7.9738  -7.9672  -7.8938  -7.8723  -7.8624  -7.8401
     1.3292   1.3343   1.3670   1.3923   1.4099   1.4379   1.4957   1.5403
     1.5855   1.6333   1.6721   1.8097   2.4924   2.5179   2.5400   2.5830
     2.6044   2.7008   3.7677   3.7980   3.9231   3.9595   4.2754   4.2974
     4.3308   4.3354   4.4085   4.4370   4.5359   4.5927   4.8557   5.1133
     5.1581   5.2396   5.2559   5.2640   5.3919   5.4604   5.4633   5.4972
     5.5146   5.6606   5.8852   5.9118   5.9655   6.0186   6.0425   6.0629
     6.2553   6.3530   6.3750   6.4466   6.4939   6.5743   6.6091   6.6412
     6.7031   6.7123   6.7537   6.8328   6.8810   6.8874   6.9207   6.9542
     6.9990   7.0332   7.9869   8.0083   8.0887   8.1051   8.1343   8.1612
     9.7809   9.7860  10.0759  10.1396  10.2215  10.2711  12.2476  12.2963
    12.3605  12.3844  12.4480  12.4637  12.4896  12.5041  12.6195  12.7041
    12.9050  12.9297  13.3972  13.4383  13.5325  13.5796  13.7340  13.7871
    14.3497  14.5033  14.6220  14.7425  14.7979  15.0408  15.6044  15.6666
    15.9769  16.3233  16.8323  16.9030  17.2369

          k = 0.1667 0.1639 0.3340 ( 62904 PWs)   bands (ev):

   -66.2973 -66.2970 -66.2968 -66.2968 -66.2965 -66.2965 -66.2963 -66.2960
   -30.6691 -30.6667 -30.6629 -30.6602 -30.6384 -30.6352 -30.6336 -30.6275
   -30.6261 -30.6255 -30.6200 -30.6079 -30.5990 -30.5984 -30.5948 -30.5904
   -30.5871 -30.5838 -30.5773 -30.5701 -30.5570 -30.5533 -30.5516 -30.5482
   -20.4670 -20.4670 -20.4666 -20.4666 -20.4664 -20.4664 -20.4660 -20.4659
   -20.4558 -20.4557 -20.4554 -20.4554 -20.4542 -20.4541 -20.4539 -20.4539
   -20.4410 -20.4410 -20.4402 -20.4402 -20.4402 -20.4401 -20.4394 -20.4393
   -20.4363 -20.4361 -20.4357 -20.4356 -20.4331 -20.4328 -20.4325 -20.4322
   -20.4254 -20.4254 -20.4253 -20.4253 -20.4220 -20.4218 -20.4211 -20.4210
   -20.4208 -20.4206 -20.4199 -20.4197 -20.4190 -20.4189 -20.4188 -20.4187
   -20.4107 -20.4106 -20.4105 -20.4105 -20.4102 -20.4100 -20.4100 -20.4099
    -9.8794  -9.6834  -9.4963  -9.4914  -9.3049  -9.2672  -9.0574  -8.9171
    -8.8839  -8.8480  -8.8073  -8.7803  -8.3485  -8.2966  -8.2912  -8.2652
    -8.0718  -8.0574  -8.0308  -8.0092  -7.9002  -7.8816  -7.8697  -7.8507
     1.3796   1.3960   1.4645   1.4808   1.5063   1.5270   1.5773   1.6234
     2.0893   2.1212   2.1905   2.2383   2.4983   2.5417   2.7353   2.7745
     2.8559   2.9308   3.6120   3.6207   3.8462   3.8518   3.9103   3.9589
     4.0088   4.0726   4.3635   4.4084   4.4372   4.5660   4.6317   4.6998
     4.8200   4.8774   4.9939   5.0130   5.1067   5.1811   5.3570   5.4839
     5.5073   5.6845   5.7205   5.7759   5.8012   5.8935   5.9163   5.9431
     6.2181   6.3887   6.4341   6.4686   6.5311   6.5830   6.6001   6.6412
     6.6951   6.8029   6.8743   6.8809   6.8911   6.9743   7.1098   7.1628
     7.2089   7.2663   7.9028   7.9084   7.9651   7.9725   7.9964   8.0290
    10.1786  10.2456  10.4208  10.4332  10.7575  10.8060  11.9190  11.9276
    12.3306  12.3468  12.4610  12.4695  12.5026  12.5042  12.5601  12.5860
    12.6575  12.7257  13.1886  13.2166  13.3662  13.4085  13.4304  13.4622
    14.6551  14.7248  15.1258  15.1466  15.2706  15.3938  15.6149  15.8654
    16.3434  16.6279  16.7700  17.0863  17.1723

          k = 0.1667 0.1639-0.5010 ( 62842 PWs)   bands (ev):

   -66.2972 -66.2972 -66.2967 -66.2967 -66.2966 -66.2966 -66.2961 -66.2961
   -30.6678 -30.6678 -30.6615 -30.6615 -30.6355 -30.6355 -30.6293 -30.6293
   -30.6089 -30.6089 -30.6076 -30.6076 -30.6055 -30.6055 -30.5970 -30.5970
   -30.5938 -30.5938 -30.5796 -30.5796 -30.5554 -30.5554 -30.5501 -30.5501
   -20.4667 -20.4667 -20.4667 -20.4667 -20.4663 -20.4663 -20.4663 -20.4663
   -20.4556 -20.4556 -20.4555 -20.4555 -20.4541 -20.4541 -20.4540 -20.4540
   -20.4406 -20.4406 -20.4406 -20.4406 -20.4398 -20.4398 -20.4397 -20.4397
   -20.4362 -20.4362 -20.4357 -20.4357 -20.4329 -20.4329 -20.4323 -20.4323
   -20.4254 -20.4254 -20.4253 -20.4253 -20.4215 -20.4215 -20.4213 -20.4213
   -20.4205 -20.4205 -20.4203 -20.4203 -20.4188 -20.4188 -20.4188 -20.4188
   -20.4105 -20.4105 -20.4103 -20.4103 -20.4103 -20.4103 -20.4102 -20.4102
    -9.7657  -9.7657  -9.3746  -9.3746  -9.3522  -9.3522  -8.8930  -8.8930
    -8.7151  -8.7150  -8.6173  -8.6172  -8.5902  -8.5902  -8.5692  -8.5692
    -8.0674  -8.0674  -8.0228  -8.0228  -7.8919  -7.8919  -7.8615  -7.8615
     1.3875   1.3875   1.4775   1.4775   1.5209   1.5209   1.6127   1.6127
     2.4966   2.4966   2.7698   2.7698   2.8241   2.8241   2.9540   2.9540
     3.0069   3.0069   3.2634   3.2634   3.4594   3.4594   3.8541   3.8542
     3.8607   3.8607   3.9270   3.9270   4.3788   4.3788   4.7403   4.7403
     4.7957   4.7957   4.9074   4.9074   4.9628   4.9628   5.4741   5.4741
     5.5534   5.5534   5.6071   5.6071   5.7545   5.7545   5.9273   5.9273
     6.3521   6.3521   6.4441   6.4441   6.5785   6.5785   6.5963   6.5964
     6.6954   6.6954   6.8751   6.8751   6.9210   6.9210   7.5729   7.5730
     7.5796   7.5797   7.6622   7.6622   7.6754   7.6754   8.0045   8.0045
    10.2190  10.2190  11.1835  11.1835  11.1999  11.1999  11.5701  11.5701
    11.5944  11.5944  12.4889  12.4889  12.6437  12.6437  12.7856  12.7856
    12.8374  12.8374  12.9318  12.9318  12.9764  12.9764  13.4491  13.4491
    14.7111  14.7111  15.4418  15.4418  15.6120  15.6121  15.7855  15.7855
    16.3205  16.3205  17.2461  17.2461  17.5953

          k = 0.1667 0.3278 0.0000 ( 62938 PWs)   bands (ev):

   -66.2974 -66.2971 -66.2968 -66.2968 -66.2965 -66.2965 -66.2962 -66.2959
   -30.6687 -30.6658 -30.6635 -30.6600 -30.6459 -30.6452 -30.6436 -30.6426
   -30.6226 -30.6209 -30.6116 -30.6063 -30.6033 -30.6000 -30.5879 -30.5831
   -30.5806 -30.5756 -30.5718 -30.5639 -30.5596 -30.5559 -30.5546 -30.5503
   -20.4673 -20.4673 -20.4669 -20.4669 -20.4660 -20.4660 -20.4656 -20.4656
   -20.4560 -20.4559 -20.4553 -20.4552 -20.4544 -20.4543 -20.4538 -20.4538
   -20.4414 -20.4414 -20.4406 -20.4406 -20.4398 -20.4398 -20.4390 -20.4389
   -20.4362 -20.4360 -20.4359 -20.4356 -20.4331 -20.4327 -20.4325 -20.4322
   -20.4241 -20.4241 -20.4241 -20.4240 -20.4224 -20.4222 -20.4219 -20.4217
   -20.4208 -20.4207 -20.4204 -20.4204 -20.4193 -20.4193 -20.4191 -20.4191
   -20.4110 -20.4110 -20.4108 -20.4108 -20.4099 -20.4098 -20.4097 -20.4096
    -9.9264  -9.7262  -9.5833  -9.4999  -9.4082  -9.3012  -9.0148  -8.9959
    -8.9806  -8.7715  -8.7540  -8.7407  -8.2915  -8.2061  -8.2022  -8.1648
    -8.0482  -8.0391  -8.0036  -7.9872  -7.9026  -7.8830  -7.8625  -7.8432
     1.1490   1.1494   1.1916   1.1917   1.4899   1.5028   1.5653   1.5983
     2.1171   2.2021   2.2502   2.3341   2.5203   2.5658   2.7196   2.7423
     2.7588   2.7645   3.3773   3.3883   3.5319   3.5593   3.9903   4.1981
     4.2093   4.3130   4.3786   4.5625   4.6209   4.6612   4.7436   4.7688
     4.9908   5.0351   5.1774   5.2828   5.3005   5.3744   5.4884   5.5508
     5.6027   5.6329   5.6646   5.8764   5.9284   5.9977   6.0279   6.0562
     6.2019   6.2952   6.3066   6.4555   6.6100   6.6449   6.7399   6.7668
     6.8199   6.8308   6.8545   6.8631   6.8733   6.9251   7.0258   7.0508
     7.0936   7.1377   7.8138   7.8347   7.9235   7.9440   8.1518   8.1655
     9.5352   9.5426  10.3734  10.4447  10.6965  10.7693  11.7552  11.8054
    12.0201  12.0317  12.2577  12.2778  12.6694  12.6718  12.7157  12.8237
    13.1718  13.2443  13.2595  13.3060  13.6372  13.6606  13.7202  13.7233
    14.3121  14.3905  14.6418  14.7443  15.0838  15.1142  15.5808  15.6014
    15.6731  16.9981  17.0186  17.2220  17.3696

          k = 0.1667 0.3278 0.1670 ( 62907 PWs)   bands (ev):

   -66.2973 -66.2970 -66.2968 -66.2968 -66.2965 -66.2965 -66.2963 -66.2960
   -30.6683 -30.6652 -30.6638 -30.6603 -30.6418 -30.6405 -30.6387 -30.6383
   -30.6219 -30.6212 -30.6123 -30.6052 -30.6031 -30.6003 -30.5891 -30.5832
   -30.5826 -30.5789 -30.5713 -30.5643 -30.5635 -30.5589 -30.5585 -30.5527
   -20.4672 -20.4672 -20.4668 -20.4668 -20.4661 -20.4661 -20.4657 -20.4657
   -20.4559 -20.4558 -20.4553 -20.4553 -20.4543 -20.4543 -20.4538 -20.4538
   -20.4413 -20.4413 -20.4405 -20.4405 -20.4399 -20.4399 -20.4391 -20.4390
   -20.4362 -20.4360 -20.4359 -20.4356 -20.4330 -20.4327 -20.4326 -20.4322
   -20.4242 -20.4241 -20.4241 -20.4241 -20.4223 -20.4221 -20.4217 -20.4215
   -20.4209 -20.4209 -20.4203 -20.4203 -20.4194 -20.4193 -20.4192 -20.4192
   -20.4109 -20.4109 -20.4107 -20.4107 -20.4100 -20.4098 -20.4098 -20.4097
    -9.8794  -9.6730  -9.5182  -9.5111  -9.3274  -9.3114  -8.9953  -8.9799
    -8.9656  -8.7587  -8.7538  -8.7346  -8.3089  -8.2158  -8.2048  -8.1682
    -8.0505  -8.0456  -8.0115  -8.0047  -7.9913  -7.9792  -7.9663  -7.9434
     1.3326   1.3350   1.4272   1.4335   1.4922   1.5059   1.6204   1.6627
     2.1225   2.2008   2.2440   2.3299   2.6009   2.6369   2.7500   2.7645
     2.8046   2.8370   3.4008   3.4215   3.5379   3.5514   3.9797   4.2388
     4.2685   4.2969   4.3191   4.3588   4.3888   4.6440   4.6788   4.7525
     4.7845   4.7952   5.1399   5.1919   5.2479   5.2939   5.3314   5.3545
     5.5008   5.5205   5.6170   5.6595   5.7183   5.7575   6.0342   6.0491
     6.3787   6.4340   6.4860   6.5793   6.5951   6.6317   6.6922   6.7593
     6.8032   6.8220   6.9039   6.9076   6.9317   6.9762   7.0315   7.0503
     7.1175   7.1482   7.8172   7.8280   7.8937   7.9114   8.0938   8.1087
     9.7880   9.7966  10.5562  10.6153  10.7162  10.7649  11.8417  11.8898
    12.0240  12.0330  12.3116  12.3298  12.4685  12.4724  12.7487  12.8260
    13.0093  13.0390  13.2583  13.3069  13.4790  13.5128  13.5670  13.5805
    14.6355  14.6456  14.8021  14.9723  15.1013  15.5132  15.5747  15.6854
    15.8043  16.9643  17.0996  17.2636  17.3006

          k = 0.1667 0.3278 0.3340 ( 62894 PWs)   bands (ev):

   -66.2972 -66.2969 -66.2969 -66.2967 -66.2966 -66.2964 -66.2964 -66.2961
   -30.6672 -30.6648 -30.6638 -30.6612 -30.6318 -30.6284 -30.6274 -30.6252
   -30.6222 -30.6181 -30.6145 -30.6025 -30.6011 -30.6009 -30.5942 -30.5924
   -30.5898 -30.5808 -30.5764 -30.5700 -30.5688 -30.5638 -30.5622 -30.5570
   -20.4670 -20.4670 -20.4666 -20.4666 -20.4664 -20.4664 -20.4660 -20.4660
   -20.4558 -20.4557 -20.4554 -20.4554 -20.4542 -20.4541 -20.4539 -20.4539
   -20.4410 -20.4410 -20.4402 -20.4402 -20.4402 -20.4401 -20.4394 -20.4393
   -20.4362 -20.4360 -20.4358 -20.4357 -20.4329 -20.4327 -20.4326 -20.4323
   -20.4242 -20.4242 -20.4242 -20.4241 -20.4221 -20.4219 -20.4213 -20.4212
   -20.4211 -20.4209 -20.4201 -20.4200 -20.4198 -20.4197 -20.4195 -20.4194
   -20.4107 -20.4107 -20.4105 -20.4105 -20.4102 -20.4100 -20.4100 -20.4099
    -9.7645  -9.5594  -9.5450  -9.3479  -9.3400  -9.0973  -9.0386  -8.8853
    -8.8562  -8.7676  -8.7038  -8.6924  -8.4410  -8.3458  -8.2804  -8.2533
    -8.2019  -8.1774  -8.1394  -8.1127  -8.0361  -8.0195  -8.0098  -7.9972
     1.4672   1.4777   1.4896   1.5022   1.9821   2.0373   2.0860   2.1378
     2.1832   2.2321   2.2833   2.4039   2.7079   2.7533   2.8328   2.9217
     2.9973   3.0195   3.3942   3.4274   3.5309   3.5573   3.8226   3.8339
     3.9689   4.1807   4.2199   4.2514   4.3084   4.4165   4.4447   4.6230
     4.6629   4.7031   4.7450   4.7998   4.8619   4.9111   5.0610   5.1250
     5.2278   5.3094   5.3727   5.5275   5.5793   5.6807   5.7911   5.8001
     6.4529   6.5416   6.5676   6.6207   6.7027   6.7536   6.7623   6.7939
     6.8589   6.9688   6.9949   7.0471   7.0514   7.0952   7.1597   7.1967
     7.2487   7.2654   7.7833   7.7900   7.8045   7.8302   7.9118   7.9446
    10.4001  10.4209  10.7210  10.7505  11.0728  11.1201  11.9038  11.9205
    12.0144  12.0551  12.1319  12.1609  12.4703  12.4823  12.5009  12.5377
    12.7890  12.8225  13.0636  13.1034  13.1985  13.2175  13.2939  13.3400
    14.8987  15.0227  15.1211  15.4094  15.5414  15.8000  15.9823  16.2653
    16.5237  16.7122  16.8443  17.3628  17.4026

          k = 0.1667 0.3278-0.5010 ( 62880 PWs)   bands (ev):

   -66.2971 -66.2971 -66.2968 -66.2968 -66.2965 -66.2965 -66.2962 -66.2962
   -30.6660 -30.6660 -30.6625 -30.6625 -30.6247 -30.6247 -30.6200 -30.6200
   -30.6098 -30.6098 -30.6074 -30.6074 -30.6058 -30.6058 -30.6008 -30.6008
   -30.5909 -30.5909 -30.5769 -30.5769 -30.5676 -30.5676 -30.5602 -30.5602
   -20.4667 -20.4667 -20.4667 -20.4667 -20.4663 -20.4663 -20.4663 -20.4663
   -20.4556 -20.4556 -20.4555 -20.4555 -20.4541 -20.4541 -20.4540 -20.4540
   -20.4406 -20.4406 -20.4406 -20.4406 -20.4398 -20.4398 -20.4397 -20.4397
   -20.4361 -20.4361 -20.4358 -20.4358 -20.4328 -20.4328 -20.4325 -20.4325
   -20.4243 -20.4243 -20.4242 -20.4242 -20.4218 -20.4218 -20.4216 -20.4216
   -20.4205 -20.4205 -20.4203 -20.4203 -20.4198 -20.4198 -20.4197 -20.4197
   -20.4104 -20.4104 -20.4104 -20.4104 -20.4103 -20.4103 -20.4102 -20.4102
    -9.6432  -9.6432  -9.4223  -9.4223  -9.1498  -9.1498  -8.7959  -8.7959
    -8.7651  -8.7650  -8.6331  -8.6331  -8.5594  -8.5594  -8.5313  -8.5313
    -8.1951  -8.1951  -8.1541  -8.1541  -8.0253  -8.0253  -8.0075  -8.0075
     1.4829   1.4829   1.4979   1.4979   2.1188   2.1188   2.2181   2.2181
     2.6870   2.6870   2.8547   2.8547   2.9060   2.9060   2.9294   2.9294
     2.9995   2.9995   3.2979   3.2979   3.4142   3.4142   3.5665   3.5665
     3.9768   3.9768   4.0101   4.0102   4.0325   4.0325   4.2552   4.2552
     4.6824   4.6824   4.8246   4.8246   4.8720   4.8720   4.9189   4.9189
     5.0235   5.0235   5.4453   5.4453   5.6002   5.6002   5.6945   5.6945
     6.5568   6.5568   6.6028   6.6028   6.6714   6.6714   6.7795   6.7795
     6.9603   6.9603   7.0294   7.0294   7.1280   7.1280   7.5394   7.5394
     7.5615   7.5616   7.5840   7.5840   7.6031   7.6031   7.8468   7.8468
    10.7154  10.7154  11.1833  11.1833  11.2048  11.2048  11.7646  11.7646
    11.7877  11.7877  12.0615  12.0615  12.5412  12.5412  12.5914  12.5914
    12.7530  12.7530  12.8123  12.8123  12.8928  12.8928  13.3157  13.3157
    14.9872  14.9872  15.3680  15.3680  16.1516  16.1517  16.4968  16.4968
    16.6865  16.6865  16.8805  16.8805  17.6184

          k = 0.1667-0.4917 0.0000 ( 62924 PWs)   bands (ev):

   -66.2972 -66.2972 -66.2967 -66.2967 -66.2966 -66.2966 -66.2961 -66.2961
   -30.6671 -30.6671 -30.6616 -30.6616 -30.6452 -30.6452 -30.6429 -30.6429
   -30.6112 -30.6111 -30.6078 -30.6078 -30.5951 -30.5951 -30.5897 -30.5896
   -30.5831 -30.5831 -30.5757 -30.5757 -30.5589 -30.5589 -30.5537 -30.5536
   -20.4673 -20.4673 -20.4669 -20.4669 -20.4660 -20.4660 -20.4656 -20.4656
   -20.4559 -20.4559 -20.4553 -20.4553 -20.4543 -20.4543 -20.4538 -20.4538
   -20.4414 -20.4414 -20.4406 -20.4406 -20.4398 -20.4398 -20.4389 -20.4389
   -20.4361 -20.4361 -20.4358 -20.4358 -20.4329 -20.4329 -20.4324 -20.4324
   -20.4227 -20.4227 -20.4226 -20.4226 -20.4224 -20.4224 -20.4224 -20.4224
   -20.4217 -20.4217 -20.4215 -20.4215 -20.4193 -20.4193 -20.4191 -20.4191
   -20.4110 -20.4110 -20.4108 -20.4108 -20.4098 -20.4098 -20.4097 -20.4097
    -9.8129  -9.8129  -9.4770  -9.4770  -9.3782  -9.3782  -9.0047  -9.0047
    -8.6413  -8.6413  -8.5245  -8.5244  -8.5154  -8.5154  -8.4889  -8.4889
    -8.0510  -8.0510  -8.0040  -8.0040  -7.8942  -7.8942  -7.8544  -7.8544
     1.1492   1.1492   1.1924   1.1925   1.4995   1.4995   1.5904   1.5904
     2.5422   2.5422   2.8391   2.8391   2.9150   2.9150   2.9240   2.9240
     3.0619   3.0619   3.1675   3.1675   3.3799   3.3799   3.4291   3.4291
     3.5674   3.5675   4.2166   4.2166   4.5966   4.5966   4.9532   4.9532
     5.0298   5.0298   5.2179   5.2179   5.3224   5.3225   5.3685   5.3685
     5.5228   5.5228   5.6782   5.6782   5.9098   5.9098   6.0585   6.0585
     6.3136   6.3136   6.3718   6.3718   6.5948   6.5948   6.7462   6.7462
     6.8242   6.8242   6.8596   6.8596   6.9400   6.9400   7.4777   7.4777
     7.4898   7.4898   7.5196   7.5196   7.5406   7.5406   8.1584   8.1584
     9.5427   9.5427  11.0850  11.0850  11.1223  11.1223  11.3665  11.3665
    11.4354  11.4355  12.2656  12.2656  12.6705  12.6705  12.9323  12.9323
    13.0602  13.0602  13.4009  13.4009  13.4399  13.4399  13.7044  13.7044
    14.3822  14.3822  14.9479  14.9479  15.1334  15.1334  15.3921  15.3921
    16.4152  16.4152  17.5602  17.5603  17.7088

          k = 0.1667-0.4917 0.1670 ( 62982 PWs)   bands (ev):

   -66.2972 -66.2972 -66.2967 -66.2967 -66.2966 -66.2966 -66.2961 -66.2961
   -30.6665 -30.6665 -30.6619 -30.6619 -30.6407 -30.6407 -30.6381 -30.6381
   -30.6109 -30.6108 -30.6081 -30.6081 -30.5964 -30.5963 -30.5890 -30.5890
   -30.5851 -30.5851 -30.5752 -30.5752 -30.5631 -30.5630 -30.5573 -30.5572
   -20.4672 -20.4672 -20.4668 -20.4668 -20.4661 -20.4661 -20.4657 -20.4657
   -20.4559 -20.4559 -20.4553 -20.4553 -20.4543 -20.4543 -20.4538 -20.4538
   -20.4413 -20.4413 -20.4405 -20.4405 -20.4399 -20.4399 -20.4391 -20.4390
   -20.4361 -20.4361 -20.4358 -20.4358 -20.4329 -20.4329 -20.4324 -20.4324
   -20.4228 -20.4228 -20.4227 -20.4227 -20.4225 -20.4225 -20.4225 -20.4224
   -20.4215 -20.4214 -20.4213 -20.4213 -20.4194 -20.4194 -20.4192 -20.4192
   -20.4109 -20.4109 -20.4107 -20.4107 -20.4099 -20.4099 -20.4098 -20.4098
    -9.7620  -9.7620  -9.4015  -9.4005  -9.3897  -9.3888  -8.9737  -8.9737
    -8.6547  -8.6545  -8.5232  -8.5229  -8.5168  -8.5165  -8.4867  -8.4864
    -8.0539  -8.0533  -8.0152  -8.0108  -7.9988  -7.9919  -7.9604  -7.9573
     1.3334   1.3340   1.4323   1.4335   1.5019   1.5020   1.6535   1.6536
     2.6191   2.6250   2.8427   2.8590   2.9081   2.9175   2.9402   2.9421
     3.0993   3.1114   3.1516   3.1667   3.4081   3.4178   3.4250   3.4359
     3.5814   3.5846   4.2747   4.2781   4.3261   4.3302   4.8974   4.9517
     4.9692   4.9963   5.0307   5.0626   5.0859   5.0875   5.3365   5.3441
[...]
    11.8707  11.8707  11.8707  11.8707  11.9620  11.9620  11.9620  11.9620
    12.9157  12.9157  12.9157  12.9157  13.0447  13.0447  13.0447  13.0447
    15.3939  15.3939  15.3939  15.3939  16.4890  16.4890  16.4890  16.4890
    17.2929  17.2937  17.2939  17.2947  17.3426

          k =-0.5000 0.3278 0.0000 ( 62882 PWs)   bands (ev):

   -66.2971 -66.2971 -66.2968 -66.2968 -66.2965 -66.2965 -66.2962 -66.2962
   -30.6470 -30.6470 -30.6454 -30.6454 -30.6401 -30.6401 -30.6371 -30.6371
   -30.6310 -30.6309 -30.6295 -30.6295 -30.6049 -30.6049 -30.5989 -30.5989
   -30.5786 -30.5785 -30.5688 -30.5688 -30.5575 -30.5575 -30.5536 -30.5536
   -20.4671 -20.4671 -20.4671 -20.4671 -20.4658 -20.4658 -20.4658 -20.4658
   -20.4552 -20.4551 -20.4551 -20.4551 -20.4545 -20.4545 -20.4545 -20.4545
   -20.4410 -20.4410 -20.4410 -20.4410 -20.4394 -20.4394 -20.4394 -20.4394
   -20.4347 -20.4347 -20.4344 -20.4344 -20.4343 -20.4343 -20.4340 -20.4340
   -20.4241 -20.4241 -20.4240 -20.4240 -20.4223 -20.4223 -20.4218 -20.4218
   -20.4207 -20.4207 -20.4204 -20.4204 -20.4192 -20.4192 -20.4191 -20.4191
   -20.4109 -20.4109 -20.4109 -20.4109 -20.4098 -20.4098 -20.4097 -20.4097
    -9.7084  -9.7084  -9.5104  -9.5104  -9.1424  -9.1424  -8.8263  -8.8263
    -8.7485  -8.7485  -8.6493  -8.6493  -8.5743  -8.5743  -8.5418  -8.5418
    -8.1889  -8.1889  -8.1447  -8.1447  -7.8837  -7.8837  -7.8635  -7.8635
     1.1855   1.1855   1.1904   1.1904   2.1156   2.1156   2.2285   2.2285
     2.7135   2.7135   2.8130   2.8130   2.9011   2.9011   2.9723   2.9723
     3.0152   3.0152   3.2453   3.2453   3.2822   3.2822   3.4404   3.4404
     3.9312   3.9312   3.9553   3.9553   4.1244   4.1244   4.3217   4.3217
     4.8073   4.8073   4.9133   4.9133   4.9734   4.9734   5.1101   5.1101
     5.2345   5.2346   5.7551   5.7551   5.9867   5.9867   6.0439   6.0439
     6.3500   6.3500   6.4177   6.4177   6.4744   6.4744   6.7258   6.7258
     6.9099   6.9099   6.9856   6.9856   7.0657   7.0657   7.5317   7.5317
     7.5458   7.5458   7.5843   7.5843   7.5970   7.5970   7.9496   7.9496
    10.3821  10.3821  11.0026  11.0026  11.0323  11.0323  11.7005  11.7005
    11.7736  11.7736  11.8882  11.8882  12.6147  12.6147  12.6700  12.6700
    13.0458  13.0458  13.0872  13.0872  13.2550  13.2550  13.6929  13.6929
    14.5401  14.5401  14.9247  14.9247  16.0691  16.0691  16.4129  16.4129
    16.5182  16.5182  16.8474  16.8474  17.6500

          k =-0.5000 0.3278 0.1670 ( 62890 PWs)   bands (ev):

   -66.2971 -66.2971 -66.2968 -66.2968 -66.2965 -66.2965 -66.2962 -66.2962
   -30.6428 -30.6428 -30.6421 -30.6421 -30.6388 -30.6388 -30.6370 -30.6370
   -30.6303 -30.6302 -30.6296 -30.6296 -30.6058 -30.6058 -30.5980 -30.5980
   -30.5814 -30.5814 -30.5684 -30.5684 -30.5621 -30.5621 -30.5562 -30.5562
   -20.4670 -20.4670 -20.4670 -20.4670 -20.4659 -20.4659 -20.4659 -20.4659
   -20.4551 -20.4551 -20.4551 -20.4550 -20.4546 -20.4546 -20.4545 -20.4545
   -20.4409 -20.4409 -20.4409 -20.4409 -20.4395 -20.4395 -20.4395 -20.4395
   -20.4347 -20.4347 -20.4344 -20.4344 -20.4343 -20.4343 -20.4340 -20.4340
   -20.4241 -20.4241 -20.4240 -20.4240 -20.4222 -20.4222 -20.4216 -20.4216
   -20.4208 -20.4208 -20.4203 -20.4203 -20.4193 -20.4193 -20.4192 -20.4192
   -20.4108 -20.4108 -20.4108 -20.4108 -20.4099 -20.4099 -20.4098 -20.4098
    -9.6472  -9.6472  -9.4355  -9.4355  -9.1572  -9.1572  -8.8073  -8.8073
    -8.7587  -8.7586  -8.6405  -8.6405  -8.5721  -8.5721  -8.5441  -8.5441
    -8.1955  -8.1955  -8.1486  -8.1486  -7.9925  -7.9925  -7.9642  -7.9642
     1.4260   1.4260   1.4359   1.4359   2.1214   2.1214   2.2170   2.2170
     2.7730   2.7730   2.8270   2.8270   2.8897   2.8897   2.9729   2.9729
     3.0157   3.0157   3.3217   3.3217   3.3639   3.3639   3.4830   3.4830
     3.9256   3.9256   3.9616   3.9616   4.1157   4.1157   4.3244   4.3244
     4.6988   4.6988   4.7763   4.7763   4.8774   4.8774   4.9267   4.9267
     4.9932   4.9932   5.4715   5.4715   5.6185   5.6185   5.7678   5.7678
     6.5792   6.5792   6.6702   6.6702   6.7118   6.7118   6.7999   6.7999
     6.9154   6.9154   6.9880   6.9880   7.1024   7.1024   7.5187   7.5187
     7.5415   7.5415   7.5832   7.5832   7.5902   7.5902   7.9183   7.9183
    10.5636  10.5636  11.0975  11.0975  11.1273  11.1273  11.7241  11.7241
    11.7914  11.7914  11.9403  11.9403  12.6121  12.6121  12.6688  12.6688
    12.8812  12.8812  12.9142  12.9142  13.0599  13.0599  13.5271  13.5271
    14.8956  14.8956  15.3197  15.3197  16.1643  16.1643  16.4179  16.4179
    16.5473  16.5473  16.8986  16.8986  17.5440

          k =-0.5000 0.3278 0.3340 ( 62862 PWs)   bands (ev):

   -66.2970 -66.2969 -66.2967 -66.2967 -66.2966 -66.2966 -66.2964 -66.2963
   -30.6401 -30.6400 -30.6384 -30.6383 -30.6344 -30.6344 -30.6316 -30.6315
   -30.6276 -30.6276 -30.6239 -30.6239 -30.6088 -30.6088 -30.5949 -30.5949
   -30.5912 -30.5912 -30.5739 -30.5739 -30.5671 -30.5671 -30.5612 -30.5612
   -20.4668 -20.4668 -20.4668 -20.4668 -20.4662 -20.4662 -20.4662 -20.4662
   -20.4550 -20.4550 -20.4549 -20.4549 -20.4547 -20.4546 -20.4546 -20.4546
   -20.4406 -20.4406 -20.4406 -20.4406 -20.4398 -20.4398 -20.4398 -20.4397
   -20.4347 -20.4346 -20.4345 -20.4345 -20.4343 -20.4343 -20.4341 -20.4341
   -20.4242 -20.4242 -20.4241 -20.4241 -20.4220 -20.4220 -20.4213 -20.4213
   -20.4210 -20.4210 -20.4201 -20.4201 -20.4197 -20.4197 -20.4194 -20.4194
   -20.4106 -20.4106 -20.4106 -20.4106 -20.4101 -20.4101 -20.4100 -20.4100
    -9.4912  -9.4912  -9.2339  -9.2339  -9.2070  -9.2069  -8.8242  -8.8242
    -8.7162  -8.7161  -8.6077  -8.6077  -8.5656  -8.5656  -8.5495  -8.5495
    -8.3004  -8.3004  -8.2550  -8.2550  -8.1537  -8.1537  -8.1154  -8.1154
     1.9854   1.9854   2.0828   2.0828   2.1408   2.1408   2.2630   2.2630
     2.8057   2.8057   2.8475   2.8475   2.9651   2.9651   2.9751   2.9751
     3.0407   3.0407   3.4117   3.4117   3.5848   3.5848   3.6362   3.6362
     3.8985   3.8985   3.9865   3.9865   4.0815   4.0815   4.2254   4.2254
     4.2671   4.2671   4.4401   4.4401   4.5485   4.5485   4.7839   4.7839
     4.8081   4.8081   4.8496   4.8496   5.0021   5.0021   5.2983   5.2983
     6.8113   6.8113   6.8812   6.8812   6.9027   6.9027   6.9835   6.9835
     7.0707   7.0707   7.1355   7.1355   7.2416   7.2416   7.4690   7.4690
     7.5169   7.5169   7.5617   7.5617   7.6007   7.6007   7.8179   7.8179
    11.0557  11.0557  11.3835  11.3835  11.4202  11.4202  11.7459  11.7459
    11.8212  11.8212  12.1592  12.1592  12.4070  12.4070  12.4428  12.4428
    12.5353  12.5353  12.6782  12.6782  12.6858  12.6858  13.1095  13.1095
    15.6897  15.6897  16.2359  16.2359  16.3963  16.3963  16.4526  16.4526
    16.7119  16.7119  17.0262  17.0262  17.1840

          k =-0.5000 0.3278-0.5010 ( 62832 PWs)   bands (ev):

   -66.2968 -66.2968 -66.2968 -66.2968 -66.2965 -66.2965 -66.2965 -66.2965
   -30.6390 -30.6390 -30.6390 -30.6390 -30.6321 -30.6321 -30.6321 -30.6321
   -30.6161 -30.6161 -30.6161 -30.6161 -30.6076 -30.6076 -30.6076 -30.6076
   -30.5869 -30.5869 -30.5869 -30.5869 -30.5649 -30.5649 -30.5649 -30.5649
   -20.4666 -20.4665 -20.4665 -20.4665 -20.4665 -20.4665 -20.4664 -20.4664
   -20.4549 -20.4548 -20.4548 -20.4548 -20.4547 -20.4547 -20.4547 -20.4547
   -20.4402 -20.4402 -20.4402 -20.4402 -20.4401 -20.4401 -20.4401 -20.4401
   -20.4346 -20.4346 -20.4346 -20.4346 -20.4342 -20.4342 -20.4342 -20.4342
   -20.4242 -20.4242 -20.4242 -20.4242 -20.4217 -20.4217 -20.4216 -20.4216
   -20.4204 -20.4204 -20.4204 -20.4204 -20.4197 -20.4197 -20.4197 -20.4197
   -20.4104 -20.4104 -20.4103 -20.4103 -20.4103 -20.4103 -20.4103 -20.4103
    -9.3209  -9.3209  -9.3209  -9.3209  -8.9793  -8.9793  -8.9793  -8.9793
    -8.5752  -8.5752  -8.5752  -8.5752  -8.5246  -8.5246  -8.5246  -8.5246
    -8.5022  -8.5022  -8.5022  -8.5022  -8.1456  -8.1456  -8.1456  -8.1456
     2.1260   2.1260   2.1260   2.1260   2.7190   2.7190   2.7190   2.7190
     2.8476   2.8476   2.8476   2.8477   2.9288   2.9288   2.9289   2.9289
     3.1159   3.1159   3.1159   3.1159   3.8241   3.8241   3.8241   3.8241
     3.9132   3.9132   3.9132   3.9132   4.0502   4.0502   4.0502   4.0502
     4.1326   4.1326   4.1326   4.1326   4.3082   4.3082   4.3082   4.3082
     4.6738   4.6738   4.6738   4.6739   5.0422   5.0422   5.0422   5.0422
     6.8879   6.8879   6.8879   6.8879   6.9561   6.9561   6.9561   6.9561
     7.2911   7.2911   7.2911   7.2911   7.4201   7.4201   7.4201   7.4201
     7.4911   7.4911   7.4911   7.4911   7.6658   7.6658   7.6659   7.6659
    11.6156  11.6156  11.6156  11.6156  11.8189  11.8189  11.8189  11.8189
    11.8996  11.8997  11.8997  11.8997  12.0023  12.0023  12.0023  12.0023
    12.5683  12.5683  12.5683  12.5683  12.7050  12.7050  12.7050  12.7050
    16.2375  16.2375  16.2375  16.2375  16.7222  16.7222  16.7222  16.7222
    17.1667  17.1667  17.1667  17.1667  17.3430

          k =-0.5000-0.4917 0.0000 ( 62892 PWs)   bands (ev):

   -66.2970 -66.2970 -66.2970 -66.2969 -66.2964 -66.2963 -66.2963 -66.2963
   -30.6462 -30.6462 -30.6461 -30.6461 -30.6354 -30.6354 -30.6339 -30.6339
   -30.6329 -30.6329 -30.6311 -30.6311 -30.5924 -30.5924 -30.5908 -30.5908
   -30.5861 -30.5861 -30.5841 -30.5841 -30.5569 -30.5569 -30.5566 -30.5566
   -20.4671 -20.4671 -20.4671 -20.4671 -20.4658 -20.4658 -20.4658 -20.4658
   -20.4551 -20.4551 -20.4551 -20.4551 -20.4545 -20.4545 -20.4545 -20.4545
   -20.4410 -20.4410 -20.4410 -20.4410 -20.4394 -20.4394 -20.4394 -20.4394
   -20.4346 -20.4346 -20.4345 -20.4345 -20.4342 -20.4342 -20.4341 -20.4341
   -20.4227 -20.4227 -20.4226 -20.4226 -20.4224 -20.4224 -20.4224 -20.4223
   -20.4217 -20.4217 -20.4215 -20.4215 -20.4192 -20.4192 -20.4192 -20.4192
   -20.4109 -20.4109 -20.4109 -20.4109 -20.4098 -20.4098 -20.4098 -20.4097
    -9.5975  -9.5975  -9.5860  -9.5860  -8.9238  -8.9238  -8.8708  -8.8708
    -8.7190  -8.7190  -8.6780  -8.6780  -8.4797  -8.4797  -8.4519  -8.4519
    -8.4129  -8.4129  -8.3904  -8.3904  -7.8755  -7.8755  -7.8749  -7.8749
     1.1863   1.1863   1.1911   1.1911   2.7512   2.7512   2.7983   2.7983
     2.8223   2.8223   2.8302   2.8302   2.9885   2.9885   3.0882   3.0882
     3.0937   3.0938   3.2264   3.2264   3.2604   3.2604   3.3148   3.3148
     3.3461   3.3461   3.6098   3.6098   4.2231   4.2231   4.2999   4.2999
     4.3271   4.3272   4.3847   4.3847   5.0456   5.0456   5.0922   5.0922
     5.3679   5.3679   5.5143   5.5143   5.9959   5.9959   6.0086   6.0086
     6.4172   6.4172   6.4446   6.4446   6.5381   6.5381   6.5793   6.5793
     7.1516   7.1517   7.1994   7.1994   7.3975   7.3975   7.4029   7.4029
     7.4884   7.4884   7.5264   7.5265   7.6408   7.6408   7.6767   7.6767
    10.8941  10.8942  10.9949  10.9949  11.1175  11.1175  11.2389  11.2389
    12.0011  12.0011  12.1420  12.1420  12.2688  12.2688  12.3216  12.3216
    13.0435  13.0435  13.0892  13.0892  13.4394  13.4394  13.4447  13.4447
    14.7789  14.7789  14.8070  14.8070  16.3254  16.3254  16.5105  16.5105
    17.1726  17.1726  17.2189  17.2189  17.3112

          k =-0.5000-0.4917 0.1670 ( 62880 PWs)   bands (ev):

   -66.2969 -66.2969 -66.2969 -66.2969 -66.2964 -66.2964 -66.2964 -66.2964
   -30.6422 -30.6422 -30.6421 -30.6421 -30.6344 -30.6344 -30.6335 -30.6335
   -30.6327 -30.6327 -30.6313 -30.6313 -30.5938 -30.5938 -30.5923 -30.5923
   -30.5854 -30.5854 -30.5835 -30.5835 -30.5610 -30.5610 -30.5606 -30.5606
   -20.4670 -20.4670 -20.4670 -20.4670 -20.4659 -20.4659 -20.4659 -20.4659
   -20.4551 -20.4551 -20.4551 -20.4551 -20.4546 -20.4545 -20.4545 -20.4545
   -20.4409 -20.4409 -20.4409 -20.4409 -20.4395 -20.4395 -20.4395 -20.4395
   -20.4346 -20.4346 -20.4345 -20.4345 -20.4343 -20.4343 -20.4341 -20.4341
   -20.4228 -20.4228 -20.4226 -20.4226 -20.4225 -20.4225 -20.4224 -20.4224
   -20.4215 -20.4215 -20.4213 -20.4213 -20.4194 -20.4194 -20.4193 -20.4193
   -20.4108 -20.4108 -20.4108 -20.4108 -20.4098 -20.4098 -20.4098 -20.4098
    -9.5282  -9.5282  -9.5152  -9.5151  -8.9390  -8.9390  -8.8873  -8.8872
    -8.7049  -8.7049  -8.6652  -8.6652  -8.4780  -8.4779  -8.4541  -8.4541
    -8.4108  -8.4108  -8.3935  -8.3934  -7.9831  -7.9831  -7.9821  -7.9821
     1.4304   1.4304   1.4361   1.4361   2.7596   2.7596   2.7994   2.7994
     2.8211   2.8211   2.8269   2.8269   2.9934   2.9934   3.0677   3.0677
     3.1601   3.1601   3.2636   3.2636   3.3006   3.3006   3.3566   3.3566
     3.4066   3.4066   3.6441   3.6441   4.2261   4.2261   4.2933   4.2933
     4.3304   4.3304   4.3736   4.3736   4.8184   4.8184   4.8494   4.8494
     5.0989   5.0989   5.2232   5.2232   5.6416   5.6416   5.6471   5.6471
     6.6592   6.6592   6.6825   6.6825   6.7348   6.7348   6.7924   6.7924
     7.1492   7.1492   7.2097   7.2097   7.3853   7.3853   7.4076   7.4076
     7.4824   7.4824   7.5277   7.5277   7.6214   7.6214   7.6673   7.6673
    11.0012  11.0012  11.0958  11.0959  11.2275  11.2276  11.3454  11.3455
    12.0126  12.0127  12.1418  12.1418  12.2742  12.2742  12.3164  12.3164
    12.8787  12.8787  12.9146  12.9146  13.2556  13.2556  13.2601  13.2601
    15.1741  15.1741  15.1865  15.1865  16.4088  16.4088  16.5861  16.5861
    17.1600  17.1600  17.2094  17.2094  17.3112

          k =-0.5000-0.4917 0.3340 ( 62876 PWs)   bands (ev):

   -66.2968 -66.2968 -66.2968 -66.2968 -66.2965 -66.2965 -66.2965 -66.2965
   -30.6369 -30.6369 -30.6359 -30.6359 -30.6339 -30.6339 -30.6324 -30.6324
   -30.6261 -30.6261 -30.6254 -30.6254 -30.5991 -30.5991 -30.5980 -30.5980
   -30.5834 -30.5834 -30.5816 -30.5816 -30.5706 -30.5706 -30.5698 -30.5698
   -20.4668 -20.4668 -20.4668 -20.4668 -20.4662 -20.4662 -20.4662 -20.4662
   -20.4550 -20.4550 -20.4549 -20.4549 -20.4546 -20.4546 -20.4546 -20.4546
   -20.4406 -20.4406 -20.4406 -20.4406 -20.4398 -20.4398 -20.4398 -20.4398
   -20.4346 -20.4345 -20.4345 -20.4344 -20.4343 -20.4343 -20.4342 -20.4342
   -20.4229 -20.4229 -20.4227 -20.4227 -20.4226 -20.4226 -20.4225 -20.4225
   -20.4209 -20.4209 -20.4208 -20.4208 -20.4198 -20.4198 -20.4197 -20.4197
   -20.4106 -20.4106 -20.4106 -20.4106 -20.4100 -20.4100 -20.4100 -20.4100
    -9.3449  -9.3449  -9.3258  -9.3258  -8.9961  -8.9961  -8.9499  -8.9499
    -8.6518  -8.6518  -8.6182  -8.6182  -8.4754  -8.4754  -8.4593  -8.4592
    -8.4108  -8.4108  -8.4001  -8.4001  -8.2339  -8.2339  -8.2314  -8.2314
     2.0645   2.0645   2.0774   2.0774   2.7674   2.7674   2.7980   2.7980
     2.8191   2.8191   2.8291   2.8291   3.0232   3.0232   3.0673   3.0673
     3.2006   3.2006   3.2988   3.2989   3.3998   3.3998   3.4221   3.4221
     3.6471   3.6471   3.7828   3.7828   4.2215   4.2215   4.2679   4.2679
     4.2931   4.2931   4.3313   4.3313   4.4245   4.4245   4.4526   4.4526
     4.6149   4.6149   4.7491   4.7491   4.8941   4.8941   4.9102   4.9102
     6.9652   6.9652   7.0062   7.0062   7.0273   7.0273   7.0943   7.0943
     7.1663   7.1663   7.2504   7.2504   7.3463   7.3463   7.4316   7.4316
     7.4581   7.4581   7.5285   7.5285   7.5815   7.5815   7.6316   7.6316
    11.3212  11.3212  11.3880  11.3880  11.5646  11.5646  11.6642  11.6642
    12.0160  12.0161  12.1452  12.1452  12.2582  12.2582  12.2990  12.2990
    12.4624  12.4624  12.5082  12.5082  12.7830  12.7830  12.7901  12.7901
    16.0758  16.0758  16.1285  16.1285  16.6529  16.6529  16.7984  16.7984
    17.0915  17.0915  17.1123  17.1123  17.3466

          k =-0.5000-0.4917-0.5010 ( 62816 PWs)   bands (ev):

   -66.2967 -66.2967 -66.2967 -66.2967 -66.2967 -66.2966 -66.2966 -66.2966
   -30.6353 -30.6353 -30.6353 -30.6353 -30.6336 -30.6336 -30.6336 -30.6336
   -30.6110 -30.6110 -30.6110 -30.6110 -30.6103 -30.6103 -30.6103 -30.6103
   -30.5790 -30.5790 -30.5790 -30.5790 -30.5776 -30.5776 -30.5775 -30.5775
   -20.4666 -20.4665 -20.4665 -20.4665 -20.4665 -20.4665 -20.4664 -20.4664
   -20.4548 -20.4548 -20.4548 -20.4548 -20.4547 -20.4547 -20.4547 -20.4547
   -20.4402 -20.4402 -20.4402 -20.4402 -20.4401 -20.4401 -20.4401 -20.4401
   -20.4345 -20.4345 -20.4345 -20.4345 -20.4343 -20.4343 -20.4343 -20.4343
   -20.4228 -20.4228 -20.4228 -20.4228 -20.4226 -20.4226 -20.4226 -20.4226
   -20.4204 -20.4204 -20.4204 -20.4204 -20.4202 -20.4202 -20.4202 -20.4201
   -20.4103 -20.4103 -20.4103 -20.4103 -20.4103 -20.4103 -20.4103 -20.4103
    -9.1328  -9.1327  -9.1327  -9.1327  -9.0991  -9.0991  -9.0991  -9.0991
    -8.5300  -8.5300  -8.5299  -8.5299  -8.5103  -8.5102  -8.5102  -8.5102
    -8.4321  -8.4321  -8.4321  -8.4321  -8.3826  -8.3826  -8.3825  -8.3825
     2.6354   2.6354   2.6354   2.6354   2.7600   2.7600   2.7600   2.7600
     2.8702   2.8702   2.8702   2.8702   3.0571   3.0571   3.0571   3.0571
     3.1767   3.1767   3.1767   3.1767   3.3348   3.3348   3.3348   3.3348
     4.0368   4.0368   4.0368   4.0368   4.1104   4.1104   4.1104   4.1104
     4.2233   4.2233   4.2233   4.2233   4.2827   4.2827   4.2828   4.2828
     4.4071   4.4071   4.4071   4.4071   4.4967   4.4967   4.4967   4.4967
     7.0780   7.0780   7.0780   7.0780   7.1934   7.1934   7.1934   7.1934
     7.2708   7.2708   7.2708   7.2708   7.3613   7.3613   7.3613   7.3613
     7.4950   7.4950   7.4950   7.4950   7.5786   7.5786   7.5786   7.5786
    11.7408  11.7408  11.7408  11.7408  11.8655  11.8655  11.8655  11.8655
    12.0670  12.0670  12.0670  12.0670  12.1684  12.1684  12.1684  12.1684
    12.2639  12.2639  12.2639  12.2639  12.3687  12.3687  12.3687  12.3687
    16.7366  16.7366  16.7366  16.7367  16.9033  16.9033  16.9033  16.9033
    17.3053  17.3053  17.3054  17.3055  17.3729

     the Fermi energy is     9.2523 ev

!    total energy              =   -6260.95448555 Ry
     Harris-Foulkes estimate   =   -6260.95448555 Ry
     estimated scf accuracy    <          1.5E-09 Ry

     The total energy is the sum of the following terms:

     one-electron contribution =   -4761.89128968 Ry
     hartree contribution      =    2616.16593488 Ry
     xc contribution           =    -965.82065449 Ry
     ewald contribution        =   -3149.40846868 Ry
     smearing contrib. (-TS)   =      -0.00000758 Ry

     convergence has been achieved in  13 iterations

     Writing output data file Landau_28.save/
 
     init_run     :     39.18s CPU     40.77s WALL (       1 calls)
     electrons    :   1624.84s CPU   1647.57s WALL (       1 calls)

     Called by init_run:
     wfcinit      :     35.39s CPU     36.84s WALL (       1 calls)
     potinit      :      1.62s CPU      1.66s WALL (       1 calls)
     hinit0       :      1.81s CPU      1.85s WALL (       1 calls)

     Called by electrons:
     c_bands      :   1445.90s CPU   1466.88s WALL (      13 calls)
     sum_band     :    170.26s CPU    171.26s WALL (      13 calls)
     v_of_rho     :      1.85s CPU      1.90s WALL (      14 calls)
     mix_rho      :      3.39s CPU      3.97s WALL (      13 calls)

     Called by c_bands:
     init_us_2    :     13.76s CPU     14.72s WALL (      54 calls)
     cegterg      :   1162.09s CPU   1181.26s WALL (      26 calls)

     Called by sum_band:

     Called by *egterg:
     h_psi        :    891.28s CPU    900.75s WALL (     123 calls)
     g_psi        :      4.03s CPU      4.03s WALL (      95 calls)
     cdiaghg      :     15.48s CPU     15.55s WALL (     121 calls)

     Called by h_psi:
     h_psi:pot    :    888.52s CPU    892.12s WALL (     123 calls)
     h_psi:calbec :    116.27s CPU    118.34s WALL (     123 calls)
     vloc_psi     :    648.82s CPU    649.81s WALL (     123 calls)
     add_vuspsi   :    123.42s CPU    123.97s WALL (     123 calls)

     General routines
     calbec       :    116.27s CPU    118.34s WALL (     123 calls)
     fft          :      0.74s CPU      0.74s WALL (      42 calls)
     ffts         :      0.24s CPU      0.24s WALL (      13 calls)
     fftw         :    646.55s CPU    646.98s WALL (   33954 calls)
 
     Parallel routines
 
     PWSCF        :  27m48.06s CPU  28m14.46s WALL

 
   This run was terminated on:   0:23:23  22Nov2019            

=------------------------------------------------------------------------------=
   JOB DONE.
=------------------------------------------------------------------------------=
