
     Program PWSCF v.6.2 (svn rev. 14038) starts on 21Mar2020 at  2: 0:33 

     This program is part of the open-source Quantum ESPRESSO suite
     for quantum simulation of materials; please cite
         "P. Giannozzi et al., J. Phys.:Condens. Matter 21 395502 (2009);
         "P. Giannozzi et al., J. Phys.:Condens. Matter 29 465901 (2017);
          URL http://www.quantum-espresso.org", 
     in publications or presentations arising from this work. More details at
     http://www.quantum-espresso.org/quote

     Parallel version (MPI), running on    40 processors

     MPI processes distributed on     9 nodes
     K-points division:     npool     =      40
     Reading input from scf.in

     Current dimensions of program PWSCF are:
     Max number of different atomic species (ntypx) = 10
     Max number of k-points (npk) =  40000
     Max angular momentum in pseudopotentials (lmaxx) =  3

     Subspace diagonalization in iterative solution of the eigenvalue problem:
     a serial algorithm will be used

 
     G-vector sticks info
     --------------------
     sticks:   dense  smooth     PW     G-vecs:    dense   smooth      PW
     Sum        7689    7689   2055               500221   500221   69345
 


     bravais-lattice index     =            0
     lattice parameter (alat)  =      13.9549  a.u.
     unit-cell volume          =    2817.4412 (a.u.)^3
     number of atoms/cell      =           32
     number of atomic types    =            2
     number of electrons       =       368.60
     number of Kohn-Sham states=          221
     kinetic-energy cutoff     =     120.0000  Ry
     charge density cutoff     =     480.0000  Ry
     convergence threshold     =      1.0E-08
     mixing beta               =       0.7000
     number of iterations used =            8  plain     mixing
     Exchange-correlation      = SLA PW NOGX NOGC ( 1  4  0  0 0 0)

     celldm(1)=  13.954855  celldm(2)=   0.000000  celldm(3)=   0.000000
     celldm(4)=   0.000000  celldm(5)=   0.000000  celldm(6)=   0.000000

     crystal axes: (cart. coord. in units of alat)
               a(1) = (   1.000000   0.000000   0.000000 )  
               a(2) = (   0.000000   1.033147   0.000000 )  
               a(3) = (   0.000000   0.000000   1.003499 )  

     reciprocal axes: (cart. coord. in units 2 pi/alat)
               b(1) = (  1.000000  0.000000  0.000000 )  
               b(2) = (  0.000000  0.967917  0.000000 )  
               b(3) = (  0.000000  0.000000  0.996513 )  


     PseudoPot. # 1 for W  read from file:
     /cluster/scratch/mnoe/QE/pps/W_ONCV_LDA-4.0.upf
     MD5 check sum: ba0307d5d4cd419d6f1d13dc49d7c13a
     Pseudo is Norm-conserving + core correction, Zval = 28.0
     Generated using ONCVPSP code by D. R. Hamann
     Using radial grid of 1380 points,  8 beta functions with: 
                l(1) =   0
                l(2) =   0
                l(3) =   1
                l(4) =   1
                l(5) =   2
                l(6) =   2
                l(7) =   3
                l(8) =   3

     PseudoPot. # 2 for O  read from file:
     /cluster/scratch/mnoe/QE/pps/O_ONCV_LDA-3.0.upf
     MD5 check sum: a1bd6164e7280c17a38c229939bfbd54
     Pseudo is Norm-conserving + core correction, Zval =  6.0
     Generated using ONCVPSP code by D. R. Hamann
     Using radial grid of  926 points,  5 beta functions with: 
                l(1) =   0
                l(2) =   0
                l(3) =   1
                l(4) =   1
                l(5) =   2

     atomic species   valence    mass     pseudopotential
        W             28.00   183.84000     W ( 1.00)
        O              6.00    15.99940     O ( 1.00)

      8 Sym. Ops., with inversion, found ( 6 have fractional translation)



   Cartesian axes

     site n.     atom                  positions (alat units)
         1           W   tau(   1) = (   0.2370500   0.2869049   0.0122728  )
         2           W   tau(   2) = (   0.7629500   0.7462419   0.9912260  )
         3           W   tau(   3) = (   0.2629500   0.2296685   0.5140221  )
         4           W   tau(   4) = (   0.7370500   0.8034783   0.4894766  )
         5           W   tau(   5) = (   0.7629500   0.2869049   0.4894766  )
         6           W   tau(   6) = (   0.2370500   0.7462419   0.5140221  )
         7           W   tau(   7) = (   0.7370500   0.2296685   0.9912260  )
         8           W   tau(   8) = (   0.2629500   0.8034783   0.0122728  )
         9           O   tau(   9) = (   0.2261100   0.0074249   0.0038133  )
        10           O   tau(  10) = (   0.7738900   1.0257219   0.9996855  )
        11           O   tau(  11) = (   0.2738900   0.5091485   0.5055626  )
        12           O   tau(  12) = (   0.7261100   0.5239983   0.4979361  )
        13           O   tau(  13) = (   0.7738900   0.0074249   0.4979361  )
        14           O   tau(  14) = (   0.2261100   1.0257219   0.5055626  )
        15           O   tau(  15) = (   0.7261100   0.5091485   0.9996855  )
        16           O   tau(  16) = (   0.2738900   0.5239983   0.0038133  )
        17           O   tau(  17) = (   0.5035400   0.2329643   0.4613204  )
        18           O   tau(  18) = (   0.4964600   0.8001826   0.5421783  )
        19           O   tau(  19) = (   0.9964600   0.2836091   0.9630699  )
        20           O   tau(  20) = (   0.0035400   0.7495377   0.0404289  )
        21           O   tau(  21) = (   0.4964600   0.2329643   0.0404289  )
        22           O   tau(  22) = (   0.5035400   0.8001826   0.9630699  )
        23           O   tau(  23) = (   0.0035400   0.2836091   0.5421783  )
        24           O   tau(  24) = (   0.9964600   0.7495377   0.4613204  )
        25           O   tau(  25) = (   0.7097120   0.2527594   0.7472352  )
        26           O   tau(  26) = (   0.2902880   0.7803875   0.2562635  )
        27           O   tau(  27) = (   0.7902880   0.2638140   0.2454859  )
        28           O   tau(  28) = (   0.2097120   0.7693328   0.7580129  )
        29           O   tau(  29) = (   0.2902880   0.2527594   0.7580129  )
        30           O   tau(  30) = (   0.7097120   0.7803875   0.2454859  )
        31           O   tau(  31) = (   0.2097120   0.2638140   0.2562635  )
        32           O   tau(  32) = (   0.7902880   0.7693328   0.7472352  )

     number of k points=    64  gaussian smearing, width (Ry)=  0.0007
                       cart. coord. in units 2pi/alat
        k(    1) = (   0.0000000   0.0000000   0.0000000), wk =   0.0092593
        k(    2) = (   0.0000000   0.0000000   0.1660856), wk =   0.0185185
        k(    3) = (   0.0000000   0.0000000   0.3321711), wk =   0.0185185
        k(    4) = (   0.0000000   0.0000000  -0.4982567), wk =   0.0092593
        k(    5) = (   0.0000000   0.1613194   0.0000000), wk =   0.0185185
        k(    6) = (   0.0000000   0.1613194   0.1660856), wk =   0.0370370
        k(    7) = (   0.0000000   0.1613194   0.3321711), wk =   0.0370370
        k(    8) = (   0.0000000   0.1613194  -0.4982567), wk =   0.0185185
        k(    9) = (   0.0000000   0.3226389   0.0000000), wk =   0.0185185
        k(   10) = (   0.0000000   0.3226389   0.1660856), wk =   0.0370370
        k(   11) = (   0.0000000   0.3226389   0.3321711), wk =   0.0370370
        k(   12) = (   0.0000000   0.3226389  -0.4982567), wk =   0.0185185
        k(   13) = (   0.0000000  -0.4839583   0.0000000), wk =   0.0092593
        k(   14) = (   0.0000000  -0.4839583   0.1660856), wk =   0.0185185
        k(   15) = (   0.0000000  -0.4839583   0.3321711), wk =   0.0185185
        k(   16) = (   0.0000000  -0.4839583  -0.4982567), wk =   0.0092593
        k(   17) = (   0.1666667   0.0000000   0.0000000), wk =   0.0185185
        k(   18) = (   0.1666667   0.0000000   0.1660856), wk =   0.0370370
        k(   19) = (   0.1666667   0.0000000   0.3321711), wk =   0.0370370
        k(   20) = (   0.1666667   0.0000000  -0.4982567), wk =   0.0185185
        k(   21) = (   0.1666667   0.1613194   0.0000000), wk =   0.0370370
        k(   22) = (   0.1666667   0.1613194   0.1660856), wk =   0.0740741
        k(   23) = (   0.1666667   0.1613194   0.3321711), wk =   0.0740741
        k(   24) = (   0.1666667   0.1613194  -0.4982567), wk =   0.0370370
        k(   25) = (   0.1666667   0.3226389   0.0000000), wk =   0.0370370
        k(   26) = (   0.1666667   0.3226389   0.1660856), wk =   0.0740741
        k(   27) = (   0.1666667   0.3226389   0.3321711), wk =   0.0740741
        k(   28) = (   0.1666667   0.3226389  -0.4982567), wk =   0.0370370
        k(   29) = (   0.1666667  -0.4839583   0.0000000), wk =   0.0185185
        k(   30) = (   0.1666667  -0.4839583   0.1660856), wk =   0.0370370
        k(   31) = (   0.1666667  -0.4839583   0.3321711), wk =   0.0370370
        k(   32) = (   0.1666667  -0.4839583  -0.4982567), wk =   0.0185185
        k(   33) = (   0.3333333   0.0000000   0.0000000), wk =   0.0185185
        k(   34) = (   0.3333333   0.0000000   0.1660856), wk =   0.0370370
        k(   35) = (   0.3333333   0.0000000   0.3321711), wk =   0.0370370
        k(   36) = (   0.3333333   0.0000000  -0.4982567), wk =   0.0185185
        k(   37) = (   0.3333333   0.1613194   0.0000000), wk =   0.0370370
        k(   38) = (   0.3333333   0.1613194   0.1660856), wk =   0.0740741
        k(   39) = (   0.3333333   0.1613194   0.3321711), wk =   0.0740741
        k(   40) = (   0.3333333   0.1613194  -0.4982567), wk =   0.0370370
        k(   41) = (   0.3333333   0.3226389   0.0000000), wk =   0.0370370
        k(   42) = (   0.3333333   0.3226389   0.1660856), wk =   0.0740741
        k(   43) = (   0.3333333   0.3226389   0.3321711), wk =   0.0740741
        k(   44) = (   0.3333333   0.3226389  -0.4982567), wk =   0.0370370
        k(   45) = (   0.3333333  -0.4839583   0.0000000), wk =   0.0185185
        k(   46) = (   0.3333333  -0.4839583   0.1660856), wk =   0.0370370
        k(   47) = (   0.3333333  -0.4839583   0.3321711), wk =   0.0370370
        k(   48) = (   0.3333333  -0.4839583  -0.4982567), wk =   0.0185185
        k(   49) = (  -0.5000000   0.0000000   0.0000000), wk =   0.0092593
        k(   50) = (  -0.5000000   0.0000000   0.1660856), wk =   0.0185185
        k(   51) = (  -0.5000000   0.0000000   0.3321711), wk =   0.0185185
        k(   52) = (  -0.5000000   0.0000000  -0.4982567), wk =   0.0092593
        k(   53) = (  -0.5000000   0.1613194   0.0000000), wk =   0.0185185
        k(   54) = (  -0.5000000   0.1613194   0.1660856), wk =   0.0370370
        k(   55) = (  -0.5000000   0.1613194   0.3321711), wk =   0.0370370
        k(   56) = (  -0.5000000   0.1613194  -0.4982567), wk =   0.0185185
        k(   57) = (  -0.5000000   0.3226389   0.0000000), wk =   0.0185185
        k(   58) = (  -0.5000000   0.3226389   0.1660856), wk =   0.0370370
        k(   59) = (  -0.5000000   0.3226389   0.3321711), wk =   0.0370370
        k(   60) = (  -0.5000000   0.3226389  -0.4982567), wk =   0.0185185
        k(   61) = (  -0.5000000  -0.4839583   0.0000000), wk =   0.0092593
        k(   62) = (  -0.5000000  -0.4839583   0.1660856), wk =   0.0185185
        k(   63) = (  -0.5000000  -0.4839583   0.3321711), wk =   0.0185185
        k(   64) = (  -0.5000000  -0.4839583  -0.4982567), wk =   0.0092593

     Dense  grid:   500221 G-vectors     FFT dimensions: ( 100, 108, 100)

     Estimated max dynamical RAM per process >       3.14 GB

     Estimated total dynamical RAM >     125.62 GB

     Initial potential from superposition of free atoms

     starting charge  367.99656, renormalised to  368.60000
     Starting wfc are  232 randomized atomic wfcs

     total cpu time spent up to now is       32.0 secs

     Self-consistent Calculation

     iteration #  1     ecut=   120.00 Ry     beta= 0.70
     Davidson diagonalization with overlap
     ethr =  1.00E-02,  avg # of iterations =  5.2

     total cpu time spent up to now is      136.0 secs

     total energy              =   -6253.45207017 Ry
     Harris-Foulkes estimate   =   -6264.26682130 Ry
     estimated scf accuracy    <      13.62516388 Ry

     iteration #  2     ecut=   120.00 Ry     beta= 0.70
     Davidson diagonalization with overlap
     ethr =  3.70E-03,  avg # of iterations =  3.6

     total cpu time spent up to now is      232.6 secs

     total energy              =   -6250.41016345 Ry
     Harris-Foulkes estimate   =   -6270.25444689 Ry
     estimated scf accuracy    <      52.76674383 Ry

     iteration #  3     ecut=   120.00 Ry     beta= 0.70
     Davidson diagonalization with overlap
     ethr =  3.70E-03,  avg # of iterations =  3.5

     total cpu time spent up to now is      325.1 secs

     total energy              =   -6260.67635329 Ry
     Harris-Foulkes estimate   =   -6260.94033268 Ry
     estimated scf accuracy    <       0.88402433 Ry

     iteration #  4     ecut=   120.00 Ry     beta= 0.70
     Davidson diagonalization with overlap
     ethr =  2.40E-04,  avg # of iterations =  3.3

     total cpu time spent up to now is      403.6 secs

     total energy              =   -6260.65623452 Ry
     Harris-Foulkes estimate   =   -6260.73630147 Ry
     estimated scf accuracy    <       0.21736334 Ry

     iteration #  5     ecut=   120.00 Ry     beta= 0.70
     Davidson diagonalization with overlap
     ethr =  5.90E-05,  avg # of iterations =  5.4

     total cpu time spent up to now is      493.1 secs

     total energy              =   -6260.67379857 Ry
     Harris-Foulkes estimate   =   -6260.69696447 Ry
     estimated scf accuracy    <       0.05518546 Ry

     iteration #  6     ecut=   120.00 Ry     beta= 0.70
     Davidson diagonalization with overlap
     ethr =  1.50E-05,  avg # of iterations =  5.6

     total cpu time spent up to now is      583.9 secs

     total energy              =   -6260.68443381 Ry
     Harris-Foulkes estimate   =   -6260.68745376 Ry
     estimated scf accuracy    <       0.00812184 Ry

     iteration #  7     ecut=   120.00 Ry     beta= 0.70
     Davidson diagonalization with overlap
     ethr =  2.20E-06,  avg # of iterations =  5.8

     total cpu time spent up to now is      673.8 secs

     total energy              =   -6260.68538672 Ry
     Harris-Foulkes estimate   =   -6260.68551847 Ry
     estimated scf accuracy    <       0.00023570 Ry

     iteration #  8     ecut=   120.00 Ry     beta= 0.70
     Davidson diagonalization with overlap
     ethr =  6.39E-08,  avg # of iterations =  3.2

     total cpu time spent up to now is      773.9 secs

     total energy              =   -6260.68548186 Ry
     Harris-Foulkes estimate   =   -6260.68550127 Ry
     estimated scf accuracy    <       0.00008116 Ry

     iteration #  9     ecut=   120.00 Ry     beta= 0.70
     Davidson diagonalization with overlap
     ethr =  2.20E-08,  avg # of iterations =  2.0

     total cpu time spent up to now is      848.5 secs

     total energy              =   -6260.68548198 Ry
     Harris-Foulkes estimate   =   -6260.68549045 Ry
     estimated scf accuracy    <       0.00003730 Ry

     iteration # 10     ecut=   120.00 Ry     beta= 0.70
     Davidson diagonalization with overlap
     ethr =  1.01E-08,  avg # of iterations =  1.4

     total cpu time spent up to now is      919.9 secs

     total energy              =   -6260.68547942 Ry
     Harris-Foulkes estimate   =   -6260.68548431 Ry
     estimated scf accuracy    <       0.00001155 Ry

     iteration # 11     ecut=   120.00 Ry     beta= 0.70
     Davidson diagonalization with overlap
     ethr =  3.13E-09,  avg # of iterations =  3.0

     total cpu time spent up to now is      997.6 secs

     total energy              =   -6260.68548180 Ry
     Harris-Foulkes estimate   =   -6260.68548186 Ry
     estimated scf accuracy    <       0.00000012 Ry

     iteration # 12     ecut=   120.00 Ry     beta= 0.70
     Davidson diagonalization with overlap
     ethr =  3.27E-11,  avg # of iterations =  3.0

     total cpu time spent up to now is     1095.8 secs

     total energy              =   -6260.68548184 Ry
     Harris-Foulkes estimate   =   -6260.68548186 Ry
     estimated scf accuracy    <       0.00000003 Ry

     iteration # 13     ecut=   120.00 Ry     beta= 0.70
     Davidson diagonalization with overlap
     ethr =  7.68E-12,  avg # of iterations =  2.4

     total cpu time spent up to now is     1183.1 secs

     End of self-consistent calculation

          k = 0.0000 0.0000 0.0000 ( 62463 PWs)   bands (ev):

   -66.1071 -66.1066 -66.1063 -66.1062 -66.1058 -66.1057 -66.1054 -66.1049
   -30.5323 -30.5265 -30.5252 -30.5195 -30.4820 -30.4739 -30.4726 -30.4672
   -30.4661 -30.4540 -30.4535 -30.4481 -30.4431 -30.4418 -30.4309 -30.4216
   -30.3721 -30.3703 -30.3681 -30.3677 -30.3599 -30.3541 -30.3519 -30.3468
   -20.2595 -20.2593 -20.2589 -20.2588 -20.2583 -20.2582 -20.2577 -20.2576
   -20.2486 -20.2483 -20.2478 -20.2475 -20.2475 -20.2469 -20.2464 -20.2456
   -20.2454 -20.2453 -20.2441 -20.2433 -20.2431 -20.2422 -20.2418 -20.2415
   -20.2409 -20.2407 -20.2405 -20.2403 -20.2402 -20.2397 -20.2395 -20.2393
   -20.2320 -20.2316 -20.2315 -20.2313 -20.2297 -20.2293 -20.2292 -20.2289
   -20.2115 -20.2114 -20.2100 -20.2100 -20.2065 -20.2064 -20.2057 -20.2056
   -20.2048 -20.2048 -20.2040 -20.2040 -20.2012 -20.2011 -20.1998 -20.1998
    -9.9714  -9.6504  -9.5703  -9.5667  -9.2672  -9.2397  -9.1806  -9.0277
    -9.0046  -8.9586  -8.9268  -8.9201  -7.9023  -7.8259  -7.8127  -7.8033
    -7.7857  -7.7621  -7.7568  -7.7490  -7.7018  -7.6884  -7.6665  -7.6607
     1.2079   1.2180   1.2624   1.2860   1.2903   1.2970   1.3520   1.4759
     1.5246   1.5739   1.5754   1.7936   2.4265   2.5019   2.5297   2.5350
     2.6322   2.6820   4.1543   4.2237   4.3608   4.4943   4.6288   4.6750
     4.7167   4.7302   4.7309   4.7420   4.9276   4.9539   5.1669   5.3858
     5.4150   5.4758   5.4998   5.5330   5.5493   5.5991   5.6799   5.7455
     5.7587   5.7597   5.8165   5.9140   5.9576   5.9840   6.0561   6.0711
     6.0929   6.2790   6.2966   6.4010   6.4084   6.7073   6.7985   6.8605
     6.8958   6.9027   6.9332   6.9501   6.9654   7.0144   7.1574   7.1745
     7.2244   7.2342   7.8911   7.9131   7.9499   8.0153   8.0830   8.1368
     9.4594   9.4944   9.8603   9.8762   9.8988   9.9066  12.2428  12.3465
    12.4511  12.5049  12.5078  12.5267  12.5812  12.5859  12.6430  12.9015
    13.1448  13.2096  13.2163  13.3828  13.6725  13.7258  14.0676  14.0727
    14.4923  14.4960  14.7489  14.7889  15.2285  15.2596  15.6315  15.9068
    16.0020  16.8282  16.9486  17.0496  17.2727

          k = 0.0000 0.0000 0.1661 ( 62547 PWs)   bands (ev):

   -66.1071 -66.1065 -66.1064 -66.1062 -66.1058 -66.1056 -66.1055 -66.1049
   -30.5318 -30.5269 -30.5248 -30.5198 -30.4802 -30.4730 -30.4706 -30.4636
   -30.4625 -30.4540 -30.4485 -30.4485 -30.4403 -30.4391 -30.4318 -30.4203
   -30.3773 -30.3755 -30.3733 -30.3732 -30.3596 -30.3538 -30.3534 -30.3478
   -20.2594 -20.2593 -20.2590 -20.2589 -20.2582 -20.2581 -20.2577 -20.2577
   -20.2486 -20.2484 -20.2478 -20.2475 -20.2474 -20.2468 -20.2465 -20.2455
   -20.2455 -20.2452 -20.2442 -20.2435 -20.2430 -20.2421 -20.2417 -20.2417
   -20.2410 -20.2407 -20.2406 -20.2403 -20.2402 -20.2397 -20.2396 -20.2393
   -20.2319 -20.2316 -20.2315 -20.2313 -20.2297 -20.2293 -20.2292 -20.2289
   -20.2112 -20.2111 -20.2097 -20.2097 -20.2068 -20.2068 -20.2056 -20.2055
   -20.2052 -20.2052 -20.2041 -20.2041 -20.2011 -20.2010 -20.1999 -20.1998
    -9.9277  -9.5967  -9.5849  -9.5111  -9.2515  -9.1888  -9.1799  -8.9907
    -8.9670  -8.9463  -8.9234  -8.8931  -7.9354  -7.9286  -7.8657  -7.8296
    -7.8289  -7.8195  -7.7750  -7.7677  -7.7521  -7.7514  -7.6947  -7.6672
     1.2740   1.2841   1.3110   1.3542   1.3874   1.3916   1.4718   1.5487
     1.5711   1.6582   1.7348   1.9099   2.5109   2.5125   2.6158   2.6196
     2.6243   2.7655   4.1071   4.1572   4.3248   4.3950   4.4017   4.4768
     4.5120   4.6186   4.7508   4.7545   4.7760   4.9431   5.1637   5.2246
     5.3124   5.4102   5.4404   5.5105   5.5576   5.5592   5.6097   5.6541
     5.6894   5.7685   5.8167   5.8949   5.9448   5.9655   6.0958   6.1159
     6.1480   6.3965   6.4139   6.4661   6.6668   6.6769   6.7245   6.7493
     6.8018   6.8644   6.9199   6.9250   6.9479   7.0156   7.0243   7.0304
     7.0629   7.0988   7.8753   7.8887   7.9708   8.0173   8.0325   8.0880
     9.7196   9.7877   9.8586   9.9332  10.1447  10.1880  12.2702  12.2918
    12.3453  12.4426  12.5518  12.5537  12.6252  12.6449  12.6673  12.7850
    13.0244  13.1558  13.2398  13.3961  13.7260  13.7430  13.9308  13.9573
    14.5312  14.6340  14.7453  14.9016  15.2794  15.3375  15.6008  15.9741
    16.2325  16.7566  16.9982  17.1299  17.3606

          k = 0.0000 0.0000 0.3322 ( 62533 PWs)   bands (ev):

   -66.1069 -66.1065 -66.1064 -66.1060 -66.1060 -66.1056 -66.1055 -66.1051
   -30.5307 -30.5279 -30.5237 -30.5208 -30.4775 -30.4740 -30.4638 -30.4562
   -30.4556 -30.4531 -30.4499 -30.4348 -30.4334 -30.4293 -30.4291 -30.4153
   -30.3921 -30.3910 -30.3884 -30.3873 -30.3587 -30.3556 -30.3529 -30.3498
   -20.2593 -20.2592 -20.2591 -20.2590 -20.2581 -20.2580 -20.2578 -20.2578
   -20.2485 -20.2484 -20.2477 -20.2476 -20.2472 -20.2466 -20.2465 -20.2458
   -20.2452 -20.2448 -20.2444 -20.2438 -20.2428 -20.2421 -20.2420 -20.2415
   -20.2414 -20.2408 -20.2405 -20.2402 -20.2401 -20.2397 -20.2395 -20.2393
   -20.2318 -20.2316 -20.2315 -20.2314 -20.2296 -20.2294 -20.2292 -20.2290
   -20.2103 -20.2102 -20.2088 -20.2088 -20.2077 -20.2077 -20.2062 -20.2062
   -20.2053 -20.2052 -20.2044 -20.2044 -20.2008 -20.2008 -20.2001 -20.2001
    -9.8225  -9.6305  -9.4728  -9.3846  -9.2884  -9.2164  -8.9586  -8.9325
    -8.9317  -8.8310  -8.8197  -8.7654  -8.2211  -8.2161  -8.1513  -8.1413
    -7.8643  -7.8398  -7.7815  -7.7604  -7.7584  -7.7340  -7.7119  -7.6849
     1.2784   1.2807   1.3611   1.3684   1.4415   1.4628   1.5265   1.5659
     2.2440   2.3030   2.3780   2.4723   2.5325   2.6125   2.7580   2.8561
     2.8680   2.9956   3.7044   3.8241   3.8410   3.9839   4.0294   4.2699
     4.4142   4.4951   4.5775   4.5878   4.6297   4.7552   4.8854   5.0527
     5.0941   5.1098   5.1390   5.3125   5.3524   5.4601   5.6372   5.7253
     5.7287   5.7490   5.8445   5.8633   6.0014   6.1150   6.1168   6.1980
     6.2130   6.3497   6.3573   6.4134   6.4884   6.5263   6.5488   6.7489
     6.7594   6.8956   6.9070   6.9256   6.9745   7.0151   7.0559   7.1221
     7.1894   7.2532   7.7694   7.7792   7.8727   7.9339   8.0000   8.0166
     9.8322   9.8532  10.4495  10.5208  10.7661  10.8385  11.8879  11.9503
    12.1359  12.3222  12.4245  12.6464  12.6522  12.6890  12.7005  12.7669
    12.8922  13.1676  13.2061  13.2591  13.6055  13.6646  13.7294  13.7809
    14.6394  14.7333  14.9824  15.1925  15.4849  15.5003  15.8068  15.8863
    16.1979  17.1184  17.3329  17.5429  17.6939

          k = 0.0000 0.0000-0.4983 ( 62524 PWs)   bands (ev):

   -66.1067 -66.1067 -66.1062 -66.1062 -66.1058 -66.1058 -66.1053 -66.1053
   -30.5293 -30.5292 -30.5222 -30.5222 -30.4755 -30.4755 -30.4586 -30.4586
   -30.4522 -30.4522 -30.4415 -30.4415 -30.4125 -30.4125 -30.4118 -30.4118
   -30.4093 -30.4093 -30.4039 -30.4039 -30.3573 -30.3573 -30.3515 -30.3515
   -20.2592 -20.2592 -20.2591 -20.2591 -20.2580 -20.2580 -20.2579 -20.2579
   -20.2485 -20.2485 -20.2477 -20.2477 -20.2469 -20.2469 -20.2461 -20.2461
   -20.2448 -20.2448 -20.2443 -20.2443 -20.2425 -20.2425 -20.2417 -20.2417
   -20.2412 -20.2411 -20.2403 -20.2403 -20.2399 -20.2399 -20.2394 -20.2394
   -20.2317 -20.2317 -20.2314 -20.2314 -20.2295 -20.2295 -20.2291 -20.2291
   -20.2090 -20.2090 -20.2090 -20.2090 -20.2076 -20.2075 -20.2075 -20.2075
   -20.2049 -20.2049 -20.2048 -20.2048 -20.2005 -20.2005 -20.2004 -20.2004
    -9.7113  -9.7113  -9.3588  -9.3588  -9.2757  -9.2757  -8.9449  -8.9449
    -8.5749  -8.5749  -8.5567  -8.5567  -8.5518  -8.5518  -8.4988  -8.4988
    -7.8533  -7.8533  -7.7715  -7.7715  -7.7352  -7.7352  -7.7094  -7.7094
     1.2788   1.2789   1.3696   1.3696   1.4534   1.4534   1.5578   1.5578
     2.5601   2.5601   3.0161   3.0161   3.0844   3.0844   3.1441   3.1442
     3.2255   3.2255   3.2586   3.2586   3.5012   3.5012   3.7232   3.7233
     3.7611   3.7611   4.5289   4.5289   4.5495   4.5495   4.9682   4.9682
     5.1550   5.1551   5.2290   5.2290   5.2864   5.2864   5.6862   5.6862
     5.8016   5.8016   5.9494   5.9495   5.9941   5.9941   6.1874   6.1874
     6.1921   6.1921   6.2794   6.2794   6.4636   6.4636   6.5298   6.5298
     6.7574   6.7574   6.9177   6.9177   6.9987   6.9987   7.4826   7.4826
     7.5230   7.5230   7.5875   7.5875   7.6557   7.6558   8.0130   8.0130
     9.8448   9.8448  11.2138  11.2138  11.2896  11.2896  11.5041  11.5042
    11.6140  11.6140  12.5736  12.5736  12.6766  12.6767  12.9402  12.9402
    12.9563  12.9563  13.2314  13.2314  13.3583  13.3584  13.7458  13.7458
    14.7061  14.7061  15.3033  15.3033  15.6392  15.6392  15.7247  15.7247
    16.6144  16.6144  17.8388  17.8389  17.9627

          k = 0.0000 0.1613 0.0000 ( 62594 PWs)   bands (ev):

   -66.1071 -66.1066 -66.1063 -66.1062 -66.1058 -66.1057 -66.1054 -66.1049
   -30.5282 -30.5223 -30.5210 -30.5150 -30.4842 -30.4758 -30.4751 -30.4672
   -30.4662 -30.4578 -30.4540 -30.4475 -30.4442 -30.4423 -30.4330 -30.4241
   -30.3720 -30.3704 -30.3682 -30.3678 -30.3596 -30.3546 -30.3517 -30.3472
   -20.2594 -20.2592 -20.2588 -20.2587 -20.2583 -20.2582 -20.2577 -20.2577
   -20.2485 -20.2482 -20.2476 -20.2475 -20.2473 -20.2469 -20.2465 -20.2455
   -20.2455 -20.2452 -20.2439 -20.2432 -20.2432 -20.2424 -20.2418 -20.2415
   -20.2411 -20.2409 -20.2406 -20.2405 -20.2403 -20.2398 -20.2395 -20.2394
   -20.2319 -20.2317 -20.2315 -20.2313 -20.2297 -20.2293 -20.2292 -20.2289
   -20.2115 -20.2114 -20.2100 -20.2100 -20.2065 -20.2064 -20.2057 -20.2056
   -20.2048 -20.2048 -20.2040 -20.2040 -20.2012 -20.2011 -20.1998 -20.1998
    -9.9376  -9.6628  -9.5266  -9.5250  -9.2748  -9.2485  -9.1019  -9.0257
    -9.0061  -8.9120  -8.8879  -8.8831  -7.9871  -7.9280  -7.9091  -7.8655
    -7.8114  -7.8023  -7.7637  -7.7589  -7.6998  -7.6923  -7.6718  -7.6634
     1.2083   1.2169   1.2836   1.2909   1.3252   1.3521   1.4272   1.5749
     1.6863   1.7451   1.7833   1.9419   2.4341   2.5199   2.5809   2.6153
     2.7051   2.7611   4.0021   4.0824   4.0900   4.1895   4.5797   4.6600
     4.7001   4.7255   4.7371   4.8051   4.8833   4.8905   5.0558   5.2502
     5.3009   5.4268   5.4425   5.5699   5.6137   5.6238   5.6477   5.6857
     5.7010   5.7410   5.8113   5.9265   5.9859   5.9970   6.0432   6.0683
     6.0898   6.2489   6.3151   6.4220   6.4716   6.7288   6.7442   6.7857
     6.8648   6.9007   6.9043   6.9178   6.9276   6.9331   7.1639   7.1743
     7.2321   7.2328   7.8829   7.9111   7.9291   7.9765   8.0404   8.0608
     9.4736   9.4960  10.0680  10.0782  10.0981  10.0993  12.1437  12.3007
    12.4049  12.4531  12.4533  12.4724  12.5085  12.5160  12.6244  12.9168
    13.1344  13.1995  13.2107  13.3925  13.7326  13.7788  13.9650  13.9672
    14.6071  14.7394  14.8933  14.9524  15.2269  15.2535  15.8837  15.9685
    16.0317  16.5403  17.0982  17.1989  17.5146

          k = 0.0000 0.1613 0.1661 ( 62563 PWs)   bands (ev):

   -66.1070 -66.1066 -66.1063 -66.1061 -66.1059 -66.1057 -66.1054 -66.1050
   -30.5277 -30.5227 -30.5205 -30.5154 -30.4827 -30.4756 -30.4727 -30.4636
   -30.4626 -30.4583 -30.4485 -30.4479 -30.4411 -30.4397 -30.4338 -30.4226
   -30.3772 -30.3756 -30.3735 -30.3733 -30.3593 -30.3543 -30.3531 -30.3483
   -20.2593 -20.2592 -20.2588 -20.2587 -20.2583 -20.2582 -20.2578 -20.2577
   -20.2485 -20.2482 -20.2476 -20.2475 -20.2473 -20.2468 -20.2466 -20.2456
   -20.2453 -20.2451 -20.2440 -20.2434 -20.2431 -20.2424 -20.2417 -20.2417
   -20.2412 -20.2409 -20.2406 -20.2404 -20.2403 -20.2398 -20.2396 -20.2394
   -20.2319 -20.2316 -20.2315 -20.2313 -20.2297 -20.2293 -20.2292 -20.2290
   -20.2111 -20.2111 -20.2097 -20.2097 -20.2068 -20.2068 -20.2056 -20.2055
   -20.2052 -20.2052 -20.2041 -20.2041 -20.2011 -20.2010 -20.1999 -20.1998
    -9.8924  -9.6092  -9.5410  -9.4648  -9.2604  -9.1876  -9.1101  -8.9881
    -8.9684  -8.9018  -8.8865  -8.8591  -7.9951  -7.9394  -7.9267  -7.9157
    -7.8829  -7.8714  -7.8270  -7.7928  -7.7798  -7.7540  -7.6988  -7.6699
     1.3055   1.3110   1.3258   1.3543   1.4967   1.5255   1.5492   1.6902
     1.7344   1.7798   1.7886   2.0102   2.5206   2.5846   2.6101   2.6983
     2.7010   2.8439   4.0158   4.0329   4.1340   4.1726   4.3473   4.3937
     4.5625   4.5655   4.6453   4.7475   4.7710   4.8939   5.0495   5.1539
     5.2224   5.3116   5.3944   5.4057   5.4517   5.5780   5.6324   5.6421
     5.7414   5.7645   5.7841   5.9062   5.9068   5.9793   6.0646   6.1236
     6.1466   6.3454   6.4432   6.4746   6.6653   6.6988   6.7423   6.7594
     6.8006   6.8751   6.8939   6.9025   6.9271   6.9294   7.0204   7.0365
     7.0823   7.0980   7.8690   7.8874   7.9382   7.9769   7.9927   8.0185
     9.7728   9.7943  10.0784  10.1152  10.2935  10.3378  12.2036  12.2468
    12.3494  12.3828  12.4516  12.4748  12.5618  12.5728  12.6661  12.8150
    12.9981  13.1420  13.2275  13.3938  13.7330  13.8131  13.8219  13.8584
    14.6809  14.8631  14.9346  15.0454  15.2762  15.3385  15.9404  16.0010
    16.2083  16.6959  16.8885  17.2557  17.5812

          k = 0.0000 0.1613 0.3322 ( 62543 PWs)   bands (ev):

   -66.1069 -66.1065 -66.1064 -66.1060 -66.1060 -66.1056 -66.1055 -66.1051
   -30.5266 -30.5237 -30.5193 -30.5164 -30.4801 -30.4766 -30.4670 -30.4598
   -30.4559 -30.4532 -30.4493 -30.4366 -30.4334 -30.4303 -30.4289 -30.4172
   -30.3921 -30.3911 -30.3885 -30.3877 -30.3584 -30.3553 -30.3534 -30.3503
   -20.2592 -20.2591 -20.2589 -20.2588 -20.2582 -20.2581 -20.2579 -20.2578
   -20.2484 -20.2483 -20.2476 -20.2474 -20.2472 -20.2467 -20.2465 -20.2458
   -20.2450 -20.2447 -20.2443 -20.2437 -20.2429 -20.2422 -20.2421 -20.2416
   -20.2415 -20.2409 -20.2407 -20.2404 -20.2401 -20.2397 -20.2396 -20.2394
   -20.2318 -20.2316 -20.2316 -20.2314 -20.2296 -20.2293 -20.2292 -20.2290
   -20.2103 -20.2102 -20.2088 -20.2088 -20.2077 -20.2077 -20.2062 -20.2062
   -20.2053 -20.2052 -20.2044 -20.2044 -20.2008 -20.2008 -20.2001 -20.2001
    -9.7837  -9.5872  -9.4850  -9.3239  -9.2981  -9.1383  -8.9397  -8.9282
    -8.8955  -8.8330  -8.8062  -8.7459  -8.2236  -8.2188  -8.1645  -8.1388
    -7.9553  -7.9353  -7.8900  -7.8675  -7.7656  -7.7368  -7.7166  -7.6877
     1.3283   1.3357   1.3611   1.3683   1.6571   1.6683   1.7358   1.7749
     2.2436   2.3094   2.3792   2.4871   2.6078   2.6817   2.7684   2.8627
     2.9388   3.0688   3.7143   3.8310   3.8432   3.9251   4.0871   4.1405
     4.1994   4.3568   4.5054   4.5171   4.5860   4.7128   4.7426   4.9370
     4.9686   5.0894   5.0976   5.1178   5.3183   5.4128   5.4867   5.6468
     5.7072   5.7694   5.7980   5.8501   5.8929   6.0612   6.1204   6.1216
     6.2614   6.4057   6.4194   6.4812   6.5163   6.6234   6.7178   6.7234
     6.7997   6.8438   6.8776   6.9007   6.9179   6.9574   7.1022   7.1162
     7.1936   7.2535   7.7715   7.7758   7.8419   7.8829   7.9558   7.9719
    10.0577  10.0777  10.4610  10.5285  10.8687  10.9305  11.8912  11.9489
    12.1455  12.3604  12.3846  12.4872  12.5948  12.6378  12.6872  12.7213
    12.7799  13.1701  13.1811  13.2179  13.4859  13.5908  13.7365  13.7988
    14.8024  14.8695  15.3115  15.3316  15.4724  15.8293  15.8545  15.9084
    16.3271  17.0877  17.1543  17.3993  17.6550

          k = 0.0000 0.1613-0.4983 ( 62494 PWs)   bands (ev):

   -66.1067 -66.1067 -66.1062 -66.1062 -66.1058 -66.1058 -66.1053 -66.1053
   -30.5251 -30.5251 -30.5178 -30.5178 -30.4781 -30.4781 -30.4625 -30.4625
   -30.4517 -30.4517 -30.4426 -30.4426 -30.4126 -30.4126 -30.4121 -30.4121
   -30.4094 -30.4093 -30.4050 -30.4049 -30.3570 -30.3570 -30.3520 -30.3520
   -20.2591 -20.2591 -20.2590 -20.2590 -20.2580 -20.2580 -20.2579 -20.2579
   -20.2483 -20.2483 -20.2475 -20.2475 -20.2470 -20.2470 -20.2462 -20.2462
   -20.2447 -20.2446 -20.2442 -20.2442 -20.2426 -20.2426 -20.2419 -20.2419
   -20.2412 -20.2412 -20.2405 -20.2405 -20.2399 -20.2399 -20.2395 -20.2395
   -20.2317 -20.2317 -20.2315 -20.2315 -20.2295 -20.2295 -20.2291 -20.2291
   -20.2090 -20.2090 -20.2090 -20.2090 -20.2076 -20.2075 -20.2075 -20.2075
   -20.2049 -20.2049 -20.2048 -20.2048 -20.2005 -20.2005 -20.2004 -20.2004
    -9.6694  -9.6694  -9.3698  -9.3698  -9.2018  -9.2018  -8.9086  -8.9086
    -8.5816  -8.5816  -8.5580  -8.5580  -8.5523  -8.5522  -8.4924  -8.4923
    -7.9480  -7.9479  -7.8804  -7.8804  -7.7411  -7.7411  -7.7122  -7.7122
     1.3336   1.3336   1.3695   1.3695   1.6710   1.6710   1.7667   1.7667
     2.6325   2.6325   3.0309   3.0309   3.1160   3.1160   3.1376   3.1376
     3.2219   3.2219   3.2897   3.2897   3.4912   3.4912   3.7429   3.7429
     3.8135   3.8136   4.2816   4.2816   4.4563   4.4563   4.7581   4.7581
     5.0086   5.0086   5.2010   5.2010   5.2857   5.2857   5.5191   5.5191
     5.7203   5.7203   5.8314   5.8314   6.0066   6.0066   6.1855   6.1855
     6.2777   6.2777   6.3403   6.3403   6.5161   6.5161   6.6506   6.6506
     6.8221   6.8221   6.8796   6.8796   6.9100   6.9100   7.4925   7.4926
     7.5193   7.5193   7.5727   7.5727   7.6305   7.6305   7.9665   7.9665
    10.0739  10.0739  11.2220  11.2220  11.2896  11.2896  11.5709  11.5709
    11.6714  11.6714  12.5130  12.5130  12.5881  12.5882  12.8751  12.8751
    12.9510  12.9510  13.1081  13.1081  13.3150  13.3150  13.7528  13.7528
    14.8503  14.8503  15.6647  15.6647  15.6992  15.6992  15.7878  15.7878
    16.6741  16.6741  17.6193  17.6194  17.9836

          k = 0.0000 0.3226 0.0000 ( 62620 PWs)   bands (ev):

   -66.1070 -66.1067 -66.1062 -66.1061 -66.1059 -66.1058 -66.1053 -66.1050
   -30.5174 -30.5111 -30.5095 -30.5029 -30.4915 -30.4835 -30.4821 -30.4699
   -30.4670 -30.4665 -30.4538 -30.4492 -30.4456 -30.4400 -30.4377 -30.4298
   -30.3716 -30.3707 -30.3684 -30.3681 -30.3587 -30.3558 -30.3510 -30.3484
   -20.2591 -20.2590 -20.2585 -20.2585 -20.2584 -20.2584 -20.2579 -20.2578
   -20.2482 -20.2478 -20.2476 -20.2473 -20.2470 -20.2468 -20.2468 -20.2458
   -20.2450 -20.2448 -20.2436 -20.2434 -20.2431 -20.2429 -20.2418 -20.2418
   -20.2416 -20.2413 -20.2409 -20.2407 -20.2403 -20.2400 -20.2396 -20.2396
   -20.2319 -20.2317 -20.2314 -20.2313 -20.2296 -20.2294 -20.2292 -20.2290
   -20.2115 -20.2114 -20.2100 -20.2100 -20.2065 -20.2064 -20.2057 -20.2056
   -20.2048 -20.2048 -20.2040 -20.2040 -20.2012 -20.2012 -20.1998 -20.1998
    -9.8558  -9.7011  -9.4330  -9.4257  -9.2999  -9.2770  -9.0213  -9.0102
    -8.8791  -8.7636  -8.7552  -8.7513  -8.2389  -8.1959  -8.1809  -8.1596
    -7.8085  -7.8081  -7.7666  -7.7639  -7.6946  -7.6891  -7.6793  -7.6707
     1.2094   1.2142   1.2925   1.2938   1.3473   1.3524   1.5397   1.5730
     2.2737   2.3829   2.4326   2.4512   2.5012   2.5530   2.8011   2.8714
     2.9148   3.0083   3.5838   3.6121   3.6899   3.7234   4.0915   4.4021
     4.4847   4.6549   4.7039   4.7174   4.7276   4.7704   4.9659   4.9848
     5.0349   5.0618   5.3132   5.3524   5.5240   5.5300   5.6647   5.7056
     5.8509   5.8699   5.8994   5.9103   5.9251   6.0258   6.0352   6.0943
     6.1176   6.1760   6.2877   6.4641   6.4879   6.5367   6.7323   6.7801
     6.7981   6.9066   7.0786   7.0821   7.0833   7.0838   7.1749   7.1786
     7.2341   7.2433   7.7603   7.7962   7.8219   7.8582   7.9198   7.9222
     9.4873   9.4967  10.5444  10.6144  10.6298  10.6609  11.7718  11.9345
    11.9364  12.0119  12.4436  12.4567  12.5042  12.5269  12.7267  12.9326
    13.1820  13.2423  13.2531  13.4153  13.5883  13.7136  13.7305  13.7322
    14.9543  15.2236  15.2332  15.2456  15.2930  15.6147  15.7998  15.8603
    16.0005  17.0171  17.2074  17.6065  17.6968

          k = 0.0000 0.3226 0.1661 ( 62590 PWs)   bands (ev):

   -66.1069 -66.1067 -66.1062 -66.1060 -66.1060 -66.1058 -66.1053 -66.1051
   -30.5168 -30.5114 -30.5089 -30.5032 -30.4904 -30.4838 -30.4804 -30.4703
   -30.4632 -30.4627 -30.4484 -30.4460 -30.4450 -30.4383 -30.4376 -30.4282
   -30.3769 -30.3760 -30.3738 -30.3736 -30.3584 -30.3555 -30.3523 -30.3496
   -20.2590 -20.2589 -20.2586 -20.2585 -20.2584 -20.2583 -20.2580 -20.2579
   -20.2481 -20.2478 -20.2476 -20.2473 -20.2469 -20.2469 -20.2468 -20.2458
   -20.2449 -20.2447 -20.2435 -20.2435 -20.2431 -20.2430 -20.2420 -20.2418
   -20.2417 -20.2413 -20.2408 -20.2408 -20.2402 -20.2400 -20.2396 -20.2396
   -20.2319 -20.2317 -20.2315 -20.2314 -20.2296 -20.2294 -20.2292 -20.2290
   -20.2111 -20.2111 -20.2097 -20.2097 -20.2068 -20.2068 -20.2056 -20.2055
   -20.2052 -20.2052 -20.2041 -20.2041 -20.2011 -20.2011 -20.1999 -20.1999
    -9.8073  -9.6480  -9.4405  -9.3600  -9.2896  -9.2134  -8.9835  -8.9724
    -8.8872  -8.7584  -8.7565  -8.7360  -8.2399  -8.2025  -8.1792  -8.1658
    -7.9214  -7.9048  -7.8220  -7.8067  -7.7777  -7.7611  -7.6957  -7.6772
     1.3114   1.3125   1.3490   1.3545   1.5457   1.5504   1.6897   1.7325
     2.2796   2.3795   2.4286   2.5253   2.5683   2.5875   2.8076   2.9085
     2.9572   3.0907   3.6125   3.6767   3.6918   3.7124   4.0733   4.3412
     4.3734   4.4085   4.4932   4.6557   4.7206   4.7564   4.7988   4.8025
     4.9962   5.0769   5.1377   5.2809   5.3102   5.4054   5.5318   5.6605
     5.6808   5.7216   5.8029   5.8918   5.9875   6.0143   6.0206   6.0906
     6.2267   6.3618   6.4202   6.5043   6.5171   6.7192   6.7506   6.8582
     6.8605   6.9200   6.9788   7.0086   7.0199   7.0218   7.0735   7.1236
     7.1440   7.1586   7.7643   7.7914   7.7948   7.8252   7.8959   7.9055
     9.7972   9.8019  10.6329  10.6650  10.7117  10.7831  11.8553  11.9297
    12.0120  12.0144  12.3420  12.3502  12.5470  12.5718  12.7773  12.8969
    13.0483  13.1848  13.1893  13.3539  13.5580  13.5877  13.6662  13.7412
    15.0359  15.2631  15.2662  15.3784  15.4877  15.6804  15.8316  16.1157
    16.1652  16.9832  17.2801  17.2962  17.5946

          k = 0.0000 0.3226 0.3322 ( 62518 PWs)   bands (ev):

   -66.1068 -66.1065 -66.1064 -66.1061 -66.1059 -66.1056 -66.1055 -66.1052
   -30.5155 -30.5124 -30.5075 -30.5043 -30.4883 -30.4848 -30.4768 -30.4716
   -30.4553 -30.4537 -30.4476 -30.4406 -30.4335 -30.4321 -30.4279 -30.4216
   -30.3921 -30.3915 -30.3887 -30.3884 -30.3575 -30.3546 -30.3544 -30.3515
   -20.2589 -20.2588 -20.2587 -20.2586 -20.2583 -20.2582 -20.2581 -20.2580
   -20.2481 -20.2479 -20.2474 -20.2472 -20.2470 -20.2470 -20.2466 -20.2460
   -20.2446 -20.2444 -20.2438 -20.2434 -20.2433 -20.2429 -20.2424 -20.2422
   -20.2415 -20.2411 -20.2410 -20.2408 -20.2401 -20.2398 -20.2397 -20.2396
   -20.2318 -20.2316 -20.2315 -20.2314 -20.2295 -20.2293 -20.2293 -20.2291
   -20.2103 -20.2102 -20.2088 -20.2088 -20.2077 -20.2077 -20.2062 -20.2062
   -20.2053 -20.2052 -20.2044 -20.2044 -20.2008 -20.2008 -20.2001 -20.2001
    -9.6907  -9.5237  -9.4866  -9.3295  -9.1754  -8.9685  -8.9179  -8.8726
    -8.8388  -8.7686  -8.7203  -8.6667  -8.2975  -8.2684  -8.2118  -8.1956
    -8.1719  -8.1327  -8.1313  -8.0640  -7.7633  -7.7444  -7.7137  -7.6950
     1.3543   1.3610   1.3621   1.3680   2.1364   2.2048   2.2417   2.3001
     2.3770   2.4289   2.4507   2.6534   2.7948   2.8123   2.8378   2.9072
     3.1868   3.2942   3.6473   3.6606   3.6857   3.7749   3.8152   3.8377
     4.0621   4.1938   4.2881   4.2929   4.3781   4.5525   4.5612   4.7076
     4.7215   4.8296   4.9723   5.0490   5.1012   5.1379   5.2192   5.2706
     5.3599   5.5532   5.5988   5.8282   6.0642   6.1138   6.1332   6.1574
     6.3735   6.4482   6.4683   6.5546   6.5873   6.7014   6.7137   6.7306
     6.8895   6.9590   7.0045   7.0268   7.0461   7.0987   7.1600   7.1686
     7.2114   7.2689   7.7001   7.7182   7.7340   7.7874   7.7896   7.8367
    10.4493  10.4789  10.6391  10.7057  11.1715  11.2399  11.8486  11.9413
    11.9844  12.0366  12.1211  12.2502  12.4909  12.5577  12.6769  12.7243
    12.7948  13.0271  13.1347  13.1902  13.2157  13.5091  13.5906  13.6849
    15.1249  15.2441  15.4283  15.7533  15.8398  16.0346  16.0704  16.6454
    16.7342  16.8686  16.9765  17.5345  17.6302

          k = 0.0000 0.3226-0.4983 ( 62556 PWs)   bands (ev):

   -66.1066 -66.1066 -66.1063 -66.1063 -66.1057 -66.1057 -66.1054 -66.1054
   -30.5139 -30.5139 -30.5058 -30.5058 -30.4863 -30.4863 -30.4737 -30.4737
   -30.4503 -30.4503 -30.4451 -30.4451 -30.4127 -30.4127 -30.4126 -30.4126
   -30.4093 -30.4092 -30.4071 -30.4071 -30.3561 -30.3561 -30.3533 -30.3533
   -20.2588 -20.2588 -20.2587 -20.2587 -20.2582 -20.2582 -20.2581 -20.2581
   -20.2480 -20.2480 -20.2472 -20.2472 -20.2471 -20.2471 -20.2463 -20.2463
   -20.2442 -20.2442 -20.2439 -20.2439 -20.2429 -20.2429 -20.2426 -20.2426
   -20.2412 -20.2412 -20.2409 -20.2409 -20.2399 -20.2399 -20.2397 -20.2397
   -20.2317 -20.2316 -20.2315 -20.2315 -20.2294 -20.2294 -20.2292 -20.2292
   -20.2090 -20.2090 -20.2090 -20.2090 -20.2076 -20.2075 -20.2075 -20.2075
   -20.2049 -20.2049 -20.2048 -20.2048 -20.2005 -20.2005 -20.2005 -20.2004
    -9.5705  -9.5705  -9.4050  -9.4050  -8.9993  -8.9993  -8.7917  -8.7917
    -8.6157  -8.6156  -8.5776  -8.5776  -8.5335  -8.5335  -8.4671  -8.4670
    -8.1946  -8.1946  -8.1439  -8.1439  -7.7385  -7.7385  -7.7197  -7.7196
     1.3620   1.3620   1.3692   1.3692   2.2816   2.2816   2.4100   2.4100
     2.8348   2.8348   3.0718   3.0718   3.1187   3.1187   3.1717   3.1717
     3.2087   3.2087   3.3866   3.3866   3.4509   3.4509   3.6826   3.6826
     3.9702   3.9702   4.0061   4.0062   4.0280   4.0280   4.2653   4.2654
     4.8108   4.8108   4.9449   4.9449   5.0777   5.0777   5.1798   5.1798
     5.3648   5.3649   5.7055   5.7056   6.1456   6.1456   6.2021   6.2021
     6.4097   6.4097   6.4464   6.4464   6.4991   6.4992   6.6723   6.6723
     7.0252   7.0252   7.0286   7.0286   7.0802   7.0802   7.4876   7.4876
     7.5015   7.5015   7.5044   7.5045   7.5652   7.5652   7.8004   7.8004
    10.6347  10.6347  11.2368  11.2368  11.2927  11.2927  11.7509  11.7509
    11.8649  11.8649  12.0967  12.0967  12.5171  12.5171  12.6055  12.6055
    12.8925  12.8925  12.9465  12.9465  13.3033  13.3033  13.6134  13.6134
    15.1971  15.1971  15.6165  15.6165  16.2251  16.2251  16.5949  16.5949
    16.8993  16.8994  17.2078  17.2078  17.9514

          k = 0.0000-0.4840 0.0000 ( 62598 PWs)   bands (ev):

   -66.1069 -66.1069 -66.1060 -66.1060 -66.1060 -66.1060 -66.1051 -66.1051
   -30.5036 -30.5036 -30.4965 -30.4965 -30.4947 -30.4947 -30.4863 -30.4863
   -30.4668 -30.4668 -30.4526 -30.4526 -30.4423 -30.4423 -30.4358 -30.4358
   -30.3712 -30.3712 -30.3683 -30.3683 -30.3573 -30.3573 -30.3498 -30.3498
   -20.2587 -20.2587 -20.2586 -20.2586 -20.2582 -20.2582 -20.2581 -20.2581
   -20.2479 -20.2479 -20.2473 -20.2473 -20.2470 -20.2470 -20.2462 -20.2462
   -20.2443 -20.2443 -20.2441 -20.2441 -20.2426 -20.2426 -20.2423 -20.2423
   -20.2417 -20.2417 -20.2409 -20.2409 -20.2402 -20.2402 -20.2396 -20.2396
   -20.2318 -20.2318 -20.2314 -20.2314 -20.2295 -20.2295 -20.2291 -20.2291
   -20.2114 -20.2114 -20.2100 -20.2100 -20.2064 -20.2064 -20.2056 -20.2056
   -20.2048 -20.2048 -20.2040 -20.2040 -20.2012 -20.2012 -20.1998 -20.1998
    -9.7675  -9.7675  -9.3500  -9.3500  -9.3335  -9.3335  -9.0157  -9.0157
    -8.5613  -8.5612  -8.5101  -8.5101  -8.5038  -8.5038  -8.4998  -8.4998
    -7.8071  -7.8071  -7.7674  -7.7674  -7.6872  -7.6872  -7.6803  -7.6803
     1.2115   1.2115   1.2942   1.2942   1.3519   1.3519   1.5662   1.5662
     2.4751   2.4751   2.9938   2.9938   3.1154   3.1154   3.1550   3.1550
     3.1722   3.1722   3.2883   3.2884   3.5148   3.5148   3.5782   3.5782
     3.6826   3.6826   4.6713   4.6713   4.7371   4.7371   5.1245   5.1245
     5.2286   5.2286   5.2346   5.2346   5.2953   5.2953   5.7502   5.7502
     5.7965   5.7965   5.9027   5.9027   6.0287   6.0287   6.0591   6.0591
     6.1564   6.1564   6.2559   6.2559   6.5894   6.5894   6.6372   6.6372
     6.8567   6.8567   7.1714   7.1714   7.2282   7.2282   7.4478   7.4478
     7.4713   7.4713   7.4916   7.4917   7.5250   7.5250   7.9156   7.9156
     9.4942   9.4942  11.1754  11.1754  11.2483  11.2483  11.3157  11.3157
    11.3983  11.3983  12.4529  12.4529  12.5206  12.5206  12.8599  12.8599
    13.3509  13.3509  13.3661  13.3661  13.4413  13.4413  13.6121  13.6121
    15.2140  15.2140  15.4568  15.4568  15.6068  15.6068  15.6499  15.6499
    16.5085  16.5085  17.8502  17.8502  18.0427

          k = 0.0000-0.4840 0.1661 ( 62624 PWs)   bands (ev):

   -66.1068 -66.1068 -66.1061 -66.1061 -66.1059 -66.1059 -66.1052 -66.1052
   -30.5028 -30.5028 -30.4969 -30.4968 -30.4938 -30.4938 -30.4867 -30.4867
   -30.4629 -30.4629 -30.4476 -30.4476 -30.4428 -30.4428 -30.4338 -30.4338
   -30.3765 -30.3765 -30.3738 -30.3738 -30.3570 -30.3570 -30.3510 -30.3510
   -20.2587 -20.2587 -20.2586 -20.2586 -20.2582 -20.2582 -20.2581 -20.2581
   -20.2478 -20.2478 -20.2473 -20.2473 -20.2470 -20.2470 -20.2463 -20.2463
   -20.2442 -20.2442 -20.2440 -20.2440 -20.2427 -20.2427 -20.2425 -20.2425
   -20.2416 -20.2416 -20.2409 -20.2409 -20.2401 -20.2401 -20.2396 -20.2396
   -20.2318 -20.2318 -20.2314 -20.2314 -20.2295 -20.2295 -20.2291 -20.2291
   -20.2111 -20.2111 -20.2097 -20.2097 -20.2068 -20.2068 -20.2055 -20.2055
   -20.2052 -20.2052 -20.2041 -20.2041 -20.2011 -20.2011 -20.1999 -20.1999
    -9.7159  -9.7159  -9.3472  -9.3472  -9.2670  -9.2670  -8.9779  -8.9779
    -8.5668  -8.5668  -8.5147  -8.5146  -8.5034  -8.5034  -8.4935  -8.4935
    -7.9140  -7.9140  -7.8148  -7.8148  -7.7701  -7.7701  -7.6869  -7.6869
     1.3122   1.3122   1.3539   1.3539   1.5510   1.5510   1.7246   1.7246
     2.5613   2.5613   3.0111   3.0111   3.1049   3.1049   3.1529   3.1529
     3.2363   3.2363   3.2843   3.2843   3.5210   3.5210   3.6078   3.6078
     3.7143   3.7143   4.3618   4.3618   4.7452   4.7452   4.9228   4.9228
     5.0299   5.0299   5.1751   5.1751   5.2928   5.2928   5.4744   5.4744
     5.7359   5.7359   5.7584   5.7584   6.0229   6.0229   6.0825   6.0825
     6.3142   6.3142   6.3980   6.3980   6.5868   6.5868   6.8134   6.8134
     6.9218   6.9218   7.0072   7.0072   7.0587   7.0587   7.4563   7.4563
     7.4617   7.4617   7.4858   7.4858   7.5132   7.5132   7.8947   7.8947
     9.8031   9.8031  11.2770  11.2770  11.3232  11.3232  11.3407  11.3407
    11.4293  11.4293  12.3458  12.3458  12.5639  12.5639  12.9122  12.9122
    13.2005  13.2005  13.2745  13.2745  13.3522  13.3522  13.6277  13.6277
    15.2329  15.2329  15.6069  15.6069  15.6607  15.6607  15.9111  15.9111
    16.5781  16.5781  17.7644  17.7647  17.8859

          k = 0.0000-0.4840 0.3322 ( 62548 PWs)   bands (ev):

   -66.1067 -66.1067 -66.1063 -66.1063 -66.1058 -66.1058 -66.1054 -66.1054
   -30.5012 -30.5012 -30.4979 -30.4979 -30.4917 -30.4917 -30.4878 -30.4878
   -30.4544 -30.4544 -30.4446 -30.4446 -30.4332 -30.4332 -30.4255 -30.4255
   -30.3918 -30.3918 -30.3887 -30.3887 -30.3561 -30.3561 -30.3530 -30.3530
   -20.2586 -20.2586 -20.2585 -20.2585 -20.2583 -20.2583 -20.2582 -20.2582
   -20.2477 -20.2477 -20.2474 -20.2474 -20.2468 -20.2468 -20.2464 -20.2464
   -20.2439 -20.2439 -20.2437 -20.2437 -20.2430 -20.2430 -20.2429 -20.2429
   -20.2414 -20.2414 -20.2410 -20.2410 -20.2400 -20.2400 -20.2397 -20.2397
   -20.2317 -20.2317 -20.2315 -20.2315 -20.2294 -20.2294 -20.2292 -20.2292
   -20.2102 -20.2102 -20.2088 -20.2088 -20.2077 -20.2077 -20.2062 -20.2062
   -20.2053 -20.2053 -20.2044 -20.2044 -20.2008 -20.2008 -20.2001 -20.2001
    -9.5933  -9.5933  -9.3906  -9.3906  -9.0380  -9.0380  -8.8495  -8.8495
    -8.6003  -8.6003  -8.5344  -8.5344  -8.4953  -8.4952  -8.4689  -8.4689
    -8.1978  -8.1978  -8.1161  -8.1161  -7.7544  -7.7544  -7.7049  -7.7049
     1.3600   1.3600   1.3670   1.3670   2.2332   2.2332   2.3578   2.3578
     2.8079   2.8079   3.0383   3.0383   3.0996   3.0996   3.1756   3.1756
     3.2381   3.2381   3.3806   3.3806   3.4930   3.4930   3.7166   3.7166
     3.7919   3.7919   3.8178   3.8178   4.3701   4.3701   4.5251   4.5251
     4.7445   4.7445   4.8341   4.8341   5.1376   5.1376   5.1772   5.1772
     5.3419   5.3419   5.6513   5.6513   6.1144   6.1144   6.1695   6.1695
     6.4359   6.4360   6.5027   6.5027   6.5948   6.5948   6.7357   6.7357
     7.0144   7.0144   7.1262   7.1262   7.1338   7.1338   7.4216   7.4216
     7.4423   7.4423   7.4837   7.4837   7.4985   7.4985   7.7921   7.7922
    10.4851  10.4851  11.3146  11.3146  11.3617  11.3617  11.6419  11.6420
    11.7282  11.7282  11.9513  11.9513  12.6914  12.6914  12.7219  12.7219
    12.7854  12.7854  13.0424  13.0424  13.3602  13.3602  13.5447  13.5447
    15.3271  15.3271  15.5621  15.5621  16.2030  16.2030  16.6847  16.6847
    16.8424  16.8424  17.2677  17.2677  17.9150

          k = 0.0000-0.4840-0.4983 ( 62528 PWs)   bands (ev):

   -66.1065 -66.1065 -66.1065 -66.1065 -66.1056 -66.1056 -66.1056 -66.1056
   -30.4994 -30.4994 -30.4994 -30.4994 -30.4896 -30.4896 -30.4896 -30.4896
   -30.4480 -30.4480 -30.4480 -30.4480 -30.4128 -30.4128 -30.4128 -30.4128
   -30.4086 -30.4086 -30.4086 -30.4086 -30.3548 -30.3548 -30.3548 -30.3548
   -20.2585 -20.2585 -20.2585 -20.2585 -20.2584 -20.2584 -20.2584 -20.2584
   -20.2475 -20.2475 -20.2475 -20.2475 -20.2466 -20.2466 -20.2466 -20.2466
   -20.2435 -20.2434 -20.2434 -20.2434 -20.2434 -20.2434 -20.2434 -20.2434
   -20.2412 -20.2412 -20.2412 -20.2412 -20.2398 -20.2398 -20.2398 -20.2398
   -20.2316 -20.2316 -20.2316 -20.2316 -20.2293 -20.2293 -20.2293 -20.2293
   -20.2090 -20.2090 -20.2090 -20.2090 -20.2076 -20.2075 -20.2075 -20.2075
   -20.2049 -20.2049 -20.2049 -20.2048 -20.2005 -20.2005 -20.2005 -20.2005
    -9.4715  -9.4715  -9.4715  -9.4715  -8.7500  -8.7500  -8.7500  -8.7500
    -8.6353  -8.6353  -8.6353  -8.6353  -8.4446  -8.4446  -8.4445  -8.4445
    -8.3819  -8.3819  -8.3819  -8.3819  -7.7296  -7.7296  -7.7296  -7.7296
     1.3680   1.3680   1.3680   1.3680   2.9566   2.9566   2.9566   2.9566
     3.0689   3.0689   3.0689   3.0689   3.1709   3.1709   3.1709   3.1709
     3.2537   3.2537   3.2537   3.2537   3.4765   3.4765   3.4765   3.4765
     3.6061   3.6061   3.6061   3.6061   4.2569   4.2569   4.2569   4.2569
     4.3540   4.3540   4.3540   4.3540   5.1382   5.1382   5.1382   5.1382
     5.4789   5.4789   5.4789   5.4789   6.1975   6.1975   6.1975   6.1975
     6.4571   6.4571   6.4571   6.4571   6.5500   6.5500   6.5500   6.5500
     7.2648   7.2648   7.2648   7.2648   7.3341   7.3341   7.3342   7.3342
     7.4332   7.4332   7.4332   7.4332   7.5876   7.5876   7.5876   7.5876
    11.1964  11.1964  11.1964  11.1964  11.4108  11.4108  11.4108  11.4108
    12.1650  12.1650  12.1650  12.1651  12.2304  12.2304  12.2304  12.2304
    12.9033  12.9033  12.9033  12.9033  13.4106  13.4106  13.4106  13.4106
    15.4590  15.4590  15.4590  15.4590  16.7732  16.7732  16.7733  16.7733
    17.4317  17.4318  17.4319  17.4319  17.5634

          k = 0.1667 0.0000 0.0000 ( 62535 PWs)   bands (ev):

   -66.1071 -66.1065 -66.1063 -66.1062 -66.1058 -66.1057 -66.1055 -66.1049
   -30.5317 -30.5259 -30.5257 -30.5199 -30.4807 -30.4743 -30.4699 -30.4643
   -30.4640 -30.4545 -30.4540 -30.4426 -30.4423 -30.4389 -30.4275 -30.4190
   -30.3742 -30.3728 -30.3676 -30.3673 -30.3658 -30.3598 -30.3558 -30.3510
   -20.2595 -20.2593 -20.2589 -20.2588 -20.2582 -20.2582 -20.2577 -20.2576
   -20.2485 -20.2483 -20.2478 -20.2476 -20.2475 -20.2469 -20.2464 -20.2456
   -20.2455 -20.2453 -20.2441 -20.2434 -20.2430 -20.2422 -20.2418 -20.2414
   -20.2410 -20.2407 -20.2404 -20.2404 -20.2402 -20.2398 -20.2396 -20.2394
   -20.2318 -20.2315 -20.2313 -20.2311 -20.2299 -20.2294 -20.2294 -20.2291
   -20.2114 -20.2113 -20.2101 -20.2101 -20.2064 -20.2064 -20.2053 -20.2053
   -20.2049 -20.2049 -20.2038 -20.2037 -20.2015 -20.2014 -20.2001 -20.2001
    -9.9284  -9.6008  -9.5822  -9.5165  -9.2790  -9.1901  -9.1531  -9.0008
    -8.9633  -8.9346  -8.9307  -8.8844  -7.9529  -7.8872  -7.8583  -7.8474
    -7.8077  -7.7986  -7.7878  -7.7740  -7.7586  -7.7531  -7.7087  -7.6732
     1.2585   1.2617   1.2719   1.2929   1.3788   1.3952   1.4724   1.5223
     1.6014   1.7145   1.7741   1.9335   2.5043   2.5448   2.5870   2.6170
     2.6721   2.7245   4.0757   4.2061   4.2928   4.3728   4.4020   4.4745
     4.5126   4.6687   4.7127   4.7426   4.7509   4.9364   5.1305   5.3403
     5.3535   5.3651   5.4810   5.5034   5.5259   5.5793   5.6255   5.6704
     5.6731   5.7932   5.8326   5.8640   5.9424   6.0207   6.0589   6.0661
     6.2494   6.3843   6.3968   6.4105   6.6340   6.7226   6.7566   6.7714
     6.8411   6.8459   6.8527   6.9134   6.9291   6.9384   7.0474   7.0484
     7.0724   7.0802   7.8793   7.8819   7.9278   7.9808   8.1013   8.1371
     9.7726   9.7882   9.8875   9.8987  10.1294  10.1727  12.1879  12.3522
    12.4055  12.4158  12.4859  12.5503  12.5894  12.5895  12.7172  12.9197
    13.0026  13.2205  13.2985  13.3110  13.6599  13.7189  14.0619  14.0705
    14.4588  14.4896  14.7765  14.9106  15.2782  15.2983  15.5931  15.8826
    16.3157  16.6839  16.9886  17.2336  17.3600

          k = 0.1667 0.0000 0.1661 ( 62545 PWs)   bands (ev):

   -66.1070 -66.1065 -66.1063 -66.1062 -66.1058 -66.1057 -66.1055 -66.1050
   -30.5312 -30.5263 -30.5252 -30.5202 -30.4786 -30.4709 -30.4703 -30.4611
   -30.4598 -30.4546 -30.4488 -30.4428 -30.4398 -30.4369 -30.4284 -30.4178
   -30.3789 -30.3771 -30.3730 -30.3730 -30.3655 -30.3595 -30.3579 -30.3525
   -20.2594 -20.2593 -20.2589 -20.2589 -20.2582 -20.2581 -20.2577 -20.2577
   -20.2485 -20.2483 -20.2478 -20.2476 -20.2474 -20.2468 -20.2464 -20.2456
   -20.2455 -20.2452 -20.2442 -20.2435 -20.2429 -20.2422 -20.2418 -20.2415
   -20.2411 -20.2407 -20.2404 -20.2404 -20.2401 -20.2398 -20.2396 -20.2394
   -20.2318 -20.2314 -20.2313 -20.2311 -20.2298 -20.2294 -20.2294 -20.2291
   -20.2111 -20.2110 -20.2098 -20.2098 -20.2067 -20.2067 -20.2053 -20.2053
   -20.2053 -20.2052 -20.2039 -20.2039 -20.2014 -20.2014 -20.2002 -20.2002
    -9.8829  -9.5422  -9.5309  -9.5266  -9.1986  -9.1918  -9.1650  -8.9567
    -8.9314  -8.9307  -8.8970  -8.8879  -7.9639  -7.9260  -7.8819  -7.8786
    -7.8675  -7.8545  -7.8251  -7.8200  -7.7920  -7.7767  -7.7648  -7.7561
     1.3526   1.3855   1.3878   1.4643   1.4680   1.4736   1.5517   1.6043
     1.6611   1.7158   1.8414   2.0034   2.5901   2.5963   2.6251   2.7050
     2.7169   2.7630   4.0696   4.1131   4.3079   4.3253   4.4282   4.4504
     4.4573   4.4589   4.5279   4.5656   4.6830   4.7626   5.1171   5.1752
     5.2686   5.2743   5.3215   5.4815   5.4933   5.5046   5.5805   5.6827
     5.6841   5.7206   5.7245   5.7914   5.8688   6.0248   6.1321   6.2114
     6.2951   6.4636   6.5490   6.5885   6.6142   6.6628   6.6970   6.7393
     6.7458   6.7519   6.7977   6.8165   6.8685   6.9007   6.9093   6.9960
     7.1277   7.1594   7.8635   7.8672   7.9401   7.9819   8.0546   8.0883
     9.9570   9.9895  10.1015  10.1534  10.1710  10.2712  12.2309  12.3300
    12.3801  12.4009  12.4594  12.4886  12.6209  12.6560  12.7125  12.8047
    12.9830  13.0598  13.3205  13.3328  13.6973  13.7119  13.9261  13.9553
    14.5052  14.6293  14.7727  15.0338  15.3764  15.3888  15.5669  16.2015
    16.2845  16.8467  16.9036  17.1443  17.4446

          k = 0.1667 0.0000 0.3322 ( 62513 PWs)   bands (ev):

   -66.1069 -66.1065 -66.1063 -66.1061 -66.1059 -66.1057 -66.1056 -66.1051
   -30.5301 -30.5273 -30.5241 -30.5212 -30.4752 -30.4713 -30.4642 -30.4561
   -30.4517 -30.4508 -30.4442 -30.4337 -30.4316 -30.4300 -30.4275 -30.4133
   -30.3930 -30.3914 -30.3884 -30.3868 -30.3646 -30.3611 -30.3585 -30.3550
   -20.2593 -20.2592 -20.2591 -20.2590 -20.2581 -20.2580 -20.2578 -20.2578
   -20.2485 -20.2483 -20.2478 -20.2476 -20.2471 -20.2466 -20.2465 -20.2458
   -20.2452 -20.2448 -20.2444 -20.2439 -20.2427 -20.2420 -20.2420 -20.2415
   -20.2414 -20.2408 -20.2404 -20.2403 -20.2401 -20.2398 -20.2396 -20.2394
   -20.2317 -20.2314 -20.2314 -20.2312 -20.2297 -20.2295 -20.2293 -20.2291
   -20.2102 -20.2101 -20.2089 -20.2089 -20.2076 -20.2076 -20.2063 -20.2063
   -20.2050 -20.2049 -20.2042 -20.2042 -20.2011 -20.2011 -20.2005 -20.2004
    -9.7733  -9.5766  -9.4042  -9.3993  -9.2271  -9.2029  -8.9440  -8.9231
    -8.8979  -8.8109  -8.8085  -8.7705  -8.2145  -8.2111  -8.1639  -8.1514
    -7.9117  -7.8769  -7.8540  -7.8282  -7.8015  -7.7897  -7.7854  -7.7645
     1.3645   1.3793   1.4362   1.4586   1.6119   1.6169   1.6839   1.7184
     2.2482   2.3069   2.3729   2.4724   2.6165   2.6905   2.8386   2.8764
     2.9661   2.9995   3.7310   3.8529   3.9035   3.9505   4.0270   4.2844
     4.3092   4.4174   4.4367   4.4997   4.5765   4.7160   4.7336   4.8382
     4.9272   5.0162   5.0745   5.1821   5.1978   5.3322   5.5385   5.6137
     5.7050   5.7373   5.7864   5.8472   5.8701   5.9375   6.0399   6.0582
     6.3603   6.3840   6.4361   6.4963   6.5182   6.6046   6.6757   6.7315
     6.7412   6.8374   6.8375   6.8547   6.9940   7.0286   7.1380   7.1516
     7.2144   7.2661   7.7690   7.7779   7.8830   7.9331   7.9740   7.9803
    10.0941  10.0951  10.5835  10.6648  10.7734  10.8688  11.9505  12.0081
    12.1589  12.3270  12.3534  12.4790  12.6126  12.6978  12.7151  12.8095
    12.8726  13.0486  13.1824  13.2448  13.5823  13.6055  13.7212  13.7511
    14.6356  14.7585  14.9710  15.3414  15.4708  15.6847  15.8684  16.1944
    16.3364  17.0850  17.3033  17.4204  17.5780

          k = 0.1667 0.0000-0.4983 ( 62512 PWs)   bands (ev):

   -66.1067 -66.1067 -66.1061 -66.1061 -66.1059 -66.1059 -66.1054 -66.1053
   -30.5287 -30.5286 -30.5226 -30.5226 -30.4729 -30.4729 -30.4591 -30.4591
   -30.4468 -30.4468 -30.4387 -30.4387 -30.4126 -30.4126 -30.4125 -30.4125
   -30.4091 -30.4090 -30.4028 -30.4028 -30.3632 -30.3632 -30.3570 -30.3570
   -20.2592 -20.2592 -20.2591 -20.2591 -20.2580 -20.2580 -20.2579 -20.2579
   -20.2484 -20.2484 -20.2477 -20.2477 -20.2468 -20.2468 -20.2462 -20.2462
   -20.2448 -20.2448 -20.2444 -20.2444 -20.2424 -20.2424 -20.2418 -20.2418
   -20.2411 -20.2411 -20.2403 -20.2402 -20.2400 -20.2400 -20.2395 -20.2394
   -20.2315 -20.2315 -20.2313 -20.2313 -20.2296 -20.2296 -20.2292 -20.2292
   -20.2089 -20.2089 -20.2089 -20.2089 -20.2077 -20.2077 -20.2076 -20.2076
   -20.2046 -20.2046 -20.2046 -20.2046 -20.2008 -20.2008 -20.2008 -20.2008
    -9.6585  -9.6585  -9.2882  -9.2882  -9.2776  -9.2776  -8.9107  -8.9107
    -8.5882  -8.5881  -8.5594  -8.5593  -8.5364  -8.5364  -8.5003  -8.5003
    -7.8944  -7.8944  -7.8357  -7.8357  -7.8032  -7.8032  -7.7756  -7.7756
     1.3706   1.3706   1.4486   1.4486   1.6234   1.6234   1.7190   1.7190
     2.6398   2.6398   3.0278   3.0278   3.0696   3.0696   3.1723   3.1723
     3.2182   3.2182   3.3399   3.3399   3.5567   3.5567   3.7381   3.7381
     3.7619   3.7619   4.3512   4.3512   4.5089   4.5090   4.9060   4.9060
     4.9612   4.9612   5.0065   5.0065   5.1600   5.1600   5.6452   5.6452
     5.6781   5.6781   5.7825   5.7825   5.8636   5.8636   6.0062   6.0062
     6.2847   6.2847   6.4316   6.4316   6.5259   6.5259   6.7438   6.7438
     6.7960   6.7961   6.8772   6.8772   6.9318   6.9318   7.5107   7.5107
     7.5413   7.5414   7.6021   7.6021   7.6559   7.6559   7.9783   7.9783
    10.1021  10.1021  11.2941  11.2941  11.3741  11.3741  11.5158  11.5158
    11.6315  11.6315  12.4662  12.4662  12.7320  12.7320  12.8465  12.8465
    12.9561  12.9561  13.2169  13.2169  13.2761  13.2761  13.7196  13.7196
    14.7214  14.7214  15.2814  15.2814  15.7824  15.7824  15.9936  15.9936
    16.7001  16.7001  17.7552  17.7553  17.9034

          k = 0.1667 0.1613 0.0000 ( 62546 PWs)   bands (ev):

   -66.1070 -66.1066 -66.1063 -66.1062 -66.1058 -66.1058 -66.1054 -66.1050
   -30.5276 -30.5217 -30.5213 -30.5154 -30.4830 -30.4761 -30.4728 -30.4646
   -30.4641 -30.4584 -30.4544 -30.4450 -30.4418 -30.4382 -30.4292 -30.4213
   -30.3741 -30.3729 -30.3678 -30.3675 -30.3654 -30.3603 -30.3556 -30.3515
   -20.2593 -20.2592 -20.2588 -20.2587 -20.2583 -20.2582 -20.2577 -20.2577
   -20.2484 -20.2481 -20.2477 -20.2475 -20.2474 -20.2469 -20.2465 -20.2456
   -20.2454 -20.2452 -20.2439 -20.2433 -20.2431 -20.2424 -20.2418 -20.2414
   -20.2412 -20.2409 -20.2405 -20.2404 -20.2404 -20.2399 -20.2396 -20.2395
   -20.2318 -20.2315 -20.2313 -20.2311 -20.2299 -20.2295 -20.2294 -20.2291
   -20.2114 -20.2113 -20.2101 -20.2101 -20.2064 -20.2064 -20.2053 -20.2053
   -20.2049 -20.2049 -20.2038 -20.2037 -20.2015 -20.2014 -20.2001 -20.2001
    -9.8934  -9.6131  -9.5409  -9.4677  -9.2868  -9.1620  -9.1112  -8.9928
    -8.9649  -8.8953  -8.8918  -8.8523  -7.9998  -7.9360  -7.9209  -7.8954
    -7.8761  -7.8759  -7.8140  -7.7912  -7.7882  -7.7623  -7.7068  -7.6786
     1.2722   1.2762   1.2857   1.2936   1.5190   1.5353   1.5992   1.6956
     1.7371   1.7791   1.8335   2.0235   2.5154   2.6047   2.6236   2.6695
     2.7520   2.7961   3.9651   4.0461   4.1339   4.2281   4.3233   4.3986
     4.4824   4.5894   4.6850   4.7431   4.8121   4.8878   4.9562   5.2274
     5.2723   5.2912   5.3678   5.4336   5.4672   5.5378   5.6014   5.7102
     5.7239   5.7486   5.8490   5.8913   5.9304   5.9968   6.0564   6.0714
     6.2016   6.3550   6.4078   6.4151   6.6563   6.6964   6.7131   6.7726
     6.7906   6.8410   6.8968   6.9209   6.9355   6.9504   7.0386   7.0528
     7.0812   7.0867   7.8678   7.8806   7.9095   7.9494   8.0456   8.0611
     9.7890   9.7964  10.0699  10.0802  10.3159  10.3397  12.1115  12.3601
    12.3646  12.3952  12.4102  12.4629  12.5043  12.5766  12.6285  12.9087
    13.0074  13.1996  13.2943  13.3129  13.6907  13.7028  13.9599  13.9648
    14.6451  14.7409  14.9695  15.0552  15.2855  15.2931  15.8443  16.0081
    16.2813  16.6849  16.8289  17.3425  17.5882

          k = 0.1667 0.1613 0.1661 ( 62541 PWs)   bands (ev):

   -66.1070 -66.1065 -66.1063 -66.1062 -66.1058 -66.1057 -66.1055 -66.1050
   -30.5271 -30.5220 -30.5209 -30.5158 -30.4811 -30.4734 -30.4729 -30.4612
   -30.4599 -30.4588 -30.4489 -30.4424 -30.4417 -30.4363 -30.4300 -30.4200
   -30.3788 -30.3772 -30.3732 -30.3731 -30.3652 -30.3600 -30.3577 -30.3530
   -20.2593 -20.2592 -20.2588 -20.2588 -20.2583 -20.2582 -20.2578 -20.2577
   -20.2484 -20.2482 -20.2477 -20.2474 -20.2474 -20.2468 -20.2465 -20.2457
   -20.2453 -20.2451 -20.2440 -20.2434 -20.2430 -20.2424 -20.2418 -20.2415
   -20.2413 -20.2409 -20.2405 -20.2404 -20.2403 -20.2399 -20.2396 -20.2395
   -20.2317 -20.2315 -20.2313 -20.2311 -20.2298 -20.2294 -20.2294 -20.2291
   -20.2111 -20.2110 -20.2098 -20.2098 -20.2067 -20.2067 -20.2053 -20.2053
   -20.2052 -20.2052 -20.2039 -20.2039 -20.2014 -20.2014 -20.2002 -20.2002
    -9.8461  -9.5546  -9.4826  -9.4802  -9.1998  -9.1741  -9.1198  -8.9527
    -8.9321  -8.8897  -8.8631  -8.8557  -8.0080  -7.9420  -7.9308  -7.9215
    -7.8920  -7.8875  -7.8744  -7.8654  -7.8396  -7.8062  -7.8009  -7.7762
     1.4581   1.4702   1.4979   1.5205   1.5423   1.5533   1.6043   1.6939
     1.7864   1.8317   1.8431   2.0765   2.6027   2.6700   2.7008   2.7063
     2.7907   2.8385   3.9766   4.0285   4.1390   4.2025   4.3497   4.3988
     4.4332   4.4607   4.5098   4.5599   4.6031   4.6950   4.9467   5.1005
     5.1861   5.2247   5.3052   5.3344   5.3849   5.4473   5.4527   5.5935
     5.6964   5.7308   5.8050   5.8535   5.8606   5.9257   6.1314   6.2013
     6.3006   6.3749   6.5100   6.5848   6.6439   6.6496   6.6747   6.7151
     6.7624   6.7968   6.8342   6.8644   6.8981   6.9252   6.9521   7.0041
     7.1331   7.1606   7.8550   7.8668   7.9096   7.9474   8.0025   8.0186
    10.0020  10.0247  10.2621  10.2940  10.3359  10.4087  12.1670  12.3091
    12.3780  12.4042  12.4172  12.4342  12.5102  12.5546  12.6588  12.8363
    12.9466  13.0207  13.3164  13.3205  13.6738  13.7182  13.8181  13.8605
    14.7277  14.9033  14.9759  15.1596  15.3800  15.3858  15.9613  16.1823
    16.2518  16.8111  16.9678  17.0206  17.4970

          k = 0.1667 0.1613 0.3322 ( 62508 PWs)   bands (ev):

   -66.1068 -66.1064 -66.1064 -66.1061 -66.1060 -66.1056 -66.1056 -66.1052
   -30.5259 -30.5230 -30.5197 -30.5168 -30.4781 -30.4742 -30.4674 -30.4604
   -30.4516 -30.4508 -30.4437 -30.4340 -30.4328 -30.4309 -30.4272 -30.4152
   -30.3930 -30.3916 -30.3885 -30.3872 -30.3643 -30.3608 -30.3590 -30.3555
   -20.2592 -20.2591 -20.2589 -20.2589 -20.2582 -20.2581 -20.2579 -20.2578
   -20.2483 -20.2482 -20.2476 -20.2475 -20.2472 -20.2467 -20.2466 -20.2459
   -20.2450 -20.2447 -20.2443 -20.2438 -20.2428 -20.2422 -20.2421 -20.2416
   -20.2414 -20.2409 -20.2406 -20.2404 -20.2401 -20.2398 -20.2397 -20.2395
   -20.2316 -20.2314 -20.2314 -20.2312 -20.2297 -20.2295 -20.2294 -20.2292
   -20.2102 -20.2101 -20.2089 -20.2089 -20.2076 -20.2076 -20.2063 -20.2063
   -20.2050 -20.2049 -20.2042 -20.2042 -20.2011 -20.2011 -20.2005 -20.2004
    -9.7321  -9.5289  -9.4167  -9.3389  -9.2128  -9.1491  -8.9524  -8.8925
    -8.8653  -8.8102  -8.8001  -8.7508  -8.2193  -8.2122  -8.1772  -8.1488
    -7.9607  -7.9412  -7.9013  -7.8759  -7.8727  -7.8492  -7.8256  -7.8032
     1.5171   1.5250   1.6074   1.6126   1.6645   1.6826   1.7699   1.8296
     2.2479   2.3133   2.3738   2.4854   2.6930   2.7620   2.8637   2.9500
     2.9610   3.0674   3.7425   3.8734   3.8828   3.9111   4.0826   4.1495
     4.2209   4.3560   4.3625   4.4625   4.4976   4.6507   4.6806   4.7703
     4.8101   4.8858   4.9400   5.0835   5.1124   5.2174   5.3794   5.5023
     5.6149   5.6652   5.7519   5.8158   5.8605   5.8652   5.9814   6.0250
     6.3054   6.4498   6.5103   6.5896   6.6282   6.6514   6.6699   6.7226
     6.7649   6.8330   6.8859   6.9373   6.9901   7.0490   7.1385   7.1564
     7.2174   7.2660   7.7698   7.7738   7.8431   7.8808   7.9330   7.9409
    10.2709  10.2846  10.6066  10.6755  10.8770  10.9508  11.9532  12.0060
    12.1749  12.3267  12.3743  12.5003  12.5481  12.5619  12.6703  12.7309
    12.7466  12.9892  13.1608  13.2406  13.4726  13.5017  13.7048  13.7185
    14.8720  14.9600  15.3114  15.4461  15.6770  15.8517  15.9057  16.1664
    16.4442  17.0598  17.2049  17.3743  17.4812

          k = 0.1667 0.1613-0.4983 ( 62514 PWs)   bands (ev):

   -66.1066 -66.1066 -66.1062 -66.1062 -66.1059 -66.1058 -66.1054 -66.1054
   -30.5244 -30.5244 -30.5182 -30.5182 -30.4758 -30.4758 -30.4630 -30.4630
   -30.4464 -30.4464 -30.4395 -30.4394 -30.4128 -30.4127 -30.4127 -30.4127
   -30.4090 -30.4090 -30.4039 -30.4039 -30.3629 -30.3629 -30.3576 -30.3576
   -20.2591 -20.2591 -20.2590 -20.2590 -20.2580 -20.2580 -20.2580 -20.2579
   -20.2483 -20.2483 -20.2475 -20.2475 -20.2469 -20.2469 -20.2462 -20.2462
   -20.2446 -20.2446 -20.2443 -20.2443 -20.2425 -20.2425 -20.2420 -20.2420
   -20.2411 -20.2411 -20.2404 -20.2404 -20.2400 -20.2400 -20.2396 -20.2395
   -20.2315 -20.2315 -20.2313 -20.2313 -20.2296 -20.2296 -20.2293 -20.2293
   -20.2089 -20.2089 -20.2089 -20.2089 -20.2077 -20.2077 -20.2076 -20.2076
   -20.2046 -20.2046 -20.2046 -20.2046 -20.2008 -20.2008 -20.2008 -20.2008
    -9.6131  -9.6131  -9.2889  -9.2889  -9.2146  -9.2146  -8.8778  -8.8778
    -8.5954  -8.5954  -8.5604  -8.5604  -8.5357  -8.5357  -8.4947  -8.4947
    -7.9536  -7.9536  -7.8905  -7.8905  -7.8511  -7.8511  -7.8252  -7.8252
     1.5208   1.5208   1.6186   1.6186   1.6785   1.6785   1.8222   1.8222
     2.7123   2.7123   3.0441   3.0441   3.0972   3.0972   3.1709   3.1710
     3.2194   3.2194   3.3662   3.3662   3.5476   3.5477   3.7642   3.7642
     3.8070   3.8070   4.2821   4.2821   4.3570   4.3570   4.7113   4.7114
     4.8478   4.8478   4.9648   4.9648   5.0276   5.0276   5.4739   5.4739
     5.6317   5.6317   5.6956   5.6956   5.8226   5.8226   5.8989   5.8989
     6.4144   6.4144   6.5638   6.5638   6.5977   6.5977   6.6976   6.6976
     6.8279   6.8279   6.8851   6.8851   6.9838   6.9838   7.5113   7.5113
     7.5374   7.5374   7.5823   7.5823   7.6308   7.6308   7.9364   7.9364
    10.2914  10.2914  11.3039  11.3039  11.3760  11.3760  11.5823  11.5824
    11.6863  11.6863  12.4848  12.4848  12.5751  12.5751  12.8181  12.8181
    12.9303  12.9303  13.0925  13.0925  13.2024  13.2024  13.6930  13.6930
    14.9358  14.9358  15.6531  15.6531  15.8901  15.8901  15.9799  15.9799
    16.7484  16.7484  17.6207  17.6207  17.8440

          k = 0.1667 0.3226 0.0000 ( 62592 PWs)   bands (ev):

   -66.1069 -66.1067 -66.1062 -66.1061 -66.1059 -66.1058 -66.1053 -66.1051
   -30.5166 -30.5104 -30.5098 -30.5033 -30.4903 -30.4828 -30.4815 -30.4704
   -30.4649 -30.4645 -30.4542 -30.4498 -30.4402 -30.4362 -30.4330 -30.4265
   -30.3738 -30.3731 -30.3680 -30.3677 -30.3645 -30.3616 -30.3550 -30.3527
   -20.2591 -20.2590 -20.2585 -20.2585 -20.2584 -20.2584 -20.2579 -20.2578
   -20.2481 -20.2477 -20.2476 -20.2474 -20.2470 -20.2469 -20.2467 -20.2458
   -20.2450 -20.2448 -20.2437 -20.2432 -20.2432 -20.2429 -20.2420 -20.2417
   -20.2415 -20.2413 -20.2408 -20.2406 -20.2404 -20.2401 -20.2397 -20.2396
   -20.2317 -20.2316 -20.2313 -20.2312 -20.2298 -20.2296 -20.2293 -20.2292
   -20.2114 -20.2113 -20.2101 -20.2101 -20.2064 -20.2064 -20.2053 -20.2053
   -20.2049 -20.2049 -20.2038 -20.2037 -20.2015 -20.2015 -20.2001 -20.2001
    -9.8088  -9.6514  -9.4480  -9.3548  -9.3125  -9.1914  -8.9835  -8.9694
    -8.8883  -8.7572  -8.7551  -8.7356  -8.2390  -8.1937  -8.1875  -8.1673
    -7.9085  -7.8901  -7.8168  -7.7989  -7.7863  -7.7693  -7.7015  -7.6861
     1.2740   1.2785   1.2953   1.2965   1.5886   1.6001   1.7220   1.7693
     2.2802   2.3772   2.4251   2.5285   2.5513   2.5865   2.8806   2.8952
     3.0024   3.0078   3.5806   3.6009   3.7428   3.7771   4.0734   4.3259
     4.3744   4.4500   4.5094   4.6364   4.6772   4.7404   4.8283   4.8476
     4.9621   4.9893   5.1829   5.2810   5.3114   5.4529   5.5338   5.6232
     5.6993   5.7329   5.8080   5.8852   5.9932   6.0332   6.0711   6.0726
     6.1783   6.3084   6.3828   6.4804   6.5549   6.7495   6.7609   6.8365
     6.8870   6.9196   6.9716   7.0078   7.0174   7.0398   7.0995   7.1101
     7.1432   7.1727   7.7446   7.7732   7.8255   7.8533   7.9016   7.9070
     9.8041   9.8050  10.5488  10.5973  10.8074  10.8088  11.7672  11.9315
    12.0202  12.0800  12.3853  12.3901  12.4953  12.5134  12.7381  12.9127
    13.0783  13.2482  13.2891  13.3064  13.5148  13.5974  13.7116  13.7236
    15.0890  15.2339  15.2437  15.2850  15.5084  15.6743  15.7734  16.1459
    16.1680  16.9804  17.2037  17.3419  17.7925

          k = 0.1667 0.3226 0.1661 ( 62558 PWs)   bands (ev):

   -66.1069 -66.1066 -66.1062 -66.1061 -66.1059 -66.1058 -66.1054 -66.1051
   -30.5161 -30.5107 -30.5093 -30.5037 -30.4891 -30.4821 -30.4807 -30.4708
   -30.4609 -30.4602 -30.4488 -30.4456 -30.4406 -30.4349 -30.4332 -30.4251
   -30.3785 -30.3775 -30.3735 -30.3734 -30.3642 -30.3613 -30.3569 -30.3543
   -20.2590 -20.2589 -20.2586 -20.2585 -20.2584 -20.2583 -20.2580 -20.2579
   -20.2481 -20.2478 -20.2475 -20.2473 -20.2470 -20.2469 -20.2468 -20.2459
   -20.2448 -20.2447 -20.2437 -20.2433 -20.2432 -20.2430 -20.2420 -20.2419
   -20.2415 -20.2412 -20.2407 -20.2407 -20.2403 -20.2400 -20.2397 -20.2396
   -20.2317 -20.2315 -20.2313 -20.2312 -20.2297 -20.2295 -20.2293 -20.2292
   -20.2111 -20.2110 -20.2098 -20.2098 -20.2067 -20.2067 -20.2053 -20.2053
   -20.2052 -20.2052 -20.2039 -20.2039 -20.2014 -20.2014 -20.2002 -20.2002
    -9.7573  -9.5937  -9.3755  -9.3695  -9.2263  -9.2042  -8.9477  -8.9364
    -8.8967  -8.7495  -8.7414  -8.7382  -8.2415  -8.1987  -8.1870  -8.1730
    -7.9208  -7.9155  -7.8799  -7.8760  -7.8413  -7.8240  -7.8003  -7.7839
     1.4619   1.4681   1.5472   1.5522   1.5934   1.6049   1.7764   1.8369
     2.2850   2.3774   2.4184   2.5386   2.6281   2.6795   2.9028   2.9650
     3.0033   3.0837   3.6063   3.6567   3.7451   3.7738   4.0581   4.3464
     4.3719   4.4044   4.4397   4.4678   4.5481   4.6667   4.7247   4.7643
     4.8047   4.8564   5.0690   5.1048   5.3101   5.3176   5.3481   5.4008
     5.6653   5.6749   5.6979   5.7150   5.8246   5.8319   6.1641   6.1856
     6.3386   6.4230   6.5011   6.5827   6.6766   6.7203   6.7282   6.7749
     6.8391   6.8704   6.9511   6.9686   7.0392   7.0569   7.0917   7.1115
     7.1898   7.1902   7.7464   7.7661   7.7984   7.8256   7.8790   7.8902
    10.0359  10.0416  10.7113  10.7367  10.8152  10.8463  11.8481  11.9861
    12.0388  12.0783  12.3899  12.4130  12.4223  12.4501  12.7718  12.9102
    12.9799  13.0587  13.2669  13.2877  13.4611  13.5505  13.6101  13.6616
    15.2263  15.3309  15.3808  15.4698  15.5205  15.7322  16.0866  16.1440
    16.2774  16.9492  17.2705  17.3694  17.4165

          k = 0.1667 0.3226 0.3322 ( 62550 PWs)   bands (ev):

   -66.1067 -66.1065 -66.1063 -66.1061 -66.1060 -66.1057 -66.1055 -66.1053
   -30.5147 -30.5116 -30.5079 -30.5047 -30.4867 -30.4830 -30.4772 -30.4721
   -30.4513 -30.4508 -30.4422 -30.4365 -30.4337 -30.4325 -30.4260 -30.4194
   -30.3928 -30.3920 -30.3886 -30.3880 -30.3634 -30.3604 -30.3599 -30.3569
   -20.2589 -20.2588 -20.2587 -20.2586 -20.2583 -20.2583 -20.2581 -20.2580
   -20.2480 -20.2478 -20.2473 -20.2472 -20.2470 -20.2469 -20.2466 -20.2461
   -20.2445 -20.2444 -20.2438 -20.2435 -20.2432 -20.2429 -20.2424 -20.2422
   -20.2414 -20.2411 -20.2408 -20.2407 -20.2402 -20.2399 -20.2398 -20.2397
   -20.2316 -20.2315 -20.2314 -20.2313 -20.2297 -20.2295 -20.2294 -20.2292
   -20.2102 -20.2101 -20.2089 -20.2089 -20.2076 -20.2076 -20.2063 -20.2063
   -20.2050 -20.2050 -20.2042 -20.2042 -20.2011 -20.2011 -20.2004 -20.2004
    -9.6329  -9.4565  -9.4170  -9.2453  -9.1913  -8.9822  -8.9291  -8.8412
    -8.8152  -8.7494  -8.7161  -8.6710  -8.3070  -8.2661  -8.2054  -8.1947
    -8.1774  -8.1415  -8.1288  -8.0690  -7.8792  -7.8607  -7.8304  -7.8125
     1.5952   1.6043   1.6124   1.6173   2.1400   2.1972   2.2457   2.3009
     2.3718   2.4151   2.4545   2.6350   2.8797   2.9046   2.9518   2.9992
     3.1941   3.2892   3.6452   3.6715   3.7315   3.7955   3.8577   3.9226
     4.0509   4.1977   4.2654   4.3013   4.3707   4.4819   4.5448   4.6471
     4.6651   4.7443   4.8115   4.8176   4.8794   4.9381   5.0517   5.1840
     5.2870   5.3212   5.3680   5.6204   5.7311   5.8300   6.0047   6.0252
     6.4805   6.5376   6.5835   6.6825   6.7228   6.7535   6.8735   6.8845
     6.9362   6.9805   7.0075   7.0307   7.0841   7.1518   7.1584   7.1959
     7.2518   7.2702   7.7009   7.7060   7.7291   7.7773   7.7831   7.8233
    10.5867  10.6088  10.8036  10.8551  11.1819  11.2489  11.9188  11.9737
    12.0423  12.1161  12.1380  12.2486  12.5008  12.5370  12.5717  12.6147
    12.7988  12.9553  13.0215  13.1850  13.2224  13.3310  13.5358  13.5600
    15.3392  15.4417  15.6535  15.9121  15.9693  16.0648  16.1271  16.7042
    16.7754  16.8409  16.9798  17.4990  17.6198

          k = 0.1667 0.3226-0.4983 ( 62548 PWs)   bands (ev):

   -66.1065 -66.1065 -66.1063 -66.1063 -66.1058 -66.1057 -66.1055 -66.1055
   -30.5131 -30.5131 -30.5062 -30.5062 -30.4846 -30.4846 -30.4742 -30.4742
   -30.4452 -30.4452 -30.4413 -30.4413 -30.4131 -30.4131 -30.4129 -30.4129
   -30.4088 -30.4088 -30.4062 -30.4062 -30.3619 -30.3619 -30.3589 -30.3589
   -20.2588 -20.2588 -20.2587 -20.2587 -20.2582 -20.2582 -20.2581 -20.2581
   -20.2479 -20.2479 -20.2472 -20.2471 -20.2471 -20.2471 -20.2463 -20.2463
   -20.2442 -20.2441 -20.2440 -20.2439 -20.2429 -20.2428 -20.2426 -20.2426
   -20.2412 -20.2411 -20.2408 -20.2408 -20.2400 -20.2400 -20.2398 -20.2398
   -20.2315 -20.2315 -20.2314 -20.2314 -20.2295 -20.2295 -20.2293 -20.2293
   -20.2089 -20.2089 -20.2089 -20.2089 -20.2077 -20.2077 -20.2076 -20.2076
   -20.2046 -20.2046 -20.2046 -20.2046 -20.2008 -20.2008 -20.2008 -20.2008
    -9.5048  -9.5048  -9.3257  -9.3257  -9.0135  -9.0134  -8.7695  -8.7695
    -8.6314  -8.6313  -8.5701  -8.5701  -8.5240  -8.5239  -8.4708  -8.4707
    -8.1913  -8.1913  -8.1498  -8.1498  -7.8553  -7.8553  -7.8368  -7.8368
     1.6079   1.6079   1.6214   1.6214   2.2855   2.2855   2.3965   2.3965
     2.9102   2.9102   3.0892   3.0892   3.1272   3.1272   3.1845   3.1845
     3.2214   3.2214   3.4472   3.4472   3.5081   3.5082   3.7281   3.7281
     3.9643   3.9643   4.0024   4.0025   4.0280   4.0280   4.2819   4.2819
     4.6960   4.6960   4.8338   4.8338   4.9447   4.9447   4.9712   4.9712
     5.0875   5.0875   5.4633   5.4633   5.8036   5.8036   5.8657   5.8657
     6.5811   6.5811   6.6929   6.6929   6.7440   6.7440   6.7834   6.7834
     7.0022   7.0022   7.0427   7.0427   7.1424   7.1424   7.4883   7.4883
     7.5038   7.5038   7.5249   7.5249   7.5730   7.5730   7.7834   7.7834
    10.7794  10.7794  11.3211  11.3211  11.3834  11.3834  11.7751  11.7751
    11.8768  11.8768  12.1462  12.1462  12.4834  12.4834  12.6003  12.6003
    12.8209  12.8209  12.8965  12.8965  13.1635  13.1635  13.5080  13.5080
    15.4104  15.4104  15.8855  15.8855  16.2974  16.2974  16.5784  16.5784
    16.9366  16.9366  17.2474  17.2475  17.8203

          k = 0.1667-0.4840 0.0000 ( 62632 PWs)   bands (ev):

   -66.1068 -66.1068 -66.1060 -66.1060 -66.1060 -66.1060 -66.1052 -66.1052
   -30.5026 -30.5026 -30.4956 -30.4956 -30.4949 -30.4949 -30.4867 -30.4867
   -30.4648 -30.4648 -30.4531 -30.4531 -30.4374 -30.4374 -30.4319 -30.4319
   -30.3734 -30.3734 -30.3680 -30.3680 -30.3632 -30.3632 -30.3540 -30.3540
   -20.2587 -20.2587 -20.2586 -20.2586 -20.2582 -20.2582 -20.2581 -20.2581
   -20.2478 -20.2478 -20.2472 -20.2472 -20.2471 -20.2471 -20.2463 -20.2463
   -20.2443 -20.2443 -20.2441 -20.2441 -20.2426 -20.2426 -20.2423 -20.2423
   -20.2415 -20.2415 -20.2408 -20.2408 -20.2403 -20.2403 -20.2397 -20.2397
   -20.2316 -20.2316 -20.2312 -20.2312 -20.2297 -20.2297 -20.2292 -20.2292
   -20.2114 -20.2114 -20.2101 -20.2101 -20.2064 -20.2064 -20.2053 -20.2053
   -20.2049 -20.2049 -20.2038 -20.2038 -20.2015 -20.2015 -20.2001 -20.2001
    -9.7184  -9.7184  -9.3638  -9.3638  -9.2518  -9.2518  -8.9759  -8.9759
    -8.5683  -8.5683  -8.5149  -8.5149  -8.4994  -8.4994  -8.4955  -8.4955
    -7.9007  -7.9007  -7.8088  -7.8088  -7.7779  -7.7779  -7.6941  -7.6941
     1.2763   1.2763   1.2970   1.2970   1.5987   1.5987   1.7603   1.7603
     2.5599   2.5599   2.9969   2.9970   3.1026   3.1026   3.1488   3.1488
     3.2504   3.2504   3.2981   3.2981   3.5287   3.5287   3.6076   3.6076
     3.7071   3.7071   4.3926   4.3926   4.6525   4.6525   4.9809   4.9809
     5.0560   5.0560   5.1485   5.1485   5.2670   5.2670   5.5137   5.5137
     5.7287   5.7288   5.7462   5.7462   6.0243   6.0243   6.0841   6.0841
     6.3296   6.3296   6.3463   6.3463   6.6156   6.6156   6.8072   6.8072
     6.9352   6.9352   7.0146   7.0146   7.0578   7.0578   7.4433   7.4433
     7.4796   7.4796   7.4867   7.4867   7.5234   7.5235   7.8991   7.8991
     9.8079   9.8079  11.1791  11.1791  11.2427  11.2427  11.4290  11.4290
    11.4958  11.4958  12.3948  12.3948  12.5057  12.5057  12.8842  12.8842
    13.2045  13.2045  13.3505  13.3505  13.4351  13.4351  13.5399  13.5399
    15.2578  15.2578  15.5790  15.5790  15.6083  15.6083  15.9215  15.9215
    16.5762  16.5762  17.7770  17.7770  17.8858

          k = 0.1667-0.4840 0.1661 ( 62552 PWs)   bands (ev):

   -66.1068 -66.1068 -66.1060 -66.1060 -66.1060 -66.1060 -66.1053 -66.1053
   -30.5018 -30.5018 -30.4958 -30.4957 -30.4942 -30.4941 -30.4871 -30.4871
   -30.4606 -30.4606 -30.4480 -30.4480 -30.4379 -30.4379 -30.4303 -30.4303
   -30.3780 -30.3780 -30.3736 -30.3735 -30.3629 -30.3629 -30.3557 -30.3557
   -20.2587 -20.2587 -20.2586 -20.2586 -20.2582 -20.2582 -20.2582 -20.2582
   -20.2477 -20.2477 -20.2473 -20.2472 -20.2470 -20.2470 -20.2463 -20.2463
   -20.2442 -20.2442 -20.2440 -20.2440 -20.2427 -20.2427 -20.2425 -20.2425
   -20.2415 -20.2415 -20.2408 -20.2408 -20.2402 -20.2402 -20.2397 -20.2397
   -20.2316 -20.2316 -20.2313 -20.2313 -20.2296 -20.2296 -20.2293 -20.2293
   -20.2110 -20.2110 -20.2098 -20.2098 -20.2067 -20.2067 -20.2053 -20.2053
   -20.2052 -20.2052 -20.2039 -20.2039 -20.2014 -20.2014 -20.2002 -20.2002
    -9.6629  -9.6629  -9.2815  -9.2811  -9.2658  -9.2656  -8.9419  -8.9419
    -8.5756  -8.5752  -8.5125  -8.5117  -8.5028  -8.5016  -8.4926  -8.4913
    -7.9184  -7.9174  -7.8802  -7.8800  -7.8342  -7.8337  -7.7926  -7.7925
     1.4633   1.4661   1.5518   1.5538   1.6029   1.6042   1.8252   1.8270
     2.6471   2.6486   3.0135   3.0156   3.0951   3.1210   3.1454   3.1635
     3.2562   3.2787   3.3020   3.3406   3.5468   3.5651   3.6142   3.6227
     3.7295   3.7334   4.3783   4.4098   4.4358   4.4685   4.8393   4.8784
     4.9544   4.9630   4.9995   5.0483   5.0653   5.1045   5.4279   5.4375
     5.4883   5.4912   5.6919   5.7264   5.7596   5.7723   6.1872   6.1881
[...]
    11.4633  11.4633  11.4633  11.4633  11.6177  11.6177  11.6177  11.6177
    12.0750  12.0750  12.0751  12.0751  12.1997  12.1997  12.1997  12.1997
    12.9729  12.9729  12.9729  12.9729  13.1537  13.1537  13.1537  13.1537
    15.4457  15.4457  15.4457  15.4457  16.7296  16.7296  16.7296  16.7296
    17.5857  17.5857  17.5857  17.5857  17.7523

          k =-0.5000 0.3226 0.0000 ( 62550 PWs)   bands (ev):

   -66.1066 -66.1065 -66.1063 -66.1063 -66.1057 -66.1057 -66.1055 -66.1055
   -30.5128 -30.5128 -30.5063 -30.5063 -30.4855 -30.4855 -30.4743 -30.4743
   -30.4577 -30.4577 -30.4550 -30.4550 -30.4041 -30.4041 -30.4036 -30.4036
   -30.4000 -30.4000 -30.3974 -30.3974 -30.3649 -30.3649 -30.3646 -30.3646
   -20.2590 -20.2590 -20.2585 -20.2585 -20.2584 -20.2584 -20.2579 -20.2579
   -20.2477 -20.2477 -20.2474 -20.2474 -20.2472 -20.2472 -20.2463 -20.2463
   -20.2449 -20.2449 -20.2436 -20.2436 -20.2429 -20.2429 -20.2419 -20.2419
   -20.2409 -20.2409 -20.2407 -20.2407 -20.2402 -20.2402 -20.2402 -20.2401
   -20.2307 -20.2307 -20.2305 -20.2305 -20.2303 -20.2303 -20.2301 -20.2301
   -20.2108 -20.2107 -20.2107 -20.2107 -20.2057 -20.2057 -20.2057 -20.2057
   -20.2034 -20.2034 -20.2034 -20.2034 -20.2020 -20.2020 -20.2020 -20.2020
    -9.5786  -9.5786  -9.4248  -9.4248  -9.0060  -9.0060  -8.7994  -8.7994
    -8.6001  -8.6000  -8.5660  -8.5660  -8.5109  -8.5109  -8.4549  -8.4548
    -8.1828  -8.1828  -8.1463  -8.1463  -7.7465  -7.7465  -7.7305  -7.7305
     1.3081   1.3081   1.3132   1.3132   2.2780   2.2780   2.3952   2.3952
     2.9186   2.9186   3.0135   3.0135   3.0806   3.0807   3.1867   3.1867
     3.2383   3.2383   3.4158   3.4158   3.4944   3.4944   3.6541   3.6541
     3.8925   3.8925   3.9595   3.9595   4.1917   4.1917   4.3573   4.3574
     4.8004   4.8004   4.8344   4.8344   5.0684   5.0685   5.1968   5.1968
     5.3672   5.3672   5.7057   5.7057   6.1584   6.1584   6.1792   6.1792
     6.3903   6.3903   6.4628   6.4628   6.5125   6.5125   6.7011   6.7011
     7.0011   7.0011   7.0454   7.0454   7.0663   7.0663   7.4585   7.4585
     7.4795   7.4795   7.5614   7.5614   7.5928   7.5929   7.8463   7.8463
    10.5710  10.5710  11.2444  11.2444  11.2961  11.2961  11.6039  11.6039
    11.8880  11.8880  12.1124  12.1124  12.6126  12.6126  12.6584  12.6584
    12.9285  12.9285  13.0141  13.0141  13.2450  13.2450  13.6975  13.6975
    15.1669  15.1669  15.5491  15.5491  16.2170  16.2170  16.5655  16.5655
    16.7560  16.7560  17.2303  17.2303  17.9036

          k =-0.5000 0.3226 0.1661 ( 62566 PWs)   bands (ev):

   -66.1065 -66.1065 -66.1062 -66.1062 -66.1058 -66.1058 -66.1055 -66.1055
   -30.5122 -30.5122 -30.5067 -30.5067 -30.4839 -30.4838 -30.4747 -30.4747
   -30.4523 -30.4523 -30.4507 -30.4507 -30.4048 -30.4048 -30.4038 -30.4038
   -30.4005 -30.4005 -30.3969 -30.3969 -30.3703 -30.3703 -30.3697 -30.3697
   -20.2590 -20.2590 -20.2585 -20.2585 -20.2584 -20.2584 -20.2579 -20.2579
   -20.2477 -20.2477 -20.2474 -20.2474 -20.2471 -20.2471 -20.2463 -20.2463
   -20.2448 -20.2448 -20.2436 -20.2436 -20.2430 -20.2430 -20.2420 -20.2420
   -20.2409 -20.2409 -20.2407 -20.2407 -20.2402 -20.2402 -20.2402 -20.2402
   -20.2307 -20.2307 -20.2305 -20.2305 -20.2303 -20.2303 -20.2302 -20.2301
   -20.2104 -20.2104 -20.2104 -20.2104 -20.2061 -20.2061 -20.2061 -20.2061
   -20.2033 -20.2033 -20.2033 -20.2033 -20.2022 -20.2021 -20.2021 -20.2021
    -9.5115  -9.5114  -9.3441  -9.3441  -9.0189  -9.0189  -8.7787  -8.7786
    -8.6160  -8.6159  -8.5581  -8.5580  -8.5033  -8.5033  -8.4582  -8.4582
    -8.1805  -8.1805  -8.1509  -8.1509  -7.8659  -7.8659  -7.8492  -7.8492
     1.5614   1.5614   1.5703   1.5703   2.2836   2.2836   2.3861   2.3861
     2.9850   2.9850   3.0383   3.0383   3.0848   3.0848   3.2070   3.2070
     3.2531   3.2531   3.4738   3.4738   3.5390   3.5390   3.7023   3.7023
     3.8849   3.8849   3.9725   3.9725   4.1855   4.1855   4.3512   4.3513
     4.6610   4.6610   4.7807   4.7807   4.9536   4.9537   4.9672   4.9672
     5.0918   5.0918   5.4597   5.4597   5.7899   5.7899   5.8521   5.8521
     6.5867   6.5867   6.7194   6.7194   6.7667   6.7667   6.7873   6.7873
     6.9788   6.9788   7.0520   7.0520   7.1208   7.1208   7.4577   7.4577
     7.4849   7.4849   7.5683   7.5683   7.5940   7.5940   7.8196   7.8196
    10.7326  10.7326  11.3167  11.3167  11.3818  11.3818  11.6475  11.6475
    11.9041  11.9041  12.1515  12.1515  12.5972  12.5972  12.6427  12.6427
    12.8525  12.8525  12.9574  12.9574  13.0954  13.0954  13.5558  13.5558
    15.4116  15.4116  15.8342  15.8342  16.2863  16.2863  16.5594  16.5594
    16.8087  16.8087  17.2721  17.2721  17.7708

          k =-0.5000 0.3226 0.3322 ( 62522 PWs)   bands (ev):

   -66.1064 -66.1063 -66.1061 -66.1061 -66.1059 -66.1059 -66.1057 -66.1057
   -30.5108 -30.5108 -30.5077 -30.5077 -30.4806 -30.4806 -30.4759 -30.4759
   -30.4380 -30.4380 -30.4377 -30.4377 -30.4083 -30.4082 -30.4076 -30.4076
   -30.3999 -30.3999 -30.3953 -30.3953 -30.3837 -30.3837 -30.3816 -30.3815
   -20.2589 -20.2589 -20.2586 -20.2586 -20.2583 -20.2583 -20.2580 -20.2580
   -20.2476 -20.2476 -20.2474 -20.2474 -20.2469 -20.2469 -20.2465 -20.2465
   -20.2445 -20.2445 -20.2437 -20.2437 -20.2430 -20.2430 -20.2423 -20.2423
   -20.2408 -20.2408 -20.2406 -20.2406 -20.2402 -20.2402 -20.2401 -20.2401
   -20.2306 -20.2306 -20.2305 -20.2305 -20.2303 -20.2303 -20.2302 -20.2302
   -20.2096 -20.2096 -20.2096 -20.2095 -20.2070 -20.2070 -20.2070 -20.2070
   -20.2031 -20.2031 -20.2031 -20.2031 -20.2024 -20.2024 -20.2024 -20.2024
    -9.3418  -9.3418  -9.1229  -9.1229  -9.0639  -9.0638  -8.7057  -8.7057
    -8.6695  -8.6695  -8.5325  -8.5324  -8.4844  -8.4844  -8.4643  -8.4643
    -8.2032  -8.2032  -8.1679  -8.1679  -8.1509  -8.1509  -8.0987  -8.0987
     2.1522   2.1522   2.2565   2.2566   2.3008   2.3008   2.4455   2.4455
     3.0437   3.0437   3.0787   3.0787   3.1748   3.1748   3.2359   3.2359
     3.3107   3.3108   3.6390   3.6390   3.6891   3.6891   3.7946   3.7946
     3.8609   3.8610   4.0172   4.0172   4.1521   4.1521   4.1652   4.1652
     4.3059   4.3059   4.4740   4.4740   4.5822   4.5823   4.7896   4.7896
     4.8748   4.8749   4.9891   4.9891   5.0074   5.0074   5.3028   5.3028
     6.8132   6.8132   6.8792   6.8792   6.9556   6.9556   6.9818   6.9818
     7.1148   7.1148   7.2027   7.2027   7.2785   7.2785   7.4501   7.4501
     7.4934   7.4934   7.5737   7.5737   7.5855   7.5855   7.7396   7.7396
    11.1696  11.1696  11.5281  11.5281  11.6382  11.6382  11.7318  11.7318
    11.9725  11.9725  12.2995  12.2995  12.3679  12.3679  12.4740  12.4740
    12.6872  12.6872  12.7680  12.7680  12.7958  12.7958  13.1903  13.1903
    16.0074  16.0074  16.4276  16.4276  16.5198  16.5198  16.6904  16.6905
    17.0171  17.0171  17.3448  17.3448  17.5055

          k =-0.5000 0.3226-0.4983 ( 62504 PWs)   bands (ev):

   -66.1062 -66.1062 -66.1061 -66.1061 -66.1059 -66.1059 -66.1059 -66.1059
   -30.5092 -30.5092 -30.5092 -30.5092 -30.4779 -30.4779 -30.4779 -30.4779
   -30.4212 -30.4212 -30.4211 -30.4211 -30.4188 -30.4188 -30.4188 -30.4187
   -30.3958 -30.3958 -30.3958 -30.3958 -30.3909 -30.3909 -30.3909 -30.3909
   -20.2588 -20.2588 -20.2588 -20.2587 -20.2582 -20.2582 -20.2582 -20.2581
   -20.2475 -20.2475 -20.2475 -20.2475 -20.2467 -20.2467 -20.2467 -20.2467
   -20.2441 -20.2441 -20.2441 -20.2441 -20.2427 -20.2427 -20.2427 -20.2427
   -20.2407 -20.2407 -20.2407 -20.2407 -20.2402 -20.2402 -20.2402 -20.2402
   -20.2305 -20.2305 -20.2305 -20.2305 -20.2303 -20.2303 -20.2303 -20.2303
   -20.2084 -20.2084 -20.2084 -20.2083 -20.2083 -20.2083 -20.2082 -20.2082
   -20.2029 -20.2028 -20.2028 -20.2028 -20.2027 -20.2027 -20.2027 -20.2027
    -9.1668  -9.1668  -9.1667  -9.1667  -8.8453  -8.8452  -8.8452  -8.8452
    -8.5512  -8.5512  -8.5512  -8.5512  -8.4262  -8.4262  -8.4261  -8.4261
    -8.4007  -8.4007  -8.4007  -8.4007  -8.1541  -8.1541  -8.1541  -8.1541
     2.2922   2.2922   2.2922   2.2922   2.9798   2.9798   2.9798   2.9798
     3.0890   3.0890   3.0890   3.0890   3.1883   3.1883   3.1884   3.1884
     3.3577   3.3577   3.3577   3.3577   3.7954   3.7954   3.7954   3.7954
     3.9401   3.9401   3.9401   3.9401   4.0505   4.0506   4.0506   4.0506
     4.2594   4.2594   4.2594   4.2594   4.3784   4.3784   4.3785   4.3785
     4.6670   4.6671   4.6671   4.6671   5.0385   5.0385   5.0385   5.0385
     6.8880   6.8880   6.8880   6.8880   6.9860   6.9860   6.9860   6.9860
     7.3334   7.3334   7.3334   7.3334   7.4149   7.4149   7.4149   7.4149
     7.5075   7.5075   7.5075   7.5075   7.6337   7.6337   7.6337   7.6337
    11.6757  11.6757  11.6757  11.6758  11.7939  11.7939  11.7939  11.7939
    12.0788  12.0788  12.0788  12.0788  12.2394  12.2394  12.2394  12.2394
    12.6251  12.6251  12.6251  12.6251  12.8250  12.8250  12.8250  12.8250
    16.3622  16.3622  16.3622  16.3622  16.8961  16.8961  16.8961  16.8961
    17.4248  17.4248  17.4248  17.4248  17.7543

          k =-0.5000-0.4840 0.0000 ( 62536 PWs)   bands (ev):

   -66.1064 -66.1064 -66.1064 -66.1064 -66.1056 -66.1056 -66.1056 -66.1056
   -30.4984 -30.4984 -30.4979 -30.4979 -30.4905 -30.4905 -30.4898 -30.4898
   -30.4572 -30.4572 -30.4569 -30.4569 -30.4036 -30.4036 -30.4030 -30.4030
   -30.4002 -30.4002 -30.3991 -30.3991 -30.3650 -30.3650 -30.3648 -30.3648
   -20.2587 -20.2587 -20.2587 -20.2587 -20.2582 -20.2582 -20.2581 -20.2581
   -20.2475 -20.2475 -20.2474 -20.2474 -20.2468 -20.2468 -20.2467 -20.2467
   -20.2442 -20.2442 -20.2442 -20.2442 -20.2425 -20.2425 -20.2425 -20.2425
   -20.2409 -20.2409 -20.2408 -20.2408 -20.2403 -20.2403 -20.2402 -20.2402
   -20.2306 -20.2306 -20.2306 -20.2306 -20.2302 -20.2302 -20.2302 -20.2302
   -20.2108 -20.2108 -20.2107 -20.2107 -20.2057 -20.2057 -20.2057 -20.2057
   -20.2034 -20.2034 -20.2034 -20.2034 -20.2020 -20.2020 -20.2020 -20.2020
    -9.4891  -9.4891  -9.4831  -9.4831  -8.7612  -8.7612  -8.7370  -8.7369
    -8.6421  -8.6420  -8.6218  -8.6218  -8.4502  -8.4502  -8.4070  -8.4070
    -8.3932  -8.3932  -8.3536  -8.3535  -7.7388  -7.7388  -7.7386  -7.7386
     1.3092   1.3092   1.3146   1.3146   2.8979   2.8980   2.9928   2.9928
     3.0189   3.0189   3.0516   3.0516   3.1947   3.1947   3.2369   3.2370
     3.2502   3.2502   3.3658   3.3658   3.4385   3.4385   3.4762   3.4762
     3.5108   3.5108   3.8155   3.8155   4.1847   4.1847   4.2661   4.2661
     4.2971   4.2971   4.3839   4.3839   5.1057   5.1057   5.1556   5.1556
     5.4341   5.4342   5.5112   5.5112   6.1751   6.1751   6.1807   6.1807
     6.4824   6.4824   6.5023   6.5023   6.5254   6.5254   6.5803   6.5803
     7.2198   7.2198   7.2314   7.2315   7.2922   7.2922   7.3985   7.3985
     7.4548   7.4548   7.5289   7.5289   7.5914   7.5914   7.5920   7.5920
    11.1703  11.1703  11.1920  11.1920  11.2934  11.2934  11.3168  11.3168
    12.1573  12.1573  12.2105  12.2105  12.3020  12.3020  12.3197  12.3197
    12.9482  12.9482  12.9617  12.9617  13.3984  13.3984  13.4514  13.4514
    15.4239  15.4239  15.4358  15.4358  16.6820  16.6820  16.7870  16.7870
    17.3627  17.3627  17.4156  17.4156  17.5391

          k =-0.5000-0.4840 0.1661 ( 62560 PWs)   bands (ev):

   -66.1064 -66.1064 -66.1064 -66.1064 -66.1057 -66.1057 -66.1056 -66.1056
   -30.4976 -30.4976 -30.4970 -30.4970 -30.4909 -30.4909 -30.4901 -30.4901
   -30.4522 -30.4522 -30.4519 -30.4519 -30.4043 -30.4043 -30.4037 -30.4037
   -30.3999 -30.3999 -30.3988 -30.3988 -30.3703 -30.3703 -30.3700 -30.3700
   -20.2587 -20.2587 -20.2587 -20.2587 -20.2582 -20.2582 -20.2582 -20.2582
   -20.2474 -20.2474 -20.2473 -20.2473 -20.2469 -20.2468 -20.2467 -20.2467
   -20.2441 -20.2441 -20.2441 -20.2441 -20.2427 -20.2426 -20.2426 -20.2426
   -20.2409 -20.2409 -20.2408 -20.2408 -20.2403 -20.2403 -20.2402 -20.2402
   -20.2306 -20.2306 -20.2306 -20.2306 -20.2302 -20.2302 -20.2302 -20.2302
   -20.2104 -20.2104 -20.2104 -20.2104 -20.2061 -20.2061 -20.2061 -20.2061
   -20.2033 -20.2033 -20.2033 -20.2033 -20.2021 -20.2021 -20.2021 -20.2021
    -9.4132  -9.4132  -9.4064  -9.4064  -8.7772  -8.7771  -8.7529  -8.7529
    -8.6278  -8.6278  -8.6067  -8.6066  -8.4474  -8.4474  -8.4087  -8.4087
    -8.3914  -8.3913  -8.3562  -8.3562  -7.8581  -7.8581  -7.8581  -7.8581
     1.5659   1.5659   1.5724   1.5724   2.9108   2.9108   3.0121   3.0121
     3.0179   3.0179   3.0684   3.0684   3.1663   3.1663   3.2220   3.2221
     3.3318   3.3319   3.4030   3.4030   3.4925   3.4925   3.5183   3.5183
     3.5574   3.5574   3.8408   3.8408   4.1904   4.1904   4.2540   4.2540
     4.2979   4.2980   4.3725   4.3725   4.8244   4.8244   4.9432   4.9432
     5.1322   5.1322   5.2440   5.2440   5.7948   5.7948   5.8147   5.8147
     6.6600   6.6600   6.7319   6.7319   6.7707   6.7707   6.8142   6.8142
     7.2041   7.2041   7.2418   7.2418   7.3211   7.3212   7.3864   7.3864
     7.4447   7.4447   7.5289   7.5289   7.5722   7.5722   7.6120   7.6120
    11.2526  11.2526  11.3074  11.3074  11.3568  11.3568  11.4413  11.4413
    12.1659  12.1659  12.2118  12.2118  12.2939  12.2939  12.3318  12.3318
    12.8367  12.8367  12.9128  12.9128  13.2381  13.2381  13.3092  13.3092
    15.7049  15.7049  15.7245  15.7245  16.7474  16.7474  16.8472  16.8473
    17.3601  17.3601  17.4243  17.4243  17.5112

          k =-0.5000-0.4840 0.3322 ( 62512 PWs)   bands (ev):

   -66.1062 -66.1062 -66.1062 -66.1062 -66.1058 -66.1058 -66.1058 -66.1058
   -30.4956 -30.4956 -30.4950 -30.4950 -30.4920 -30.4920 -30.4913 -30.4913
   -30.4381 -30.4381 -30.4379 -30.4379 -30.4080 -30.4080 -30.4077 -30.4077
   -30.3985 -30.3984 -30.3974 -30.3974 -30.3831 -30.3831 -30.3827 -30.3827
   -20.2586 -20.2586 -20.2586 -20.2586 -20.2583 -20.2583 -20.2583 -20.2583
   -20.2473 -20.2473 -20.2472 -20.2472 -20.2469 -20.2469 -20.2468 -20.2468
   -20.2439 -20.2439 -20.2438 -20.2438 -20.2430 -20.2430 -20.2429 -20.2429
   -20.2408 -20.2408 -20.2407 -20.2407 -20.2403 -20.2403 -20.2403 -20.2403
   -20.2305 -20.2305 -20.2305 -20.2305 -20.2303 -20.2303 -20.2303 -20.2303
   -20.2096 -20.2096 -20.2095 -20.2095 -20.2070 -20.2070 -20.2070 -20.2070
   -20.2031 -20.2031 -20.2031 -20.2031 -20.2024 -20.2024 -20.2024 -20.2024
    -9.2108  -9.2108  -9.2007  -9.2007  -8.8347  -8.8347  -8.8111  -8.8111
    -8.5744  -8.5744  -8.5539  -8.5539  -8.4403  -8.4403  -8.4147  -8.4147
    -8.3846  -8.3846  -8.3636  -8.3636  -8.1435  -8.1435  -8.1421  -8.1421
     2.2411   2.2411   2.2555   2.2555   2.9404   2.9404   2.9949   2.9949
     3.0501   3.0501   3.1050   3.1050   3.1608   3.1608   3.2099   3.2099
     3.4120   3.4120   3.4619   3.4619   3.5816   3.5816   3.6393   3.6393
     3.7889   3.7889   3.9354   3.9354   4.1862   4.1862   4.1934   4.1934
     4.2482   4.2482   4.3114   4.3114   4.4260   4.4260   4.5133   4.5133
     4.6511   4.6511   4.7614   4.7614   5.0092   5.0092   5.0347   5.0347
     6.9243   6.9243   7.0337   7.0337   7.0940   7.0940   7.1175   7.1175
     7.2035   7.2036   7.2770   7.2770   7.3448   7.3448   7.3756   7.3756
     7.4381   7.4381   7.5337   7.5337   7.5526   7.5526   7.6126   7.6126
    11.5161  11.5161  11.5796  11.5796  11.6336  11.6336  11.7632  11.7632
    12.1669  12.1669  12.2245  12.2245  12.2502  12.2502  12.3639  12.3639
    12.4930  12.4930  12.6471  12.6471  12.8348  12.8348  12.9272  12.9272
    16.4656  16.4656  16.5223  16.5223  16.9376  16.9376  17.0181  17.0181
    17.3113  17.3113  17.4321  17.4321  17.5090

          k =-0.5000-0.4840-0.4983 ( 62488 PWs)   bands (ev):

   -66.1060 -66.1060 -66.1060 -66.1060 -66.1060 -66.1060 -66.1060 -66.1060
   -30.4937 -30.4937 -30.4936 -30.4936 -30.4929 -30.4929 -30.4929 -30.4929
   -30.4211 -30.4211 -30.4210 -30.4210 -30.4189 -30.4189 -30.4189 -30.4188
   -30.3948 -30.3948 -30.3948 -30.3947 -30.3925 -30.3925 -30.3925 -30.3925
   -20.2585 -20.2584 -20.2584 -20.2584 -20.2584 -20.2584 -20.2584 -20.2584
   -20.2471 -20.2471 -20.2471 -20.2471 -20.2470 -20.2470 -20.2470 -20.2469
   -20.2436 -20.2436 -20.2436 -20.2436 -20.2433 -20.2433 -20.2433 -20.2432
   -20.2407 -20.2407 -20.2407 -20.2407 -20.2403 -20.2403 -20.2403 -20.2403
   -20.2305 -20.2305 -20.2305 -20.2305 -20.2303 -20.2303 -20.2303 -20.2303
   -20.2084 -20.2084 -20.2084 -20.2083 -20.2083 -20.2083 -20.2082 -20.2082
   -20.2028 -20.2028 -20.2028 -20.2028 -20.2027 -20.2027 -20.2027 -20.2027
    -8.9778  -8.9777  -8.9777  -8.9777  -8.9570  -8.9570  -8.9570  -8.9570
    -8.4543  -8.4543  -8.4543  -8.4542  -8.4180  -8.4180  -8.4179  -8.4179
    -8.3997  -8.3997  -8.3997  -8.3997  -8.3718  -8.3718  -8.3717  -8.3717
     2.8895   2.8895   2.8895   2.8895   2.9834   2.9834   2.9834   2.9834
     3.1162   3.1162   3.1162   3.1163   3.2277   3.2277   3.2278   3.2278
     3.3174   3.3174   3.3174   3.3174   3.4950   3.4950   3.4950   3.4950
     4.1053   4.1053   4.1053   4.1054   4.1331   4.1331   4.1331   4.1331
     4.2634   4.2635   4.2635   4.2635   4.3317   4.3317   4.3317   4.3317
     4.4079   4.4079   4.4079   4.4079   4.4942   4.4942   4.4942   4.4942
     7.0707   7.0707   7.0707   7.0707   7.2283   7.2283   7.2283   7.2283
     7.2777   7.2777   7.2777   7.2777   7.3441   7.3441   7.3441   7.3441
     7.5041   7.5041   7.5042   7.5042   7.5739   7.5739   7.5739   7.5740
    11.8786  11.8786  11.8786  11.8786  11.9217  11.9217  11.9217  11.9217
    12.1100  12.1100  12.1100  12.1100  12.2804  12.2804  12.2804  12.2804
    12.4103  12.4103  12.4103  12.4103  12.5154  12.5154  12.5154  12.5154
    17.0577  17.0577  17.0577  17.0577  17.1581  17.1581  17.1581  17.1581
    17.4618  17.4620  17.4621  17.4623  17.5023

     the Fermi energy is     9.8512 ev

!    total energy              =   -6260.68548185 Ry
     Harris-Foulkes estimate   =   -6260.68548185 Ry
     estimated scf accuracy    <          1.1E-09 Ry

     The total energy is the sum of the following terms:

     one-electron contribution =   -4736.14057528 Ry
     hartree contribution      =    2605.60444015 Ry
     xc contribution           =    -966.32704280 Ry
     ewald contribution        =   -3163.82229451 Ry
     smearing contrib. (-TS)   =      -0.00000941 Ry

     convergence has been achieved in  13 iterations

     Writing output data file Landau_14.save
 
     init_run     :     27.66s CPU     29.46s WALL (       1 calls)
     electrons    :   1114.91s CPU   1151.22s WALL (       1 calls)

     Called by init_run:
     wfcinit      :     25.08s CPU     26.74s WALL (       1 calls)
     potinit      :      1.01s CPU      1.04s WALL (       1 calls)

     Called by electrons:
     c_bands      :    982.06s CPU   1016.28s WALL (      13 calls)
     sum_band     :    127.45s CPU    128.74s WALL (      13 calls)
     v_of_rho     :      1.20s CPU      1.23s WALL (      14 calls)
     mix_rho      :      1.94s CPU      2.49s WALL (      13 calls)

     Called by c_bands:
     init_us_2    :      7.17s CPU      8.06s WALL (      54 calls)
     cegterg      :    826.29s CPU    858.81s WALL (      26 calls)

     Called by sum_band:

     Called by *egterg:
     h_psi        :    663.83s CPU    668.50s WALL (     124 calls)
     g_psi        :      1.47s CPU      1.47s WALL (      96 calls)
     cdiaghg      :     13.14s CPU     13.22s WALL (     122 calls)

     Called by h_psi:
     h_psi:pot    :    659.44s CPU    663.78s WALL (     124 calls)
     h_psi:calbec :     64.92s CPU     66.51s WALL (     124 calls)
     vloc_psi     :    523.68s CPU    525.81s WALL (     124 calls)
     add_vuspsi   :     70.84s CPU     71.45s WALL (     124 calls)

     General routines
     calbec       :     64.92s CPU     66.51s WALL (     124 calls)
     fft          :      0.86s CPU      0.86s WALL (      56 calls)
     fftw         :    538.37s CPU    540.14s WALL (   34156 calls)
 
     Parallel routines
 
     PWSCF        : 19m 5.36s CPU    19m45.87s WALL

 
   This run was terminated on:   2:20:19  21Mar2020            

=------------------------------------------------------------------------------=
   JOB DONE.
=------------------------------------------------------------------------------=
