
     Program PWSCF v.6.2 (svn rev. 14038) starts on 13Sep2019 at 17:15:55 

     This program is part of the open-source Quantum ESPRESSO suite
     for quantum simulation of materials; please cite
         "P. Giannozzi et al., J. Phys.:Condens. Matter 21 395502 (2009);
         "P. Giannozzi et al., J. Phys.:Condens. Matter 29 465901 (2017);
          URL http://www.quantum-espresso.org", 
     in publications or presentations arising from this work. More details at
     http://www.quantum-espresso.org/quote

     Parallel version (MPI), running on    40 processors

     MPI processes distributed on     6 nodes
     K-points division:     npool     =      40
     Reading input from scf.in

     Current dimensions of program PWSCF are:
     Max number of different atomic species (ntypx) = 10
     Max number of k-points (npk) =  40000
     Max angular momentum in pseudopotentials (lmaxx) =  3

     Subspace diagonalization in iterative solution of the eigenvalue problem:
     a serial algorithm will be used

 
     G-vector sticks info
     --------------------
     sticks:   dense  smooth     PW     G-vecs:    dense   smooth      PW
     Sum        7721    7721   2073               496901   496901   68897
 


     bravais-lattice index     =            0
     lattice parameter (alat)  =      13.8456  a.u.
     unit-cell volume          =    2797.5589 (a.u.)^3
     number of atoms/cell      =           32
     number of atomic types    =            2
     number of electrons       =       368.20
     number of Kohn-Sham states=          221
     kinetic-energy cutoff     =     120.0000  Ry
     charge density cutoff     =     480.0000  Ry
     convergence threshold     =      1.0E-08
     mixing beta               =       0.7000
     number of iterations used =            8  plain     mixing
     Exchange-correlation      = SLA PW NOGX NOGC ( 1  4  0  0 0 0)

     celldm(1)=  13.845577  celldm(2)=   0.000000  celldm(3)=   0.000000
     celldm(4)=   0.000000  celldm(5)=   0.000000  celldm(6)=   0.000000

     crystal axes: (cart. coord. in units of alat)
               a(1) = (   1.000000   0.000000   0.000000 )  
               a(2) = (   0.000000   1.054013   0.000000 )  
               a(3) = (   0.000000   0.000000   1.000000 )  

     reciprocal axes: (cart. coord. in units 2 pi/alat)
               b(1) = (  1.000000  0.000000  0.000000 )  
               b(2) = (  0.000000  0.948755  0.000000 )  
               b(3) = (  0.000000  0.000000  1.000000 )  


     PseudoPot. # 1 for W  read from file:
     /cluster/scratch/mnoe/QE/pps/W_ONCV_LDA-4.0.upf
     MD5 check sum: ba0307d5d4cd419d6f1d13dc49d7c13a
     Pseudo is Norm-conserving + core correction, Zval = 28.0
     Generated using ONCVPSP code by D. R. Hamann
     Using radial grid of 1380 points,  8 beta functions with: 
                l(1) =   0
                l(2) =   0
                l(3) =   1
                l(4) =   1
                l(5) =   2
                l(6) =   2
                l(7) =   3
                l(8) =   3

     PseudoPot. # 2 for O  read from file:
     /cluster/scratch/mnoe/QE/pps/O_ONCV_LDA-3.0.upf
     MD5 check sum: ca1549d10c4e927e51167f6fca52ae32
     Pseudo is Norm-conserving + core correction, Zval =  6.0
     Generated using ONCVPSP code by D. R. Hamann
     Using radial grid of  926 points,  5 beta functions with: 
                l(1) =   0
                l(2) =   0
                l(3) =   1
                l(4) =   1
                l(5) =   2

     atomic species   valence    mass     pseudopotential
        W             28.00   183.84000     W ( 1.00)
        O              6.00    15.99940     O ( 1.00)

      8 Sym. Ops. (no inversion) found ( 4 have fractional translation)



   Cartesian axes

     site n.     atom                  positions (alat units)
         1           W   tau(   1) = (   0.2607900   0.2970842   0.2503100  )
         2           W   tau(   2) = (  -0.2503100   0.7569291  -0.7392100  )
         3           W   tau(   3) = (   0.2392100   0.2299225   0.7503100  )
         4           W   tau(   4) = (   0.7503100   0.8240908   0.7607900  )
         5           W   tau(   5) = (   0.7392100   0.2970842   0.7496900  )
         6           W   tau(   6) = (   0.2503100   0.7569291   0.7392100  )
         7           W   tau(   7) = (  -0.2392100   0.2299225  -0.7503100  )
         8           W   tau(   8) = (   0.2496900   0.8240908   0.2392100  )
         9           O   tau(   9) = (   0.2618700   0.0087694   0.2586100  )
        10           O   tau(  10) = (  -0.2586100   1.0452439  -0.7381300  )
        11           O   tau(  11) = (   0.2381300   0.5182372   0.7586100  )
        12           O   tau(  12) = (   0.7586100   0.5357760   0.7618700  )
        13           O   tau(  13) = (   0.7381300   0.0087694   0.7413900  )
        14           O   tau(  14) = (   0.2586100   1.0452439   0.7381300  )
        15           O   tau(  15) = (  -0.2381300   0.5182372  -0.7586100  )
        16           O   tau(  16) = (   0.2413900   0.5357760   0.2381300  )
        17           O   tau(  17) = (   0.4961800   0.2769841   0.6995400  )
        18           O   tau(  18) = (   0.4992200   0.7818565   0.8004600  )
        19           O   tau(  19) = (  -0.9961800   0.2500225   1.1995400  )
        20           O   tau(  20) = (   0.0007801   0.7991634   0.3004600  )
        21           O   tau(  21) = (   0.5038200   0.2769841   0.3004600  )
        22           O   tau(  22) = (   0.5007800   0.7818565   1.1995400  )
        23           O   tau(  23) = (  -0.0038199   0.2500225   0.8004600  )
        24           O   tau(  24) = (  -1.0007801   0.7991634   0.6995400  )
        25           O   tau(  25) = (   0.6995400   0.2548498   2.0007800  )
        26           O   tau(  26) = (   0.3004600   0.7770291   0.4961800  )
        27           O   tau(  27) = (   0.8004600   0.2721568   0.5007801  )
        28           O   tau(  28) = (   0.1995400   0.8039908   1.9961800  )
        29           O   tau(  29) = (   0.3004600   0.2548498   0.9992199  )
        30           O   tau(  30) = (   0.6995400   0.7770291   0.5038200  )
        31           O   tau(  31) = (   0.1995400   0.2721568   0.4992199  )
        32           O   tau(  32) = (   0.8004600   0.8039908   1.0038199  )

     number of k points=    40  gaussian smearing, width (Ry)=  0.0007
                       cart. coord. in units 2pi/alat
        k(    1) = (   0.0000000   0.0000000   0.0000000), wk =   0.0092593
        k(    2) = (   0.0000000   0.0000000   0.1666667), wk =   0.0370370
        k(    3) = (   0.0000000   0.0000000   0.3333333), wk =   0.0370370
        k(    4) = (   0.0000000   0.0000000  -0.5000000), wk =   0.0185185
        k(    5) = (   0.0000000   0.1581258   0.0000000), wk =   0.0185185
        k(    6) = (   0.0000000   0.1581258   0.1666667), wk =   0.0740741
        k(    7) = (   0.0000000   0.1581258   0.3333333), wk =   0.0740741
        k(    8) = (   0.0000000   0.1581258  -0.5000000), wk =   0.0370370
        k(    9) = (   0.0000000   0.3162515   0.0000000), wk =   0.0185185
        k(   10) = (   0.0000000   0.3162515   0.1666667), wk =   0.0740741
        k(   11) = (   0.0000000   0.3162515   0.3333333), wk =   0.0740741
        k(   12) = (   0.0000000   0.3162515  -0.5000000), wk =   0.0370370
        k(   13) = (   0.0000000  -0.4743773   0.0000000), wk =   0.0092593
        k(   14) = (   0.0000000  -0.4743773   0.1666667), wk =   0.0370370
        k(   15) = (   0.0000000  -0.4743773   0.3333333), wk =   0.0370370
        k(   16) = (   0.0000000  -0.4743773  -0.5000000), wk =   0.0185185
        k(   17) = (   0.1666667   0.0000000   0.1666667), wk =   0.0370370
        k(   18) = (   0.1666667   0.0000000   0.3333333), wk =   0.0740741
        k(   19) = (   0.1666667   0.0000000  -0.5000000), wk =   0.0370370
        k(   20) = (   0.1666667   0.1581258   0.1666667), wk =   0.0740741
        k(   21) = (   0.1666667   0.1581258   0.3333333), wk =   0.1481481
        k(   22) = (   0.1666667   0.1581258  -0.5000000), wk =   0.0740741
        k(   23) = (   0.1666667   0.3162515   0.1666667), wk =   0.0740741
        k(   24) = (   0.1666667   0.3162515   0.3333333), wk =   0.1481481
        k(   25) = (   0.1666667   0.3162515  -0.5000000), wk =   0.0740741
        k(   26) = (   0.1666667  -0.4743773   0.1666667), wk =   0.0370370
        k(   27) = (   0.1666667  -0.4743773   0.3333333), wk =   0.0740741
        k(   28) = (   0.1666667  -0.4743773  -0.5000000), wk =   0.0370370
        k(   29) = (   0.3333333   0.0000000   0.3333333), wk =   0.0370370
        k(   30) = (   0.3333333   0.0000000  -0.5000000), wk =   0.0370370
        k(   31) = (   0.3333333   0.1581258   0.3333333), wk =   0.0740741
        k(   32) = (   0.3333333   0.1581258  -0.5000000), wk =   0.0740741
        k(   33) = (   0.3333333   0.3162515   0.3333333), wk =   0.0740741
        k(   34) = (   0.3333333   0.3162515  -0.5000000), wk =   0.0740741
        k(   35) = (   0.3333333  -0.4743773   0.3333333), wk =   0.0370370
        k(   36) = (   0.3333333  -0.4743773  -0.5000000), wk =   0.0370370
        k(   37) = (  -0.5000000   0.0000000  -0.5000000), wk =   0.0092593
        k(   38) = (  -0.5000000   0.1581258  -0.5000000), wk =   0.0185185
        k(   39) = (  -0.5000000   0.3162515  -0.5000000), wk =   0.0185185
        k(   40) = (  -0.5000000  -0.4743773  -0.5000000), wk =   0.0092593

     Dense  grid:   496901 G-vectors     FFT dimensions: ( 100, 108, 100)

     Estimated max dynamical RAM per process >       2.71 GB

     Estimated total dynamical RAM >     108.41 GB

     Initial potential from superposition of free atoms

     starting charge  367.99656, renormalised to  368.20000
     Starting wfc are  232 randomized atomic wfcs

     total cpu time spent up to now is       25.3 secs

     Self-consistent Calculation

     iteration #  1     ecut=   120.00 Ry     beta= 0.70
     Davidson diagonalization with overlap
     ethr =  1.00E-02,  avg # of iterations =  5.0

     total cpu time spent up to now is      111.4 secs

     total energy              =   -6253.81811021 Ry
     Harris-Foulkes estimate   =   -6264.46919224 Ry
     estimated scf accuracy    <      13.46454594 Ry

     iteration #  2     ecut=   120.00 Ry     beta= 0.70
     Davidson diagonalization with overlap
     ethr =  3.66E-03,  avg # of iterations =  3.5

     total cpu time spent up to now is      195.7 secs

     total energy              =   -6250.69724345 Ry
     Harris-Foulkes estimate   =   -6270.62404715 Ry
     estimated scf accuracy    <      53.40198981 Ry

     iteration #  3     ecut=   120.00 Ry     beta= 0.70
     Davidson diagonalization with overlap
     ethr =  3.66E-03,  avg # of iterations =  3.4

     total cpu time spent up to now is      276.2 secs

     total energy              =   -6260.94989203 Ry
     Harris-Foulkes estimate   =   -6261.23642197 Ry
     estimated scf accuracy    <       0.93895984 Ry

     iteration #  4     ecut=   120.00 Ry     beta= 0.70
     Davidson diagonalization with overlap
     ethr =  2.55E-04,  avg # of iterations =  3.0

     total cpu time spent up to now is      342.7 secs

     total energy              =   -6260.95609978 Ry
     Harris-Foulkes estimate   =   -6261.02641401 Ry
     estimated scf accuracy    <       0.23323373 Ry

     iteration #  5     ecut=   120.00 Ry     beta= 0.70
     Davidson diagonalization with overlap
     ethr =  6.33E-05,  avg # of iterations =  5.1

     total cpu time spent up to now is      413.8 secs

     total energy              =   -6260.95324940 Ry
     Harris-Foulkes estimate   =   -6260.98647952 Ry
     estimated scf accuracy    <       0.07283968 Ry

     iteration #  6     ecut=   120.00 Ry     beta= 0.70
     Davidson diagonalization with overlap
     ethr =  1.98E-05,  avg # of iterations =  5.2

     total cpu time spent up to now is      488.9 secs

     total energy              =   -6260.96937750 Ry
     Harris-Foulkes estimate   =   -6260.97157295 Ry
     estimated scf accuracy    <       0.00587677 Ry

     iteration #  7     ecut=   120.00 Ry     beta= 0.70
     Davidson diagonalization with overlap
     ethr =  1.60E-06,  avg # of iterations =  5.5

     total cpu time spent up to now is      560.9 secs

     total energy              =   -6260.97012064 Ry
     Harris-Foulkes estimate   =   -6260.97020460 Ry
     estimated scf accuracy    <       0.00016518 Ry

     iteration #  8     ecut=   120.00 Ry     beta= 0.70
     Davidson diagonalization with overlap
     ethr =  4.49E-08,  avg # of iterations =  3.2

     total cpu time spent up to now is      646.7 secs

     total energy              =   -6260.97018274 Ry
     Harris-Foulkes estimate   =   -6260.97018811 Ry
     estimated scf accuracy    <       0.00002393 Ry

     iteration #  9     ecut=   120.00 Ry     beta= 0.70
     Davidson diagonalization with overlap
     ethr =  6.50E-09,  avg # of iterations =  2.0

     total cpu time spent up to now is      712.2 secs

     total energy              =   -6260.97018119 Ry
     Harris-Foulkes estimate   =   -6260.97018461 Ry
     estimated scf accuracy    <       0.00001208 Ry

     iteration # 10     ecut=   120.00 Ry     beta= 0.70
     Davidson diagonalization with overlap
     ethr =  3.28E-09,  avg # of iterations =  2.0

     total cpu time spent up to now is      775.8 secs

     total energy              =   -6260.97018133 Ry
     Harris-Foulkes estimate   =   -6260.97018235 Ry
     estimated scf accuracy    <       0.00000242 Ry

     iteration # 11     ecut=   120.00 Ry     beta= 0.70
     Davidson diagonalization with overlap
     ethr =  6.58E-10,  avg # of iterations =  3.0

     total cpu time spent up to now is      845.6 secs

     total energy              =   -6260.97018187 Ry
     Harris-Foulkes estimate   =   -6260.97018192 Ry
     estimated scf accuracy    <       0.00000012 Ry

     iteration # 12     ecut=   120.00 Ry     beta= 0.70
     Davidson diagonalization with overlap
     ethr =  3.37E-11,  avg # of iterations =  2.2

     total cpu time spent up to now is      916.9 secs

     total energy              =   -6260.97018187 Ry
     Harris-Foulkes estimate   =   -6260.97018189 Ry
     estimated scf accuracy    <       0.00000003 Ry

     iteration # 13     ecut=   120.00 Ry     beta= 0.70
     Davidson diagonalization with overlap
     ethr =  7.55E-12,  avg # of iterations =  2.8

     total cpu time spent up to now is      995.7 secs

     End of self-consistent calculation

          k = 0.0000 0.0000 0.0000 ( 62119 PWs)   bands (ev):

   -66.0744 -66.0740 -66.0734 -66.0734 -66.0730 -66.0730 -66.0724 -66.0720
   -30.4881 -30.4827 -30.4827 -30.4775 -30.4480 -30.4370 -30.4370 -30.4311
   -30.4188 -30.4119 -30.4119 -30.4094 -30.4072 -30.4068 -30.4022 -30.4022
   -30.3327 -30.3327 -30.3310 -30.3284 -30.3092 -30.3092 -30.3050 -30.3037
   -20.2297 -20.2296 -20.2295 -20.2295 -20.2294 -20.2294 -20.2293 -20.2292
   -20.2177 -20.2174 -20.2174 -20.2171 -20.2129 -20.2125 -20.2125 -20.2120
   -20.2107 -20.2105 -20.2104 -20.2104 -20.2100 -20.2100 -20.2098 -20.2097
   -20.2078 -20.2070 -20.2070 -20.2070 -20.2061 -20.2061 -20.2059 -20.2053
   -20.1995 -20.1991 -20.1983 -20.1983 -20.1970 -20.1970 -20.1959 -20.1956
   -20.1924 -20.1924 -20.1903 -20.1903 -20.1902 -20.1901 -20.1896 -20.1895
   -20.1862 -20.1862 -20.1850 -20.1850 -20.1841 -20.1841 -20.1831 -20.1830
    -9.8980  -9.6109  -9.4555  -9.4555  -9.1716  -9.1716  -9.0256  -8.9783
    -8.9667  -8.8232  -8.7918  -8.7918  -7.8268  -7.7490  -7.7458  -7.7458
    -7.7382  -7.7008  -7.6888  -7.6873  -7.5969  -7.5969  -7.5438  -7.5438
     1.2793   1.2823   1.3478   1.3478   1.3905   1.3905   1.4383   1.6839
     1.6890   1.6890   1.7166   1.9288   2.4419   2.5215   2.6086   2.6382
     2.7744   2.7744   4.1904   4.1904   4.4279   4.4300   4.8152   4.8787
     4.8787   4.8850   4.9079   4.9079   5.1011   5.1011   5.1745   5.4859
     5.4865   5.5565   5.5565   5.5978   5.5978   5.6817   5.6817   5.8708
     5.8708   5.9149   5.9208   5.9470   6.0126   6.0395   6.0544   6.1610
     6.1655   6.2988   6.3083   6.6024   6.6024   6.8637   6.8637   6.8737
     6.8915   6.8956   7.0312   7.0609   7.1117   7.1117   7.3780   7.3780
     7.4785   7.4785   7.8138   7.8291   8.1052   8.1052   8.1488   8.1928
     9.4249   9.4281  10.0858  10.0957  10.1235  10.1235  12.3045  12.3045
    12.3456  12.3456  12.4545  12.4545  12.5776  12.6341  12.7897  12.8861
    13.2563  13.3589  13.4325  13.4325  13.7871  14.0926  14.0926  14.1862
    14.3207  14.5410  14.5410  14.9506  15.4870  15.4979  15.5530  16.0948
    16.0948  16.8446  17.0836  17.0836  17.5361

          k = 0.0000 0.0000 0.1667 ( 62080 PWs)   bands (ev):

   -66.0743 -66.0739 -66.0734 -66.0733 -66.0730 -66.0729 -66.0724 -66.0720
   -30.4877 -30.4830 -30.4823 -30.4779 -30.4460 -30.4374 -30.4337 -30.4277
   -30.4193 -30.4123 -30.4092 -30.4076 -30.4065 -30.4025 -30.4006 -30.3954
   -30.3391 -30.3363 -30.3324 -30.3301 -30.3156 -30.3107 -30.3089 -30.3047
   -20.2297 -20.2296 -20.2295 -20.2295 -20.2294 -20.2294 -20.2293 -20.2292
   -20.2177 -20.2174 -20.2174 -20.2171 -20.2129 -20.2125 -20.2125 -20.2120
   -20.2107 -20.2105 -20.2104 -20.2104 -20.2101 -20.2100 -20.2099 -20.2097
   -20.2077 -20.2070 -20.2070 -20.2069 -20.2062 -20.2060 -20.2059 -20.2054
   -20.1994 -20.1989 -20.1983 -20.1981 -20.1971 -20.1969 -20.1960 -20.1957
   -20.1922 -20.1921 -20.1904 -20.1902 -20.1899 -20.1898 -20.1896 -20.1892
   -20.1866 -20.1862 -20.1854 -20.1851 -20.1846 -20.1840 -20.1836 -20.1831
    -9.8515  -9.5574  -9.4728  -9.3951  -9.1865  -9.0839  -9.0345  -8.9402
    -8.9261  -8.8105  -8.7966  -8.7607  -7.8868  -7.8204  -7.8053  -7.7580
    -7.7498  -7.7325  -7.7073  -7.6908  -7.6844  -7.6710  -7.6065  -7.5534
     1.3453   1.3503   1.3795   1.3957   1.5028   1.5339   1.6337   1.6763
     1.6829   1.7683   1.8865   2.0496   2.5284   2.6125   2.6300   2.7145
     2.7656   2.8635   4.1236   4.1869   4.4140   4.4191   4.4502   4.5190
     4.6886   4.8456   4.8522   4.9316   4.9434   5.0893   5.1538   5.3460
     5.4338   5.4728   5.5454   5.5756   5.6226   5.6725   5.6848   5.6991
     5.7724   5.8125   5.8585   5.9613   6.0380   6.1020   6.1371   6.1610
     6.3355   6.3904   6.5316   6.5865   6.7335   6.7582   6.8214   6.8355
     6.8849   6.9140   6.9879   7.0209   7.0833   7.1118   7.1982   7.2120
     7.2423   7.3209   7.8336   7.8383   8.0654   8.1205   8.1210   8.1817
     9.7477   9.7745  10.0968  10.1208  10.3412  10.4006  12.2354  12.2855
    12.3556  12.3828  12.3971  12.4945  12.6013  12.7055  12.8327  12.9110
    13.1261  13.2920  13.3525  13.4341  13.8594  14.0158  14.0910  14.1026
    14.3104  14.5354  14.6128  15.0607  15.5172  15.5180  15.5414  16.0662
    16.3939  16.8300  17.0104  17.2679  17.6026

          k = 0.0000 0.0000 0.3333 ( 62098 PWs)   bands (ev):

   -66.0741 -66.0737 -66.0736 -66.0732 -66.0731 -66.0727 -66.0726 -66.0722
   -30.4867 -30.4840 -30.4814 -30.4788 -30.4428 -30.4386 -30.4274 -30.4207
   -30.4204 -30.4137 -30.4062 -30.4035 -30.3989 -30.3968 -30.3829 -30.3777
   -30.3565 -30.3533 -30.3361 -30.3316 -30.3314 -30.3253 -30.3081 -30.3057
   -20.2296 -20.2295 -20.2295 -20.2295 -20.2294 -20.2294 -20.2293 -20.2293
   -20.2177 -20.2175 -20.2174 -20.2172 -20.2129 -20.2126 -20.2124 -20.2121
   -20.2107 -20.2105 -20.2104 -20.2103 -20.2102 -20.2100 -20.2099 -20.2098
   -20.2075 -20.2071 -20.2068 -20.2066 -20.2063 -20.2061 -20.2059 -20.2055
   -20.1991 -20.1985 -20.1985 -20.1976 -20.1975 -20.1966 -20.1964 -20.1960
   -20.1917 -20.1913 -20.1907 -20.1899 -20.1899 -20.1891 -20.1889 -20.1881
   -20.1877 -20.1865 -20.1859 -20.1858 -20.1853 -20.1848 -20.1838 -20.1833
    -9.7383  -9.5257  -9.4325  -9.2545  -9.2319  -9.0648  -8.8650  -8.8339
    -8.8097  -8.7856  -8.7221  -8.6403  -8.1777  -8.1223  -8.0639  -8.0093
    -7.7877  -7.7607  -7.7248  -7.7056  -7.7003  -7.6554  -7.6329  -7.5801
     1.3569   1.3685   1.4098   1.4317   1.6230   1.6280   1.6605   1.6710
     2.3068   2.3551   2.5175   2.6014   2.6564   2.7546   2.7791   2.8776
     2.9539   3.1004   3.7975   3.8845   3.9051   3.9969   4.2171   4.3300
     4.3788   4.5735   4.5789   4.8075   4.8116   4.8681   5.0076   5.0886
     5.2014   5.2454   5.3166   5.3962   5.5140   5.5326   5.6816   5.7310
     5.7666   5.8108   5.8423   6.0187   6.0620   6.1981   6.2272   6.3081
     6.4063   6.4354   6.5468   6.5654   6.5926   6.6240   6.6816   6.8079
     6.8614   6.8841   6.8918   7.0407   7.0640   7.0985   7.1170   7.1819
     7.3639   7.3994   7.7812   7.7992   7.9413   7.9959   8.1554   8.1770
    10.0803  10.1122  10.4377  10.5323  10.9337  11.0582  11.8741  11.9512
    12.1336  12.4923  12.5262  12.5565  12.6230  12.6740  12.7677  12.9138
    12.9531  13.1384  13.2256  13.4473  13.7165  13.7514  14.0661  14.0869
    14.3893  14.5171  14.8859  15.3392  15.4055  15.6573  15.9123  15.9774
    16.3088  17.2173  17.4089  17.5404  17.8255

          k = 0.0000 0.0000-0.5000 ( 62096 PWs)   bands (ev):

   -66.0739 -66.0739 -66.0735 -66.0735 -66.0729 -66.0729 -66.0725 -66.0724
   -30.4853 -30.4853 -30.4801 -30.4801 -30.4403 -30.4403 -30.4231 -30.4231
   -30.4160 -30.4160 -30.4048 -30.4048 -30.3792 -30.3792 -30.3761 -30.3761
   -30.3588 -30.3588 -30.3539 -30.3539 -30.3299 -30.3299 -30.3069 -30.3069
   -20.2296 -20.2296 -20.2295 -20.2295 -20.2294 -20.2294 -20.2293 -20.2293
   -20.2176 -20.2176 -20.2173 -20.2173 -20.2128 -20.2127 -20.2123 -20.2123
   -20.2106 -20.2106 -20.2104 -20.2103 -20.2102 -20.2102 -20.2099 -20.2098
   -20.2073 -20.2073 -20.2065 -20.2065 -20.2063 -20.2063 -20.2057 -20.2057
   -20.1987 -20.1987 -20.1980 -20.1980 -20.1970 -20.1969 -20.1963 -20.1963
   -20.1912 -20.1912 -20.1904 -20.1904 -20.1890 -20.1890 -20.1878 -20.1878
   -20.1874 -20.1874 -20.1865 -20.1865 -20.1856 -20.1856 -20.1836 -20.1836
    -9.6166  -9.6166  -9.3123  -9.3123  -9.1311  -9.1311  -8.8294  -8.8294
    -8.5223  -8.5222  -8.4701  -8.4701  -8.4624  -8.4624  -8.3763  -8.3763
    -7.7754  -7.7754  -7.7131  -7.7131  -7.6692  -7.6691  -7.6173  -7.6173
     1.3648   1.3648   1.4267   1.4267   1.6448   1.6448   1.6582   1.6582
     2.6894   2.6895   3.0170   3.0171   3.1532   3.1532   3.1918   3.1918
     3.3203   3.3203   3.3821   3.3821   3.5444   3.5444   3.8321   3.8321
     3.9278   3.9279   4.5053   4.5053   4.7587   4.7587   4.9840   4.9840
     5.2870   5.2870   5.3842   5.3842   5.4179   5.4179   5.7243   5.7243
     5.8061   5.8061   5.9966   5.9966   6.1812   6.1812   6.3060   6.3060
     6.3325   6.3325   6.4810   6.4810   6.5278   6.5279   6.5988   6.5988
     6.8293   6.8293   6.8772   6.8772   7.0924   7.0924   7.5254   7.5254
     7.5811   7.5811   7.7199   7.7199   7.7540   7.7540   8.1724   8.1725
    10.0984  10.0985  11.2112  11.2112  11.3080  11.3080  11.6071  11.6071
    11.8356  11.8356  12.6355  12.6355  12.7165  12.7165  12.8530  12.8530
    12.9715  12.9715  13.3302  13.3302  13.5148  13.5148  14.0818  14.0818
    14.4772  14.4772  15.1952  15.1952  15.7456  15.7457  15.8602  15.8602
    16.6654  16.6654  17.8937  17.8937  18.1887

          k = 0.0000 0.1581 0.0000 ( 62067 PWs)   bands (ev):

   -66.0744 -66.0740 -66.0734 -66.0733 -66.0730 -66.0730 -66.0723 -66.0720
   -30.4845 -30.4789 -30.4789 -30.4736 -30.4494 -30.4383 -30.4383 -30.4305
   -30.4228 -30.4140 -30.4140 -30.4114 -30.4080 -30.4069 -30.4025 -30.4025
   -30.3327 -30.3327 -30.3309 -30.3286 -30.3092 -30.3092 -30.3049 -30.3038
   -20.2297 -20.2296 -20.2295 -20.2295 -20.2294 -20.2294 -20.2293 -20.2292
   -20.2174 -20.2170 -20.2170 -20.2167 -20.2132 -20.2128 -20.2128 -20.2123
   -20.2107 -20.2105 -20.2104 -20.2104 -20.2101 -20.2101 -20.2098 -20.2097
   -20.2078 -20.2071 -20.2070 -20.2070 -20.2062 -20.2062 -20.2059 -20.2054
   -20.1995 -20.1991 -20.1983 -20.1983 -20.1970 -20.1970 -20.1959 -20.1957
   -20.1924 -20.1924 -20.1903 -20.1903 -20.1902 -20.1901 -20.1896 -20.1895
   -20.1862 -20.1862 -20.1850 -20.1850 -20.1841 -20.1841 -20.1831 -20.1830
    -9.8689  -9.6225  -9.4193  -9.4193  -9.1784  -9.1784  -8.9774  -8.9672
    -8.9516  -8.7771  -8.7535  -8.7535  -7.9081  -7.8438  -7.8438  -7.7944
    -7.7511  -7.7490  -7.7009  -7.6902  -7.5985  -7.5985  -7.5444  -7.5444
     1.2797   1.2819   1.3540   1.3540   1.3945   1.3945   1.5669   1.7159
     1.8639   1.9184   1.9184   2.0967   2.4472   2.5160   2.6803   2.7123
     2.8436   2.8436   4.0597   4.0597   4.1582   4.1590   4.7615   4.8746
     4.8746   4.9013   4.9013   4.9475   5.0458   5.0458   5.0548   5.3514
     5.3514   5.5296   5.5296   5.6315   5.6784   5.6901   5.6902   5.7235
     5.8482   5.8487   5.9352   5.9352   5.9831   6.0555   6.0692   6.1562
     6.1643   6.2981   6.2984   6.6272   6.6272   6.8162   6.8925   6.8925
     6.9216   6.9268   6.9535   7.0296   7.0425   7.0425   7.3832   7.3832
     7.4813   7.4813   7.8177   7.8280   8.0684   8.0684   8.0807   8.1120
     9.4283   9.4290  10.2837  10.2865  10.2901  10.2901  12.2332  12.2332
    12.3271  12.3271  12.4224  12.4399  12.4399  12.4705  12.8009  12.8853
    13.2908  13.3838  13.4310  13.4310  13.9580  14.0508  14.0508  14.0919
    14.3716  14.7607  14.7607  15.1169  15.4866  15.4946  15.9535  16.0628
    16.0628  16.5572  17.2177  17.2177  17.5770

          k = 0.0000 0.1581 0.1667 ( 62076 PWs)   bands (ev):

   -66.0743 -66.0739 -66.0734 -66.0733 -66.0731 -66.0729 -66.0724 -66.0721
   -30.4841 -30.4793 -30.4785 -30.4740 -30.4475 -30.4388 -30.4356 -30.4273
   -30.4232 -30.4144 -30.4110 -30.4095 -30.4070 -30.4028 -30.4008 -30.3957
   -30.3392 -30.3363 -30.3324 -30.3302 -30.3156 -30.3107 -30.3089 -30.3047
   -20.2296 -20.2296 -20.2295 -20.2295 -20.2294 -20.2294 -20.2293 -20.2293
   -20.2174 -20.2171 -20.2170 -20.2168 -20.2132 -20.2128 -20.2127 -20.2123
   -20.2107 -20.2105 -20.2104 -20.2104 -20.2101 -20.2100 -20.2099 -20.2097
   -20.2077 -20.2070 -20.2070 -20.2069 -20.2062 -20.2061 -20.2059 -20.2054
   -20.1993 -20.1990 -20.1983 -20.1981 -20.1971 -20.1969 -20.1960 -20.1958
   -20.1922 -20.1921 -20.1904 -20.1902 -20.1899 -20.1898 -20.1896 -20.1892
   -20.1866 -20.1862 -20.1854 -20.1851 -20.1846 -20.1840 -20.1836 -20.1831
    -9.8212  -9.5691  -9.4367  -9.3543  -9.1936  -9.0909  -8.9605  -8.9387
    -8.9261  -8.7666  -8.7582  -8.7269  -7.9196  -7.8702  -7.8469  -7.8443
    -7.8059  -7.8027  -7.7413  -7.7215  -7.6850  -7.6692  -7.6082  -7.5541
     1.3521   1.3581   1.3824   1.4003   1.5871   1.6395   1.6626   1.8721
     1.8850   1.9148   1.9409   2.1591   2.5348   2.6066   2.7023   2.7895
     2.8355   2.9323   4.0249   4.0688   4.1530   4.1965   4.4441   4.5154
     4.6919   4.7730   4.8557   4.9206   4.9328   5.0178   5.0556   5.2939
     5.3041   5.3825   5.4088   5.5429   5.6200   5.6282   5.6780   5.7371
     5.7889   5.8094   5.8752   5.9045   5.9119   6.1067   6.1500   6.1701
     6.2942   6.3793   6.5099   6.6146   6.7551   6.8030   6.8459   6.8500
     6.8906   6.9317   6.9864   7.0051   7.0460   7.0738   7.1999   7.2169
     7.2451   7.3250   7.8346   7.8381   8.0308   8.0558   8.0705   8.1044
     9.7541   9.7800  10.2854  10.2912  10.5041  10.5390  12.1997  12.2524
    12.3080  12.3538  12.3628  12.4436  12.4544  12.5728  12.8490  12.9098
    13.1545  13.3013  13.3642  13.4304  13.9099  13.9472  14.0491  14.0510
    14.4377  14.7549  14.8820  15.2117  15.5173  15.5400  15.9160  16.0378
    16.3600  16.7129  16.9588  17.3788  17.6402

          k = 0.0000 0.1581 0.3333 ( 62142 PWs)   bands (ev):

   -66.0741 -66.0737 -66.0736 -66.0732 -66.0731 -66.0727 -66.0726 -66.0722
   -30.4830 -30.4802 -30.4775 -30.4749 -30.4443 -30.4399 -30.4304 -30.4245
   -30.4212 -30.4156 -30.4067 -30.4038 -30.3998 -30.3976 -30.3830 -30.3779
   -30.3566 -30.3533 -30.3362 -30.3316 -30.3315 -30.3253 -30.3081 -30.3057
   -20.2296 -20.2295 -20.2295 -20.2295 -20.2294 -20.2294 -20.2293 -20.2293
   -20.2173 -20.2172 -20.2170 -20.2168 -20.2131 -20.2129 -20.2127 -20.2124
   -20.2107 -20.2105 -20.2105 -20.2103 -20.2103 -20.2100 -20.2100 -20.2098
   -20.2075 -20.2071 -20.2068 -20.2066 -20.2064 -20.2061 -20.2059 -20.2055
   -20.1990 -20.1986 -20.1985 -20.1976 -20.1975 -20.1967 -20.1964 -20.1960
   -20.1917 -20.1913 -20.1907 -20.1899 -20.1899 -20.1891 -20.1889 -20.1881
   -20.1877 -20.1865 -20.1859 -20.1858 -20.1853 -20.1848 -20.1838 -20.1833
    -9.7055  -9.4899  -9.4435  -9.2398  -9.1997  -8.9915  -8.8501  -8.8363
    -8.7855  -8.7712  -8.7001  -8.6207  -8.1799  -8.1248  -8.0732  -8.0138
    -7.8736  -7.8529  -7.8235  -7.7972  -7.7099  -7.6561  -7.6349  -7.5808
     1.3697   1.3898   1.4158   1.4396   1.8024   1.8274   1.9035   1.9124
     2.3074   2.3653   2.5203   2.6182   2.7284   2.7895   2.8154   2.8769
     3.0298   3.1619   3.7977   3.8838   3.8952   3.9456   4.1727   4.1980
     4.2728   4.4157   4.5878   4.7485   4.7616   4.8597   4.8855   4.9521
     5.0914   5.1985   5.2210   5.2712   5.4369   5.4775   5.5438   5.6723
     5.7452   5.7919   5.8482   5.8921   5.9962   6.1535   6.2165   6.2948
     6.3903   6.5399   6.5708   6.6258   6.6713   6.7075   6.7523   6.8307
     6.8602   6.8910   6.9536   6.9982   7.0450   7.0705   7.1260   7.1773
     7.3615   7.3961   7.7837   7.7967   7.9124   7.9459   8.0890   8.1028
    10.2646  10.2875  10.4483  10.5395  11.0467  11.1470  11.8745  11.9506
    12.1080  12.4485  12.4926  12.5319  12.5792  12.5988  12.7088  12.8422
    12.9131  13.1315  13.2387  13.4344  13.6222  13.6697  14.0458  14.0472
    14.6111  14.7371  15.2168  15.4607  15.6553  15.7977  15.9325  15.9589
    16.4348  17.1718  17.1922  17.4648  17.8257

          k = 0.0000 0.1581-0.5000 ( 62072 PWs)   bands (ev):

   -66.0739 -66.0738 -66.0735 -66.0735 -66.0729 -66.0728 -66.0725 -66.0725
   -30.4816 -30.4816 -30.4762 -30.4762 -30.4418 -30.4417 -30.4267 -30.4267
   -30.4177 -30.4176 -30.4052 -30.4052 -30.3795 -30.3795 -30.3763 -30.3763
   -30.3589 -30.3589 -30.3540 -30.3539 -30.3300 -30.3299 -30.3069 -30.3069
   -20.2296 -20.2296 -20.2295 -20.2295 -20.2294 -20.2294 -20.2293 -20.2293
   -20.2173 -20.2172 -20.2169 -20.2169 -20.2130 -20.2130 -20.2126 -20.2126
   -20.2106 -20.2106 -20.2104 -20.2104 -20.2102 -20.2102 -20.2099 -20.2099
   -20.2073 -20.2073 -20.2066 -20.2066 -20.2063 -20.2063 -20.2057 -20.2057
   -20.1987 -20.1987 -20.1980 -20.1980 -20.1970 -20.1969 -20.1963 -20.1963
   -20.1912 -20.1912 -20.1904 -20.1904 -20.1890 -20.1890 -20.1878 -20.1878
   -20.1874 -20.1874 -20.1865 -20.1865 -20.1856 -20.1856 -20.1836 -20.1836
    -9.5817  -9.5817  -9.3217  -9.3217  -9.0622  -9.0622  -8.7936  -8.7936
    -8.5233  -8.5233  -8.4750  -8.4750  -8.4622  -8.4622  -8.3714  -8.3713
    -7.8664  -7.8664  -7.8125  -7.8125  -7.6721  -7.6721  -7.6180  -7.6180
     1.3840   1.3840   1.4340   1.4340   1.8280   1.8280   1.9144   1.9144
     2.7584   2.7584   3.0326   3.0326   3.1475   3.1475   3.2304   3.2304
     3.3282   3.3282   3.3820   3.3820   3.5364   3.5364   3.8342   3.8342
     3.9773   3.9773   4.3051   4.3051   4.6700   4.6700   4.8119   4.8119
     5.1321   5.1321   5.3560   5.3560   5.3802   5.3802   5.5553   5.5553
     5.7553   5.7553   5.8718   5.8718   6.1814   6.1814   6.3258   6.3258
     6.3880   6.3880   6.5078   6.5078   6.5802   6.5802   6.7175   6.7175
     6.8884   6.8884   6.9009   6.9009   7.0238   7.0238   7.5342   7.5342
     7.5742   7.5742   7.7010   7.7010   7.7293   7.7293   8.1004   8.1004
    10.2831  10.2831  11.2175  11.2175  11.3069  11.3069  11.6715  11.6715
    11.8945  11.8945  12.5111  12.5112  12.6945  12.6945  12.8534  12.8534
    12.9194  12.9194  13.2282  13.2282  13.4742  13.4742  14.0445  14.0446
    14.7011  14.7011  15.5514  15.5514  15.8088  15.8088  15.9256  15.9256
    16.7057  16.7058  17.6970  17.6971  18.1679

          k = 0.0000 0.3163 0.0000 ( 62067 PWs)   bands (ev):

   -66.0743 -66.0741 -66.0733 -66.0733 -66.0731 -66.0731 -66.0723 -66.0721
   -30.4750 -30.4690 -30.4690 -30.4629 -30.4542 -30.4436 -30.4436 -30.4335
   -30.4285 -30.4183 -30.4183 -30.4179 -30.4080 -30.4073 -30.4029 -30.4029
   -30.3328 -30.3328 -30.3305 -30.3292 -30.3093 -30.3092 -30.3047 -30.3041
   -20.2296 -20.2296 -20.2295 -20.2295 -20.2294 -20.2294 -20.2293 -20.2293
   -20.2164 -20.2161 -20.2161 -20.2158 -20.2140 -20.2136 -20.2136 -20.2132
   -20.2107 -20.2106 -20.2104 -20.2104 -20.2101 -20.2101 -20.2098 -20.2098
   -20.2077 -20.2073 -20.2070 -20.2069 -20.2063 -20.2063 -20.2058 -20.2055
   -20.1994 -20.1992 -20.1983 -20.1983 -20.1971 -20.1970 -20.1959 -20.1957
   -20.1924 -20.1924 -20.1903 -20.1903 -20.1902 -20.1901 -20.1896 -20.1895
   -20.1862 -20.1862 -20.1850 -20.1850 -20.1841 -20.1841 -20.1831 -20.1830
    -9.7977  -9.6584  -9.3389  -9.3389  -9.2000  -9.2000  -8.9751  -8.9689
    -8.7428  -8.6331  -8.6238  -8.6238  -8.1438  -8.0941  -8.0941  -8.0667
    -7.7542  -7.7496  -7.7003  -7.6938  -7.5988  -7.5988  -7.5457  -7.5457
     1.2800   1.2812   1.3576   1.3576   1.3978   1.3978   1.6778   1.7130
     2.4161   2.4615   2.5011   2.5644   2.5644   2.7315   2.8901   2.9394
     3.0493   3.0493   3.6810   3.6928   3.7228   3.7228   4.1892   4.5252
     4.5252   4.7972   4.8793   4.8793   4.9135   4.9135   5.1167   5.1167
     5.1167   5.1326   5.4423   5.4423   5.6332   5.6371   5.7388   5.7388
     5.9052   5.9052   5.9169   5.9219   6.0616   6.0688   6.1025   6.1639
     6.1838   6.2735   6.2746   6.5607   6.6826   6.6826   6.9093   6.9093
     6.9459   7.0122   7.1316   7.1353   7.1609   7.1609   7.3909   7.3909
     7.4875   7.4875   7.8090   7.8189   7.8744   7.8824   7.9041   7.9041
     9.4309   9.4319  10.7390  10.7390  10.7739  10.7938  11.8765  11.8765
    11.9967  12.0357  12.3399  12.3399  12.4391  12.4391  12.8271  12.8774
    13.4011  13.4686  13.4828  13.4828  13.8419  13.8601  13.8601  13.8694
    14.8609  15.2861  15.2861  15.4838  15.4874  15.7222  15.9542  15.9542
    16.0110  16.9392  17.3021  17.6787  17.6787

          k = 0.0000 0.3163 0.1667 ( 62093 PWs)   bands (ev):

   -66.0742 -66.0740 -66.0733 -66.0732 -66.0731 -66.0730 -66.0723 -66.0721
   -30.4745 -30.4693 -30.4684 -30.4632 -30.4527 -30.4440 -30.4422 -30.4339
   -30.4260 -30.4187 -30.4157 -30.4136 -30.4071 -30.4032 -30.4010 -30.3960
   -30.3392 -30.3362 -30.3325 -30.3304 -30.3157 -30.3107 -30.3089 -30.3048
   -20.2296 -20.2296 -20.2295 -20.2295 -20.2294 -20.2294 -20.2293 -20.2293
   -20.2164 -20.2161 -20.2161 -20.2158 -20.2140 -20.2136 -20.2136 -20.2132
   -20.2107 -20.2106 -20.2104 -20.2104 -20.2102 -20.2101 -20.2098 -20.2098
   -20.2076 -20.2072 -20.2070 -20.2068 -20.2063 -20.2062 -20.2058 -20.2056
   -20.1993 -20.1991 -20.1983 -20.1981 -20.1972 -20.1969 -20.1960 -20.1958
   -20.1922 -20.1921 -20.1904 -20.1902 -20.1899 -20.1898 -20.1896 -20.1892
   -20.1867 -20.1862 -20.1854 -20.1851 -20.1846 -20.1840 -20.1835 -20.1831
    -9.7476  -9.6051  -9.3561  -9.2627  -9.2160  -9.1134  -8.9359  -8.9273
    -8.7514  -8.6288  -8.6267  -8.6082  -8.1445  -8.1026  -8.0910  -8.0734
    -7.8692  -7.8151  -7.7431  -7.7254  -7.6863  -7.6704  -7.6085  -7.5554
     1.3542   1.3623   1.3835   1.4041   1.6072   1.6481   1.8321   1.8854
     2.4198   2.5407   2.5486   2.5687   2.5917   2.7213   2.9177   3.0157
     3.0464   3.1429   3.6854   3.7080   3.7318   3.7738   4.1769   4.4566
     4.4730   4.5402   4.5739   4.7953   4.8201   4.9062   4.9492   4.9645
     5.1138   5.1322   5.2387   5.3665   5.4620   5.5229   5.6407   5.6704
     5.7290   5.8074   5.8267   5.8844   6.0567   6.0958   6.1640   6.1897
     6.3053   6.3843   6.4912   6.6204   6.6755   6.8892   6.8990   6.9804
     7.0001   7.0186   7.1031   7.1237   7.1382   7.1477   7.2140   7.2370
     7.2747   7.3431   7.8122   7.8251   7.8641   7.8783   7.8853   7.8952
     9.7638   9.7841  10.7428  10.7804  10.9184  10.9506  11.8723  11.9665
    12.0168  12.0937  12.2559  12.3448  12.3961  12.4911  12.8823  12.9094
    13.2558  13.3485  13.4369  13.4792  13.7080  13.7456  13.8567  13.8603
    14.9894  15.2768  15.4534  15.5362  15.5428  15.7878  15.9277  16.1720
    16.2448  16.9022  17.3452  17.3965  17.7848

          k = 0.0000 0.3163 0.3333 ( 62109 PWs)   bands (ev):

   -66.0740 -66.0738 -66.0735 -66.0733 -66.0730 -66.0728 -66.0725 -66.0723
   -30.4732 -30.4703 -30.4671 -30.4642 -30.4498 -30.4453 -30.4393 -30.4351
   -30.4229 -30.4197 -30.4079 -30.4043 -30.4011 -30.3989 -30.3832 -30.3781
   -30.3567 -30.3534 -30.3363 -30.3318 -30.3315 -30.3253 -30.3081 -30.3058
   -20.2296 -20.2296 -20.2295 -20.2295 -20.2294 -20.2293 -20.2293 -20.2293
   -20.2164 -20.2162 -20.2161 -20.2159 -20.2139 -20.2137 -20.2135 -20.2133
   -20.2106 -20.2106 -20.2104 -20.2103 -20.2103 -20.2100 -20.2100 -20.2099
   -20.2074 -20.2071 -20.2070 -20.2066 -20.2065 -20.2060 -20.2060 -20.2057
   -20.1990 -20.1986 -20.1985 -20.1976 -20.1975 -20.1967 -20.1963 -20.1960
   -20.1917 -20.1913 -20.1907 -20.1899 -20.1899 -20.1891 -20.1889 -20.1881
   -20.1878 -20.1865 -20.1859 -20.1858 -20.1853 -20.1848 -20.1838 -20.1833
    -9.6267  -9.4782  -9.4087  -9.2648  -9.0672  -8.8692  -8.8146  -8.7855
    -8.7835  -8.6444  -8.5965  -8.5426  -8.2140  -8.1869  -8.1356  -8.0967
    -8.0835  -8.0480  -8.0181  -7.9562  -7.7108  -7.6576  -7.6354  -7.5821
     1.3758   1.3978   1.4206   1.4452   2.2279   2.3047   2.3402   2.4475
     2.5104   2.5637   2.5764   2.7824   2.8264   2.8506   2.9458   3.0262
     3.2577   3.3486   3.6650   3.6819   3.7683   3.8296   3.8892   3.9061
     4.1490   4.3371   4.4485   4.4853   4.5168   4.6173   4.6430   4.8161
     4.8770   4.8946   5.0496   5.1229   5.2212   5.2564   5.2860   5.4200
     5.4338   5.6326   5.6955   5.8441   6.1550   6.1935   6.2180   6.3277
     6.4668   6.5641   6.6315   6.7114   6.7544   6.8257   6.8518   6.8943
     6.9693   7.0129   7.0828   7.0933   7.1222   7.1723   7.1985   7.2459
     7.3498   7.3918   7.7500   7.7864   7.7915   7.8100   7.8783   7.8921
    10.4639  10.5001  10.7547  10.7916  11.3547  11.4181  11.8266  11.9067
    11.9648  12.0461  12.2574  12.2958  12.5736  12.6459  12.6890  12.7196
    12.8984  13.1192  13.2321  13.3978  13.4748  13.5393  13.8475  13.8547
    15.1421  15.2491  15.5827  15.8458  15.9979  16.0053  16.0206  16.6815
    16.7729  16.8610  17.0345  17.5727  17.6455

          k = 0.0000 0.3163-0.5000 ( 62160 PWs)   bands (ev):

   -66.0738 -66.0738 -66.0736 -66.0736 -66.0728 -66.0728 -66.0726 -66.0726
   -30.4717 -30.4717 -30.4656 -30.4656 -30.4472 -30.4472 -30.4369 -30.4369
   -30.4211 -30.4211 -30.4057 -30.4057 -30.3800 -30.3800 -30.3767 -30.3767
   -30.3589 -30.3589 -30.3541 -30.3541 -30.3300 -30.3300 -30.3070 -30.3070
   -20.2296 -20.2296 -20.2295 -20.2295 -20.2294 -20.2294 -20.2293 -20.2293
   -20.2163 -20.2163 -20.2160 -20.2160 -20.2138 -20.2138 -20.2135 -20.2134
   -20.2105 -20.2105 -20.2105 -20.2105 -20.2102 -20.2102 -20.2099 -20.2099
   -20.2072 -20.2072 -20.2067 -20.2067 -20.2063 -20.2062 -20.2058 -20.2058
   -20.1987 -20.1987 -20.1980 -20.1980 -20.1969 -20.1969 -20.1964 -20.1963
   -20.1912 -20.1912 -20.1904 -20.1904 -20.1890 -20.1890 -20.1878 -20.1878
   -20.1874 -20.1874 -20.1865 -20.1865 -20.1856 -20.1856 -20.1836 -20.1836
    -9.5002  -9.5002  -9.3514  -9.3514  -8.8745  -8.8745  -8.6852  -8.6852
    -8.5312  -8.5312  -8.5087  -8.5087  -8.4446  -8.4446  -8.3497  -8.3496
    -8.0956  -8.0956  -8.0528  -8.0528  -7.6728  -7.6728  -7.6194  -7.6194
     1.3922   1.3922   1.4399   1.4399   2.4180   2.4180   2.5580   2.5580
     2.9580   2.9580   3.0760   3.0760   3.1273   3.1274   3.2959   3.2959
     3.3508   3.3508   3.4013   3.4013   3.5086   3.5086   3.6981   3.6981
     4.0948   4.0948   4.1277   4.1277   4.2185   4.2185   4.4136   4.4136
     4.8701   4.8701   4.9779   4.9779   5.1829   5.1829   5.3393   5.3394
     5.4809   5.4809   5.7706   5.7706   6.2834   6.2834   6.3373   6.3373
     6.5082   6.5082   6.5770   6.5771   6.5982   6.5983   6.8061   6.8061
     7.0893   7.0893   7.1051   7.1051   7.1362   7.1362   7.5402   7.5402
     7.5556   7.5556   7.6228   7.6228   7.6512   7.6512   7.8851   7.8851
    10.7572  10.7572  11.2314  11.2314  11.3050  11.3050  11.7627  11.7628
    12.0759  12.0759  12.2209  12.2209  12.5946  12.5946  12.7053  12.7053
    12.8670  12.8670  13.0216  13.0216  13.4782  13.4782  13.8480  13.8480
    15.2042  15.2042  15.7235  15.7235  16.3517  16.3517  16.5048  16.5048
    16.8610  16.8610  17.3237  17.3237  17.9644

          k = 0.0000-0.4744 0.0000 ( 62026 PWs)   bands (ev):

   -66.0742 -66.0742 -66.0732 -66.0732 -66.0732 -66.0731 -66.0722 -66.0722
   -30.4634 -30.4634 -30.4591 -30.4591 -30.4514 -30.4514 -30.4482 -30.4482
   -30.4244 -30.4244 -30.4203 -30.4203 -30.4077 -30.4077 -30.4030 -30.4030
   -30.3328 -30.3328 -30.3299 -30.3298 -30.3093 -30.3093 -30.3044 -30.3044
   -20.2296 -20.2296 -20.2295 -20.2295 -20.2294 -20.2294 -20.2293 -20.2293
   -20.2152 -20.2152 -20.2149 -20.2149 -20.2147 -20.2147 -20.2145 -20.2145
   -20.2107 -20.2107 -20.2104 -20.2104 -20.2101 -20.2101 -20.2098 -20.2098
   -20.2075 -20.2075 -20.2069 -20.2069 -20.2063 -20.2063 -20.2057 -20.2057
   -20.1993 -20.1993 -20.1983 -20.1983 -20.1971 -20.1970 -20.1958 -20.1958
   -20.1924 -20.1924 -20.1903 -20.1903 -20.1902 -20.1902 -20.1896 -20.1895
   -20.1862 -20.1862 -20.1850 -20.1850 -20.1841 -20.1841 -20.1831 -20.1831
    -9.7192  -9.7192  -9.2844  -9.2844  -9.2256  -9.2255  -8.9719  -8.9719
    -8.4456  -8.4456  -8.3910  -8.3910  -8.3867  -8.3867  -8.3862  -8.3862
    -7.7518  -7.7518  -7.6978  -7.6978  -7.5985  -7.5985  -7.5463  -7.5463
     1.2805   1.2805   1.3582   1.3583   1.3986   1.3986   1.7047   1.7047
     2.4810   2.4810   3.1292   3.1292   3.2330   3.2330   3.2677   3.2677
     3.3666   3.3666   3.3724   3.3724   3.5091   3.5091   3.6226   3.6226
     3.7420   3.7420   4.8868   4.8868   4.8964   4.8964   5.2709   5.2710
     5.2943   5.2943   5.3623   5.3623   5.3720   5.3720   5.7938   5.7938
     5.8096   5.8096   5.9824   5.9824   6.0799   6.0799   6.1685   6.1685
     6.2255   6.2255   6.3344   6.3344   6.7397   6.7397   6.8259   6.8259
     6.9807   6.9807   7.3810   7.3810   7.4490   7.4490   7.4872   7.4872
     7.5318   7.5318   7.5894   7.5894   7.6039   7.6039   7.8291   7.8291
     9.4323   9.4323  11.2958  11.2959  11.3570  11.3570  11.3807  11.3807
    11.4509  11.4509  12.3446  12.3446  12.4411  12.4411  12.8569  12.8569
    13.5848  13.5848  13.6331  13.6331  13.6393  13.6393  13.6465  13.6465
    15.4100  15.4101  15.5022  15.5022  15.6797  15.6797  15.7567  15.7567
    16.5999  16.5999  18.0629  18.0629  18.1254

          k = 0.0000-0.4744 0.1667 ( 62074 PWs)   bands (ev):

   -66.0741 -66.0741 -66.0732 -66.0732 -66.0731 -66.0731 -66.0722 -66.0722
   -30.4632 -30.4618 -30.4594 -30.4577 -30.4518 -30.4514 -30.4486 -30.4485
   -30.4244 -30.4207 -30.4194 -30.4151 -30.4071 -30.4034 -30.4011 -30.3962
   -30.3393 -30.3362 -30.3325 -30.3305 -30.3157 -30.3107 -30.3090 -30.3048
   -20.2296 -20.2296 -20.2295 -20.2295 -20.2294 -20.2294 -20.2293 -20.2293
   -20.2152 -20.2152 -20.2150 -20.2149 -20.2148 -20.2147 -20.2145 -20.2145
   -20.2107 -20.2106 -20.2104 -20.2104 -20.2102 -20.2101 -20.2098 -20.2098
   -20.2075 -20.2074 -20.2070 -20.2068 -20.2064 -20.2063 -20.2057 -20.2057
   -20.1992 -20.1991 -20.1983 -20.1981 -20.1972 -20.1970 -20.1959 -20.1959
   -20.1922 -20.1921 -20.1904 -20.1902 -20.1899 -20.1899 -20.1896 -20.1892
   -20.1866 -20.1862 -20.1854 -20.1851 -20.1846 -20.1840 -20.1835 -20.1831
    -9.6702  -9.6635  -9.3006  -9.2427  -9.1996  -9.1420  -8.9342  -8.9286
    -8.4515  -8.4514  -8.3984  -8.3936  -8.3868  -8.3854  -8.3825  -8.3789
    -7.8699  -7.8162  -7.7429  -7.7257  -7.6870  -7.6712  -7.6082  -7.5560
     1.3544   1.3631   1.3836   1.4050   1.6096   1.6501   1.8593   1.8848
     2.5703   2.5711   3.1289   3.1417   3.2375   3.2672   3.2740   3.2786
     3.3479   3.3708   3.3781   3.4272   3.5042   3.5711   3.6169   3.6610
     3.7684   3.7725   4.4940   4.5007   4.8829   4.9137   5.0418   5.0825
     5.1819   5.1854   5.2497   5.2651   5.3722   5.3877   5.5298   5.5617
     5.7649   5.7746   5.8083   5.8224   6.0776   6.1542   6.1556   6.2000
     6.3773   6.4231   6.4507   6.5043   6.7275   6.8138   6.9147   6.9951
     7.0352   7.0512   7.1845   7.1959   7.2319   7.2835   7.4768   7.4959
     7.5260   7.5387   7.5462   7.5681   7.5809   7.5953   7.8429   7.8447
     9.7677   9.7847  11.3001  11.3585  11.3744  11.4033  11.4632  11.4820
    11.5018  11.5688  12.2580  12.3444  12.3976  12.4890  12.9047  12.9079
    13.4184  13.4375  13.4856  13.5195  13.6189  13.6298  13.6333  13.6650
    15.4137  15.4836  15.6159  15.6609  15.6762  15.7440  15.9496  16.0141
    16.6588  16.6618  17.9248  17.9544  18.1001

          k = 0.0000-0.4744 0.3333 ( 62124 PWs)   bands (ev):

   -66.0739 -66.0739 -66.0734 -66.0734 -66.0729 -66.0729 -66.0724 -66.0724
   -30.4625 -30.4603 -30.4584 -30.4548 -30.4532 -30.4510 -30.4499 -30.4492
   -30.4239 -30.4216 -30.4085 -30.4044 -30.4016 -30.3995 -30.3832 -30.3782
   -30.3568 -30.3535 -30.3363 -30.3318 -30.3316 -30.3253 -30.3081 -30.3058
   -20.2296 -20.2296 -20.2295 -20.2295 -20.2294 -20.2293 -20.2293 -20.2293
   -20.2152 -20.2151 -20.2150 -20.2149 -20.2149 -20.2147 -20.2146 -20.2146
   -20.2106 -20.2106 -20.2104 -20.2103 -20.2103 -20.2100 -20.2100 -20.2099
   -20.2073 -20.2071 -20.2070 -20.2066 -20.2065 -20.2061 -20.2059 -20.2058
   -20.1990 -20.1986 -20.1985 -20.1976 -20.1975 -20.1967 -20.1963 -20.1961
   -20.1917 -20.1913 -20.1907 -20.1899 -20.1899 -20.1891 -20.1889 -20.1881
   -20.1878 -20.1865 -20.1859 -20.1858 -20.1853 -20.1848 -20.1838 -20.1833
    -9.5538  -9.5288  -9.3498  -9.2957  -8.9644  -8.9118  -8.8055  -8.7859
    -8.4891  -8.4843  -8.4242  -8.4210  -8.3786  -8.3783  -8.3603  -8.3520
    -8.1492  -8.1005  -8.0290  -7.9806  -7.7105  -7.6584  -7.6352  -7.5828
     1.3768   1.3989   1.4218   1.4464   2.2776   2.3136   2.4797   2.5149
     2.8288   2.8301   3.1280   3.1611   3.2459   3.2827   3.2842   3.3107
     3.3445   3.3600   3.4282   3.4802   3.5106   3.5958   3.7450   3.7728
     3.8280   3.8404   3.8766   3.8970   4.5111   4.5155   4.6847   4.7054
     4.7935   4.8293   4.9127   4.9390   5.2490   5.2909   5.3053   5.3102
     5.4174   5.4486   5.6943   5.7003   6.2065   6.2119   6.2159   6.3498
     6.5507   6.5551   6.6187   6.7145   6.7721   6.7820   6.8389   6.9335
     7.0464   7.0915   7.1954   7.2097   7.2425   7.2557   7.4528   7.5013
     7.5077   7.5245   7.5478   7.5521   7.5612   7.5790   7.8004   7.8019
    10.4729  10.5082  11.3115  11.3520  11.3766  11.4186  11.7996  11.8392
    11.8404  11.8964  11.9008  11.9653  12.5713  12.6457  12.7587  12.7723
    12.9586  12.9825  13.2138  13.2568  13.6170  13.6172  13.6247  13.6477
    15.4269  15.5058  15.6000  15.6788  16.2264  16.2847  16.6630  16.7062
    16.8552  16.8699  17.4418  17.4470  17.9229

          k = 0.0000-0.4744-0.5000 ( 62152 PWs)   bands (ev):

   -66.0737 -66.0737 -66.0737 -66.0737 -66.0727 -66.0727 -66.0727 -66.0727
   -30.4614 -30.4614 -30.4554 -30.4554 -30.4521 -30.4521 -30.4502 -30.4502
   -30.4228 -30.4228 -30.4059 -30.4059 -30.3802 -30.3802 -30.3769 -30.3769
   -30.3590 -30.3590 -30.3541 -30.3541 -30.3300 -30.3300 -30.3070 -30.3070
   -20.2296 -20.2295 -20.2295 -20.2295 -20.2294 -20.2294 -20.2293 -20.2293
   -20.2151 -20.2151 -20.2150 -20.2150 -20.2148 -20.2148 -20.2146 -20.2146
   -20.2105 -20.2105 -20.2105 -20.2105 -20.2102 -20.2102 -20.2100 -20.2099
   -20.2072 -20.2072 -20.2068 -20.2068 -20.2062 -20.2062 -20.2059 -20.2059
   -20.1987 -20.1987 -20.1981 -20.1980 -20.1969 -20.1969 -20.1964 -20.1964
   -20.1912 -20.1912 -20.1904 -20.1904 -20.1890 -20.1890 -20.1878 -20.1878
   -20.1874 -20.1874 -20.1865 -20.1865 -20.1856 -20.1856 -20.1836 -20.1836
    -9.4349  -9.4349  -9.3907  -9.3907  -8.6620  -8.6620  -8.6257  -8.6257
    -8.5755  -8.5754  -8.5505  -8.5505  -8.3522  -8.3522  -8.3244  -8.3244
    -8.2865  -8.2865  -8.2525  -8.2525  -7.6726  -7.6725  -7.6201  -7.6201
     1.3935   1.3935   1.4412   1.4412   2.9916   2.9916   3.0647   3.0647
     3.1745   3.1746   3.2000   3.2000   3.2288   3.2288   3.2544   3.2545
     3.3693   3.3694   3.3898   3.3899   3.4828   3.4828   3.5438   3.5438
     3.6106   3.6106   3.7777   3.7778   4.3378   4.3378   4.3800   4.3801
     4.4373   4.4374   4.5033   4.5034   5.2663   5.2663   5.2910   5.2911
     5.5394   5.5395   5.5807   5.5807   6.3247   6.3247   6.3333   6.3333
     6.5439   6.5439   6.6003   6.6003   6.6551   6.6551   6.7244   6.7244
     7.3072   7.3072   7.3465   7.3465   7.3520   7.3520   7.4808   7.4808
     7.4932   7.4932   7.5577   7.5577   7.6130   7.6130   7.6373   7.6373
    11.2043  11.2043  11.2523  11.2523  11.3829  11.3829  11.4270  11.4270
    12.2877  12.2877  12.3341  12.3341  12.3777  12.3777  12.4215  12.4215
    12.8769  12.8769  12.9323  12.9323  13.6126  13.6126  13.6297  13.6297
    15.5089  15.5089  15.5910  15.5910  16.8916  16.8917  16.9586  16.9586
    17.3265  17.3266  17.3822  17.3822  17.4796

          k = 0.1667 0.0000 0.1667 ( 62078 PWs)   bands (ev):

   -66.0743 -66.0738 -66.0734 -66.0734 -66.0730 -66.0730 -66.0725 -66.0721
   -30.4873 -30.4827 -30.4827 -30.4782 -30.4436 -30.4342 -30.4339 -30.4245
   -30.4197 -30.4098 -30.4091 -30.4064 -30.4008 -30.3999 -30.3960 -30.3953
   -30.3389 -30.3388 -30.3378 -30.3351 -30.3154 -30.3153 -30.3118 -30.3105
   -20.2296 -20.2296 -20.2295 -20.2295 -20.2294 -20.2294 -20.2293 -20.2293
   -20.2177 -20.2174 -20.2174 -20.2171 -20.2129 -20.2125 -20.2125 -20.2121
   -20.2107 -20.2105 -20.2104 -20.2104 -20.2101 -20.2100 -20.2099 -20.2097
   -20.2076 -20.2069 -20.2069 -20.2069 -20.2061 -20.2061 -20.2060 -20.2054
   -20.1992 -20.1988 -20.1982 -20.1981 -20.1970 -20.1970 -20.1961 -20.1958
   -20.1919 -20.1918 -20.1902 -20.1902 -20.1898 -20.1896 -20.1893 -20.1893
   -20.1866 -20.1866 -20.1855 -20.1855 -20.1845 -20.1845 -20.1837 -20.1835
    -9.8029  -9.4992  -9.4126  -9.4118  -9.0998  -9.0983  -9.0438  -8.9012
    -8.8905  -8.8006  -8.7662  -8.7654  -7.8909  -7.8600  -7.8161  -7.8046
    -7.7933  -7.7692  -7.7560  -7.7201  -7.7165  -7.6945  -7.6795  -7.6664
     1.4929   1.5229   1.5290   1.5383   1.5458   1.6388   1.6408   1.6689
     1.7694   1.7696   1.9722   2.1266   2.6173   2.7049   2.7078   2.7358
     2.8401   2.8735   4.1214   4.1241   4.3802   4.3819   4.5198   4.5252
     4.5698   4.5875   4.6872   4.7433   4.8086   4.8815   5.1331   5.2961
     5.3192   5.3743   5.4155   5.5465   5.5662   5.6613   5.6721   5.7445
     5.7491   5.7809   5.7927   5.7962   5.8487   6.0614   6.3435   6.3795
     6.4256   6.5365   6.5909   6.6974   6.7226   6.7354   6.7389   6.7704
     6.7967   6.8978   6.9120   6.9167   6.9566   7.0223   7.0402   7.1513
     7.3316   7.3916   7.8370   7.8372   8.0640   8.1095   8.1109   8.1539
     9.9642  10.0277  10.3331  10.3401  10.3734  10.4593  12.2870  12.2872
    12.3269  12.3391  12.4197  12.4509  12.6639  12.7188  12.8580  12.9391
    13.0741  13.2056  13.2571  13.3942  13.8928  13.9753  14.0423  14.0490
    14.2926  14.6048  14.6049  15.1808  15.4846  15.5938  15.5996  16.3552
    16.3646  16.9875  17.0012  17.1566  17.6498

          k = 0.1667 0.0000 0.3333 ( 62087 PWs)   bands (ev):

   -66.0741 -66.0736 -66.0736 -66.0732 -66.0731 -66.0728 -66.0727 -66.0723
   -30.4863 -30.4836 -30.4817 -30.4792 -30.4397 -30.4352 -30.4278 -30.4211
   -30.4170 -30.4106 -30.4012 -30.3992 -30.3970 -30.3951 -30.3826 -30.3780
   -30.3561 -30.3537 -30.3394 -30.3378 -30.3323 -30.3276 -30.3146 -30.3122
   -20.2296 -20.2295 -20.2295 -20.2295 -20.2294 -20.2294 -20.2293 -20.2293
   -20.2177 -20.2175 -20.2174 -20.2172 -20.2128 -20.2126 -20.2125 -20.2122
   -20.2107 -20.2105 -20.2104 -20.2103 -20.2102 -20.2100 -20.2100 -20.2098
   -20.2074 -20.2070 -20.2067 -20.2066 -20.2062 -20.2061 -20.2059 -20.2055
   -20.1989 -20.1984 -20.1983 -20.1976 -20.1974 -20.1968 -20.1965 -20.1961
   -20.1914 -20.1910 -20.1904 -20.1897 -20.1895 -20.1891 -20.1888 -20.1882
   -20.1877 -20.1866 -20.1864 -20.1858 -20.1856 -20.1849 -20.1843 -20.1838
    -9.6845  -9.4652  -9.3614  -9.2705  -9.1454  -9.0754  -8.8522  -8.8253
    -8.7796  -8.7639  -8.7149  -8.6477  -8.1673  -8.1114  -8.0777  -8.0254
    -7.8419  -7.7906  -7.7740  -7.7664  -7.7286  -7.7277  -7.7045  -7.7005
     1.5028   1.5186   1.6168   1.6510   1.6555   1.6712   1.7437   1.7752
     2.3133   2.3627   2.4993   2.5880   2.7418   2.8303   2.8898   2.9591
     2.9943   3.1071   3.8353   3.9059   3.9667   3.9742   4.2065   4.3490
     4.3620   4.5293   4.5559   4.5910   4.6665   4.7869   4.8239   4.9545
     5.0759   5.1054   5.1667   5.2504   5.3262   5.4505   5.6088   5.6980
     5.7399   5.7924   5.8165   5.8633   5.8933   6.0596   6.1669   6.2052
     6.4449   6.5099   6.5442   6.5983   6.6318   6.7130   6.7147   6.7454
     6.8189   6.9129   6.9183   6.9431   7.1472   7.1859   7.1920   7.2861
     7.3787   7.4203   7.7891   7.8020   7.9597   7.9981   8.1236   8.1379
    10.3291  10.3370  10.5944  10.6685  10.9439  11.0796  11.9314  12.0003
    12.1767  12.4368  12.4889  12.5372  12.6080  12.6915  12.8211  12.8935
    12.9376  13.0747  13.1399  13.3365  13.7020  13.7186  13.9883  14.0158
    14.4078  14.5788  14.8734  15.3770  15.4832  15.8368  15.9911  16.2572
    16.4564  17.1823  17.4590  17.5108  17.6099

          k = 0.1667 0.0000-0.5000 ( 62142 PWs)   bands (ev):

   -66.0738 -66.0738 -66.0734 -66.0734 -66.0730 -66.0729 -66.0725 -66.0725
   -30.4849 -30.4849 -30.4805 -30.4805 -30.4370 -30.4370 -30.4235 -30.4235
   -30.4127 -30.4126 -30.3988 -30.3988 -30.3786 -30.3786 -30.3764 -30.3764
   -30.3587 -30.3587 -30.3543 -30.3543 -30.3360 -30.3360 -30.3134 -30.3134
   -20.2296 -20.2296 -20.2295 -20.2295 -20.2294 -20.2294 -20.2293 -20.2293
   -20.2176 -20.2176 -20.2173 -20.2173 -20.2127 -20.2127 -20.2123 -20.2123
   -20.2106 -20.2106 -20.2103 -20.2103 -20.2102 -20.2102 -20.2099 -20.2099
   -20.2072 -20.2072 -20.2065 -20.2065 -20.2063 -20.2063 -20.2057 -20.2057
   -20.1986 -20.1986 -20.1979 -20.1979 -20.1970 -20.1970 -20.1964 -20.1964
   -20.1909 -20.1909 -20.1901 -20.1901 -20.1889 -20.1889 -20.1879 -20.1879
   -20.1874 -20.1874 -20.1866 -20.1866 -20.1860 -20.1860 -20.1840 -20.1840
    -9.5580  -9.5580  -9.2298  -9.2298  -9.1440  -9.1440  -8.7989  -8.7989
    -8.5248  -8.5248  -8.4834  -8.4833  -8.4471  -8.4471  -8.3784  -8.3783
    -7.8119  -7.8119  -7.7589  -7.7589  -7.7325  -7.7325  -7.7162  -7.7162
     1.5090   1.5091   1.6356   1.6356   1.6730   1.6730   1.7792   1.7792
     2.7682   2.7682   3.0331   3.0331   3.1213   3.1213   3.2401   3.2402
     3.3396   3.3396   3.4530   3.4531   3.5940   3.5940   3.8514   3.8514
     3.9202   3.9202   4.4676   4.4676   4.5787   4.5787   4.9394   4.9394
     5.0725   5.0725   5.1101   5.1101   5.3184   5.3184   5.6763   5.6763
     5.8179   5.8179   5.8460   5.8460   5.9226   5.9226   6.0372   6.0372
     6.3950   6.3950   6.4939   6.4940   6.7106   6.7106   6.7485   6.7486
     6.8667   6.8667   7.0033   7.0033   7.0598   7.0598   7.5634   7.5634
     7.6038   7.6038   7.7345   7.7345   7.7609   7.7609   8.1347   8.1347
    10.3486  10.3486  11.2893  11.2893  11.3833  11.3833  11.6281  11.6281
    11.8499  11.8499  12.6523  12.6524  12.7056  12.7056  12.7647  12.7647
    12.9578  12.9578  13.3114  13.3114  13.4168  13.4169  13.9991  13.9991
    14.5230  14.5230  15.1746  15.1746  15.9045  15.9045  16.1008  16.1008
    16.7568  16.7568  17.8862  17.8871  17.9619

          k = 0.1667 0.1581 0.1667 ( 62087 PWs)   bands (ev):

   -66.0742 -66.0739 -66.0734 -66.0733 -66.0730 -66.0730 -66.0725 -66.0721
   -30.4836 -30.4789 -30.4789 -30.4743 -30.4453 -30.4361 -30.4358 -30.4240
   -30.4236 -30.4115 -30.4108 -30.4085 -30.4009 -30.4000 -30.3962 -30.3957
   -30.3389 -30.3388 -30.3377 -30.3354 -30.3154 -30.3153 -30.3117 -30.3106
   -20.2296 -20.2296 -20.2295 -20.2295 -20.2294 -20.2294 -20.2293 -20.2293
   -20.2174 -20.2171 -20.2171 -20.2168 -20.2132 -20.2128 -20.2128 -20.2124
   -20.2107 -20.2105 -20.2104 -20.2104 -20.2101 -20.2101 -20.2099 -20.2098
   -20.2076 -20.2070 -20.2069 -20.2069 -20.2062 -20.2061 -20.2059 -20.2055
   -20.1992 -20.1988 -20.1981 -20.1981 -20.1971 -20.1970 -20.1961 -20.1959
   -20.1919 -20.1918 -20.1902 -20.1902 -20.1898 -20.1897 -20.1893 -20.1893
   -20.1866 -20.1866 -20.1855 -20.1855 -20.1845 -20.1845 -20.1837 -20.1835
    -9.7712  -9.5109  -9.3721  -9.3712  -9.1070  -9.1055  -8.9700  -8.9003
    -8.8902  -8.7577  -8.7322  -8.7314  -7.9263  -7.8703  -7.8641  -7.8482
    -7.8344  -7.8135  -7.8013  -7.7941  -7.7438  -7.7269  -7.6784  -7.6679
     1.5336   1.5372   1.5902   1.5911   1.6458   1.6459   1.6848   1.8727
     1.9358   1.9382   1.9726   2.2103   2.6254   2.7025   2.7782   2.8110
     2.9130   2.9384   4.0291   4.0409   4.1760   4.1865   4.4953   4.4999
     4.5702   4.5873   4.6731   4.7486   4.7848   4.8249   4.9554   5.2318
     5.2544   5.3188   5.3395   5.4199   5.4237   5.6104   5.6104   5.6729
     5.7781   5.7921   5.8154   5.8396   5.8514   5.9096   6.3336   6.3542
     6.4319   6.4595   6.5782   6.6902   6.7369   6.7553   6.8181   6.8203
     6.8497   6.8763   6.9326   6.9441   6.9967   7.0132   7.0466   7.1573
     7.3363   7.3897   7.8369   7.8373   8.0170   8.0481   8.0611   8.0793
     9.9837  10.0314  10.4842  10.4964  10.5269  10.5924  12.2561  12.2750
    12.2929  12.3063  12.3813  12.3948  12.5255  12.5707  12.8782  12.9362
    13.0995  13.2144  13.2558  13.3932  13.8961  13.8965  13.9486  13.9888
    14.5142  14.8732  14.8775  15.3166  15.5959  15.5973  15.8857  16.3257
    16.3310  16.8387  17.1041  17.1068  17.6923

          k = 0.1667 0.1581 0.3333 ( 62114 PWs)   bands (ev):

   -66.0740 -66.0737 -66.0735 -66.0732 -66.0732 -66.0728 -66.0727 -66.0723
   -30.4825 -30.4799 -30.4779 -30.4753 -30.4416 -30.4370 -30.4308 -30.4249
   -30.4174 -30.4121 -30.4023 -30.3993 -30.3977 -30.3955 -30.3827 -30.3782
   -30.3562 -30.3538 -30.3395 -30.3379 -30.3324 -30.3276 -30.3146 -30.3122
   -20.2296 -20.2295 -20.2295 -20.2295 -20.2294 -20.2294 -20.2294 -20.2293
   -20.2173 -20.2171 -20.2170 -20.2169 -20.2131 -20.2129 -20.2127 -20.2125
   -20.2106 -20.2105 -20.2104 -20.2103 -20.2102 -20.2100 -20.2100 -20.2099
   -20.2074 -20.2070 -20.2068 -20.2066 -20.2063 -20.2061 -20.2060 -20.2056
   -20.1989 -20.1984 -20.1983 -20.1976 -20.1974 -20.1968 -20.1965 -20.1961
   -20.1914 -20.1910 -20.1904 -20.1897 -20.1895 -20.1891 -20.1888 -20.1882
   -20.1877 -20.1866 -20.1864 -20.1859 -20.1856 -20.1849 -20.1843 -20.1838
    -9.6494  -9.4255  -9.3727  -9.2162  -9.1535  -9.0023  -8.8592  -8.8072
    -8.7630  -8.7451  -8.6947  -8.6276  -8.1697  -8.1142  -8.0881  -8.0291
    -7.8780  -7.8586  -7.8341  -7.8166  -7.8035  -7.7720  -7.7504  -7.7010
     1.5979   1.6145   1.6607   1.6798   1.8196   1.8290   1.9036   1.9358
     2.3141   2.3727   2.5015   2.6028   2.8150   2.8820   2.9190   2.9880
     3.0378   3.1645   3.8335   3.9045   3.9280   3.9629   4.1739   4.2223
     4.2878   4.4249   4.5279   4.6115   4.6748   4.7262   4.8024   4.8455
     4.9554   4.9803   5.0312   5.1856   5.2661   5.2978   5.3869   5.6453
     5.6704   5.7001   5.7997   5.8277   5.8690   5.8909   6.1543   6.2029
     6.4241   6.5526   6.5812   6.6716   6.7217   6.7494   6.7647   6.8299
     6.8873   6.9099   6.9574   6.9916   7.1423   7.1810   7.1929   7.2890
     7.3739   7.4176   7.7906   7.7986   7.9192   7.9482   8.0617   8.0689
    10.4537  10.4886  10.6264  10.6847  11.0562  11.1651  11.9315  11.9991
    12.1596  12.4251  12.4759  12.5298  12.5565  12.5883  12.7468  12.8176
    12.9017  13.0730  13.1299  13.3281  13.6023  13.6258  13.9223  13.9463
    14.6989  14.8537  15.2094  15.5811  15.7838  15.8376  16.0030  16.2348
    16.5600  17.1471  17.2504  17.5180  17.5651

          k = 0.1667 0.1581-0.5000 ( 62118 PWs)   bands (ev):

   -66.0738 -66.0738 -66.0734 -66.0734 -66.0729 -66.0729 -66.0726 -66.0725
   -30.4812 -30.4812 -30.4766 -30.4766 -30.4389 -30.4389 -30.4271 -30.4271
   -30.4140 -30.4139 -30.3990 -30.3990 -30.3789 -30.3789 -30.3767 -30.3766
   -30.3588 -30.3588 -30.3544 -30.3543 -30.3361 -30.3361 -30.3134 -30.3134
   -20.2296 -20.2296 -20.2295 -20.2295 -20.2294 -20.2294 -20.2293 -20.2293
   -20.2172 -20.2172 -20.2170 -20.2170 -20.2130 -20.2130 -20.2126 -20.2126
   -20.2106 -20.2105 -20.2104 -20.2104 -20.2102 -20.2102 -20.2099 -20.2099
   -20.2072 -20.2072 -20.2065 -20.2065 -20.2063 -20.2063 -20.2058 -20.2058
   -20.1986 -20.1985 -20.1979 -20.1979 -20.1970 -20.1970 -20.1964 -20.1964
   -20.1909 -20.1909 -20.1901 -20.1901 -20.1889 -20.1889 -20.1879 -20.1879
   -20.1874 -20.1874 -20.1866 -20.1866 -20.1860 -20.1860 -20.1840 -20.1840
    -9.5198  -9.5198  -9.2396  -9.2396  -9.0757  -9.0757  -8.7660  -8.7660
    -8.5261  -8.5261  -8.4889  -8.4888  -8.4456  -8.4456  -8.3739  -8.3739
    -7.8698  -7.8698  -7.8216  -7.8216  -7.7853  -7.7853  -7.7363  -7.7363
     1.6089   1.6089   1.6801   1.6801   1.8370   1.8370   1.9342   1.9342
     2.8363   2.8363   3.0505   3.0505   3.1326   3.1326   3.2589   3.2590
     3.3429   3.3429   3.4606   3.4606   3.5872   3.5872   3.8554   3.8554
     3.9694   3.9694   4.3123   4.3123   4.5728   4.5728   4.7392   4.7393
     4.9732   4.9732   5.0733   5.0733   5.1666   5.1666   5.4973   5.4973
     5.7366   5.7366   5.7901   5.7901   5.9028   5.9028   5.9219   5.9219
     6.5159   6.5159   6.6490   6.6490   6.6959   6.6959   6.8127   6.8127
     6.9398   6.9398   6.9737   6.9737   7.0864   7.0864   7.5644   7.5644
     7.5973   7.5974   7.7110   7.7110   7.7351   7.7351   8.0676   8.0677
    10.5034  10.5034  11.2968  11.2968  11.3831  11.3831  11.6942  11.6942
    11.9081  11.9081  12.5716  12.5716  12.6547  12.6547  12.7423  12.7423
    12.9400  12.9400  13.2046  13.2046  13.3515  13.3515  13.9284  13.9284
    14.8070  14.8070  15.5422  15.5423  16.0057  16.0057  16.1014  16.1014
    16.7888  16.7888  17.7106  17.7106  17.9725

          k = 0.1667 0.3163 0.1667 ( 62070 PWs)   bands (ev):

   -66.0741 -66.0739 -66.0733 -66.0733 -66.0731 -66.0731 -66.0724 -66.0722
   -30.4739 -30.4688 -30.4687 -30.4636 -30.4511 -30.4426 -30.4425 -30.4343
   -30.4224 -30.4150 -30.4140 -30.4133 -30.4009 -30.4003 -30.3964 -30.3962
   -30.3389 -30.3389 -30.3373 -30.3360 -30.3154 -30.3154 -30.3115 -30.3109
   -20.2296 -20.2296 -20.2295 -20.2295 -20.2294 -20.2294 -20.2293 -20.2293
   -20.2164 -20.2161 -20.2161 -20.2158 -20.2140 -20.2136 -20.2136 -20.2133
   -20.2107 -20.2106 -20.2104 -20.2104 -20.2102 -20.2101 -20.2099 -20.2098
   -20.2075 -20.2072 -20.2069 -20.2069 -20.2063 -20.2062 -20.2059 -20.2056
   -20.1991 -20.1989 -20.1981 -20.1981 -20.1971 -20.1971 -20.1961 -20.1959
   -20.1919 -20.1918 -20.1902 -20.1902 -20.1898 -20.1897 -20.1893 -20.1893
   -20.1866 -20.1866 -20.1855 -20.1855 -20.1845 -20.1845 -20.1836 -20.1836
    -9.6943  -9.5475  -9.2808  -9.2797  -9.1303  -9.1289  -8.8979  -8.8919
    -8.7604  -8.6208  -8.6134  -8.6127  -8.1466  -8.0993  -8.0992  -8.0797
    -7.8605  -7.8583  -7.8073  -7.8019  -7.7452  -7.7366  -7.6774  -7.6709
     1.5351   1.5364   1.6124   1.6129   1.6550   1.6554   1.9075   1.9672
     2.4227   2.5420   2.5457   2.6442   2.6669   2.7289   2.9989   3.0441
     3.1336   3.1404   3.7174   3.7181   3.7427   3.7968   4.1664   4.4826
     4.4847   4.5203   4.5301   4.6177   4.6249   4.7917   4.8124   4.8908
     4.9418   4.9601   5.1778   5.1928   5.4179   5.4419   5.4560   5.4794
     5.6771   5.6965   5.7863   5.7901   5.8473   5.8580   6.3507   6.3825
     6.4679   6.4928   6.5596   6.6754   6.8052   6.8174   6.8848   6.8982
     6.9803   6.9860   7.0424   7.0608   7.1383   7.1389   7.1663   7.1998
     7.3635   7.3927   7.8102   7.8238   7.8505   7.8658   7.8705   7.8936
    10.0103  10.0317  10.8876  10.9221  10.9457  10.9889  11.9430  11.9840
    12.0703  12.1071  12.3114  12.3166  12.4004  12.4014  12.9193  12.9334
    13.2136  13.2670  13.3082  13.4282  13.6756  13.6891  13.7260  13.7961
    15.1364  15.4559  15.4756  15.5924  15.6089  15.8538  16.2142  16.2150
    16.3000  16.8676  17.3968  17.4650  17.4894

          k = 0.1667 0.3163 0.3333 ( 62103 PWs)   bands (ev):

   -66.0740 -66.0737 -66.0735 -66.0732 -66.0731 -66.0729 -66.0726 -66.0724
   -30.4726 -30.4697 -30.4675 -30.4646 -30.4482 -30.4437 -30.4397 -30.4355
   -30.4182 -30.4151 -30.4045 -30.3997 -30.3987 -30.3961 -30.3828 -30.3784
   -30.3564 -30.3538 -30.3397 -30.3379 -30.3325 -30.3276 -30.3146 -30.3123
   -20.2296 -20.2295 -20.2295 -20.2295 -20.2294 -20.2294 -20.2294 -20.2293
   -20.2164 -20.2162 -20.2161 -20.2159 -20.2139 -20.2137 -20.2136 -20.2134
   -20.2106 -20.2105 -20.2104 -20.2103 -20.2103 -20.2101 -20.2100 -20.2099
   -20.2073 -20.2070 -20.2069 -20.2066 -20.2064 -20.2061 -20.2060 -20.2057
   -20.1988 -20.1985 -20.1983 -20.1976 -20.1974 -20.1968 -20.1964 -20.1962
   -20.1914 -20.1910 -20.1904 -20.1897 -20.1895 -20.1891 -20.1888 -20.1882
   -20.1877 -20.1866 -20.1864 -20.1859 -20.1856 -20.1849 -20.1843 -20.1838
    -9.5650  -9.4089  -9.3342  -9.1797  -9.0850  -8.8860  -8.7981  -8.7827
    -8.7598  -8.6279  -8.5918  -8.5482  -8.2141  -8.1904  -8.1286  -8.0964
    -8.0883  -8.0453  -8.0271  -7.9637  -7.8285  -7.7764  -7.7548  -7.7029
     1.6267   1.6458   1.6702   1.6909   2.2332   2.3111   2.3318   2.4441
     2.4945   2.5543   2.5679   2.7586   2.9172   2.9822   3.0399   3.1223
     3.2623   3.3467   3.6914   3.7112   3.7704   3.8349   3.9340   4.0114
     4.1419   4.3429   4.4458   4.4749   4.4958   4.5861   4.6099   4.7131
     4.7976   4.8467   4.8817   4.9237   4.9862   5.0463   5.1912   5.2038
     5.3728   5.3898   5.4975   5.6534   5.8127   5.8603   6.1838   6.2041
     6.5832   6.6550   6.6724   6.7750   6.8474   6.8900   6.9614   7.0138
     7.0462   7.0652   7.0876   7.1201   7.1812   7.2087   7.2406   7.3078
     7.3639   7.4146   7.7537   7.7738   7.7973   7.8114   7.8582   7.8815
    10.5889  10.6326  10.9338  10.9562  11.3672  11.4327  11.9028  11.9550
    12.0079  12.1464  12.2575  12.2879  12.4914  12.5978  12.6881  12.7292
    12.8967  13.0695  13.1627  13.3557  13.3733  13.4257  13.7022  13.7404
    15.3319  15.4495  15.7742  16.0043  16.0375  16.0760  16.1481  16.7359
    16.7502  16.9019  17.0471  17.6000  17.7014

          k = 0.1667 0.3163-0.5000 ( 62128 PWs)   bands (ev):

   -66.0737 -66.0737 -66.0735 -66.0735 -66.0728 -66.0728 -66.0726 -66.0726
   -30.4711 -30.4711 -30.4660 -30.4660 -30.4456 -30.4456 -30.4373 -30.4373
   -30.4164 -30.4164 -30.3995 -30.3994 -30.3794 -30.3794 -30.3771 -30.3770
   -30.3588 -30.3588 -30.3545 -30.3545 -30.3361 -30.3361 -30.3135 -30.3135
   -20.2296 -20.2295 -20.2295 -20.2295 -20.2294 -20.2294 -20.2293 -20.2293
   -20.2163 -20.2163 -20.2160 -20.2160 -20.2138 -20.2138 -20.2135 -20.2135
   -20.2105 -20.2105 -20.2104 -20.2104 -20.2102 -20.2102 -20.2100 -20.2100
   -20.2071 -20.2071 -20.2067 -20.2067 -20.2063 -20.2063 -20.2059 -20.2059
   -20.1985 -20.1985 -20.1979 -20.1979 -20.1970 -20.1970 -20.1965 -20.1965
   -20.1909 -20.1909 -20.1901 -20.1901 -20.1889 -20.1889 -20.1879 -20.1879
   -20.1874 -20.1874 -20.1866 -20.1866 -20.1860 -20.1860 -20.1840 -20.1840
    -9.4299  -9.4299  -9.2709  -9.2709  -8.8898  -8.8897  -8.6654  -8.6653
    -8.5401  -8.5401  -8.5101  -8.5101  -8.4325  -8.4325  -8.3536  -8.3535
    -8.0928  -8.0928  -8.0583  -8.0583  -7.7920  -7.7920  -7.7392  -7.7392
     1.6444   1.6444   1.6913   1.6913   2.4215   2.4215   2.5394   2.5395
     3.0198   3.0198   3.1063   3.1063   3.1390   3.1390   3.3092   3.3093
     3.3534   3.3534   3.4864   3.4864   3.5604   3.5605   3.7446   3.7446
     4.0888   4.0888   4.1333   4.1333   4.2130   4.2130   4.4205   4.4205
     4.7875   4.7875   4.8655   4.8655   5.0441   5.0441   5.0922   5.0922
     5.1931   5.1931   5.5669   5.5669   5.9136   5.9136   5.9327   5.9327
     6.6981   6.6981   6.8218   6.8218   6.8707   6.8707   6.9148   6.9148
     7.0647   7.0647   7.1190   7.1190   7.2125   7.2125   7.5533   7.5533
     7.5752   7.5752   7.6302   7.6302   7.6613   7.6614   7.8669   7.8669
    10.9137  10.9137  11.3129  11.3129  11.3852  11.3852  11.8189  11.8189
    12.0881  12.0881  12.2596  12.2596  12.5790  12.5790  12.6655  12.6655
    12.8398  12.8398  12.9802  12.9802  13.3241  13.3241  13.7123  13.7123
    15.4065  15.4065  15.9786  15.9786  16.4123  16.4123  16.5043  16.5043
    16.9157  16.9157  17.3603  17.3603  17.9028

          k = 0.1667-0.4744 0.1667 ( 62084 PWs)   bands (ev):

   -66.0740 -66.0740 -66.0732 -66.0732 -66.0732 -66.0732 -66.0723 -66.0723
   -30.4616 -30.4615 -30.4580 -30.4580 -30.4518 -30.4518 -30.4489 -30.4489
   -30.4193 -30.4193 -30.4154 -30.4154 -30.4007 -30.4007 -30.3965 -30.3965
   -30.3390 -30.3389 -30.3367 -30.3367 -30.3155 -30.3154 -30.3112 -30.3112
   -20.2296 -20.2296 -20.2295 -20.2295 -20.2294 -20.2294 -20.2293 -20.2293
   -20.2152 -20.2152 -20.2150 -20.2149 -20.2148 -20.2148 -20.2145 -20.2145
   -20.2106 -20.2106 -20.2104 -20.2104 -20.2102 -20.2102 -20.2099 -20.2099
   -20.2074 -20.2074 -20.2069 -20.2068 -20.2063 -20.2063 -20.2058 -20.2058
   -20.1990 -20.1990 -20.1981 -20.1981 -20.1971 -20.1971 -20.1960 -20.1960
   -20.1919 -20.1918 -20.1902 -20.1902 -20.1897 -20.1897 -20.1893 -20.1893
   -20.1866 -20.1866 -20.1855 -20.1855 -20.1845 -20.1845 -20.1836 -20.1836
    -9.6107  -9.6107  -9.2162  -9.2162  -9.1596  -9.1596  -8.8947  -8.8947
    -8.4589  -8.4589  -8.3932  -8.3931  -8.3865  -8.3865  -8.3807  -8.3807
    -7.8601  -7.8601  -7.8057  -7.8057  -7.7415  -7.7415  -7.6746  -7.6746
     1.5356   1.5357   1.6152   1.6152   1.6573   1.6573   1.9551   1.9551
     2.6637   2.6637   3.1443   3.1443   3.2621   3.2621   3.2824   3.2824
     3.3535   3.3535   3.4437   3.4437   3.5682   3.5682   3.6570   3.6570
     3.7912   3.7912   4.5283   4.5283   4.5806   4.5806   4.9869   4.9869
     5.0562   5.0562   5.1624   5.1624   5.2144   5.2144   5.4854   5.4854
     5.5251   5.5251   5.7921   5.7921   5.8276   5.8276   6.3862   6.3862
     6.5350   6.5350   6.5817   6.5817   6.8190   6.8191   6.9147   6.9147
     6.9903   6.9903   7.1178   7.1178   7.3136   7.3136   7.4818   7.4819
     7.5269   7.5269   7.5444   7.5444   7.5982   7.5982   7.8444   7.8444
    10.0252  10.0252  11.4133  11.4133  11.4757  11.4757  11.5098  11.5098
    11.5695  11.5695  12.3116  12.3116  12.3951  12.3951  12.9399  12.9399
    13.4072  13.4072  13.4283  13.4283  13.4601  13.4601  13.6053  13.6053
    15.5752  15.5752  15.7265  15.7265  15.9326  15.9326  15.9982  15.9982
    16.7156  16.7156  17.9327  17.9330  17.9743

          k = 0.1667-0.4744 0.3333 ( 62104 PWs)   bands (ev):

   -66.0739 -66.0738 -66.0734 -66.0733 -66.0730 -66.0730 -66.0725 -66.0725
   -30.4609 -30.4589 -30.4582 -30.4551 -30.4532 -30.4515 -30.4502 -30.4497
   -30.4187 -30.4163 -30.4056 -30.4001 -30.3990 -30.3963 -30.3829 -30.3785
   -30.3564 -30.3539 -30.3397 -30.3380 -30.3325 -30.3276 -30.3147 -30.3123
   -20.2296 -20.2296 -20.2295 -20.2295 -20.2294 -20.2294 -20.2293 -20.2293
   -20.2152 -20.2151 -20.2150 -20.2149 -20.2149 -20.2147 -20.2146 -20.2146
   -20.2106 -20.2106 -20.2104 -20.2103 -20.2103 -20.2101 -20.2100 -20.2099
   -20.2072 -20.2071 -20.2069 -20.2066 -20.2065 -20.2062 -20.2059 -20.2058
   -20.1988 -20.1985 -20.1983 -20.1976 -20.1974 -20.1968 -20.1964 -20.1962
   -20.1914 -20.1910 -20.1904 -20.1897 -20.1895 -20.1891 -20.1888 -20.1882
   -20.1877 -20.1866 -20.1864 -20.1859 -20.1856 -20.1849 -20.1843 -20.1838
    -9.4842  -9.4649  -9.2667  -9.2143  -8.9819  -8.9307  -8.7776  -8.7624
    -8.5005  -8.4958  -8.4165  -8.4114  -8.3776  -8.3751  -8.3640  -8.3572
    -8.1395  -8.0904  -8.0386  -7.9926  -7.8287  -7.7775  -7.7548  -7.7036
     1.6298   1.6483   1.6725   1.6927   2.2841   2.3214   2.4649   2.4987
     2.9304   2.9341   3.1453   3.1711   3.2578   3.2829   3.2885   3.3041
     3.3485   3.3634   3.4842   3.5324   3.5638   3.6386   3.7336   3.7632
     3.8308   3.8410   3.9434   4.0101   4.4722   4.5160   4.6599   4.6721
     4.7196   4.7603   4.8386   4.8742   5.0148   5.0529   5.0747   5.1257
     5.1986   5.2616   5.3874   5.4667   5.8159   5.8386   6.1923   6.2050
     6.6559   6.6797   6.7148   6.7638   6.8741   6.9336   7.0483   7.1085
     7.1214   7.1804   7.1952   7.2402   7.2591   7.2637   7.4544   7.4970
     7.5030   7.5142   7.5338   7.5522   7.5742   7.5934   7.8037   7.8067
    10.6114  10.6355  11.4317  11.4664  11.4960  11.5319  11.8024  11.8385
    11.8554  11.8853  11.9643  12.0353  12.4843  12.5669  12.7641  12.7891
    12.9636  12.9972  13.1432  13.2177  13.4346  13.4613  13.4981  13.5516
    15.6541  15.7254  15.8641  15.9331  16.2706  16.3322  16.6434  16.6955
    16.8953  16.9059  17.4669  17.5101  17.8539

          k = 0.1667-0.4744-0.5000 ( 62080 PWs)   bands (ev):

   -66.0736 -66.0736 -66.0736 -66.0736 -66.0727 -66.0727 -66.0727 -66.0727
   -30.4599 -30.4599 -30.4554 -30.4553 -30.4524 -30.4524 -30.4506 -30.4506
   -30.4176 -30.4175 -30.3996 -30.3996 -30.3796 -30.3796 -30.3772 -30.3772
   -30.3589 -30.3589 -30.3545 -30.3545 -30.3362 -30.3362 -30.3135 -30.3135
   -20.2295 -20.2295 -20.2295 -20.2295 -20.2294 -20.2294 -20.2293 -20.2293
   -20.2151 -20.2151 -20.2150 -20.2150 -20.2148 -20.2148 -20.2147 -20.2147
   -20.2105 -20.2105 -20.2105 -20.2105 -20.2102 -20.2102 -20.2100 -20.2100
   -20.2071 -20.2071 -20.2068 -20.2067 -20.2062 -20.2062 -20.2060 -20.2060
   -20.1985 -20.1985 -20.1980 -20.1979 -20.1970 -20.1970 -20.1965 -20.1965
   -20.1909 -20.1909 -20.1901 -20.1901 -20.1889 -20.1889 -20.1879 -20.1879
   -20.1874 -20.1874 -20.1866 -20.1866 -20.1860 -20.1860 -20.1840 -20.1840
    -9.3560  -9.3560  -9.3149  -9.3149  -8.6825  -8.6825  -8.6473  -8.6472
    -8.5558  -8.5557  -8.5320  -8.5320  -8.3493  -8.3493  -8.3219  -8.3219
    -8.2889  -8.2889  -8.2551  -8.2550  -7.7922  -7.7922  -7.7401  -7.7401
     1.6478   1.6478   1.6939   1.6939   2.9993   2.9993   3.0686   3.0686
     3.1667   3.1667   3.1886   3.1886   3.2476   3.2476   3.3080   3.3080
     3.3667   3.3667   3.4690   3.4690   3.5243   3.5243   3.6014   3.6014
     3.6464   3.6464   3.8049   3.8049   4.3409   4.3409   4.3760   4.3760
     4.4316   4.4316   4.4952   4.4953   4.9290   4.9290   5.1086   5.1086
     5.1922   5.1922   5.3570   5.3570   5.9136   5.9136   5.9321   5.9321
     6.7635   6.7636   6.8377   6.8377   6.9040   6.9040   6.9523   6.9523
     7.3052   7.3053   7.3330   7.3330   7.3933   7.3933   7.4694   7.4694
     7.4971   7.4971   7.5610   7.5610   7.6257   7.6257   7.6576   7.6576
    11.2749  11.2749  11.3257  11.3257  11.4930  11.4930  11.5644  11.5644
    12.2885  12.2885  12.3392  12.3392  12.3783  12.3783  12.4285  12.4285
    12.8045  12.8045  12.8838  12.8838  13.4484  13.4484  13.4957  13.4957
    15.7667  15.7667  15.8408  15.8408  16.9456  16.9456  17.0080  17.0080
    17.3382  17.3383  17.3927  17.3928  17.4746

          k = 0.3333 0.0000 0.3333 ( 62132 PWs)   bands (ev):

   -66.0739 -66.0735 -66.0734 -66.0734 -66.0730 -66.0730 -66.0729 -66.0725
   -30.4853 -30.4827 -30.4826 -30.4801 -30.4344 -30.4291 -30.4287 -30.4224
   -30.4067 -30.3994 -30.3985 -30.3958 -30.3825 -30.3818 -30.3788 -30.3782
   -30.3568 -30.3549 -30.3547 -30.3530 -30.3324 -30.3320 -30.3303 -30.3291
   -20.2296 -20.2295 -20.2295 -20.2295 -20.2294 -20.2294 -20.2294 -20.2293
   -20.2176 -20.2175 -20.2175 -20.2173 -20.2128 -20.2126 -20.2126 -20.2123
   -20.2106 -20.2104 -20.2104 -20.2103 -20.2102 -20.2101 -20.2101 -20.2099
   -20.2072 -20.2068 -20.2067 -20.2065 -20.2063 -20.2060 -20.2060 -20.2057
   -20.1985 -20.1981 -20.1978 -20.1978 -20.1971 -20.1971 -20.1967 -20.1964
   -20.1905 -20.1905 -20.1897 -20.1896 -20.1886 -20.1885 -20.1885 -20.1884
   -20.1875 -20.1874 -20.1868 -20.1868 -20.1855 -20.1855 -20.1851 -20.1850
    -9.5532  -9.3227  -9.3202  -9.1816  -9.1112  -8.9043  -8.8975  -8.7279
    -8.6862  -8.6688  -8.6676  -8.6590  -8.1876  -8.1397  -8.1331  -8.1134
    -8.0878  -8.0756  -7.9876  -7.9657  -7.7634  -7.7382  -7.7382  -7.7134
     1.5577   1.5960   1.5971   1.6345   2.2267   2.2321   2.3248   2.3371
     2.3789   2.3852   2.5736   2.6779   2.9543   2.9877   3.0222   3.0647
     3.2706   3.2999   3.8095   3.8420   3.9625   3.9741   4.1414   4.1743
     4.1775   4.1971   4.3024   4.3889   4.4591   4.4899   4.5832   4.5891
     4.8489   4.9267   5.0025   5.0437   5.0833   5.1140   5.2296   5.4713
     5.4840   5.5521   5.5558   5.6826   5.9270   5.9399   5.9402   6.1018
     6.5012   6.5032   6.5288   6.5330   6.5620   6.5877   6.6098   6.6549
     7.0322   7.1999   7.2215   7.2440   7.2712   7.3442   7.4019   7.4096
     7.4518   7.5307   7.7533   7.7617   7.9332   7.9859   8.0282   8.0507
    10.7926  10.9073  10.9574  10.9764  11.0828  11.2918  12.1007  12.1104
    12.1573  12.1672  12.2298  12.3337  12.5605  12.5761  12.8086  12.8804
    12.8900  12.9375  13.0593  13.1165  13.6123  13.6869  13.6918  13.7896
    14.5706  14.8263  14.8325  15.2826  15.8680  16.3271  16.3586  16.7469
    16.8192  17.1516  17.2223  17.7693  17.7909

          k = 0.3333 0.0000-0.5000 ( 62136 PWs)   bands (ev):

   -66.0736 -66.0736 -66.0732 -66.0732 -66.0731 -66.0731 -66.0727 -66.0727
   -30.4840 -30.4840 -30.4814 -30.4814 -30.4310 -30.4309 -30.4248 -30.4248
   -30.4006 -30.4006 -30.3843 -30.3843 -30.3776 -30.3776 -30.3745 -30.3745
   -30.3608 -30.3608 -30.3553 -30.3553 -30.3500 -30.3500 -30.3311 -30.3311
   -20.2295 -20.2295 -20.2295 -20.2294 -20.2294 -20.2294 -20.2294 -20.2294
   -20.2176 -20.2175 -20.2174 -20.2174 -20.2127 -20.2127 -20.2125 -20.2124
   -20.2105 -20.2105 -20.2103 -20.2103 -20.2102 -20.2102 -20.2100 -20.2100
   -20.2069 -20.2069 -20.2065 -20.2065 -20.2063 -20.2062 -20.2058 -20.2058
   -20.1981 -20.1981 -20.1976 -20.1976 -20.1972 -20.1972 -20.1968 -20.1968
   -20.1900 -20.1900 -20.1893 -20.1893 -20.1886 -20.1886 -20.1880 -20.1879
   -20.1874 -20.1874 -20.1871 -20.1871 -20.1865 -20.1865 -20.1853 -20.1853
    -9.4162  -9.4162  -9.1875  -9.1875  -9.0024  -9.0024  -8.6928  -8.6928
    -8.5624  -8.5623  -8.4810  -8.4810  -8.4266  -8.4266  -8.3780  -8.3780
    -8.0891  -8.0891  -8.0409  -8.0409  -7.7515  -7.7514  -7.7263  -7.7263
     1.5765   1.5765   1.6163   1.6163   2.3440   2.3440   2.3901   2.3901
     2.9580   2.9580   3.0703   3.0703   3.1073   3.1073   3.2691   3.2691
     3.3753   3.3753   3.6293   3.6293   3.7850   3.7850   3.9055   3.9055
     3.9277   3.9277   4.0985   4.0985   4.2579   4.2579   4.4305   4.4305
     4.7547   4.7547   4.9717   4.9717   5.0973   5.0973   5.1791   5.1791
     5.3226   5.3226   5.5698   5.5698   5.9612   5.9612   6.0606   6.0606
     6.4447   6.4447   6.4672   6.4672   6.5214   6.5214   6.6149   6.6149
     7.2022   7.2022   7.3433   7.3434   7.4262   7.4262   7.5888   7.5889
     7.6179   7.6179   7.7409   7.7409   7.7801   7.7801   8.0198   8.0198
    10.9420  10.9420  11.5057  11.5057  11.6102  11.6103  11.6790  11.6790
    11.9299  11.9299  12.2928  12.2929  12.4671  12.4671  12.7099  12.7099
    12.9261  12.9261  13.2678  13.2678  13.3095  13.3095  13.7026  13.7027
    14.7357  14.7357  15.1029  15.1029  16.3222  16.3222  16.7473  16.7473
    17.0894  17.0894  17.5274  17.5274  17.9761

          k = 0.3333 0.1581 0.3333 ( 62099 PWs)   bands (ev):

   -66.0739 -66.0735 -66.0734 -66.0734 -66.0730 -66.0730 -66.0728 -66.0725
   -30.4815 -30.4789 -30.4788 -30.4762 -30.4371 -30.4321 -30.4317 -30.4262
   -30.4064 -30.4001 -30.3992 -30.3970 -30.3825 -30.3818 -30.3789 -30.3785
   -30.3566 -30.3550 -30.3548 -30.3534 -30.3324 -30.3321 -30.3303 -30.3292
   -20.2296 -20.2295 -20.2295 -20.2295 -20.2294 -20.2294 -20.2294 -20.2293
   -20.2173 -20.2171 -20.2171 -20.2170 -20.2131 -20.2128 -20.2128 -20.2126
   -20.2106 -20.2105 -20.2104 -20.2104 -20.2102 -20.2102 -20.2101 -20.2100
   -20.2071 -20.2067 -20.2067 -20.2066 -20.2062 -20.2061 -20.2061 -20.2057
   -20.1985 -20.1981 -20.1978 -20.1978 -20.1971 -20.1971 -20.1967 -20.1964
   -20.1905 -20.1905 -20.1897 -20.1896 -20.1886 -20.1885 -20.1885 -20.1884
   -20.1875 -20.1874 -20.1868 -20.1868 -20.1855 -20.1855 -20.1851 -20.1850
    -9.5119  -9.2705  -9.2676  -9.1936  -9.0393  -8.9130  -8.9063  -8.6987
    -8.6842  -8.6604  -8.6469  -8.6415  -8.2030  -8.1391  -8.1367  -8.1136
    -8.0893  -8.0783  -7.9876  -7.9670  -7.8560  -7.8316  -7.8315  -7.8059
     1.7811   1.8165   1.8175   1.8600   2.2275   2.2322   2.3252   2.3385
     2.3890   2.3937   2.5758   2.6877   3.0258   3.0619   3.0975   3.1095
[...]
    11.0434  11.0434  11.5264  11.5264  11.6248  11.6248  11.7351  11.7351
    11.9767  11.9767  12.3166  12.3166  12.4613  12.4613  12.7144  12.7144
    12.8052  12.8052  13.1494  13.1494  13.1922  13.1922  13.6017  13.6017
    15.0914  15.0914  15.4801  15.4801  16.4058  16.4058  16.7478  16.7478
    17.0941  17.0941  17.5381  17.5381  17.8394

          k = 0.3333 0.3163 0.3333 ( 62085 PWs)   bands (ev):

   -66.0738 -66.0736 -66.0733 -66.0733 -66.0731 -66.0731 -66.0728 -66.0726
   -30.4713 -30.4685 -30.4684 -30.4655 -30.4452 -30.4410 -30.4407 -30.4366
   -30.4054 -30.4016 -30.4004 -30.3996 -30.3824 -30.3820 -30.3790 -30.3789
   -30.3561 -30.3551 -30.3550 -30.3542 -30.3324 -30.3322 -30.3301 -30.3294
   -20.2296 -20.2295 -20.2295 -20.2295 -20.2294 -20.2294 -20.2294 -20.2293
   -20.2163 -20.2162 -20.2162 -20.2160 -20.2139 -20.2137 -20.2137 -20.2135
   -20.2106 -20.2105 -20.2104 -20.2104 -20.2102 -20.2102 -20.2101 -20.2100
   -20.2071 -20.2068 -20.2067 -20.2067 -20.2063 -20.2062 -20.2061 -20.2059
   -20.1984 -20.1982 -20.1978 -20.1978 -20.1972 -20.1971 -20.1967 -20.1965
   -20.1905 -20.1905 -20.1897 -20.1896 -20.1886 -20.1885 -20.1885 -20.1884
   -20.1875 -20.1874 -20.1868 -20.1868 -20.1855 -20.1855 -20.1851 -20.1850
    -9.4114  -9.2330  -9.1437  -9.1399  -8.9439  -8.9371  -8.8378  -8.6816
    -8.6729  -8.5726  -8.5647  -8.5602  -8.2948  -8.1739  -8.1688  -8.1200
    -8.1078  -8.0936  -8.0771  -8.0297  -8.0225  -8.0002  -7.9695  -7.9685
     2.2136   2.2173   2.2502   2.2642   2.3234   2.3324   2.3461   2.4501
     2.5612   2.5786   2.5855   2.7926   3.1869   3.2369   3.2626   3.3086
     3.3323   3.3771   3.7003   3.7076   3.7779   3.8606   4.0674   4.0996
     4.1345   4.2033   4.2077   4.3235   4.3697   4.4302   4.4385   4.5248
     4.5557   4.6101   4.6326   4.6982   4.7848   4.8762   4.9092   4.9487
     4.9698   4.9963   5.1889   5.3009   5.3522   5.3760   5.5707   5.5745
     6.8287   6.8517   6.8737   6.9285   6.9896   7.0351   7.0628   7.0816
     7.1355   7.1964   7.2316   7.2652   7.2845   7.3254   7.3903   7.3904
     7.4617   7.4983   7.7171   7.7309   7.7738   7.7936   7.7987   7.8561
    10.9539  11.0254  11.3262  11.3730  11.3994  11.5595  12.0742  12.0958
    12.1247  12.1643  12.1688  12.2872  12.4243  12.4583  12.6336  12.6863
    12.7754  12.7832  12.8418  13.1135  13.2503  13.3203  13.3267  13.4761
    15.7505  15.9500  15.9631  16.2742  16.3450  16.3658  16.6350  16.8589
    16.8829  16.9835  17.2228  17.2643  17.7257

          k = 0.3333 0.3163-0.5000 ( 62108 PWs)   bands (ev):

   -66.0735 -66.0735 -66.0733 -66.0733 -66.0730 -66.0730 -66.0728 -66.0728
   -30.4698 -30.4698 -30.4669 -30.4669 -30.4427 -30.4427 -30.4384 -30.4384
   -30.4018 -30.4018 -30.3851 -30.3851 -30.3781 -30.3781 -30.3750 -30.3750
   -30.3611 -30.3611 -30.3555 -30.3555 -30.3502 -30.3501 -30.3312 -30.3312
   -20.2295 -20.2295 -20.2295 -20.2295 -20.2294 -20.2294 -20.2294 -20.2294
   -20.2163 -20.2163 -20.2161 -20.2161 -20.2138 -20.2138 -20.2136 -20.2136
   -20.2105 -20.2105 -20.2104 -20.2104 -20.2103 -20.2102 -20.2101 -20.2101
   -20.2069 -20.2068 -20.2065 -20.2065 -20.2064 -20.2064 -20.2061 -20.2060
   -20.1980 -20.1980 -20.1977 -20.1977 -20.1972 -20.1972 -20.1968 -20.1968
   -20.1900 -20.1900 -20.1893 -20.1893 -20.1886 -20.1886 -20.1879 -20.1879
   -20.1874 -20.1874 -20.1871 -20.1871 -20.1865 -20.1865 -20.1853 -20.1853
    -9.2501  -9.2501  -9.0507  -9.0507  -8.9423  -8.9423  -8.6196  -8.6196
    -8.5732  -8.5732  -8.4774  -8.4774  -8.4099  -8.4098  -8.3618  -8.3618
    -8.1198  -8.1198  -8.0851  -8.0850  -8.0540  -8.0540  -8.0014  -8.0014
     2.2654   2.2654   2.3463   2.3463   2.4386   2.4387   2.5582   2.5582
     3.0803   3.0803   3.1376   3.1376   3.2355   3.2355   3.3176   3.3177
     3.4095   3.4095   3.6570   3.6570   3.7624   3.7624   3.8589   3.8589
     4.0574   4.0574   4.1483   4.1484   4.1953   4.1953   4.3055   4.3055
     4.3886   4.3886   4.5297   4.5297   4.6771   4.6771   4.9029   4.9029
     5.0057   5.0057   5.0746   5.0746   5.1256   5.1256   5.3520   5.3520
     6.8828   6.8828   6.9489   6.9489   7.0137   7.0137   7.0781   7.0781
     7.2295   7.2295   7.3248   7.3248   7.4260   7.4260   7.5515   7.5515
     7.5867   7.5867   7.6506   7.6506   7.6824   7.6824   7.8158   7.8158
    11.3145  11.3145  11.5612  11.5612  11.6579  11.6579  11.9074  11.9074
    12.1344  12.1344  12.3600  12.3600  12.4166  12.4166  12.4607  12.4607
    12.7645  12.7645  12.8724  12.8724  12.9533  12.9533  13.3498  13.3498
    15.9104  15.9104  16.3962  16.3962  16.6540  16.6540  16.7441  16.7441
    17.1250  17.1250  17.4220  17.4220  17.7059

          k = 0.3333-0.4744 0.3333 ( 62064 PWs)   bands (ev):

   -66.0737 -66.0737 -66.0732 -66.0732 -66.0732 -66.0732 -66.0727 -66.0727
   -30.4578 -30.4578 -30.4559 -30.4558 -30.4528 -30.4528 -30.4510 -30.4510
   -30.4036 -30.4036 -30.4008 -30.4008 -30.3822 -30.3822 -30.3791 -30.3791
   -30.3553 -30.3553 -30.3551 -30.3551 -30.3323 -30.3323 -30.3298 -30.3298
   -20.2295 -20.2295 -20.2295 -20.2295 -20.2294 -20.2294 -20.2294 -20.2293
   -20.2151 -20.2151 -20.2150 -20.2150 -20.2149 -20.2148 -20.2147 -20.2147
   -20.2105 -20.2105 -20.2104 -20.2104 -20.2102 -20.2102 -20.2101 -20.2101
   -20.2069 -20.2069 -20.2066 -20.2066 -20.2063 -20.2063 -20.2060 -20.2060
   -20.1983 -20.1983 -20.1978 -20.1978 -20.1972 -20.1972 -20.1966 -20.1966
   -20.1905 -20.1905 -20.1897 -20.1896 -20.1886 -20.1886 -20.1885 -20.1884
   -20.1875 -20.1874 -20.1868 -20.1868 -20.1855 -20.1855 -20.1850 -20.1850
    -9.3062  -9.3062  -9.0374  -9.0374  -8.9915  -8.9915  -8.6809  -8.6809
    -8.5462  -8.5462  -8.3893  -8.3893  -8.3785  -8.3785  -8.3618  -8.3617
    -8.1164  -8.1164  -8.0789  -8.0789  -8.0631  -8.0631  -7.9738  -7.9738
     2.2249   2.2249   2.3026   2.3026   2.3428   2.3428   2.5516   2.5516
     3.1587   3.1587   3.1882   3.1882   3.2828   3.2828   3.3157   3.3157
     3.3819   3.3820   3.6066   3.6066   3.7087   3.7087   3.7437   3.7437
     3.8488   3.8488   4.1217   4.1217   4.2438   4.2438   4.4632   4.4632
     4.5805   4.5805   4.6850   4.6850   4.7648   4.7648   4.8218   4.8218
     4.9301   4.9301   5.0271   5.0271   5.0500   5.0500   5.5646   5.5646
     6.9467   6.9467   7.0703   7.0703   7.1186   7.1186   7.1839   7.1839
     7.2604   7.2604   7.2961   7.2961   7.3348   7.3348   7.4676   7.4676
     7.4959   7.4959   7.5621   7.5621   7.6097   7.6097   7.7745   7.7745
    11.0091  11.0092  11.7311  11.7311  11.7814  11.7814  11.8576  11.8576
    11.9481  11.9481  12.1507  12.1507  12.2677  12.2677  12.6564  12.6564
    12.9303  12.9303  12.9998  12.9998  13.0450  13.0450  13.2643  13.2643
    16.3142  16.3142  16.4485  16.4485  16.5963  16.5963  16.6644  16.6644
    17.0280  17.0280  17.5474  17.5475  17.6266

          k = 0.3333-0.4744-0.5000 ( 62024 PWs)   bands (ev):

   -66.0734 -66.0734 -66.0734 -66.0734 -66.0729 -66.0729 -66.0729 -66.0729
   -30.4569 -30.4569 -30.4549 -30.4549 -30.4531 -30.4531 -30.4520 -30.4519
   -30.4022 -30.4021 -30.3853 -30.3853 -30.3783 -30.3783 -30.3752 -30.3752
   -30.3612 -30.3612 -30.3556 -30.3556 -30.3502 -30.3502 -30.3312 -30.3312
   -20.2295 -20.2295 -20.2295 -20.2295 -20.2294 -20.2294 -20.2294 -20.2294
   -20.2151 -20.2150 -20.2150 -20.2150 -20.2149 -20.2149 -20.2148 -20.2148
   -20.2104 -20.2104 -20.2104 -20.2104 -20.2103 -20.2102 -20.2102 -20.2101
   -20.2068 -20.2068 -20.2066 -20.2066 -20.2063 -20.2063 -20.2062 -20.2062
   -20.1980 -20.1980 -20.1977 -20.1977 -20.1971 -20.1971 -20.1969 -20.1969
   -20.1900 -20.1900 -20.1893 -20.1893 -20.1886 -20.1886 -20.1879 -20.1879
   -20.1874 -20.1874 -20.1871 -20.1871 -20.1865 -20.1865 -20.1853 -20.1853
    -9.1432  -9.1431  -9.1139  -9.1139  -8.7456  -8.7455  -8.7167  -8.7167
    -8.4939  -8.4939  -8.4765  -8.4764  -8.3421  -8.3421  -8.3188  -8.3188
    -8.2929  -8.2929  -8.2612  -8.2612  -8.0744  -8.0744  -8.0273  -8.0273
     2.3186   2.3186   2.3589   2.3589   3.0148   3.0148   3.0621   3.0621
     3.1602   3.1602   3.1888   3.1888   3.2970   3.2970   3.3277   3.3277
     3.4426   3.4426   3.4890   3.4890   3.6685   3.6686   3.7361   3.7362
     3.8377   3.8377   3.9277   3.9277   4.2852   4.2852   4.3307   4.3307
     4.3999   4.3999   4.4531   4.4531   4.5304   4.5304   4.6324   4.6324
     4.7163   4.7164   4.8761   4.8761   5.1217   5.1217   5.1456   5.1456
     7.0288   7.0288   7.1147   7.1147   7.2158   7.2158   7.2337   7.2337
     7.3203   7.3203   7.3542   7.3542   7.4170   7.4170   7.4559   7.4559
     7.5246   7.5246   7.5957   7.5958   7.6475   7.6475   7.6825   7.6825
    11.5122  11.5122  11.5535  11.5535  11.8289  11.8289  11.9106  11.9106
    12.2450  12.2450  12.2950  12.2950  12.3824  12.3824  12.4254  12.4254
    12.5756  12.5756  12.6790  12.6790  13.0357  13.0357  13.1126  13.1126
    16.4900  16.4900  16.5546  16.5546  17.0951  17.0952  17.1435  17.1435
    17.3435  17.3435  17.4062  17.4065  17.4683

          k =-0.5000 0.0000-0.5000 ( 62212 PWs)   bands (ev):

   -66.0734 -66.0734 -66.0734 -66.0734 -66.0730 -66.0730 -66.0730 -66.0729
   -30.4828 -30.4828 -30.4827 -30.4826 -30.4272 -30.4272 -30.4268 -30.4268
   -30.3822 -30.3822 -30.3821 -30.3821 -30.3768 -30.3768 -30.3759 -30.3759
   -30.3559 -30.3559 -30.3550 -30.3550 -30.3545 -30.3545 -30.3540 -30.3540
   -20.2295 -20.2295 -20.2295 -20.2295 -20.2294 -20.2294 -20.2294 -20.2294
   -20.2175 -20.2175 -20.2175 -20.2175 -20.2126 -20.2126 -20.2126 -20.2126
   -20.2104 -20.2104 -20.2104 -20.2104 -20.2102 -20.2102 -20.2101 -20.2101
   -20.2067 -20.2067 -20.2067 -20.2067 -20.2060 -20.2060 -20.2060 -20.2060
   -20.1976 -20.1976 -20.1976 -20.1976 -20.1972 -20.1972 -20.1972 -20.1972
   -20.1888 -20.1888 -20.1888 -20.1888 -20.1887 -20.1887 -20.1886 -20.1886
   -20.1870 -20.1870 -20.1869 -20.1869 -20.1868 -20.1868 -20.1867 -20.1867
    -9.2768  -9.2768  -9.2737  -9.2737  -8.7270  -8.7270  -8.7073  -8.7073
    -8.5383  -8.5383  -8.5115  -8.5115  -8.3539  -8.3539  -8.3333  -8.3333
    -8.3321  -8.3321  -8.3042  -8.3042  -7.7395  -7.7395  -7.7394  -7.7394
     1.5959   1.5959   1.5977   1.5977   2.9702   2.9702   2.9805   2.9806
     3.1299   3.1299   3.1392   3.1392   3.1841   3.1841   3.2169   3.2170
     3.4053   3.4053   3.4105   3.4105   3.7816   3.7816   3.8445   3.8445
     3.8736   3.8736   3.9545   3.9546   4.2602   4.2602   4.2747   4.2747
     4.3558   4.3558   4.3859   4.3859   4.9708   4.9708   4.9836   4.9836
     5.4149   5.4150   5.4294   5.4295   6.0475   6.0475   6.0482   6.0482
     6.4390   6.4390   6.4436   6.4437   6.4737   6.4738   6.4895   6.4895
     7.5002   7.5002   7.5089   7.5089   7.5385   7.5386   7.5715   7.5715
     7.6620   7.6620   7.6763   7.6763   7.8395   7.8395   7.8803   7.8803
    11.5650  11.5650  11.6034  11.6034  11.6932  11.6932  11.7207  11.7207
    12.0408  12.0408  12.0581  12.0581  12.2500  12.2500  12.2594  12.2594
    13.1721  13.1721  13.2044  13.2044  13.3436  13.3436  13.3732  13.3732
    14.9594  14.9595  14.9626  14.9626  16.7622  16.7622  16.8080  16.8080
    17.7100  17.7100  17.7188  17.7188  17.8669

          k =-0.5000 0.1581-0.5000 ( 62116 PWs)   bands (ev):

   -66.0734 -66.0734 -66.0734 -66.0733 -66.0730 -66.0730 -66.0730 -66.0730
   -30.4789 -30.4789 -30.4788 -30.4788 -30.4306 -30.4306 -30.4303 -30.4303
   -30.3819 -30.3819 -30.3819 -30.3819 -30.3774 -30.3774 -30.3766 -30.3766
   -30.3558 -30.3558 -30.3550 -30.3550 -30.3545 -30.3545 -30.3542 -30.3542
   -20.2295 -20.2295 -20.2295 -20.2295 -20.2294 -20.2294 -20.2294 -20.2294
   -20.2171 -20.2171 -20.2171 -20.2171 -20.2129 -20.2129 -20.2129 -20.2128
   -20.2104 -20.2104 -20.2104 -20.2104 -20.2102 -20.2102 -20.2102 -20.2102
   -20.2067 -20.2067 -20.2066 -20.2066 -20.2061 -20.2061 -20.2061 -20.2061
   -20.1976 -20.1976 -20.1975 -20.1975 -20.1973 -20.1973 -20.1972 -20.1972
   -20.1888 -20.1888 -20.1888 -20.1888 -20.1887 -20.1887 -20.1886 -20.1886
   -20.1870 -20.1870 -20.1869 -20.1869 -20.1869 -20.1869 -20.1868 -20.1867
    -9.2168  -9.2168  -9.2131  -9.2131  -8.7394  -8.7393  -8.7205  -8.7204
    -8.5237  -8.5237  -8.4966  -8.4966  -8.3528  -8.3528  -8.3343  -8.3342
    -8.3320  -8.3320  -8.3044  -8.3043  -7.8343  -7.8343  -7.8339  -7.8339
     1.8246   1.8246   1.8264   1.8264   2.9867   2.9867   2.9996   2.9996
     3.1354   3.1354   3.1404   3.1404   3.2098   3.2098   3.2425   3.2425
     3.3973   3.3973   3.4031   3.4032   3.8250   3.8250   3.8843   3.8844
     3.9202   3.9202   3.9982   3.9982   4.2448   4.2448   4.2585   4.2585
     4.3568   4.3568   4.3869   4.3869   4.7547   4.7547   4.7660   4.7660
     5.1800   5.1800   5.1899   5.1899   5.7820   5.7820   5.7829   5.7829
     6.6116   6.6116   6.6317   6.6318   6.6672   6.6672   6.6796   6.6796
     7.4931   7.4931   7.5022   7.5022   7.5305   7.5306   7.5660   7.5660
     7.6497   7.6497   7.6581   7.6581   7.8135   7.8136   7.8447   7.8447
    11.6217  11.6217  11.6577  11.6577  11.7500  11.7500  11.7778  11.7778
    12.0444  12.0444  12.0608  12.0608  12.2728  12.2728  12.2806  12.2806
    13.0458  13.0458  13.0752  13.0753  13.2282  13.2282  13.2542  13.2542
    15.3377  15.3377  15.3411  15.3411  16.8266  16.8267  16.8693  16.8693
    17.6539  17.6539  17.6779  17.6779  17.8709

          k =-0.5000 0.3163-0.5000 ( 62080 PWs)   bands (ev):

   -66.0733 -66.0733 -66.0733 -66.0733 -66.0731 -66.0731 -66.0731 -66.0730
   -30.4684 -30.4684 -30.4682 -30.4682 -30.4404 -30.4404 -30.4401 -30.4401
   -30.3812 -30.3812 -30.3811 -30.3811 -30.3787 -30.3787 -30.3782 -30.3782
   -30.3555 -30.3555 -30.3550 -30.3550 -30.3547 -30.3547 -30.3546 -30.3546
   -20.2295 -20.2295 -20.2295 -20.2295 -20.2294 -20.2294 -20.2294 -20.2294
   -20.2162 -20.2162 -20.2162 -20.2162 -20.2137 -20.2137 -20.2137 -20.2137
   -20.2104 -20.2104 -20.2103 -20.2103 -20.2103 -20.2103 -20.2103 -20.2103
   -20.2066 -20.2066 -20.2066 -20.2066 -20.2063 -20.2063 -20.2063 -20.2062
   -20.1975 -20.1975 -20.1975 -20.1975 -20.1973 -20.1973 -20.1973 -20.1973
   -20.1888 -20.1888 -20.1888 -20.1888 -20.1887 -20.1887 -20.1886 -20.1886
   -20.1870 -20.1870 -20.1869 -20.1869 -20.1868 -20.1868 -20.1868 -20.1868
    -9.0615  -9.0615  -9.0555  -9.0554  -8.7843  -8.7843  -8.7684  -8.7683
    -8.4704  -8.4704  -8.4412  -8.4412  -8.3502  -8.3502  -8.3360  -8.3360
    -8.3334  -8.3334  -8.3025  -8.3025  -8.0633  -8.0633  -8.0610  -8.0610
     2.4320   2.4320   2.4336   2.4336   3.0229   3.0229   3.0417   3.0417
     3.1321   3.1321   3.1345   3.1345   3.2818   3.2819   3.3222   3.3222
     3.3658   3.3658   3.3779   3.3779   3.9520   3.9520   4.0093   4.0093
     4.0233   4.0233   4.0487   4.0487   4.1262   4.1263   4.1742   4.1742
     4.3578   4.3578   4.3971   4.3971   4.4274   4.4275   4.4335   4.4335
     4.7759   4.7759   4.7765   4.7765   5.0979   5.0979   5.1027   5.1027
     6.9357   6.9358   6.9649   6.9649   7.0438   7.0438   7.0688   7.0688
     7.4467   7.4468   7.4549   7.4549   7.4981   7.4982   7.5351   7.5351
     7.6235   7.6235   7.6251   7.6251   7.7300   7.7300   7.7477   7.7477
    11.7705  11.7705  11.7883  11.7884  11.8817  11.8817  11.8979  11.8979
    12.0902  12.0902  12.1017  12.1017  12.3638  12.3638  12.3690  12.3690
    12.7311  12.7311  12.7550  12.7550  12.9366  12.9366  12.9540  12.9540
    16.2652  16.2652  16.2683  16.2684  17.0072  17.0072  17.0374  17.0374
    17.4761  17.4761  17.5323  17.5324  17.8808

          k =-0.5000-0.4744-0.5000 ( 62048 PWs)   bands (ev):

   -66.0732 -66.0732 -66.0732 -66.0732 -66.0732 -66.0732 -66.0732 -66.0731
   -30.4546 -30.4546 -30.4540 -30.4540 -30.4540 -30.4540 -30.4538 -30.4538
   -30.3802 -30.3802 -30.3801 -30.3801 -30.3801 -30.3801 -30.3795 -30.3795
   -30.3552 -30.3551 -30.3550 -30.3550 -30.3549 -30.3549 -30.3549 -30.3549
   -20.2295 -20.2295 -20.2294 -20.2294 -20.2294 -20.2294 -20.2294 -20.2294
   -20.2150 -20.2150 -20.2149 -20.2149 -20.2149 -20.2149 -20.2149 -20.2149
   -20.2103 -20.2103 -20.2103 -20.2103 -20.2103 -20.2103 -20.2103 -20.2103
   -20.2065 -20.2065 -20.2064 -20.2064 -20.2064 -20.2064 -20.2064 -20.2064
   -20.1974 -20.1974 -20.1974 -20.1974 -20.1974 -20.1974 -20.1974 -20.1974
   -20.1888 -20.1888 -20.1888 -20.1888 -20.1887 -20.1887 -20.1887 -20.1886
   -20.1869 -20.1869 -20.1869 -20.1869 -20.1868 -20.1868 -20.1868 -20.1868
    -8.9004  -8.9004  -8.8792  -8.8792  -8.8790  -8.8790  -8.8789  -8.8789
    -8.3834  -8.3834  -8.3521  -8.3521  -8.3521  -8.3521  -8.3495  -8.3494
    -8.2915  -8.2915  -8.2915  -8.2914  -8.2744  -8.2744  -8.2568  -8.2568
     3.0099   3.0099   3.0141   3.0141   3.0141   3.0141   3.0306   3.0306
     3.2268   3.2268   3.2315   3.2315   3.2315   3.2315   3.2554   3.2554
     3.3978   3.3978   3.5105   3.5105   3.5105   3.5105   3.5684   3.5684
     4.1861   4.1861   4.2064   4.2064   4.2118   4.2118   4.2118   4.2119
     4.4179   4.4179   4.4179   4.4180   4.4376   4.4376   4.4538   4.4538
     4.5252   4.5252   4.5458   4.5458   4.5546   4.5546   4.5546   4.5546
     7.1400   7.1400   7.2301   7.2301   7.2301   7.2302   7.3445   7.3445
     7.3926   7.3926   7.3954   7.3954   7.3954   7.3954   7.3986   7.3987
     7.6192   7.6192   7.6406   7.6406   7.6406   7.6406   7.6773   7.6773
    11.8949  11.8949  11.8957  11.8957  11.8957  11.8957  11.9055  11.9055
    12.2628  12.2628  12.3330  12.3330  12.3330  12.3330  12.4475  12.4475
    12.5664  12.5664  12.6220  12.6220  12.6220  12.6220  12.6470  12.6470
    17.1555  17.1556  17.1889  17.1890  17.1890  17.1890  17.2187  17.2187
    17.4045  17.4045  17.4045  17.4045  17.4585

     the Fermi energy is     9.7559 ev

!    total energy              =   -6260.97018188 Ry
     Harris-Foulkes estimate   =   -6260.97018188 Ry
     estimated scf accuracy    <          6.6E-10 Ry

     The total energy is the sum of the following terms:

     one-electron contribution =   -4708.34973016 Ry
     hartree contribution      =    2592.12640503 Ry
     xc contribution           =    -965.88745186 Ry
     ewald contribution        =   -3178.85937560 Ry
     smearing contrib. (-TS)   =      -0.00002929 Ry

     convergence has been achieved in  13 iterations

     Writing output data file Landau_12.save
 
     init_run     :     19.53s CPU     20.45s WALL (       1 calls)
     electrons    :    955.57s CPU    970.89s WALL (       1 calls)

     Called by init_run:
     wfcinit      :     17.69s CPU     18.48s WALL (       1 calls)
     potinit      :      0.69s CPU      0.72s WALL (       1 calls)

     Called by electrons:
     c_bands      :    827.65s CPU    841.50s WALL (      13 calls)
     sum_band     :    117.32s CPU    117.77s WALL (      13 calls)
     v_of_rho     :      1.73s CPU      1.77s WALL (      14 calls)
     mix_rho      :      2.78s CPU      3.23s WALL (      13 calls)

     Called by c_bands:
     init_us_2    :      5.88s CPU      6.36s WALL (      27 calls)
     cegterg      :    576.01s CPU    589.69s WALL (      13 calls)

     Called by sum_band:

     Called by *egterg:
     h_psi        :    446.92s CPU    448.68s WALL (      64 calls)
     g_psi        :      1.89s CPU      1.89s WALL (      50 calls)
     cdiaghg      :      7.71s CPU      7.72s WALL (      63 calls)

     Called by h_psi:
     h_psi:pot    :    444.01s CPU    445.61s WALL (      64 calls)
     h_psi:calbec :     55.34s CPU     56.42s WALL (      64 calls)
     vloc_psi     :    330.40s CPU    330.67s WALL (      64 calls)
     add_vuspsi   :     58.28s CPU     58.53s WALL (      64 calls)

     General routines
     calbec       :     55.34s CPU     56.42s WALL (      64 calls)
     fft          :      1.08s CPU      1.09s WALL (      56 calls)
     fftw         :    336.26s CPU    336.35s WALL (   16877 calls)
 
     Parallel routines
 
     PWSCF        : 16m20.30s CPU    16m40.12s WALL

 
   This run was terminated on:  17:32:35  13Sep2019            

=------------------------------------------------------------------------------=
   JOB DONE.
=------------------------------------------------------------------------------=
