
     Program PWSCF v.6.4.1 starts on 16Dec2019 at 18:12: 0 

     This program is part of the open-source Quantum ESPRESSO suite
     for quantum simulation of materials; please cite
         "P. Giannozzi et al., J. Phys.:Condens. Matter 21 395502 (2009);
         "P. Giannozzi et al., J. Phys.:Condens. Matter 29 465901 (2017);
          URL http://www.quantum-espresso.org", 
     in publications or presentations arising from this work. More details at
     http://www.quantum-espresso.org/quote

     Parallel version (MPI), running on    40 processors

     MPI processes distributed on     3 nodes
     K-points division:     npool     =      40
     Reading input from scf.in

     Current dimensions of program PWSCF are:
     Max number of different atomic species (ntypx) = 10
     Max number of k-points (npk) =  40000
     Max angular momentum in pseudopotentials (lmaxx) =  3

     Subspace diagonalization in iterative solution of the eigenvalue problem:
     a serial algorithm will be used

     Message from routine setup:
     using ibrav=0 with symmetry is DISCOURAGED, use correct ibrav instead
 
     G-vector sticks info
     --------------------
     sticks:   dense  smooth     PW     G-vecs:    dense   smooth      PW
     Sum        7633    7633   2045               495885   495885   68699
 


     bravais-lattice index     =            0
     lattice parameter (alat)  =      14.1078  a.u.
     unit-cell volume          =    2792.5419 (a.u.)^3
     number of atoms/cell      =           32
     number of atomic types    =            2
     number of electrons       =       368.60
     number of Kohn-Sham states=          221
     kinetic-energy cutoff     =     120.0000  Ry
     charge density cutoff     =     480.0000  Ry
     convergence threshold     =      1.0E-08
     mixing beta               =       0.7000
     number of iterations used =            8  plain     mixing
     Exchange-correlation      = SLA PW NOGX NOGC ( 1  4  0  0 0 0)

     celldm(1)=  14.107758  celldm(2)=   0.000000  celldm(3)=   0.000000
     celldm(4)=   0.000000  celldm(5)=   0.000000  celldm(6)=   0.000000

     crystal axes: (cart. coord. in units of alat)
               a(1) = (   1.000000   0.000000   0.000000 )  
               a(2) = (   0.000000   1.003456   0.000000 )  
               a(3) = (   0.000000   0.000000   0.991123 )  

     reciprocal axes: (cart. coord. in units 2 pi/alat)
               b(1) = (  1.000000  0.000000  0.000000 )  
               b(2) = (  0.000000  0.996556  0.000000 )  
               b(3) = (  0.000000  0.000000  1.008956 )  


     PseudoPot. # 1 for W  read from file:
     /cluster/scratch/mnoe/QE/pps/W_ONCV_LDA-4.0.upf
     MD5 check sum: ba0307d5d4cd419d6f1d13dc49d7c13a
     Pseudo is Norm-conserving + core correction, Zval = 28.0
     Generated using ONCVPSP code by D. R. Hamann
     Using radial grid of 1380 points,  8 beta functions with: 
                l(1) =   0
                l(2) =   0
                l(3) =   1
                l(4) =   1
                l(5) =   2
                l(6) =   2
                l(7) =   3
                l(8) =   3

     PseudoPot. # 2 for O  read from file:
     /cluster/scratch/mnoe/QE/pps/O_ONCV_LDA-3.0.upf
     MD5 check sum: b55cdb4f45ae2203d24ad12cf8d61a31
     Pseudo is Norm-conserving + core correction, Zval =  6.0
     Generated using ONCVPSP code by D. R. Hamann
     Using radial grid of  926 points,  5 beta functions with: 
                l(1) =   0
                l(2) =   0
                l(3) =   1
                l(4) =   1
                l(5) =   2

     atomic species   valence    mass     pseudopotential
        W             28.00   183.84000     W ( 1.00)
        O              6.00    15.99940     O ( 1.00)

      8 Sym. Ops., with inversion, found ( 6 have fractional translation)



   Cartesian axes

     site n.     atom                  positions (alat units)
         1           W   tau(   1) = (   0.2315000   0.2964649   0.0173149  )
         2           W   tau(   2) = (   0.7685000   0.7069907   0.9738081  )
         3           W   tau(   3) = (   0.2685000   0.2052629   0.5128764  )
         4           W   tau(   4) = (   0.7315000   0.7981927   0.4782466  )
         5           W   tau(   5) = (   0.7685000   0.2964649   0.4782466  )
         6           W   tau(   6) = (   0.2315000   0.7069907   0.5128764  )
         7           W   tau(   7) = (   0.7315000   0.2052629   0.9738081  )
         8           W   tau(   8) = (   0.2685000   0.7981927   0.0173149  )
         9           O   tau(   9) = (   0.2158700   0.0341416   0.0053818  )
        10           O   tau(  10) = (   0.7841300   0.9693141   0.9857412  )
        11           O   tau(  11) = (   0.2841300   0.4675862   0.5009433  )
        12           O   tau(  12) = (   0.7158700   0.5358694   0.4901797  )
        13           O   tau(  13) = (   0.7841300   0.0341416   0.4901797  )
        14           O   tau(  14) = (   0.2158700   0.9693141   0.5009433  )
        15           O   tau(  15) = (   0.7158700   0.4675862   0.9857412  )
        16           O   tau(  16) = (   0.2841300   0.5358694   0.0053818  )
        17           O   tau(  17) = (   0.5050600   0.2157329   0.5151382  )
        18           O   tau(  18) = (   0.4949400   0.7877227   0.4759848  )
        19           O   tau(  19) = (   0.9949400   0.2859948   1.0106997  )
        20           O   tau(  20) = (   0.0050600   0.7174607  -0.0195766  )
        21           O   tau(  21) = (   0.4949400   0.2157329  -0.0195766  )
        22           O   tau(  22) = (   0.5050600   0.7877227   1.0106997  )
        23           O   tau(  23) = (   0.0050600   0.2859948   0.4759848  )
        24           O   tau(  24) = (   0.9949400   0.7174607   0.5151382  )
        25           O   tau(  25) = (   0.7697521   0.2431975   0.7357404  )
        26           O   tau(  26) = (   0.2302480   0.7602581   0.2553827  )
        27           O   tau(  27) = (   0.7302480   0.2585303   0.2401789  )
        28           O   tau(  28) = (   0.2697521   0.7449253   0.7509442  )
        29           O   tau(  29) = (   0.2302480   0.2431975   0.7509442  )
        30           O   tau(  30) = (   0.7697521   0.7602581   0.2401789  )
        31           O   tau(  31) = (   0.2697521   0.2585303   0.2553827  )
        32           O   tau(  32) = (   0.7302480   0.7449253   0.7357404  )

     number of k points=    64  gaussian smearing, width (Ry)=  0.0007
                       cart. coord. in units 2pi/alat
        k(    1) = (   0.0000000   0.0000000   0.0000000), wk =   0.0092593
        k(    2) = (   0.0000000   0.0000000   0.1681594), wk =   0.0185185
        k(    3) = (   0.0000000   0.0000000   0.3363188), wk =   0.0185185
        k(    4) = (   0.0000000   0.0000000  -0.5044782), wk =   0.0092593
        k(    5) = (   0.0000000   0.1660927   0.0000000), wk =   0.0185185
        k(    6) = (   0.0000000   0.1660927   0.1681594), wk =   0.0370370
        k(    7) = (   0.0000000   0.1660927   0.3363188), wk =   0.0370370
        k(    8) = (   0.0000000   0.1660927  -0.5044782), wk =   0.0185185
        k(    9) = (   0.0000000   0.3321854   0.0000000), wk =   0.0185185
        k(   10) = (   0.0000000   0.3321854   0.1681594), wk =   0.0370370
        k(   11) = (   0.0000000   0.3321854   0.3363188), wk =   0.0370370
        k(   12) = (   0.0000000   0.3321854  -0.5044782), wk =   0.0185185
        k(   13) = (   0.0000000  -0.4982782   0.0000000), wk =   0.0092593
        k(   14) = (   0.0000000  -0.4982782   0.1681594), wk =   0.0185185
        k(   15) = (   0.0000000  -0.4982782   0.3363188), wk =   0.0185185
        k(   16) = (   0.0000000  -0.4982782  -0.5044782), wk =   0.0092593
        k(   17) = (   0.1666667   0.0000000   0.0000000), wk =   0.0185185
        k(   18) = (   0.1666667   0.0000000   0.1681594), wk =   0.0370370
        k(   19) = (   0.1666667   0.0000000   0.3363188), wk =   0.0370370
        k(   20) = (   0.1666667   0.0000000  -0.5044782), wk =   0.0185185
        k(   21) = (   0.1666667   0.1660927   0.0000000), wk =   0.0370370
        k(   22) = (   0.1666667   0.1660927   0.1681594), wk =   0.0740741
        k(   23) = (   0.1666667   0.1660927   0.3363188), wk =   0.0740741
        k(   24) = (   0.1666667   0.1660927  -0.5044782), wk =   0.0370370
        k(   25) = (   0.1666667   0.3321854   0.0000000), wk =   0.0370370
        k(   26) = (   0.1666667   0.3321854   0.1681594), wk =   0.0740741
        k(   27) = (   0.1666667   0.3321854   0.3363188), wk =   0.0740741
        k(   28) = (   0.1666667   0.3321854  -0.5044782), wk =   0.0370370
        k(   29) = (   0.1666667  -0.4982782   0.0000000), wk =   0.0185185
        k(   30) = (   0.1666667  -0.4982782   0.1681594), wk =   0.0370370
        k(   31) = (   0.1666667  -0.4982782   0.3363188), wk =   0.0370370
        k(   32) = (   0.1666667  -0.4982782  -0.5044782), wk =   0.0185185
        k(   33) = (   0.3333333   0.0000000   0.0000000), wk =   0.0185185
        k(   34) = (   0.3333333   0.0000000   0.1681594), wk =   0.0370370
        k(   35) = (   0.3333333   0.0000000   0.3363188), wk =   0.0370370
        k(   36) = (   0.3333333   0.0000000  -0.5044782), wk =   0.0185185
        k(   37) = (   0.3333333   0.1660927   0.0000000), wk =   0.0370370
        k(   38) = (   0.3333333   0.1660927   0.1681594), wk =   0.0740741
        k(   39) = (   0.3333333   0.1660927   0.3363188), wk =   0.0740741
        k(   40) = (   0.3333333   0.1660927  -0.5044782), wk =   0.0370370
        k(   41) = (   0.3333333   0.3321854   0.0000000), wk =   0.0370370
        k(   42) = (   0.3333333   0.3321854   0.1681594), wk =   0.0740741
        k(   43) = (   0.3333333   0.3321854   0.3363188), wk =   0.0740741
        k(   44) = (   0.3333333   0.3321854  -0.5044782), wk =   0.0370370
        k(   45) = (   0.3333333  -0.4982782   0.0000000), wk =   0.0185185
        k(   46) = (   0.3333333  -0.4982782   0.1681594), wk =   0.0370370
        k(   47) = (   0.3333333  -0.4982782   0.3363188), wk =   0.0370370
        k(   48) = (   0.3333333  -0.4982782  -0.5044782), wk =   0.0185185
        k(   49) = (  -0.5000000   0.0000000   0.0000000), wk =   0.0092593
        k(   50) = (  -0.5000000   0.0000000   0.1681594), wk =   0.0185185
        k(   51) = (  -0.5000000   0.0000000   0.3363188), wk =   0.0185185
        k(   52) = (  -0.5000000   0.0000000  -0.5044782), wk =   0.0092593
        k(   53) = (  -0.5000000   0.1660927   0.0000000), wk =   0.0185185
        k(   54) = (  -0.5000000   0.1660927   0.1681594), wk =   0.0370370
        k(   55) = (  -0.5000000   0.1660927   0.3363188), wk =   0.0370370
        k(   56) = (  -0.5000000   0.1660927  -0.5044782), wk =   0.0185185
        k(   57) = (  -0.5000000   0.3321854   0.0000000), wk =   0.0185185
        k(   58) = (  -0.5000000   0.3321854   0.1681594), wk =   0.0370370
        k(   59) = (  -0.5000000   0.3321854   0.3363188), wk =   0.0370370
        k(   60) = (  -0.5000000   0.3321854  -0.5044782), wk =   0.0185185
        k(   61) = (  -0.5000000  -0.4982782   0.0000000), wk =   0.0092593
        k(   62) = (  -0.5000000  -0.4982782   0.1681594), wk =   0.0185185
        k(   63) = (  -0.5000000  -0.4982782   0.3363188), wk =   0.0185185
        k(   64) = (  -0.5000000  -0.4982782  -0.5044782), wk =   0.0092593

     Dense  grid:   495885 G-vectors     FFT dimensions: ( 100, 100, 100)

     Estimated max dynamical RAM per process >       3.11 GB

     Estimated total dynamical RAM >     124.35 GB

     Initial potential from superposition of free atoms

     starting charge  367.99656, renormalised to  368.60000
     Starting wfcs are  232 randomized atomic wfcs

     total cpu time spent up to now is       34.9 secs

     Self-consistent Calculation

     iteration #  1     ecut=   120.00 Ry     beta= 0.70
     Davidson diagonalization with overlap
     ethr =  1.00E-02,  avg # of iterations =  5.1

     total cpu time spent up to now is      154.4 secs

     total energy              =   -6253.01643500 Ry
     Harris-Foulkes estimate   =   -6264.14877366 Ry
     estimated scf accuracy    <      14.00838552 Ry

     iteration #  2     ecut=   120.00 Ry     beta= 0.70
     Davidson diagonalization with overlap
     ethr =  3.80E-03,  avg # of iterations =  3.5

     total cpu time spent up to now is      269.5 secs

     total energy              =   -6249.53330202 Ry
     Harris-Foulkes estimate   =   -6270.66435347 Ry
     estimated scf accuracy    <      56.97088353 Ry

     iteration #  3     ecut=   120.00 Ry     beta= 0.70
     Davidson diagonalization with overlap
     ethr =  3.80E-03,  avg # of iterations =  3.3

     total cpu time spent up to now is      377.0 secs

     total energy              =   -6260.48310061 Ry
     Harris-Foulkes estimate   =   -6260.76421888 Ry
     estimated scf accuracy    <       0.96118935 Ry

     iteration #  4     ecut=   120.00 Ry     beta= 0.70
     Davidson diagonalization with overlap
     ethr =  2.61E-04,  avg # of iterations =  2.7

     total cpu time spent up to now is      464.1 secs

     total energy              =   -6260.46935875 Ry
     Harris-Foulkes estimate   =   -6260.54924739 Ry
     estimated scf accuracy    <       0.25533879 Ry

     iteration #  5     ecut=   120.00 Ry     beta= 0.70
     Davidson diagonalization with overlap
     ethr =  6.93E-05,  avg # of iterations =  4.8

     total cpu time spent up to now is      557.9 secs

     total energy              =   -6260.47155859 Ry
     Harris-Foulkes estimate   =   -6260.50445887 Ry
     estimated scf accuracy    <       0.07064779 Ry

     iteration #  6     ecut=   120.00 Ry     beta= 0.70
     Davidson diagonalization with overlap
     ethr =  1.92E-05,  avg # of iterations =  5.7

     total cpu time spent up to now is      664.2 secs

     total energy              =   -6260.48797955 Ry
     Harris-Foulkes estimate   =   -6260.49055016 Ry
     estimated scf accuracy    <       0.00814565 Ry

     iteration #  7     ecut=   120.00 Ry     beta= 0.70
     Davidson diagonalization with overlap
     ethr =  2.21E-06,  avg # of iterations =  4.2

     total cpu time spent up to now is      757.4 secs

     total energy              =   -6260.48836966 Ry
     Harris-Foulkes estimate   =   -6260.48884020 Ry
     estimated scf accuracy    <       0.00107012 Ry

     iteration #  8     ecut=   120.00 Ry     beta= 0.70
     Davidson diagonalization with overlap
     ethr =  2.90E-07,  avg # of iterations =  3.3

     total cpu time spent up to now is      852.5 secs

     total energy              =   -6260.48860302 Ry
     Harris-Foulkes estimate   =   -6260.48861965 Ry
     estimated scf accuracy    <       0.00004987 Ry

     iteration #  9     ecut=   120.00 Ry     beta= 0.70
     Davidson diagonalization with overlap
     ethr =  1.35E-08,  avg # of iterations =  2.8

     total cpu time spent up to now is      956.8 secs

     total energy              =   -6260.48860850 Ry
     Harris-Foulkes estimate   =   -6260.48861819 Ry
     estimated scf accuracy    <       0.00003639 Ry

     iteration # 10     ecut=   120.00 Ry     beta= 0.70
     Davidson diagonalization with overlap
     ethr =  9.87E-09,  avg # of iterations =  1.0

     total cpu time spent up to now is     1036.5 secs

     total energy              =   -6260.48860719 Ry
     Harris-Foulkes estimate   =   -6260.48861084 Ry
     estimated scf accuracy    <       0.00000845 Ry

     iteration # 11     ecut=   120.00 Ry     beta= 0.70
     Davidson diagonalization with overlap
     ethr =  2.29E-09,  avg # of iterations =  3.0

     total cpu time spent up to now is     1128.8 secs

     total energy              =   -6260.48860907 Ry
     Harris-Foulkes estimate   =   -6260.48860914 Ry
     estimated scf accuracy    <       0.00000016 Ry

     iteration # 12     ecut=   120.00 Ry     beta= 0.70
     Davidson diagonalization with overlap
     ethr =  4.44E-11,  avg # of iterations =  2.0

     total cpu time spent up to now is     1230.9 secs

     total energy              =   -6260.48860910 Ry
     Harris-Foulkes estimate   =   -6260.48860911 Ry
     estimated scf accuracy    <       0.00000003 Ry

     iteration # 13     ecut=   120.00 Ry     beta= 0.70
     Davidson diagonalization with overlap
     ethr =  7.80E-12,  avg # of iterations =  2.9

     total cpu time spent up to now is     1332.2 secs

     End of self-consistent calculation

          k = 0.0000 0.0000 0.0000 ( 62009 PWs)   bands (ev):

   -65.9374 -65.9368 -65.9367 -65.9366 -65.9361 -65.9360 -65.9360 -65.9354
   -30.3750 -30.3703 -30.3693 -30.3648 -30.3096 -30.3045 -30.3032 -30.2968
   -30.2816 -30.2808 -30.2767 -30.2750 -30.2588 -30.2530 -30.2525 -30.2454
   -30.2033 -30.1999 -30.1935 -30.1901 -30.1719 -30.1701 -30.1682 -30.1666
   -20.1014 -20.1013 -20.1009 -20.1007 -20.1000 -20.0999 -20.0995 -20.0993
   -20.0965 -20.0962 -20.0961 -20.0957 -20.0945 -20.0944 -20.0940 -20.0939
   -20.0851 -20.0847 -20.0841 -20.0837 -20.0824 -20.0818 -20.0816 -20.0810
   -20.0694 -20.0694 -20.0688 -20.0687 -20.0682 -20.0682 -20.0676 -20.0676
   -20.0544 -20.0543 -20.0536 -20.0535 -20.0520 -20.0520 -20.0507 -20.0506
   -20.0394 -20.0394 -20.0385 -20.0384 -20.0354 -20.0353 -20.0346 -20.0345
   -20.0292 -20.0291 -20.0289 -20.0287 -20.0278 -20.0277 -20.0270 -20.0270
    -9.8679  -9.4639  -9.4567  -9.4160  -9.0445  -9.0062  -9.0043  -8.7287
    -8.6875  -8.6160  -8.6135  -8.6026  -7.8921  -7.7955  -7.7887  -7.7128
    -7.6760  -7.6605  -7.6392  -7.6178  -7.4516  -7.4241  -7.3873  -7.3665
     1.4662   1.5020   1.5055   1.5123   1.5210   1.5607   1.5625   1.6116
     1.7383   1.7732   1.8003   1.8711   2.5346   2.5920   2.6071   2.6762
     2.6934   2.8037   4.1071   4.2806   4.3260   4.5437   4.7142   4.8125
     4.8160   4.8218   4.9042   4.9443   5.0484   5.1653   5.4447   5.6007
     5.6383   5.6396   5.8134   5.8502   5.8770   5.9162   5.9436   5.9714
     5.9906   6.0606   6.1427   6.1535   6.1921   6.2358   6.2368   6.2750
     6.4242   6.5586   6.6084   6.6126   6.6371   6.9229   6.9321   7.0111
     7.0264   7.0611   7.0735   7.1086   7.1925   7.1932   7.2471   7.2935
     7.3828   7.3999   8.2219   8.2803   8.3039   8.3315   8.6864   8.6901
     9.8038   9.8649   9.9175  10.1138  10.1811  10.3335  12.3962  12.4171
    12.4274  12.6761  12.8189  12.8745  12.8920  12.9195  13.0585  13.1142
    13.1448  13.2098  13.3951  13.3994  13.8011  14.0669  14.2122  14.2502
    14.2543  14.4570  14.7787  14.9435  15.2056  15.2381  15.4426  15.6555
    16.0958  16.4047  16.9344  17.0850  17.3148

          k = 0.0000 0.0000 0.1682 ( 62047 PWs)   bands (ev):

   -65.9373 -65.9368 -65.9367 -65.9366 -65.9362 -65.9360 -65.9360 -65.9354
   -30.3747 -30.3706 -30.3690 -30.3651 -30.3091 -30.3048 -30.3024 -30.2971
   -30.2772 -30.2764 -30.2735 -30.2704 -30.2594 -30.2531 -30.2508 -30.2437
   -30.2086 -30.2052 -30.1983 -30.1950 -30.1716 -30.1698 -30.1683 -30.1668
   -20.1014 -20.1012 -20.1009 -20.1007 -20.1001 -20.1000 -20.0996 -20.0994
   -20.0965 -20.0962 -20.0960 -20.0957 -20.0945 -20.0944 -20.0940 -20.0939
   -20.0851 -20.0847 -20.0841 -20.0838 -20.0824 -20.0818 -20.0815 -20.0810
   -20.0693 -20.0693 -20.0687 -20.0686 -20.0683 -20.0683 -20.0676 -20.0676
   -20.0543 -20.0542 -20.0536 -20.0536 -20.0519 -20.0519 -20.0508 -20.0507
   -20.0393 -20.0393 -20.0386 -20.0385 -20.0353 -20.0353 -20.0347 -20.0346
   -20.0290 -20.0289 -20.0287 -20.0286 -20.0278 -20.0278 -20.0272 -20.0271
    -9.8282  -9.4800  -9.4052  -9.3661  -9.0187  -9.0157  -8.9658  -8.7004
    -8.6562  -8.6183  -8.5989  -8.5738  -7.9082  -7.8133  -7.7995  -7.7574
    -7.7402  -7.7357  -7.7166  -7.7136  -7.4589  -7.4279  -7.3970  -7.3700
     1.4639   1.5138   1.5183   1.5580   1.6281   1.6308   1.7327   1.7669
     1.7870   1.8249   1.9285   1.9942   2.5399   2.6063   2.6735   2.7430
     2.7962   2.8812   4.0882   4.2502   4.3136   4.4795   4.5053   4.6097
     4.7525   4.8208   4.8216   4.8752   4.8809   4.9532   5.4343   5.6060
     5.6096   5.6421   5.7189   5.7262   5.7676   5.8573   5.8786   5.9340
     5.9521   5.9939   6.0571   6.1088   6.1809   6.2574   6.2693   6.3083
     6.4104   6.5982   6.7493   6.8038   6.8466   6.9388   6.9397   6.9473
     6.9886   7.0076   7.0620   7.0757   7.0825   7.1220   7.1966   7.2482
     7.2858   7.3021   8.2292   8.2556   8.2736   8.2850   8.6062   8.6367
    10.0863  10.1581  10.1943  10.2309  10.3277  10.3961  12.4338  12.4516
    12.4814  12.7146  12.7265  12.8825  12.9238  12.9384  12.9426  12.9655
    13.0580  13.1275  13.2606  13.4032  13.7309  13.9722  14.0999  14.1706
    14.4814  14.7208  14.8935  15.0244  15.2029  15.2669  15.6324  15.8290
    16.0660  16.5921  16.8627  17.0512  17.4015

          k = 0.0000 0.0000 0.3363 ( 61947 PWs)   bands (ev):

   -65.9372 -65.9369 -65.9366 -65.9365 -65.9363 -65.9361 -65.9359 -65.9356
   -30.3738 -30.3714 -30.3682 -30.3659 -30.3080 -30.3056 -30.3008 -30.2979
   -30.2697 -30.2662 -30.2622 -30.2611 -30.2573 -30.2552 -30.2429 -30.2374
   -30.2231 -30.2194 -30.2114 -30.2079 -30.1709 -30.1691 -30.1689 -30.1674
   -20.1012 -20.1010 -20.1007 -20.1005 -20.1005 -20.1003 -20.1000 -20.0997
   -20.0964 -20.0962 -20.0959 -20.0957 -20.0944 -20.0943 -20.0939 -20.0938
   -20.0850 -20.0848 -20.0840 -20.0838 -20.0823 -20.0819 -20.0814 -20.0811
   -20.0691 -20.0691 -20.0685 -20.0685 -20.0685 -20.0684 -20.0679 -20.0679
   -20.0542 -20.0541 -20.0538 -20.0537 -20.0517 -20.0517 -20.0510 -20.0510
   -20.0392 -20.0392 -20.0387 -20.0387 -20.0353 -20.0352 -20.0349 -20.0348
   -20.0287 -20.0286 -20.0284 -20.0283 -20.0280 -20.0280 -20.0275 -20.0274
    -9.7291  -9.5304  -9.2787  -9.2465  -9.0610  -9.0532  -8.7428  -8.6550
    -8.6249  -8.5455  -8.5094  -8.4723  -8.0829  -8.0255  -8.0197  -7.9830
    -7.8242  -7.8101  -7.7508  -7.7268  -7.4600  -7.4379  -7.3995  -7.3792
     1.4698   1.4978   1.5278   1.5476   1.6906   1.7157   1.7205   1.7536
     2.3658   2.4171   2.5078   2.5392   2.5478   2.6415   2.8828   2.9440
     3.0608   3.0984   3.8883   3.9233   4.1105   4.1522   4.1595   4.2604
     4.3950   4.5040   4.7174   4.8142   4.9065   4.9196   5.0369   5.2826
     5.3587   5.4674   5.5508   5.5798   5.5838   5.7384   5.8138   5.8465
     5.9066   6.0066   6.0785   6.1562   6.1925   6.2928   6.3336   6.4024
     6.4300   6.4761   6.5673   6.6042   6.7647   6.7668   6.8436   6.8557
     7.0261   7.0734   7.0790   7.0901   7.2488   7.2498   7.3461   7.3712
     7.4781   7.5928   8.0866   8.1193   8.2416   8.2627   8.3822   8.4422
    10.2271  10.3010  10.7527  10.8413  10.9287  11.0655  12.2537  12.3264
    12.4454  12.5168  12.5636  12.6080  12.6437  12.8544  13.0048  13.0569
    13.0684  13.1210  13.1274  13.4221  13.4668  13.7021  13.7705  13.8568
    15.1087  15.1833  15.1940  15.2275  15.3126  15.5133  15.5591  15.9614
    16.3682  16.7915  17.1114  17.2015  17.4585

          k = 0.0000 0.0000-0.5045 ( 61984 PWs)   bands (ev):

   -65.9371 -65.9370 -65.9364 -65.9364 -65.9363 -65.9363 -65.9357 -65.9357
   -30.3726 -30.3726 -30.3671 -30.3671 -30.3068 -30.3068 -30.2992 -30.2992
   -30.2642 -30.2642 -30.2593 -30.2593 -30.2427 -30.2427 -30.2386 -30.2386
   -30.2283 -30.2283 -30.2243 -30.2243 -30.1699 -30.1699 -30.1682 -30.1682
   -20.1009 -20.1008 -20.1007 -20.1007 -20.1004 -20.1003 -20.1001 -20.1001
   -20.0962 -20.0962 -20.0958 -20.0958 -20.0943 -20.0943 -20.0939 -20.0938
   -20.0849 -20.0849 -20.0839 -20.0839 -20.0821 -20.0821 -20.0813 -20.0813
   -20.0688 -20.0688 -20.0688 -20.0688 -20.0682 -20.0682 -20.0682 -20.0681
   -20.0540 -20.0540 -20.0539 -20.0539 -20.0514 -20.0514 -20.0513 -20.0513
   -20.0390 -20.0390 -20.0389 -20.0389 -20.0351 -20.0351 -20.0351 -20.0351
   -20.0284 -20.0284 -20.0283 -20.0283 -20.0279 -20.0279 -20.0278 -20.0278
    -9.6171  -9.6171  -9.1471  -9.1471  -9.1281  -9.1281  -8.6356  -8.6356
    -8.4185  -8.4185  -8.3248  -8.3248  -8.2997  -8.2997  -8.2677  -8.2676
    -7.8226  -7.8226  -7.7403  -7.7403  -7.4505  -7.4505  -7.3909  -7.3909
     1.4817   1.4817   1.5368   1.5368   1.7075   1.7075   1.7389   1.7389
     2.5503   2.5503   2.9763   2.9763   3.0656   3.0656   3.1604   3.1605
     3.3020   3.3020   3.4476   3.4476   3.7701   3.7701   4.0905   4.0905
     4.1083   4.1083   4.4437   4.4437   4.8291   4.8291   5.2137   5.2137
     5.4442   5.4442   5.4783   5.4783   5.5100   5.5100   5.8181   5.8181
     6.0208   6.0208   6.1600   6.1600   6.1993   6.1993   6.3732   6.3732
     6.4023   6.4023   6.5156   6.5156   6.6784   6.6784   6.7739   6.7739
     7.0125   7.0125   7.0738   7.0739   7.2487   7.2487   7.7723   7.7723
     7.8057   7.8057   7.9996   7.9996   8.0896   8.0896   8.2522   8.2522
    10.2665  10.2666  11.5371  11.5371  11.6306  11.6306  11.7253  11.7253
    11.8657  11.8657  12.5477  12.5477  12.8776  12.8776  13.0601  13.0601
    13.1255  13.1255  13.3808  13.3808  13.4584  13.4584  13.4936  13.4936
    15.1744  15.1744  15.4199  15.4199  15.7255  15.7255  15.8234  15.8234
    16.3093  16.3093  17.5801  17.5802  18.0330

          k = 0.0000 0.1661 0.0000 ( 62057 PWs)   bands (ev):

   -65.9373 -65.9367 -65.9367 -65.9367 -65.9361 -65.9361 -65.9360 -65.9354
   -30.3746 -30.3699 -30.3697 -30.3651 -30.3088 -30.3036 -30.3034 -30.2971
   -30.2813 -30.2801 -30.2759 -30.2748 -30.2534 -30.2483 -30.2477 -30.2415
   -30.2038 -30.2005 -30.1935 -30.1902 -30.1776 -30.1756 -30.1731 -30.1713
   -20.1014 -20.1013 -20.1009 -20.1007 -20.1000 -20.0999 -20.0995 -20.0993
   -20.0965 -20.0962 -20.0961 -20.0958 -20.0945 -20.0943 -20.0941 -20.0939
   -20.0851 -20.0846 -20.0842 -20.0838 -20.0824 -20.0817 -20.0816 -20.0810
   -20.0694 -20.0694 -20.0688 -20.0687 -20.0682 -20.0682 -20.0676 -20.0676
   -20.0542 -20.0541 -20.0534 -20.0533 -20.0521 -20.0521 -20.0509 -20.0508
   -20.0391 -20.0391 -20.0383 -20.0382 -20.0356 -20.0356 -20.0349 -20.0348
   -20.0292 -20.0291 -20.0289 -20.0288 -20.0278 -20.0277 -20.0271 -20.0271
    -9.8248  -9.4350  -9.4151  -9.4040  -9.0570  -9.0186  -8.9211  -8.7258
    -8.6904  -8.5795  -8.5673  -8.5628  -7.9021  -7.7987  -7.7914  -7.7165
    -7.6981  -7.6708  -7.6590  -7.6154  -7.5365  -7.5341  -7.4938  -7.4771
     1.4973   1.5104   1.5499   1.5609   1.6405   1.6667   1.7355   1.7946
     1.7973   1.8060   1.8989   1.9767   2.6054   2.6386   2.6824   2.7312
     2.7803   2.8051   3.9529   4.0920   4.1224   4.2886   4.7091   4.7617
     4.7887   4.8287   4.8893   4.9673   5.1144   5.2048   5.3205   5.4372
     5.6263   5.6305   5.7411   5.7484   5.7839   5.8117   5.9003   5.9294
     5.9313   6.0085   6.0276   6.0913   6.1070   6.1623   6.3463   6.4644
     6.5342   6.5658   6.6495   6.6566   6.8378   6.8724   6.8742   6.9470
     7.0233   7.0606   7.0632   7.0641   7.1032   7.1037   7.2184   7.2594
     7.3808   7.4022   8.2066   8.2593   8.3054   8.3275   8.5973   8.6148
     9.8716   9.8741  10.1164  10.2373  10.4273  10.5593  12.4090  12.4424
    12.4479  12.6057  12.6290  12.7960  12.8293  12.8763  12.9647  13.1125
    13.1132  13.2513  13.3738  13.4427  13.7821  14.0793  14.1522  14.1737
    14.2971  14.6137  14.7755  15.1528  15.2203  15.2375  15.4242  15.6319
    16.1854  16.4784  17.1373  17.3218  17.4343

          k = 0.0000 0.1661 0.1682 ( 62035 PWs)   bands (ev):

   -65.9373 -65.9367 -65.9367 -65.9366 -65.9361 -65.9361 -65.9360 -65.9355
   -30.3743 -30.3702 -30.3694 -30.3654 -30.3083 -30.3039 -30.3027 -30.2974
   -30.2762 -30.2761 -30.2724 -30.2702 -30.2541 -30.2485 -30.2466 -30.2401
   -30.2090 -30.2057 -30.1983 -30.1950 -30.1773 -30.1753 -30.1734 -30.1717
   -20.1014 -20.1013 -20.1009 -20.1007 -20.1001 -20.1000 -20.0996 -20.0994
   -20.0964 -20.0962 -20.0961 -20.0958 -20.0945 -20.0943 -20.0940 -20.0939
   -20.0850 -20.0846 -20.0842 -20.0838 -20.0823 -20.0817 -20.0816 -20.0811
   -20.0693 -20.0693 -20.0687 -20.0687 -20.0683 -20.0683 -20.0676 -20.0676
   -20.0541 -20.0540 -20.0534 -20.0534 -20.0520 -20.0520 -20.0509 -20.0509
   -20.0391 -20.0391 -20.0383 -20.0383 -20.0356 -20.0356 -20.0349 -20.0349
   -20.0291 -20.0290 -20.0288 -20.0287 -20.0278 -20.0278 -20.0272 -20.0272
    -9.7838  -9.4282  -9.3853  -9.3521  -9.0309  -8.9777  -8.9338  -8.6961
    -8.6590  -8.5814  -8.5553  -8.5383  -7.9220  -7.8129  -7.8047  -7.7662
    -7.7503  -7.7403  -7.7203  -7.7122  -7.5562  -7.5366  -7.5075  -7.4894
     1.5788   1.6247   1.6480   1.7118   1.7138   1.7295   1.7876   1.7971
     1.8692   1.9078   1.9266   2.0601   2.6147   2.6814   2.7175   2.8137
     2.8671   2.8780   3.9548   4.1053   4.1083   4.2590   4.5229   4.6047
     4.7500   4.7544   4.8459   4.8460   4.9172   4.9643   5.3070   5.4096
     5.5672   5.6095   5.6328   5.7327   5.7392   5.7522   5.7848   5.8230
     5.8661   5.9897   5.9932   6.0171   6.0542   6.1290   6.4346   6.4812
     6.4838   6.6809   6.7681   6.8252   6.8310   6.8375   6.9250   6.9406
     6.9640   7.0065   7.0475   7.0966   7.1012   7.1173   7.1265   7.1920
     7.3249   7.3574   8.2152   8.2503   8.2582   8.2869   8.5364   8.5614
    10.1385  10.1609  10.3820  10.4418  10.4959  10.5531  12.4507  12.4842
    12.5016  12.6485  12.7005  12.7147  12.8608  12.8825  12.9233  12.9265
    12.9579  13.1538  13.2411  13.4315  13.7052  13.9652  13.9984  14.0823
    14.5836  14.8687  14.8926  15.1614  15.2638  15.3226  15.5997  15.8179
    16.3548  16.4483  17.0651  17.2232  17.4915

          k = 0.0000 0.1661 0.3363 ( 61977 PWs)   bands (ev):

   -65.9372 -65.9368 -65.9366 -65.9365 -65.9362 -65.9362 -65.9359 -65.9356
   -30.3734 -30.3711 -30.3686 -30.3663 -30.3072 -30.3047 -30.3011 -30.2982
   -30.2671 -30.2640 -30.2620 -30.2572 -30.2560 -30.2509 -30.2402 -30.2349
   -30.2233 -30.2196 -30.2112 -30.2077 -30.1765 -30.1746 -30.1742 -30.1725
   -20.1012 -20.1010 -20.1007 -20.1005 -20.1004 -20.1003 -20.0999 -20.0997
   -20.0963 -20.0962 -20.0959 -20.0957 -20.0944 -20.0943 -20.0939 -20.0939
   -20.0849 -20.0847 -20.0841 -20.0839 -20.0822 -20.0819 -20.0815 -20.0812
   -20.0691 -20.0691 -20.0685 -20.0685 -20.0685 -20.0684 -20.0679 -20.0679
   -20.0540 -20.0539 -20.0536 -20.0535 -20.0518 -20.0518 -20.0512 -20.0512
   -20.0390 -20.0389 -20.0385 -20.0385 -20.0355 -20.0355 -20.0351 -20.0351
   -20.0288 -20.0287 -20.0284 -20.0283 -20.0280 -20.0280 -20.0275 -20.0275
    -9.6817  -9.4787  -9.2656  -9.2152  -9.0693  -8.9780  -8.7553  -8.6343
    -8.5887  -8.5486  -8.4854  -8.4478  -8.0983  -8.0296  -8.0210  -7.9786
    -7.8237  -7.8113  -7.7547  -7.7306  -7.5645  -7.5465  -7.5162  -7.4995
     1.6072   1.6375   1.6867   1.7172   1.7634   1.7757   1.8410   1.8779
     2.3745   2.4278   2.5070   2.5540   2.6246   2.7049   2.9245   3.0252
     3.0912   3.1082   3.8243   3.9153   4.0394   4.1032   4.1326   4.2380
     4.3132   4.4432   4.6834   4.7349   4.8986   4.9219   4.9699   5.2037
     5.2560   5.2728   5.3549   5.3894   5.5680   5.6306   5.7686   5.8631
     5.8697   5.9622   6.0141   6.0707   6.1033   6.1038   6.1571   6.2714
     6.5604   6.6515   6.6648   6.7366   6.7851   6.8463   6.8985   6.9348
     6.9643   7.0313   7.0888   7.1183   7.1942   7.2411   7.3630   7.3827
     7.5194   7.5943   8.0920   8.1120   8.2286   8.2519   8.3417   8.3863
    10.4585  10.5283  10.7795  10.8494  11.0157  11.1291  12.2660  12.3333
    12.4651  12.5455  12.5976  12.6164  12.6862  12.8139  12.9023  12.9079
    12.9316  13.0107  13.1136  13.4351  13.4427  13.6483  13.6954  13.7586
    15.1321  15.1750  15.1780  15.3099  15.5320  15.6079  15.6882  16.3394
    16.5361  16.7701  16.8790  17.2080  17.5775

          k = 0.0000 0.1661-0.5045 ( 61978 PWs)   bands (ev):

   -65.9370 -65.9370 -65.9364 -65.9364 -65.9364 -65.9363 -65.9358 -65.9358
   -30.3722 -30.3722 -30.3674 -30.3674 -30.3059 -30.3059 -30.2995 -30.2995
   -30.2598 -30.2598 -30.2558 -30.2558 -30.2427 -30.2427 -30.2386 -30.2386
   -30.2273 -30.2272 -30.2233 -30.2233 -30.1754 -30.1754 -30.1736 -30.1736
   -20.1008 -20.1008 -20.1007 -20.1007 -20.1003 -20.1003 -20.1001 -20.1001
   -20.0962 -20.0962 -20.0958 -20.0958 -20.0943 -20.0943 -20.0939 -20.0939
   -20.0848 -20.0848 -20.0840 -20.0840 -20.0820 -20.0820 -20.0813 -20.0813
   -20.0688 -20.0688 -20.0688 -20.0688 -20.0682 -20.0682 -20.0682 -20.0681
   -20.0538 -20.0538 -20.0537 -20.0537 -20.0515 -20.0515 -20.0515 -20.0515
   -20.0388 -20.0388 -20.0387 -20.0387 -20.0354 -20.0354 -20.0353 -20.0353
   -20.0284 -20.0284 -20.0283 -20.0283 -20.0280 -20.0280 -20.0279 -20.0279
    -9.5668  -9.5668  -9.1460  -9.1460  -9.0709  -9.0709  -8.6025  -8.6025
    -8.4320  -8.4320  -8.3299  -8.3299  -8.2906  -8.2906  -8.2563  -8.2563
    -7.8236  -7.8236  -7.7441  -7.7441  -7.5575  -7.5575  -7.5100  -7.5100
     1.6216   1.6216   1.7039   1.7039   1.7719   1.7719   1.8644   1.8644
     2.6243   2.6243   3.0039   3.0039   3.1027   3.1027   3.1498   3.1498
     3.2946   3.2946   3.4720   3.4720   3.7504   3.7504   4.1190   4.1190
     4.1491   4.1491   4.2816   4.2816   4.7399   4.7399   5.0578   5.0578
     5.2496   5.2496   5.4108   5.4108   5.4280   5.4280   5.8603   5.8603
     5.9155   5.9155   5.9943   5.9943   6.1059   6.1059   6.1447   6.1447
     6.5230   6.5231   6.6457   6.6457   6.8034   6.8034   6.9558   6.9558
     6.9948   6.9948   7.1040   7.1040   7.1525   7.1525   7.7837   7.7838
     7.7991   7.7992   7.9955   7.9955   8.0634   8.0634   8.2402   8.2402
    10.4968  10.4968  11.5480  11.5480  11.6314  11.6314  11.7714  11.7714
    11.9097  11.9097  12.5898  12.5898  12.8910  12.8910  12.9451  12.9451
    13.0874  13.0874  13.2328  13.2328  13.3475  13.3475  13.4996  13.4997
    15.1702  15.1702  15.3992  15.3992  15.9549  15.9549  16.0779  16.0779
    16.4596  16.4596  17.3975  17.3975  18.0043

          k = 0.0000 0.3322 0.0000 ( 61994 PWs)   bands (ev):

   -65.9372 -65.9368 -65.9366 -65.9365 -65.9362 -65.9362 -65.9359 -65.9356
   -30.3735 -30.3707 -30.3688 -30.3661 -30.3071 -30.3042 -30.3017 -30.2981
   -30.2806 -30.2795 -30.2747 -30.2745 -30.2389 -30.2348 -30.2341 -30.2292
   -30.2074 -30.2043 -30.1934 -30.1931 -30.1906 -30.1901 -30.1845 -30.1821
   -20.1014 -20.1013 -20.1009 -20.1008 -20.0999 -20.0999 -20.0994 -20.0993
   -20.0964 -20.0962 -20.0961 -20.0959 -20.0944 -20.0943 -20.0942 -20.0940
   -20.0849 -20.0844 -20.0844 -20.0840 -20.0822 -20.0818 -20.0816 -20.0812
   -20.0694 -20.0694 -20.0688 -20.0687 -20.0682 -20.0682 -20.0676 -20.0676
   -20.0537 -20.0536 -20.0528 -20.0527 -20.0525 -20.0524 -20.0513 -20.0513
   -20.0385 -20.0384 -20.0376 -20.0376 -20.0364 -20.0364 -20.0356 -20.0356
   -20.0292 -20.0291 -20.0290 -20.0289 -20.0277 -20.0276 -20.0273 -20.0272
    -9.7164  -9.4936  -9.2973  -9.2782  -9.0980  -9.0644  -8.7223  -8.6984
    -8.6763  -8.4525  -8.4290  -8.4203  -8.0137  -7.9046  -7.8647  -7.8295
    -7.7982  -7.7666  -7.7264  -7.7258  -7.6540  -7.6226  -7.6085  -7.5720
     1.4988   1.5062   1.5591   1.5612   1.7125   1.7294   1.7582   1.7903
     2.3994   2.4337   2.5449   2.5486   2.7019   2.7096   2.8939   2.9060
     3.0311   3.0680   3.5714   3.6206   3.7657   3.8200   4.2753   4.5975
     4.6560   4.7101   4.7683   4.8532   4.9144   4.9616   5.2885   5.3167
     5.3491   5.3566   5.6281   5.6545   5.7262   5.7812   5.8192   5.8976
     5.9341   5.9542   6.0148   6.0328   6.1065   6.1192   6.3455   6.3589
     6.4021   6.5278   6.5694   6.7005   6.8126   6.8275   6.8831   7.0255
     7.0418   7.0596   7.0604   7.0683   7.2201   7.2339   7.3718   7.4045
     7.4717   7.5064   8.0968   8.1289   8.3073   8.3207   8.3270   8.3757
     9.8943   9.9159  10.6691  10.7230  11.0280  11.1117  12.0680  12.1237
    12.4053  12.4285  12.4841  12.5109  12.5817  12.9027  12.9424  13.0908
    13.1086  13.3310  13.3544  13.4754  13.6950  13.9071  14.0229  14.0306
    14.5478  14.7689  14.9344  15.0916  15.3402  15.3524  15.5660  15.7224
    15.8955  17.2189  17.4065  17.5939  17.7598

          k = 0.0000 0.3322 0.1682 ( 62004 PWs)   bands (ev):

   -65.9371 -65.9368 -65.9366 -65.9365 -65.9362 -65.9362 -65.9360 -65.9356
   -30.3732 -30.3704 -30.3692 -30.3664 -30.3065 -30.3035 -30.3020 -30.2984
   -30.2755 -30.2750 -30.2706 -30.2699 -30.2398 -30.2356 -30.2333 -30.2284
   -30.2116 -30.2085 -30.1980 -30.1947 -30.1927 -30.1903 -30.1857 -30.1834
   -20.1013 -20.1013 -20.1008 -20.1007 -20.1001 -20.1000 -20.0996 -20.0994
   -20.0964 -20.0961 -20.0961 -20.0958 -20.0944 -20.0942 -20.0941 -20.0940
   -20.0848 -20.0845 -20.0844 -20.0840 -20.0822 -20.0818 -20.0816 -20.0812
   -20.0693 -20.0693 -20.0687 -20.0687 -20.0683 -20.0683 -20.0676 -20.0676
   -20.0536 -20.0536 -20.0528 -20.0528 -20.0524 -20.0524 -20.0514 -20.0514
   -20.0384 -20.0384 -20.0377 -20.0376 -20.0364 -20.0364 -20.0357 -20.0357
   -20.0291 -20.0290 -20.0289 -20.0288 -20.0278 -20.0277 -20.0274 -20.0273
    -9.6723  -9.4446  -9.3021  -9.2247  -9.0798  -9.0177  -8.7018  -8.6794
    -8.6667  -8.4554  -8.4150  -8.4126  -8.0367  -7.9251  -7.8708  -7.8333
    -7.8121  -7.7644  -7.7409  -7.7409  -7.7286  -7.7067  -7.6939  -7.6528
     1.6029   1.6175   1.7052   1.7228   1.7779   1.7878   1.8844   1.9216
     2.4058   2.4375   2.5479   2.5656   2.7690   2.7729   2.8913   2.9268
     3.1063   3.1390   3.6059   3.6607   3.7608   3.8157   4.2622   4.5362
     4.5485   4.6422   4.6798   4.7397   4.7939   4.9808   5.0422   5.0797
     5.3176   5.3497   5.5524   5.5848   5.5960   5.6984   5.7483   5.7685
     5.8311   5.9350   5.9539   5.9559   6.0252   6.0292   6.0994   6.1843
     6.5817   6.7043   6.7559   6.7703   6.8284   6.9034   6.9239   6.9322
     7.0357   7.0528   7.1045   7.1494   7.1778   7.1924   7.3667   7.4306
     7.4976   7.5099   8.1032   8.1214   8.2612   8.2797   8.2982   8.3378
    10.1752  10.1855  10.8421  10.9031  11.0369  11.1069  12.1516  12.2004
    12.3966  12.4388  12.5373  12.5556  12.6218  12.8609  12.9142  12.9252
    12.9800  13.2234  13.2747  13.3661  13.5876  13.7469  13.9148  13.9327
    14.8148  14.8940  15.0833  15.1774  15.4494  15.5047  15.7681  15.8775
    15.9981  17.3097  17.3659  17.5346  17.6352

          k = 0.0000 0.3322 0.3363 ( 61976 PWs)   bands (ev):

   -65.9370 -65.9367 -65.9367 -65.9364 -65.9363 -65.9361 -65.9361 -65.9357
   -30.3723 -30.3700 -30.3696 -30.3673 -30.3053 -30.3028 -30.3020 -30.2992
   -30.2633 -30.2617 -30.2597 -30.2570 -30.2428 -30.2392 -30.2300 -30.2254
   -30.2244 -30.2210 -30.2095 -30.2062 -30.1917 -30.1893 -30.1880 -30.1858
   -20.1011 -20.1011 -20.1006 -20.1005 -20.1004 -20.1004 -20.0999 -20.0998
   -20.0962 -20.0961 -20.0960 -20.0958 -20.0943 -20.0942 -20.0940 -20.0940
   -20.0848 -20.0845 -20.0843 -20.0841 -20.0820 -20.0817 -20.0816 -20.0813
   -20.0691 -20.0691 -20.0685 -20.0685 -20.0685 -20.0684 -20.0679 -20.0679
   -20.0535 -20.0534 -20.0530 -20.0530 -20.0522 -20.0522 -20.0516 -20.0516
   -20.0383 -20.0383 -20.0379 -20.0378 -20.0363 -20.0363 -20.0359 -20.0359
   -20.0288 -20.0287 -20.0286 -20.0285 -20.0280 -20.0279 -20.0277 -20.0276
    -9.5629  -9.3517  -9.3253  -9.1210  -9.0569  -8.7991  -8.7459  -8.5966
    -8.5576  -8.4682  -8.3796  -8.3559  -8.1790  -8.0786  -8.0058  -7.9631
    -7.8851  -7.8579  -7.8109  -7.7742  -7.7648  -7.7539  -7.7403  -7.7258
     1.6577   1.6783   1.6906   1.7099   2.2536   2.3334   2.3810   2.4064
     2.4994   2.5118   2.5885   2.7074   2.8308   2.9027   2.9877   3.0781
     3.2872   3.3144   3.6213   3.7196   3.7286   3.8197   4.0637   4.0664
     4.2459   4.4741   4.5197   4.5857   4.5944   4.7395   4.7475   4.9786
     5.0202   5.1448   5.2519   5.2543   5.3450   5.4090   5.5405   5.5406
     5.6146   5.7251   5.8709   5.9269   5.9832   6.0586   6.0615   6.0773
     6.6829   6.6977   6.7003   6.7202   6.7636   6.7930   6.8891   6.9093
     7.1227   7.2974   7.3161   7.3375   7.3618   7.4866   7.4893   7.5128
     7.5580   7.6063   8.0608   8.0969   8.1149   8.1688   8.1808   8.2152
    10.8133  10.8209  11.0695  11.0979  11.3158  11.3932  12.2509  12.3174
    12.3965  12.4011  12.4770  12.4954  12.6532  12.6851  12.7026  12.7238
    12.8161  12.9840  13.1181  13.2630  13.3496  13.3637  13.6176  13.6371
    15.1190  15.1523  15.2264  15.4535  15.5479  16.1546  16.3281  16.3820
    16.6994  16.9113  17.2599  17.5847  17.5957

          k = 0.0000 0.3322-0.5045 ( 62010 PWs)   bands (ev):

   -65.9369 -65.9369 -65.9365 -65.9365 -65.9363 -65.9363 -65.9359 -65.9359
   -30.3712 -30.3712 -30.3684 -30.3684 -30.3040 -30.3039 -30.3005 -30.3005
   -30.2503 -30.2502 -30.2474 -30.2474 -30.2429 -30.2428 -30.2389 -30.2389
   -30.2222 -30.2222 -30.2185 -30.2185 -30.1901 -30.1901 -30.1878 -30.1878
   -20.1008 -20.1008 -20.1007 -20.1007 -20.1003 -20.1003 -20.1002 -20.1002
   -20.0961 -20.0961 -20.0959 -20.0959 -20.0942 -20.0942 -20.0940 -20.0940
   -20.0847 -20.0846 -20.0842 -20.0842 -20.0819 -20.0819 -20.0815 -20.0815
   -20.0688 -20.0688 -20.0688 -20.0688 -20.0682 -20.0682 -20.0682 -20.0682
   -20.0532 -20.0532 -20.0532 -20.0532 -20.0519 -20.0519 -20.0519 -20.0519
   -20.0381 -20.0381 -20.0381 -20.0381 -20.0361 -20.0361 -20.0361 -20.0361
   -20.0284 -20.0284 -20.0283 -20.0283 -20.0281 -20.0281 -20.0280 -20.0280
    -9.4418  -9.4418  -9.2026  -9.2026  -8.8667  -8.8667  -8.5044  -8.5044
    -8.4851  -8.4851  -8.3478  -8.3478  -8.2514  -8.2514  -8.2117  -8.2116
    -7.8847  -7.8847  -7.8066  -7.8066  -7.7541  -7.7541  -7.7419  -7.7419
     1.6754   1.6754   1.6959   1.6959   2.3783   2.3783   2.4961   2.4961
     2.8189   2.8189   3.0878   3.0878   3.1154   3.1154   3.2117   3.2117
     3.2786   3.2786   3.5232   3.5232   3.6788   3.6788   3.8585   3.8585
     4.2661   4.2661   4.3099   4.3099   4.3338   4.3338   4.5353   4.5353
     5.0770   5.0770   5.2655   5.2655   5.3683   5.3683   5.3957   5.3957
     5.5053   5.5053   5.9015   5.9015   6.0360   6.0360   6.0884   6.0884
     6.5920   6.5920   6.6359   6.6359   6.7715   6.7715   6.9012   6.9012
     7.2922   7.2922   7.4169   7.4169   7.4574   7.4574   7.7766   7.7766
     7.8029   7.8029   7.9340   7.9340   7.9750   7.9750   8.1294   8.1294
    11.0568  11.0568  11.5721  11.5721  11.6374  11.6374  11.9404  11.9404
    12.0792  12.0792  12.5028  12.5028  12.6704  12.6704  12.8531  12.8531
    12.8829  12.8829  12.9653  12.9653  13.2366  13.2366  13.4198  13.4199
    15.1875  15.1875  15.3393  15.3393  16.2773  16.2773  16.8694  16.8694
    16.9834  16.9834  17.0183  17.0183  17.8965

          k = 0.0000-0.4983 0.0000 ( 61974 PWs)   bands (ev):

   -65.9370 -65.9370 -65.9364 -65.9364 -65.9364 -65.9363 -65.9358 -65.9358
   -30.3721 -30.3721 -30.3675 -30.3675 -30.3054 -30.3054 -30.2997 -30.2997
   -30.2798 -30.2798 -30.2743 -30.2743 -30.2203 -30.2203 -30.2172 -30.2172
   -30.2139 -30.2139 -30.2105 -30.2105 -30.1919 -30.1919 -30.1888 -30.1887
   -20.1014 -20.1014 -20.1008 -20.1008 -20.0999 -20.0999 -20.0994 -20.0994
   -20.0963 -20.0963 -20.0960 -20.0960 -20.0943 -20.0943 -20.0941 -20.0941
   -20.0846 -20.0846 -20.0842 -20.0842 -20.0820 -20.0820 -20.0814 -20.0814
   -20.0694 -20.0694 -20.0688 -20.0687 -20.0682 -20.0682 -20.0676 -20.0676
   -20.0531 -20.0530 -20.0530 -20.0530 -20.0520 -20.0520 -20.0520 -20.0520
   -20.0375 -20.0375 -20.0374 -20.0374 -20.0367 -20.0366 -20.0366 -20.0366
   -20.0292 -20.0292 -20.0290 -20.0290 -20.0275 -20.0275 -20.0274 -20.0274
    -9.5921  -9.5921  -9.1775  -9.1775  -9.1504  -9.1504  -8.7091  -8.7091
    -8.3361  -8.3361  -8.2094  -8.2094  -8.1800  -8.1799  -8.1620  -8.1620
    -7.8031  -7.8031  -7.7377  -7.7377  -7.6443  -7.6443  -7.5966  -7.5966
     1.5019   1.5019   1.5609   1.5609   1.7224   1.7224   1.7801   1.7801
     2.6953   2.6953   3.0540   3.0540   3.0681   3.0681   3.1573   3.1573
     3.2249   3.2249   3.4649   3.4649   3.7125   3.7126   3.7529   3.7529
     3.9151   3.9151   4.7251   4.7251   4.8784   4.8784   5.4786   5.4786
     5.4883   5.4883   5.5491   5.5491   5.6044   5.6044   5.8450   5.8450
     5.9907   5.9907   6.0659   6.0659   6.0759   6.0759   6.1627   6.1628
     6.4884   6.4884   6.5753   6.5753   6.7466   6.7466   6.9165   6.9165
     7.0573   7.0573   7.0879   7.0879   7.2273   7.2273   7.8108   7.8108
     7.8118   7.8118   7.9056   7.9056   7.9824   7.9824   8.3151   8.3151
     9.9126   9.9126  11.3830  11.3830  11.4052  11.4052  11.7594  11.7594
    11.8173  11.8173  12.5047  12.5047  12.7850  12.7850  13.0959  13.0959
    13.1174  13.1174  13.5163  13.5163  13.6467  13.6467  13.9793  13.9793
    14.7354  14.7354  15.1960  15.1960  15.2709  15.2709  15.4658  15.4659
    16.6679  16.6679  17.8797  17.8797  18.1331

          k = 0.0000-0.4983 0.1682 ( 62002 PWs)   bands (ev):

   -65.9370 -65.9370 -65.9364 -65.9364 -65.9364 -65.9364 -65.9358 -65.9358
   -30.3718 -30.3718 -30.3678 -30.3678 -30.3048 -30.3048 -30.3000 -30.3000
   -30.2749 -30.2749 -30.2698 -30.2698 -30.2222 -30.2222 -30.2192 -30.2191
   -30.2135 -30.2134 -30.2100 -30.2100 -30.1954 -30.1954 -30.1923 -30.1923
   -20.1013 -20.1013 -20.1008 -20.1008 -20.1001 -20.1000 -20.0995 -20.0995
   -20.0962 -20.0962 -20.0960 -20.0960 -20.0942 -20.0942 -20.0941 -20.0941
   -20.0846 -20.0846 -20.0842 -20.0842 -20.0820 -20.0820 -20.0814 -20.0814
   -20.0693 -20.0693 -20.0687 -20.0687 -20.0683 -20.0683 -20.0676 -20.0676
   -20.0530 -20.0530 -20.0529 -20.0529 -20.0521 -20.0521 -20.0521 -20.0520
   -20.0374 -20.0374 -20.0374 -20.0374 -20.0367 -20.0367 -20.0367 -20.0367
   -20.0290 -20.0290 -20.0289 -20.0289 -20.0276 -20.0276 -20.0275 -20.0275
    -9.5449  -9.5449  -9.1705  -9.1705  -9.0981  -9.0981  -8.6773  -8.6773
    -8.3523  -8.3523  -8.2172  -8.2172  -8.1747  -8.1747  -8.1595  -8.1595
    -7.8073  -7.8073  -7.7471  -7.7471  -7.7283  -7.7283  -7.6934  -7.6934
     1.6102   1.6102   1.7158   1.7158   1.7856   1.7856   1.9120   1.9120
     2.7749   2.7749   3.0452   3.0452   3.0923   3.0923   3.1690   3.1690
     3.2782   3.2782   3.4577   3.4577   3.7143   3.7143   3.7769   3.7770
     3.9320   3.9320   4.5806   4.5806   4.7587   4.7587   5.3075   5.3075
     5.3396   5.3396   5.4998   5.4998   5.5803   5.5803   5.7602   5.7603
     5.8179   5.8179   5.8648   5.8649   6.0160   6.0160   6.0353   6.0353
     6.6355   6.6355   6.7450   6.7450   6.7729   6.7729   6.9225   6.9225
     7.0656   7.0656   7.1590   7.1590   7.2318   7.2318   7.8013   7.8013
     7.8180   7.8180   7.9120   7.9120   7.9654   7.9654   8.2723   8.2723
    10.1880  10.1880  11.4700  11.4700  11.5280  11.5280  11.7622  11.7622
    11.8365  11.8365  12.5568  12.5568  12.8017  12.8017  12.9297  12.9297
    13.1208  13.1208  13.3758  13.3758  13.4745  13.4745  13.8816  13.8816
    14.8987  14.8987  15.3446  15.3446  15.3958  15.3958  15.6564  15.6564
    16.7705  16.7705  17.8293  17.8293  17.9234

          k = 0.0000-0.4983 0.3363 ( 62010 PWs)   bands (ev):

   -65.9368 -65.9368 -65.9365 -65.9365 -65.9362 -65.9362 -65.9359 -65.9359
   -30.3709 -30.3709 -30.3686 -30.3686 -30.3034 -30.3034 -30.3008 -30.3008
   -30.2617 -30.2617 -30.2574 -30.2574 -30.2295 -30.2295 -30.2267 -30.2267
   -30.2118 -30.2118 -30.2084 -30.2084 -30.2027 -30.2027 -30.1999 -30.1999
   -20.1011 -20.1011 -20.1006 -20.1006 -20.1004 -20.1004 -20.0998 -20.0998
   -20.0961 -20.0961 -20.0959 -20.0959 -20.0942 -20.0942 -20.0941 -20.0941
   -20.0845 -20.0845 -20.0843 -20.0843 -20.0818 -20.0818 -20.0815 -20.0815
   -20.0691 -20.0691 -20.0685 -20.0685 -20.0685 -20.0685 -20.0679 -20.0679
   -20.0528 -20.0528 -20.0528 -20.0528 -20.0523 -20.0523 -20.0523 -20.0522
   -20.0373 -20.0373 -20.0373 -20.0373 -20.0369 -20.0369 -20.0369 -20.0369
   -20.0287 -20.0287 -20.0286 -20.0286 -20.0279 -20.0279 -20.0278 -20.0278
    -9.4286  -9.4286  -9.2164  -9.2164  -8.8956  -8.8956  -8.5729  -8.5729
    -8.4271  -8.4271  -8.2565  -8.2565  -8.1563  -8.1563  -8.1456  -8.1456
    -7.9646  -7.9646  -7.9211  -7.9211  -7.7764  -7.7764  -7.7506  -7.7506
     1.6692   1.6692   1.7019   1.7019   2.3692   2.3692   2.4753   2.4753
     2.9662   2.9662   3.0337   3.0337   3.1567   3.1568   3.2116   3.2116
     3.3801   3.3801   3.4574   3.4574   3.6795   3.6795   3.8270   3.8270
     3.9688   3.9688   4.0857   4.0857   4.6806   4.6806   4.8578   4.8578
     4.9970   4.9970   5.1454   5.1454   5.2901   5.2901   5.4695   5.4695
     5.6161   5.6162   5.7385   5.7385   6.0423   6.0423   6.0657   6.0657
     6.6961   6.6961   6.7035   6.7035   6.7614   6.7614   6.7866   6.7866
     7.2777   7.2777   7.5063   7.5063   7.5216   7.5216   7.7772   7.7772
     7.8374   7.8374   7.8831   7.8831   7.9009   7.9009   8.1273   8.1273
    10.8323  10.8323  11.6696  11.6696  11.7510  11.7510  11.8795  11.8795
    11.9626  11.9626  12.3704  12.3704  12.7023  12.7023  12.8362  12.8362
    12.9995  12.9995  13.0677  13.0677  13.1485  13.1485  13.5872  13.5872
    15.1247  15.1247  15.3391  15.3391  15.9166  15.9166  16.5286  16.5286
    17.0921  17.0921  17.2987  17.2987  17.9793

          k = 0.0000-0.4983-0.5045 ( 62024 PWs)   bands (ev):

   -65.9367 -65.9367 -65.9367 -65.9367 -65.9361 -65.9361 -65.9361 -65.9361
   -30.3698 -30.3698 -30.3698 -30.3698 -30.3020 -30.3020 -30.3020 -30.3020
   -30.2444 -30.2444 -30.2444 -30.2444 -30.2410 -30.2409 -30.2409 -30.2409
   -30.2085 -30.2085 -30.2085 -30.2085 -30.2055 -30.2055 -30.2055 -30.2054
   -20.1008 -20.1008 -20.1008 -20.1008 -20.1002 -20.1002 -20.1002 -20.1002
   -20.0960 -20.0960 -20.0960 -20.0960 -20.0941 -20.0941 -20.0941 -20.0941
   -20.0844 -20.0844 -20.0844 -20.0844 -20.0817 -20.0817 -20.0817 -20.0817
   -20.0688 -20.0688 -20.0688 -20.0688 -20.0682 -20.0682 -20.0682 -20.0682
   -20.0525 -20.0525 -20.0525 -20.0525 -20.0525 -20.0525 -20.0525 -20.0525
   -20.0372 -20.0371 -20.0371 -20.0371 -20.0371 -20.0371 -20.0371 -20.0371
   -20.0283 -20.0283 -20.0283 -20.0283 -20.0282 -20.0282 -20.0282 -20.0282
    -9.3041  -9.3041  -9.3041  -9.3041  -8.6276  -8.6276  -8.6276  -8.6276
    -8.3953  -8.3953  -8.3953  -8.3953  -8.1159  -8.1159  -8.1159  -8.1159
    -8.0822  -8.0822  -8.0822  -8.0822  -7.7650  -7.7650  -7.7650  -7.7650
     1.6872   1.6872   1.6872   1.6872   2.9146   2.9146   2.9146   2.9146
     3.0280   3.0280   3.0280   3.0280   3.3382   3.3382   3.3382   3.3382
     3.4006   3.4006   3.4006   3.4006   3.6359   3.6359   3.6359   3.6359
     3.8656   3.8656   3.8657   3.8657   4.6298   4.6298   4.6298   4.6298
     4.6723   4.6723   4.6723   4.6723   5.3519   5.3519   5.3519   5.3519
     5.6538   5.6538   5.6538   5.6538   6.0746   6.0746   6.0746   6.0746
     6.6173   6.6173   6.6173   6.6173   6.7672   6.7672   6.7672   6.7672
     7.6694   7.6694   7.6694   7.6694   7.7335   7.7335   7.7335   7.7335
     7.7598   7.7598   7.7598   7.7598   7.9328   7.9328   7.9329   7.9329
    11.5541  11.5541  11.5541  11.5542  11.8011  11.8011  11.8011  11.8011
    12.3795  12.3795  12.3795  12.3795  12.4277  12.4277  12.4277  12.4277
    12.9214  12.9214  12.9214  12.9214  13.2732  13.2732  13.2732  13.2732
    15.2552  15.2552  15.2552  15.2552  16.6304  16.6304  16.6304  16.6304
    17.5956  17.5957  17.5957  17.5957  17.6957

          k = 0.1667 0.0000 0.0000 ( 62027 PWs)   bands (ev):

   -65.9373 -65.9368 -65.9367 -65.9366 -65.9362 -65.9361 -65.9359 -65.9354
   -30.3705 -30.3658 -30.3649 -30.3604 -30.3137 -30.3089 -30.3074 -30.3015
   -30.2812 -30.2805 -30.2770 -30.2757 -30.2585 -30.2530 -30.2525 -30.2461
   -30.2031 -30.2001 -30.1932 -30.1904 -30.1717 -30.1701 -30.1680 -30.1667
   -20.1014 -20.1013 -20.1010 -20.1008 -20.1000 -20.0998 -20.0995 -20.0993
   -20.0964 -20.0961 -20.0959 -20.0956 -20.0946 -20.0945 -20.0942 -20.0940
   -20.0850 -20.0845 -20.0840 -20.0836 -20.0826 -20.0820 -20.0818 -20.0812
   -20.0694 -20.0693 -20.0688 -20.0688 -20.0682 -20.0681 -20.0676 -20.0676
   -20.0544 -20.0543 -20.0536 -20.0535 -20.0520 -20.0520 -20.0507 -20.0506
   -20.0394 -20.0394 -20.0385 -20.0384 -20.0354 -20.0353 -20.0346 -20.0345
   -20.0292 -20.0291 -20.0288 -20.0287 -20.0278 -20.0277 -20.0270 -20.0270
    -9.8298  -9.4743  -9.4169  -9.3718  -9.0562  -9.0204  -8.9328  -8.7013
    -8.6581  -8.6057  -8.6030  -8.5892  -7.9617  -7.8806  -7.8725  -7.8202
    -7.6789  -7.6634  -7.6432  -7.6215  -7.4482  -7.4236  -7.3920  -7.3712
     1.4785   1.5008   1.5360   1.5440   1.5513   1.5558   1.5634   1.6102
     1.9295   1.9513   2.0128   2.0576   2.6037   2.6205   2.6888   2.6902
     2.7446   2.8824   4.0804   4.2087   4.3411   4.3925   4.5216   4.5442
     4.5765   4.6099   4.8785   4.9441   5.0886   5.1852   5.3799   5.4509
     5.5735   5.7466   5.7502   5.8196   5.8238   5.8737   5.8929   5.9612
     6.0408   6.0913   6.1084   6.1116   6.2393   6.2394   6.2646   6.2750
     6.3949   6.5492   6.6037   6.6230   6.6496   6.8796   6.9393   6.9534
     6.9897   7.0071   7.0414   7.0979   7.0989   7.2236   7.2347   7.2950
     7.3922   7.4097   8.1962   8.2393   8.2499   8.2711   8.6910   8.6923
     9.8762   9.9203  10.1022  10.2639  10.4142  10.5501  12.3492  12.3497
    12.4083  12.5786  12.8161  12.8473  12.9100  13.0976  13.1506  13.1525
    13.1798  13.2080  13.4040  13.4623  13.7682  13.9880  14.2377  14.2400
    14.2513  14.4520  14.8091  15.0084  15.2328  15.2841  15.4204  15.9072
    16.0614  16.5593  16.6971  17.1969  17.4717

          k = 0.1667 0.0000 0.1682 ( 62004 PWs)   bands (ev):

   -65.9373 -65.9368 -65.9367 -65.9365 -65.9362 -65.9360 -65.9360 -65.9355
   -30.3702 -30.3661 -30.3646 -30.3607 -30.3133 -30.3091 -30.3067 -30.3018
   -30.2770 -30.2761 -30.2737 -30.2710 -30.2590 -30.2536 -30.2504 -30.2443
   -30.2084 -30.2054 -30.1981 -30.1952 -30.1714 -30.1699 -30.1682 -30.1669
   -20.1013 -20.1012 -20.1009 -20.1007 -20.1001 -20.1000 -20.0997 -20.0994
   -20.0963 -20.0961 -20.0959 -20.0956 -20.0946 -20.0945 -20.0941 -20.0940
   -20.0849 -20.0845 -20.0840 -20.0836 -20.0826 -20.0820 -20.0817 -20.0812
   -20.0693 -20.0693 -20.0687 -20.0687 -20.0683 -20.0682 -20.0677 -20.0677
   -20.0543 -20.0542 -20.0536 -20.0536 -20.0519 -20.0519 -20.0508 -20.0507
   -20.0393 -20.0393 -20.0386 -20.0385 -20.0353 -20.0353 -20.0347 -20.0346
   -20.0290 -20.0290 -20.0287 -20.0286 -20.0278 -20.0278 -20.0271 -20.0271
    -9.7888  -9.4325  -9.4231  -9.3191  -9.0342  -8.9768  -8.9442  -8.6705
    -8.6311  -8.5922  -8.5906  -8.5768  -7.9692  -7.8876  -7.8744  -7.8334
    -7.7650  -7.7578  -7.7330  -7.7217  -7.4564  -7.4273  -7.4017  -7.3747
     1.4836   1.5138   1.5300   1.5539   1.7314   1.7340   1.7884   1.8237
     1.9344   1.9531   2.0530   2.1078   2.6251   2.6681   2.7075   2.7583
     2.8456   2.9611   4.0629   4.1805   4.3202   4.3540   4.5494   4.5562
     4.5875   4.6137   4.6536   4.6998   4.8026   4.9046   5.3578   5.4296
     5.5676   5.5732   5.6577   5.7175   5.7471   5.8579   5.8961   5.9245
     5.9776   5.9903   6.0397   6.0705   6.0948   6.2343   6.2857   6.3391
     6.3829   6.5900   6.7749   6.8249   6.8462   6.8520   6.8756   6.9301
     6.9490   6.9884   7.0565   7.0666   7.1001   7.1545   7.2349   7.2789
     7.3158   7.3169   8.1977   8.2018   8.2304   8.2439   8.6139   8.6368
    10.1589  10.2292  10.3463  10.4276  10.5080  10.5452  12.3989  12.4069
    12.4386  12.5981  12.7838  12.8792  12.9098  12.9562  12.9656  13.0882
    13.1002  13.1772  13.3001  13.4686  13.6786  13.8754  14.0993  14.1557
    14.5297  14.7138  14.9715  15.0789  15.2308  15.3287  15.8036  15.8850
    16.0339  16.7153  16.8018  16.9708  17.4808

          k = 0.1667 0.0000 0.3363 ( 61984 PWs)   bands (ev):

   -65.9372 -65.9368 -65.9366 -65.9364 -65.9363 -65.9361 -65.9359 -65.9356
   -30.3693 -30.3670 -30.3638 -30.3615 -30.3123 -30.3099 -30.3053 -30.3027
   -30.2694 -30.2664 -30.2619 -30.2607 -30.2577 -30.2557 -30.2426 -30.2379
   -30.2229 -30.2197 -30.2112 -30.2081 -30.1707 -30.1692 -30.1688 -30.1674
   -20.1011 -20.1010 -20.1007 -20.1006 -20.1004 -20.1003 -20.1000 -20.0998
   -20.0962 -20.0961 -20.0958 -20.0956 -20.0945 -20.0944 -20.0940 -20.0940
   -20.0848 -20.0846 -20.0839 -20.0837 -20.0825 -20.0821 -20.0816 -20.0813
   -20.0691 -20.0691 -20.0685 -20.0685 -20.0685 -20.0684 -20.0679 -20.0679
   -20.0542 -20.0541 -20.0538 -20.0537 -20.0517 -20.0517 -20.0510 -20.0510
   -20.0392 -20.0392 -20.0387 -20.0387 -20.0353 -20.0352 -20.0349 -20.0348
   -20.0287 -20.0287 -20.0284 -20.0283 -20.0280 -20.0280 -20.0275 -20.0274
    -9.6866  -9.4832  -9.2970  -9.1900  -9.0773  -8.9824  -8.7548  -8.6246
    -8.5997  -8.5272  -8.5064  -8.4754  -8.1012  -8.0260  -8.0220  -7.9926
    -7.8975  -7.8848  -7.8390  -7.8134  -7.4585  -7.4372  -7.4043  -7.3840
     1.4900   1.5155   1.5229   1.5432   1.8968   1.9034   1.9390   1.9438
     2.3815   2.4213   2.5088   2.5406   2.6309   2.7045   2.9074   2.9499
     3.1197   3.1788   3.8701   3.9404   4.1478   4.1759   4.2019   4.2508
     4.3063   4.4823   4.5719   4.6305   4.6824   4.8232   4.9116   5.0431
     5.2856   5.3870   5.4155   5.4774   5.5141   5.6050   5.7605   5.9057
     5.9699   5.9862   5.9909   6.0212   6.0523   6.1580   6.3286   6.3815
     6.4668   6.5090   6.6337   6.7102   6.8165   6.8396   6.8439   6.9534
     6.9933   7.0184   7.1301   7.1335   7.2100   7.2663   7.3709   7.3765
     7.5320   7.5895   8.0494   8.0766   8.2168   8.2327   8.3945   8.4407
    10.4513  10.5187  10.8170  10.9316  10.9577  11.1233  12.2994  12.3573
    12.4587  12.4931  12.5524  12.6065  12.6301  12.7140  13.0645  13.0771
    13.0978  13.1293  13.1975  13.3827  13.4766  13.6248  13.7730  13.8384
    15.1258  15.2155  15.2465  15.3548  15.3617  15.5834  15.8245  15.9348
    16.4633  16.7615  17.1455  17.1867  17.2614

          k = 0.1667 0.0000-0.5045 ( 62014 PWs)   bands (ev):

   -65.9370 -65.9370 -65.9365 -65.9365 -65.9363 -65.9363 -65.9358 -65.9357
   -30.3681 -30.3681 -30.3626 -30.3626 -30.3110 -30.3110 -30.3039 -30.3039
   -30.2639 -30.2639 -30.2597 -30.2597 -30.2425 -30.2425 -30.2389 -30.2389
   -30.2281 -30.2280 -30.2246 -30.2246 -30.1697 -30.1697 -30.1683 -30.1683
   -20.1008 -20.1008 -20.1007 -20.1007 -20.1004 -20.1004 -20.1002 -20.1002
   -20.0961 -20.0961 -20.0956 -20.0956 -20.0945 -20.0944 -20.0940 -20.0940
   -20.0847 -20.0847 -20.0838 -20.0838 -20.0823 -20.0823 -20.0815 -20.0815
   -20.0688 -20.0688 -20.0688 -20.0688 -20.0682 -20.0682 -20.0682 -20.0682
   -20.0540 -20.0540 -20.0539 -20.0539 -20.0514 -20.0514 -20.0513 -20.0513
   -20.0390 -20.0390 -20.0390 -20.0389 -20.0351 -20.0351 -20.0351 -20.0351
   -20.0284 -20.0284 -20.0283 -20.0283 -20.0279 -20.0279 -20.0278 -20.0278
    -9.5716  -9.5716  -9.1649  -9.1649  -9.0615  -9.0615  -8.6089  -8.6089
    -8.4319  -8.4318  -8.3188  -8.3188  -8.2963  -8.2963  -8.2708  -8.2708
    -7.8998  -7.8997  -7.8316  -7.8316  -7.4495  -7.4495  -7.3957  -7.3957
     1.5009   1.5009   1.5320   1.5320   1.9154   1.9154   1.9412   1.9412
     2.6291   2.6291   2.9815   2.9815   3.0427   3.0427   3.1906   3.1906
     3.2889   3.2889   3.5309   3.5309   3.8349   3.8349   4.0772   4.0773
     4.1181   4.1181   4.3948   4.3948   4.5803   4.5803   5.0422   5.0423
     5.2739   5.2739   5.3204   5.3204   5.4107   5.4107   5.7896   5.7896
     5.9716   5.9716   6.0024   6.0024   6.1290   6.1290   6.3716   6.3716
     6.4376   6.4376   6.6373   6.6373   6.7699   6.7699   6.8666   6.8666
     7.0027   7.0027   7.0937   7.0937   7.2537   7.2537   7.7650   7.7650
     7.7867   7.7868   8.0186   8.0186   8.0802   8.0802   8.2293   8.2293
    10.4874  10.4874  11.5871  11.5871  11.6995  11.6995  11.7319  11.7319
    11.8966  11.8966  12.5212  12.5212  12.9006  12.9006  13.0124  13.0124
    13.0977  13.0978  13.3829  13.3829  13.4398  13.4398  13.5045  13.5045
    15.1942  15.1943  15.6333  15.6333  15.7124  15.7124  15.9232  15.9232
    16.3916  16.3916  17.5005  17.5005  17.9138

          k = 0.1667 0.1661 0.0000 ( 62031 PWs)   bands (ev):

   -65.9373 -65.9368 -65.9366 -65.9366 -65.9361 -65.9361 -65.9360 -65.9355
   -30.3701 -30.3655 -30.3652 -30.3607 -30.3130 -30.3082 -30.3075 -30.3019
   -30.2810 -30.2799 -30.2762 -30.2755 -30.2531 -30.2483 -30.2478 -30.2420
   -30.2036 -30.2007 -30.1933 -30.1904 -30.1774 -30.1757 -30.1730 -30.1714
   -20.1014 -20.1013 -20.1010 -20.1008 -20.1000 -20.0998 -20.0995 -20.0993
   -20.0963 -20.0961 -20.0959 -20.0956 -20.0946 -20.0945 -20.0942 -20.0940
   -20.0849 -20.0844 -20.0840 -20.0836 -20.0826 -20.0819 -20.0818 -20.0812
   -20.0694 -20.0693 -20.0688 -20.0688 -20.0682 -20.0681 -20.0676 -20.0676
   -20.0542 -20.0541 -20.0534 -20.0533 -20.0521 -20.0521 -20.0509 -20.0508
   -20.0391 -20.0391 -20.0383 -20.0382 -20.0356 -20.0356 -20.0349 -20.0348
   -20.0292 -20.0291 -20.0289 -20.0288 -20.0278 -20.0277 -20.0271 -20.0271
    -9.7857  -9.4257  -9.3925  -9.3591  -9.0684  -8.9500  -8.9333  -8.6979
    -8.6609  -8.5687  -8.5584  -8.5538  -7.9661  -7.8815  -7.8760  -7.8297
    -7.7034  -7.6750  -7.6610  -7.6191  -7.5385  -7.5302  -7.4962  -7.4806
     1.5326   1.5412   1.5502   1.5607   1.7028   1.7620   1.8003   1.8075
     1.9376   1.9844   2.0192   2.0967   2.6817   2.6906   2.7626   2.7709
     2.7763   2.8855   3.9419   4.0383   4.1512   4.2971   4.4032   4.5110
     4.5876   4.6473   4.8899   4.9419   5.1563   5.1864   5.2188   5.3731
     5.5027   5.5135   5.5832   5.7119   5.7247   5.8436   5.8557   5.8888
     5.9630   6.0182   6.0784   6.0786   6.1238   6.1683   6.3456   6.4907
     6.4908   6.5761   6.6149   6.6624   6.7703   6.8326   6.8516   6.9451
     6.9605   7.0564   7.0674   7.0832   7.1224   7.1532   7.2353   7.2496
     7.4027   7.4146   8.1836   8.2321   8.2413   8.2655   8.6002   8.6159
    10.0094  10.0921  10.1352  10.3223  10.6212  10.7426  12.3362  12.3624
    12.4591  12.5874  12.6285  12.7116  12.8364  12.9366  13.1445  13.1447
    13.1667  13.2533  13.3920  13.4710  13.7530  13.9815  14.1512  14.1577
    14.3412  14.6156  14.8067  15.2047  15.2927  15.2993  15.4057  15.8796
    16.3312  16.4381  16.8998  17.4091  17.4900

          k = 0.1667 0.1661 0.1682 ( 62006 PWs)   bands (ev):

   -65.9372 -65.9367 -65.9367 -65.9366 -65.9362 -65.9361 -65.9360 -65.9355
   -30.3698 -30.3657 -30.3649 -30.3610 -30.3126 -30.3083 -30.3070 -30.3021
   -30.2760 -30.2758 -30.2726 -30.2708 -30.2537 -30.2489 -30.2462 -30.2406
   -30.2088 -30.2059 -30.1981 -30.1952 -30.1771 -30.1754 -30.1733 -30.1718
   -20.1013 -20.1012 -20.1009 -20.1007 -20.1001 -20.1000 -20.0997 -20.0995
   -20.0963 -20.0961 -20.0959 -20.0956 -20.0946 -20.0944 -20.0942 -20.0940
   -20.0849 -20.0844 -20.0840 -20.0836 -20.0825 -20.0820 -20.0818 -20.0813
   -20.0693 -20.0693 -20.0687 -20.0687 -20.0683 -20.0682 -20.0677 -20.0677
   -20.0541 -20.0540 -20.0534 -20.0534 -20.0520 -20.0520 -20.0509 -20.0509
   -20.0391 -20.0391 -20.0383 -20.0383 -20.0356 -20.0356 -20.0349 -20.0349
   -20.0291 -20.0290 -20.0288 -20.0287 -20.0278 -20.0278 -20.0272 -20.0272
    -9.7433  -9.3806  -9.3678  -9.3375  -8.9909  -8.9611  -8.9462  -8.6675
    -8.6331  -8.5588  -8.5484  -8.5406  -7.9768  -7.8877  -7.8780  -7.8438
    -7.7771  -7.7569  -7.7465  -7.7193  -7.5546  -7.5377  -7.5102  -7.4927
     1.6704   1.7015   1.7180   1.7353   1.7791   1.7898   1.8035   1.8813
     1.9374   1.9936   2.0531   2.1459   2.7002   2.7476   2.7763   2.8343
     2.8822   2.9590   3.9431   4.0343   4.1518   4.2384   4.5009   4.5396
     4.5723   4.6193   4.6582   4.6885   4.8615   4.9350   5.1846   5.3408
     5.4688   5.4927   5.5304   5.5890   5.7023   5.7142   5.7537   5.7810
     5.8041   5.9650   6.0379   6.0487   6.0783   6.0963   6.4180   6.4490
     6.5043   6.6447   6.7018   6.7499   6.8046   6.8632   6.8682   6.9394
     6.9835   7.0411   7.0715   7.1071   7.1358   7.1568   7.2212   7.2738
     7.3400   7.3791   8.1888   8.2016   8.2158   8.2382   8.5399   8.5614
    10.2535  10.3405  10.3895  10.5638  10.6358  10.7373  12.3924  12.4224
    12.4884  12.6129  12.6934  12.7452  12.7775  12.9258  12.9506  12.9740
    13.0685  13.1889  13.2928  13.4739  13.6597  13.8630  13.9982  14.0628
    14.6362  14.8777  14.9726  15.2204  15.3157  15.3926  15.7786  15.8662
    16.4104  16.4724  16.9839  17.1482  17.5202

          k = 0.1667 0.1661 0.3363 ( 61985 PWs)   bands (ev):

   -65.9371 -65.9368 -65.9366 -65.9365 -65.9363 -65.9362 -65.9360 -65.9356
   -30.3689 -30.3666 -30.3641 -30.3618 -30.3115 -30.3091 -30.3056 -30.3030
   -30.2669 -30.2642 -30.2617 -30.2576 -30.2557 -30.2512 -30.2399 -30.2353
   -30.2230 -30.2199 -30.2109 -30.2079 -30.1763 -30.1747 -30.1741 -30.1726
   -20.1011 -20.1010 -20.1007 -20.1006 -20.1004 -20.1003 -20.1000 -20.0998
   -20.0962 -20.0960 -20.0958 -20.0956 -20.0945 -20.0944 -20.0941 -20.0940
   -20.0848 -20.0845 -20.0839 -20.0837 -20.0824 -20.0821 -20.0817 -20.0814
   -20.0691 -20.0691 -20.0685 -20.0685 -20.0685 -20.0684 -20.0679 -20.0679
   -20.0540 -20.0539 -20.0536 -20.0535 -20.0518 -20.0518 -20.0512 -20.0511
   -20.0390 -20.0389 -20.0385 -20.0385 -20.0355 -20.0355 -20.0351 -20.0351
   -20.0288 -20.0287 -20.0284 -20.0283 -20.0280 -20.0280 -20.0275 -20.0275
    -9.6376  -9.4287  -9.2343  -9.2086  -9.0029  -8.9905  -8.7678  -8.6052
    -8.5673  -8.5295  -8.4827  -8.4507  -8.1176  -8.0318  -8.0211  -7.9880
    -7.8958  -7.8834  -7.8439  -7.8177  -7.5646  -7.5474  -7.5196  -7.5027
     1.7008   1.7270   1.7646   1.7895   1.9035   1.9173   1.9487   1.9810
     2.3862   2.4319   2.5068   2.5541   2.7083   2.7752   2.9678   3.0276
     3.1497   3.1723   3.8144   3.9008   4.0980   4.1309   4.1705   4.2198
     4.3087   4.4386   4.5768   4.6141   4.6712   4.7783   4.9218   5.0182
     5.1323   5.2228   5.2696   5.3162   5.3513   5.4550   5.6993   5.7278
     5.7592   5.8936   5.9139   6.0242   6.0409   6.0764   6.1643   6.2372
     6.5664   6.6379   6.7238   6.7567   6.8358   6.9123   6.9318   6.9807
     7.0197   7.0844   7.1687   7.1910   7.2239   7.2808   7.3694   7.3967
     7.5427   7.5921   8.0529   8.0700   8.2047   8.2229   8.3482   8.3852
    10.6432  10.7103  10.8596  10.9681  11.0197  11.1707  12.3087  12.3708
    12.4794  12.5231  12.5805  12.6163  12.6626  12.7113  12.8979  12.9407
    12.9563  12.9993  13.2156  13.3619  13.4816  13.6098  13.6508  13.7326
    15.1924  15.2448  15.3459  15.3782  15.6122  15.7172  15.8091  16.3107
    16.6115  16.7447  16.9315  17.2338  17.3445

          k = 0.1667 0.1661-0.5045 ( 61978 PWs)   bands (ev):

   -65.9370 -65.9370 -65.9364 -65.9364 -65.9363 -65.9363 -65.9358 -65.9358
   -30.3677 -30.3677 -30.3630 -30.3630 -30.3102 -30.3102 -30.3042 -30.3042
   -30.2595 -30.2595 -30.2560 -30.2560 -30.2424 -30.2424 -30.2389 -30.2389
   -30.2270 -30.2270 -30.2236 -30.2236 -30.1752 -30.1752 -30.1737 -30.1737
   -20.1008 -20.1008 -20.1007 -20.1007 -20.1003 -20.1003 -20.1002 -20.1002
   -20.0961 -20.0961 -20.0957 -20.0957 -20.0944 -20.0944 -20.0940 -20.0940
   -20.0847 -20.0846 -20.0838 -20.0838 -20.0822 -20.0822 -20.0815 -20.0815
   -20.0688 -20.0688 -20.0688 -20.0688 -20.0682 -20.0682 -20.0682 -20.0682
   -20.0538 -20.0538 -20.0537 -20.0537 -20.0515 -20.0515 -20.0515 -20.0515
   -20.0388 -20.0388 -20.0387 -20.0387 -20.0354 -20.0354 -20.0353 -20.0353
   -20.0284 -20.0284 -20.0283 -20.0283 -20.0280 -20.0280 -20.0279 -20.0279
    -9.5190  -9.5190  -9.0918  -9.0918  -9.0769  -9.0769  -8.5782  -8.5782
    -8.4459  -8.4459  -8.3234  -8.3234  -8.2873  -8.2873  -8.2596  -8.2596
    -7.8979  -7.8979  -7.8370  -7.8369  -7.5582  -7.5582  -7.5133  -7.5133
     1.7134   1.7134   1.7776   1.7776   1.9204   1.9204   1.9722   1.9722
     2.7024   2.7024   3.0093   3.0094   3.0739   3.0739   3.1853   3.1854
     3.2856   3.2857   3.5524   3.5524   3.8162   3.8162   4.1128   4.1128
     4.1467   4.1467   4.2741   4.2741   4.5857   4.5857   4.9542   4.9542
     5.1068   5.1068   5.1965   5.1965   5.2500   5.2500   5.7316   5.7316
     5.8071   5.8071   5.8621   5.8621   6.0748   6.0748   6.1002   6.1002
     6.6635   6.6635   6.7081   6.7081   6.8666   6.8666   6.9680   6.9680
     7.0304   7.0304   7.1708   7.1708   7.2223   7.2223   7.7725   7.7725
     7.7804   7.7805   8.0040   8.0040   8.0551   8.0551   8.2187   8.2187
    10.6816  10.6816  11.6011  11.6011  11.7010  11.7010  11.7784  11.7784
    11.9354  11.9354  12.5697  12.5697  12.9113  12.9113  12.9621  12.9621
    12.9978  12.9978  13.2362  13.2363  13.3122  13.3122  13.5022  13.5022
    15.2370  15.2370  15.6158  15.6158  16.0452  16.0452  16.0666  16.0666
    16.5183  16.5183  17.3906  17.3906  17.8305

          k = 0.1667 0.3322 0.0000 ( 61971 PWs)   bands (ev):

   -65.9372 -65.9368 -65.9366 -65.9365 -65.9363 -65.9361 -65.9360 -65.9356
   -30.3690 -30.3662 -30.3644 -30.3617 -30.3114 -30.3085 -30.3062 -30.3028
   -30.2803 -30.2792 -30.2752 -30.2751 -30.2386 -30.2350 -30.2339 -30.2296
   -30.2072 -30.2045 -30.1932 -30.1929 -30.1907 -30.1903 -30.1844 -30.1822
   -20.1014 -20.1013 -20.1009 -20.1008 -20.0999 -20.0999 -20.0995 -20.0994
   -20.0963 -20.0961 -20.0960 -20.0957 -20.0945 -20.0944 -20.0943 -20.0941
   -20.0847 -20.0843 -20.0842 -20.0838 -20.0824 -20.0820 -20.0818 -20.0814
   -20.0694 -20.0694 -20.0688 -20.0688 -20.0682 -20.0681 -20.0676 -20.0676
   -20.0537 -20.0536 -20.0527 -20.0527 -20.0525 -20.0524 -20.0513 -20.0513
   -20.0385 -20.0384 -20.0376 -20.0376 -20.0364 -20.0364 -20.0356 -20.0356
   -20.0292 -20.0291 -20.0290 -20.0289 -20.0277 -20.0276 -20.0273 -20.0272
    -9.6751  -9.4503  -9.3079  -9.2246  -9.1096  -8.9950  -8.7063  -8.6791
    -8.6690  -8.4445  -8.4280  -8.4154  -8.0424  -7.9255  -7.9193  -7.8940
    -7.8384  -7.8121  -7.7816  -7.7702  -7.6546  -7.6194  -7.6121  -7.5752
     1.5349   1.5396   1.5586   1.5609   1.9008   1.9065   1.9673   1.9984
     2.4133   2.4357   2.5305   2.5386   2.7714   2.7889   2.9743   2.9990
     3.0352   3.0665   3.5703   3.6048   3.8067   3.8614   4.2534   4.4144
     4.4495   4.5523   4.6725   4.8808   4.9522   4.9716   5.0528   5.0782
     5.3318   5.3435   5.4669   5.4879   5.5598   5.6886   5.7408   5.7976
     5.8163   5.8396   5.9066   6.1134   6.1297   6.1475   6.3451   6.3855
     6.4486   6.5457   6.5970   6.7140   6.8936   6.9113   6.9682   6.9846
     7.0314   7.0798   7.1106   7.1131   7.1242   7.1898   7.4130   7.4481
     7.5052   7.5150   8.0838   8.1128   8.2465   8.2524   8.3325   8.3767
    10.1233  10.1300  10.6708  10.7335  11.1530  11.2350  12.0552  12.1223
    12.3860  12.4408  12.4628  12.4843  12.6196  12.7989  13.1063  13.1204
    13.1402  13.3230  13.3425  13.4739  13.6758  13.8930  13.9453  13.9979
    14.5843  14.7978  14.9470  15.2019  15.3448  15.4725  15.7918  15.8715
    15.9625  17.2752  17.3483  17.4606  17.6501

          k = 0.1667 0.3322 0.1682 ( 61993 PWs)   bands (ev):

   -65.9371 -65.9367 -65.9366 -65.9365 -65.9362 -65.9362 -65.9360 -65.9357
   -30.3687 -30.3659 -30.3647 -30.3620 -30.3109 -30.3079 -30.3064 -30.3031
   -30.2752 -30.2747 -30.2709 -30.2705 -30.2395 -30.2359 -30.2330 -30.2287
   -30.2114 -30.2087 -30.1978 -30.1949 -30.1925 -30.1904 -30.1855 -30.1836
   -20.1013 -20.1012 -20.1009 -20.1008 -20.1001 -20.1000 -20.0996 -20.0995
   -20.0962 -20.0960 -20.0959 -20.0957 -20.0945 -20.0944 -20.0942 -20.0941
   -20.0847 -20.0843 -20.0842 -20.0838 -20.0824 -20.0819 -20.0818 -20.0814
   -20.0693 -20.0693 -20.0687 -20.0687 -20.0682 -20.0682 -20.0677 -20.0677
   -20.0536 -20.0536 -20.0528 -20.0528 -20.0524 -20.0524 -20.0514 -20.0514
   -20.0384 -20.0384 -20.0377 -20.0376 -20.0364 -20.0364 -20.0357 -20.0357
   -20.0291 -20.0290 -20.0289 -20.0288 -20.0278 -20.0277 -20.0274 -20.0273
    -9.6291  -9.3982  -9.2509  -9.2336  -9.0339  -9.0062  -8.7125  -8.6576
    -8.6404  -8.4429  -8.4173  -8.4085  -8.0646  -7.9413  -7.9195  -7.8981
    -7.8516  -7.8126  -7.7891  -7.7754  -7.7484  -7.7118  -7.6950  -7.6559
     1.7178   1.7272   1.7768   1.7874   1.9028   1.9182   1.9946   2.0412
     2.4181   2.4405   2.5293   2.5529   2.8464   2.8537   2.9750   3.0159
     3.1090   3.1378   3.6064   3.6375   3.8078   3.8518   4.2417   4.4580
     4.4958   4.5423   4.6196   4.6500   4.7006   4.9570   5.0041   5.0682
     5.0999   5.1151   5.4160   5.4469   5.5570   5.5881   5.6113   5.6349
     5.7337   5.7615   5.8156   5.8580   5.9996   6.0548   6.1127   6.1946
     6.6377   6.7261   6.7872   6.8188   6.8655   6.8834   6.9994   7.0530
     7.0676   7.0839   7.1366   7.1729   7.1999   7.2288   7.4095   7.4671
     7.5051   7.5279   8.0889   8.1045   8.2061   8.2168   8.3007   8.3387
    10.3536  10.3627  10.8426  10.9142  11.1629  11.2302  12.1391  12.1993
    12.4365  12.4580  12.4935  12.5010  12.6490  12.8028  12.9133  12.9549
    13.0977  13.2225  13.2845  13.3560  13.5619  13.7437  13.8166  13.8915
    14.8609  14.9742  15.1779  15.2830  15.5139  15.6840  15.8106  15.9997
    16.0532  17.3186  17.3581  17.4910  17.5884

          k = 0.1667 0.3322 0.3363 ( 61986 PWs)   bands (ev):

   -65.9370 -65.9367 -65.9366 -65.9365 -65.9363 -65.9361 -65.9361 -65.9358
   -30.3678 -30.3655 -30.3651 -30.3628 -30.3097 -30.3073 -30.3065 -30.3039
   -30.2630 -30.2614 -30.2599 -30.2574 -30.2426 -30.2395 -30.2297 -30.2258
   -30.2241 -30.2212 -30.2093 -30.2065 -30.1915 -30.1894 -30.1878 -30.1859
   -20.1011 -20.1010 -20.1007 -20.1006 -20.1004 -20.1003 -20.0999 -20.0998
   -20.0961 -20.0959 -20.0959 -20.0957 -20.0944 -20.0943 -20.0942 -20.0941
   -20.0846 -20.0844 -20.0841 -20.0839 -20.0822 -20.0819 -20.0818 -20.0815
   -20.0691 -20.0691 -20.0685 -20.0685 -20.0685 -20.0685 -20.0679 -20.0679
   -20.0534 -20.0534 -20.0530 -20.0530 -20.0522 -20.0522 -20.0516 -20.0516
   -20.0383 -20.0383 -20.0379 -20.0378 -20.0363 -20.0363 -20.0359 -20.0359
   -20.0288 -20.0287 -20.0286 -20.0285 -20.0280 -20.0279 -20.0277 -20.0276
    -9.5145  -9.2948  -9.2694  -9.0756  -9.0514  -8.8136  -8.7634  -8.5728
    -8.5402  -8.4529  -8.3767  -8.3593  -8.2008  -8.0787  -8.0060  -7.9722
    -7.9180  -7.9008  -7.8688  -7.8368  -7.7971  -7.7884  -7.7684  -7.7561
     1.8659   1.8842   1.8973   1.9154   2.2630   2.3263   2.3866   2.4155
     2.4933   2.5029   2.5846   2.6901   2.9176   2.9863   3.0632   3.1603
     3.2848   3.3229   3.6243   3.6705   3.8032   3.8495   4.1286   4.1361
     4.2332   4.4478   4.4784   4.5407   4.5950   4.6552   4.6869   4.9319
     4.9581   4.9941   5.0748   5.0996   5.2029   5.2735   5.3438   5.3510
     5.5787   5.6298   5.6491   5.7387   5.7867   5.8547   5.9186   5.9388
     6.7200   6.7665   6.8154   6.8438   6.9326   6.9729   7.0576   7.0788
     7.1664   7.2997   7.3202   7.3592   7.4035   7.4813   7.5008   7.5305
     7.5683   7.6091   8.0309   8.0594   8.0992   8.1332   8.1831   8.2163
    10.9158  10.9375  11.1886  11.2196  11.3231  11.4073  12.2946  12.3523
    12.3832  12.4461  12.4853  12.5476  12.6229  12.6611  12.7169  12.7329
    12.8104  12.8543  13.1958  13.2286  13.3481  13.3527  13.5185  13.5575
    15.2567  15.3261  15.3864  15.5852  15.7302  16.1461  16.3553  16.4526
    16.6718  16.9806  17.2235  17.5829  17.6113

          k = 0.1667 0.3322-0.5045 ( 61978 PWs)   bands (ev):

   -65.9368 -65.9368 -65.9365 -65.9364 -65.9363 -65.9363 -65.9359 -65.9359
   -30.3667 -30.3667 -30.3639 -30.3639 -30.3084 -30.3084 -30.3051 -30.3051
   -30.2500 -30.2500 -30.2476 -30.2476 -30.2426 -30.2426 -30.2392 -30.2392
   -30.2220 -30.2219 -30.2188 -30.2187 -30.1899 -30.1899 -30.1879 -30.1879
   -20.1008 -20.1008 -20.1007 -20.1007 -20.1003 -20.1003 -20.1002 -20.1002
   -20.0960 -20.0960 -20.0958 -20.0957 -20.0943 -20.0943 -20.0941 -20.0941
   -20.0845 -20.0845 -20.0840 -20.0840 -20.0821 -20.0821 -20.0817 -20.0817
   -20.0688 -20.0688 -20.0688 -20.0688 -20.0682 -20.0682 -20.0682 -20.0682
   -20.0532 -20.0532 -20.0532 -20.0532 -20.0519 -20.0519 -20.0519 -20.0519
   -20.0381 -20.0381 -20.0381 -20.0381 -20.0361 -20.0361 -20.0361 -20.0361
   -20.0284 -20.0284 -20.0283 -20.0283 -20.0281 -20.0281 -20.0280 -20.0280
    -9.3876  -9.3876  -9.1379  -9.1379  -8.8858  -8.8858  -8.5055  -8.5055
    -8.4820  -8.4820  -8.3397  -8.3397  -8.2488  -8.2488  -8.2146  -8.2146
    -7.9160  -7.9160  -7.8711  -7.8711  -7.7902  -7.7902  -7.7774  -7.7774
     1.8845   1.8845   1.9072   1.9072   2.3881   2.3881   2.4765   2.4765
     2.8891   2.8891   3.0892   3.0892   3.1200   3.1200   3.2175   3.2175
     3.2874   3.2874   3.5911   3.5911   3.7466   3.7466   3.8923   3.8923
     4.2487   4.2487   4.3061   4.3061   4.3350   4.3350   4.5348   4.5348
     4.9048   4.9048   5.1143   5.1144   5.1544   5.1544   5.2843   5.2843
     5.3678   5.3678   5.6826   5.6826   5.7843   5.7843   5.8613   5.8613
     6.7779   6.7779   6.8423   6.8423   6.8818   6.8818   7.0739   7.0739
     7.3289   7.3289   7.4198   7.4198   7.4742   7.4742   7.7588   7.7588
     7.7926   7.7926   7.9338   7.9339   7.9671   7.9671   8.1169   8.1169
    11.1758  11.1758  11.6333  11.6333  11.7103  11.7103  11.9499  11.9499
    12.0932  12.0932  12.5501  12.5501  12.6855  12.6855  12.8188  12.8189
    12.8681  12.8681  12.9656  12.9656  13.1289  13.1289  13.3742  13.3742
    15.3411  15.3411  15.5584  15.5584  16.3677  16.3677  16.8570  16.8570
    16.9976  16.9976  17.0676  17.0676  17.7954

          k = 0.1667-0.4983 0.0000 ( 62006 PWs)   bands (ev):

   -65.9370 -65.9370 -65.9364 -65.9364 -65.9363 -65.9363 -65.9358 -65.9358
   -30.3676 -30.3676 -30.3630 -30.3630 -30.3098 -30.3098 -30.3043 -30.3043
   -30.2795 -30.2795 -30.2749 -30.2748 -30.2201 -30.2201 -30.2173 -30.2173
   -30.2138 -30.2137 -30.2107 -30.2107 -30.1917 -30.1917 -30.1890 -30.1890
   -20.1013 -20.1013 -20.1009 -20.1009 -20.0999 -20.0999 -20.0994 -20.0994
   -20.0962 -20.0961 -20.0959 -20.0958 -20.0944 -20.0944 -20.0943 -20.0942
   -20.0845 -20.0845 -20.0840 -20.0840 -20.0822 -20.0822 -20.0816 -20.0816
   -20.0694 -20.0694 -20.0688 -20.0688 -20.0682 -20.0682 -20.0676 -20.0676
   -20.0530 -20.0530 -20.0530 -20.0530 -20.0520 -20.0520 -20.0520 -20.0520
   -20.0375 -20.0375 -20.0374 -20.0374 -20.0367 -20.0366 -20.0366 -20.0366
   -20.0292 -20.0291 -20.0290 -20.0290 -20.0275 -20.0275 -20.0275 -20.0274
    -9.5491  -9.5491  -9.1889  -9.1889  -9.0862  -9.0862  -8.6802  -8.6802
    -8.3530  -8.3530  -8.2087  -8.2087  -8.1878  -8.1878  -8.1615  -8.1615
    -7.8781  -7.8780  -7.8195  -7.8195  -7.6432  -7.6432  -7.6001  -7.6001
     1.5370   1.5370   1.5605   1.5605   1.9095   1.9095   1.9917   1.9917
     2.7688   2.7688   3.0417   3.0417   3.0999   3.0999   3.1432   3.1432
     3.2952   3.2952   3.4694   3.4694   3.7253   3.7253   3.7634   3.7634
     3.9258   3.9258   4.4382   4.4382   4.9286   4.9286   5.2077   5.2077
     5.2965   5.2965   5.5215   5.5215   5.5808   5.5808   5.6343   5.6343
     5.7341   5.7341   6.0341   6.0341   6.1442   6.1442   6.2039   6.2039
     6.5686   6.5686   6.6509   6.6509   6.8453   6.8453   7.0096   7.0096
     7.0302   7.0302   7.1240   7.1240   7.1763   7.1763   7.8148   7.8148
     7.8195   7.8195   7.9189   7.9189   7.9776   7.9776   8.2545   8.2545
    10.1376  10.1376  11.3828  11.3828  11.4116  11.4116  11.8282  11.8282
    11.8992  11.8992  12.4108  12.4108  12.8650  12.8650  13.0596  13.0596
    13.1320  13.1320  13.5028  13.5028  13.6455  13.6455  13.9196  13.9196
    14.7559  14.7559  15.2046  15.2046  15.4188  15.4188  15.6595  15.6595
    16.7362  16.7362  17.7718  17.7718  18.0256

          k = 0.1667-0.4983 0.1682 ( 61986 PWs)   bands (ev):

   -65.9369 -65.9369 -65.9364 -65.9364 -65.9364 -65.9364 -65.9358 -65.9358
   -30.3673 -30.3673 -30.3633 -30.3633 -30.3092 -30.3092 -30.3046 -30.3046
   -30.2746 -30.2746 -30.2703 -30.2703 -30.2220 -30.2219 -30.2194 -30.2193
   -30.2133 -30.2132 -30.2102 -30.2101 -30.1952 -30.1951 -30.1926 -30.1925
   -20.1013 -20.1013 -20.1008 -20.1008 -20.1000 -20.1000 -20.0996 -20.0995
   -20.0961 -20.0961 -20.0958 -20.0958 -20.0944 -20.0944 -20.0942 -20.0942
   -20.0844 -20.0844 -20.0841 -20.0840 -20.0822 -20.0822 -20.0816 -20.0816
   -20.0693 -20.0693 -20.0687 -20.0687 -20.0682 -20.0682 -20.0677 -20.0677
   -20.0530 -20.0530 -20.0529 -20.0529 -20.0521 -20.0521 -20.0520 -20.0520
   -20.0374 -20.0374 -20.0374 -20.0374 -20.0367 -20.0367 -20.0367 -20.0367
   -20.0290 -20.0290 -20.0289 -20.0289 -20.0276 -20.0276 -20.0275 -20.0275
    -9.4993  -9.4993  -9.1213  -9.1186  -9.0981  -9.0952  -8.6513  -8.6507
    -8.3706  -8.3702  -8.2149  -8.2134  -8.1841  -8.1838  -8.1593  -8.1581
    -7.8770  -7.8764  -7.8259  -7.8237  -7.7370  -7.7353  -7.6989  -7.6949
     1.7217   1.7237   1.7845   1.7859   1.9132   1.9162   2.0297   2.0333
     2.8403   2.8531   3.0335   3.0772   3.0902   3.1255   3.1613   3.1657
     3.3292   3.3409   3.4494   3.4805   3.7364   3.7499   3.7675   3.7749
     3.9285   3.9478   4.4731   4.5084   4.6451   4.6533   5.1725   5.2062
     5.2758   5.2881   5.3117   5.3591   5.3907   5.4230   5.5451   5.5685
[...]
    12.2658  12.2658  12.2658  12.2658  12.3823  12.3823  12.3823  12.3823
    13.2235  13.2235  13.2235  13.2235  13.3456  13.3456  13.3456  13.3456
    15.8466  15.8466  15.8467  15.8467  16.6749  16.6749  16.6749  16.6749
    17.2320  17.2321  17.2321  17.2321  17.3456

          k =-0.5000 0.3322 0.0000 ( 61970 PWs)   bands (ev):

   -65.9369 -65.9369 -65.9365 -65.9365 -65.9362 -65.9362 -65.9359 -65.9359
   -30.3400 -30.3400 -30.3373 -30.3373 -30.3353 -30.3353 -30.3326 -30.3326
   -30.2781 -30.2781 -30.2773 -30.2773 -30.2368 -30.2368 -30.2319 -30.2319
   -30.2058 -30.2058 -30.1919 -30.1919 -30.1916 -30.1916 -30.1832 -30.1832
   -20.1012 -20.1012 -20.1011 -20.1011 -20.0997 -20.0997 -20.0996 -20.0996
   -20.0954 -20.0953 -20.0952 -20.0952 -20.0951 -20.0951 -20.0949 -20.0949
   -20.0836 -20.0836 -20.0832 -20.0832 -20.0830 -20.0830 -20.0826 -20.0826
   -20.0691 -20.0691 -20.0691 -20.0691 -20.0679 -20.0679 -20.0679 -20.0679
   -20.0536 -20.0536 -20.0527 -20.0527 -20.0524 -20.0524 -20.0513 -20.0513
   -20.0385 -20.0384 -20.0376 -20.0376 -20.0364 -20.0364 -20.0356 -20.0356
   -20.0292 -20.0292 -20.0290 -20.0290 -20.0277 -20.0276 -20.0273 -20.0272
    -9.4523  -9.4522  -9.2295  -9.2295  -8.8847  -8.8847  -8.5274  -8.5274
    -8.4749  -8.4749  -8.3769  -8.3769  -8.3077  -8.3077  -8.2641  -8.2641
    -7.8851  -7.8851  -7.8084  -7.8084  -7.6354  -7.6354  -7.5973  -7.5973
     1.5555   1.5555   1.5610   1.5610   2.3938   2.3938   2.4698   2.4698
     3.0042   3.0042   3.0802   3.0802   3.1307   3.1307   3.2481   3.2481
     3.2900   3.2900   3.4953   3.4953   3.5978   3.5978   3.6579   3.6580
     4.1615   4.1615   4.2005   4.2005   4.4349   4.4349   4.6513   4.6513
     5.0767   5.0767   5.2063   5.2063   5.2920   5.2920   5.4321   5.4321
     5.5613   5.5613   6.0263   6.0263   6.1797   6.1797   6.3720   6.3720
     6.6315   6.6315   6.6950   6.6950   6.7620   6.7620   6.9755   6.9755
     7.2218   7.2218   7.2949   7.2949   7.4199   7.4199   7.7167   7.7167
     7.7578   7.7578   7.8776   7.8776   7.8963   7.8963   8.3602   8.3602
    10.6536  10.6537  11.3494  11.3494  11.4265  11.4265  11.9754  11.9754
    12.0572  12.0572  12.1624  12.1624  12.8920  12.8921  12.9664  12.9664
    13.2939  13.2939  13.4417  13.4417  13.5614  13.5614  13.9082  13.9082
    14.8265  14.8265  15.1489  15.1489  16.3368  16.3368  16.6078  16.6078
    16.7045  16.7046  17.0747  17.0747  17.6256

          k =-0.5000 0.3322 0.1682 ( 61958 PWs)   bands (ev):

   -65.9369 -65.9368 -65.9365 -65.9365 -65.9363 -65.9363 -65.9359 -65.9359
   -30.3397 -30.3396 -30.3370 -30.3369 -30.3356 -30.3356 -30.3329 -30.3329
   -30.2732 -30.2731 -30.2729 -30.2729 -30.2377 -30.2377 -30.2310 -30.2310
   -30.2100 -30.2100 -30.1964 -30.1963 -30.1914 -30.1914 -30.1845 -30.1845
   -20.1011 -20.1011 -20.1010 -20.1010 -20.0999 -20.0998 -20.0998 -20.0998
   -20.0953 -20.0953 -20.0952 -20.0952 -20.0950 -20.0950 -20.0949 -20.0949
   -20.0836 -20.0836 -20.0832 -20.0832 -20.0830 -20.0830 -20.0827 -20.0826
   -20.0690 -20.0690 -20.0690 -20.0690 -20.0680 -20.0680 -20.0680 -20.0679
   -20.0536 -20.0535 -20.0528 -20.0528 -20.0524 -20.0524 -20.0514 -20.0513
   -20.0384 -20.0384 -20.0377 -20.0377 -20.0364 -20.0364 -20.0357 -20.0357
   -20.0290 -20.0290 -20.0289 -20.0288 -20.0277 -20.0277 -20.0274 -20.0274
    -9.3946  -9.3946  -9.1591  -9.1591  -8.9018  -8.9018  -8.5283  -8.5283
    -8.4671  -8.4671  -8.3668  -8.3668  -8.3051  -8.3051  -8.2662  -8.2662
    -7.9046  -7.9046  -7.8115  -7.8115  -7.7344  -7.7344  -7.6766  -7.6766
     1.7779   1.7780   1.7912   1.7912   2.4012   2.4012   2.4693   2.4693
     3.0402   3.0402   3.0890   3.0891   3.1335   3.1335   3.2611   3.2612
     3.2933   3.2933   3.5593   3.5593   3.6620   3.6620   3.7182   3.7182
     4.1589   4.1589   4.2047   4.2047   4.4229   4.4229   4.6528   4.6528
     5.0172   5.0172   5.0491   5.0491   5.1463   5.1463   5.2444   5.2444
     5.3267   5.3267   5.7449   5.7449   5.8522   5.8523   6.1158   6.1159
     6.8237   6.8237   6.9298   6.9298   6.9830   6.9830   7.1092   7.1092
     7.2289   7.2289   7.3178   7.3178   7.4343   7.4343   7.7094   7.7094
     7.7510   7.7510   7.8820   7.8820   7.8937   7.8937   8.3226   8.3226
    10.8262  10.8262  11.4511  11.4511  11.5307  11.5307  11.9854  11.9854
    12.0673  12.0673  12.2342  12.2342  12.8651  12.8651  12.9661  12.9661
    13.1505  13.1505  13.2795  13.2795  13.3994  13.3994  13.7681  13.7681
    15.1558  15.1559  15.4945  15.4945  16.4185  16.4185  16.6262  16.6262
    16.7131  16.7131  17.1160  17.1160  17.5892

          k =-0.5000 0.3322 0.3363 ( 61976 PWs)   bands (ev):

   -65.9367 -65.9367 -65.9364 -65.9364 -65.9364 -65.9363 -65.9360 -65.9360
   -30.3387 -30.3387 -30.3365 -30.3365 -30.3359 -30.3359 -30.3337 -30.3337
   -30.2614 -30.2614 -30.2595 -30.2595 -30.2410 -30.2410 -30.2279 -30.2279
   -30.2226 -30.2226 -30.2080 -30.2079 -30.1904 -30.1904 -30.1868 -30.1868
   -20.1009 -20.1009 -20.1009 -20.1008 -20.1002 -20.1001 -20.1001 -20.1001
   -20.0953 -20.0953 -20.0953 -20.0952 -20.0949 -20.0948 -20.0948 -20.0948
   -20.0835 -20.0835 -20.0832 -20.0832 -20.0830 -20.0830 -20.0828 -20.0827
   -20.0688 -20.0688 -20.0688 -20.0688 -20.0682 -20.0682 -20.0682 -20.0682
   -20.0534 -20.0534 -20.0530 -20.0529 -20.0522 -20.0522 -20.0516 -20.0516
   -20.0383 -20.0383 -20.0379 -20.0378 -20.0363 -20.0363 -20.0359 -20.0359
   -20.0287 -20.0287 -20.0285 -20.0285 -20.0280 -20.0280 -20.0277 -20.0276
    -9.2467  -9.2467  -8.9772  -8.9772  -8.9519  -8.9519  -8.5795  -8.5795
    -8.3981  -8.3981  -8.3312  -8.3312  -8.2986  -8.2986  -8.2701  -8.2701
    -8.0361  -8.0361  -7.9727  -7.9727  -7.8150  -7.8150  -7.7798  -7.7798
     2.2612   2.2612   2.3859   2.3859   2.4173   2.4173   2.5736   2.5736
     3.0559   3.0559   3.0883   3.0883   3.1999   3.1999   3.2789   3.2789
     3.3531   3.3531   3.6272   3.6272   3.8497   3.8497   3.9075   3.9075
     4.1356   4.1356   4.2313   4.2313   4.3761   4.3761   4.5136   4.5136
     4.6456   4.6456   4.7009   4.7009   4.8721   4.8721   5.0586   5.0586
     5.0857   5.0857   5.1471   5.1471   5.3192   5.3192   5.6516   5.6516
     7.0907   7.0907   7.1817   7.1817   7.2077   7.2077   7.2541   7.2542
     7.3684   7.3684   7.4417   7.4417   7.5531   7.5531   7.6769   7.6769
     7.7266   7.7266   7.8846   7.8846   7.8971   7.8971   8.1991   8.1991
    11.2934  11.2934  11.7400  11.7400  11.8450  11.8450  11.9987  11.9987
    12.0913  12.0913  12.4688  12.4688  12.5575  12.5575  12.8376  12.8376
    12.9219  12.9219  13.0005  13.0005  13.0183  13.0183  13.3857  13.3857
    15.9549  15.9549  16.3332  16.3332  16.6275  16.6276  16.6648  16.6648
    16.7923  16.7923  17.2142  17.2142  17.4569

          k =-0.5000 0.3322-0.5045 ( 61956 PWs)   bands (ev):

   -65.9366 -65.9366 -65.9366 -65.9365 -65.9362 -65.9362 -65.9362 -65.9362
   -30.3376 -30.3376 -30.3376 -30.3376 -30.3348 -30.3348 -30.3348 -30.3348
   -30.2487 -30.2487 -30.2487 -30.2487 -30.2409 -30.2409 -30.2409 -30.2409
   -30.2205 -30.2205 -30.2205 -30.2205 -30.1888 -30.1888 -30.1888 -30.1888
   -20.1007 -20.1007 -20.1007 -20.1007 -20.1004 -20.1003 -20.1003 -20.1003
   -20.0953 -20.0953 -20.0953 -20.0953 -20.0948 -20.0948 -20.0948 -20.0948
   -20.0833 -20.0833 -20.0833 -20.0833 -20.0829 -20.0829 -20.0829 -20.0829
   -20.0685 -20.0685 -20.0685 -20.0685 -20.0685 -20.0685 -20.0685 -20.0684
   -20.0532 -20.0532 -20.0532 -20.0532 -20.0519 -20.0519 -20.0519 -20.0519
   -20.0381 -20.0381 -20.0381 -20.0381 -20.0361 -20.0361 -20.0361 -20.0361
   -20.0283 -20.0283 -20.0283 -20.0283 -20.0281 -20.0281 -20.0281 -20.0281
    -9.0796  -9.0796  -9.0796  -9.0796  -8.7329  -8.7329  -8.7329  -8.7329
    -8.2939  -8.2939  -8.2939  -8.2939  -8.2467  -8.2467  -8.2467  -8.2467
    -8.2019  -8.2019  -8.2019  -8.2019  -7.8077  -7.8077  -7.8076  -7.8076
     2.3883   2.3883   2.3883   2.3883   2.9591   2.9591   2.9591   2.9591
     3.0798   3.0799   3.0799   3.0799   3.2363   3.2363   3.2363   3.2363
     3.4225   3.4225   3.4225   3.4225   4.0553   4.0553   4.0553   4.0553
     4.1780   4.1780   4.1780   4.1780   4.3180   4.3180   4.3180   4.3180
     4.4609   4.4609   4.4609   4.4609   4.6359   4.6359   4.6359   4.6359
     4.9742   4.9742   4.9742   4.9742   5.3739   5.3739   5.3739   5.3739
     7.1859   7.1859   7.1859   7.1859   7.2955   7.2955   7.2955   7.2955
     7.4941   7.4941   7.4941   7.4941   7.6519   7.6519   7.6519   7.6519
     7.8477   7.8477   7.8477   7.8477   7.9845   7.9845   7.9845   7.9845
    11.8820  11.8821  11.8821  11.8821  12.0204  12.0204  12.0204  12.0204
    12.2906  12.2906  12.2906  12.2906  12.4031  12.4031  12.4031  12.4031
    12.8749  12.8749  12.8749  12.8749  13.0146  13.0146  13.0146  13.0146
    16.5316  16.5316  16.5316  16.5316  16.8759  16.8759  16.8759  16.8759
    17.2795  17.2795  17.2795  17.2795  17.3557

          k =-0.5000-0.4983 0.0000 ( 61924 PWs)   bands (ev):

   -65.9367 -65.9367 -65.9367 -65.9367 -65.9361 -65.9361 -65.9360 -65.9360
   -30.3388 -30.3388 -30.3383 -30.3383 -30.3342 -30.3342 -30.3336 -30.3336
   -30.2775 -30.2775 -30.2774 -30.2774 -30.2191 -30.2191 -30.2182 -30.2182
   -30.2129 -30.2129 -30.2115 -30.2115 -30.1905 -30.1905 -30.1901 -30.1901
   -20.1011 -20.1011 -20.1011 -20.1011 -20.0997 -20.0997 -20.0997 -20.0997
   -20.0953 -20.0953 -20.0952 -20.0952 -20.0951 -20.0951 -20.0950 -20.0950
   -20.0834 -20.0834 -20.0834 -20.0834 -20.0829 -20.0829 -20.0828 -20.0828
   -20.0691 -20.0691 -20.0691 -20.0691 -20.0679 -20.0679 -20.0679 -20.0679
   -20.0530 -20.0530 -20.0530 -20.0530 -20.0520 -20.0520 -20.0519 -20.0519
   -20.0375 -20.0375 -20.0374 -20.0374 -20.0367 -20.0366 -20.0366 -20.0366
   -20.0291 -20.0291 -20.0291 -20.0291 -20.0275 -20.0275 -20.0275 -20.0275
    -9.3335  -9.3335  -9.3121  -9.3121  -8.6870  -8.6870  -8.6003  -8.6003
    -8.4447  -8.4447  -8.3838  -8.3838  -8.1971  -8.1971  -8.1566  -8.1566
    -8.0960  -8.0960  -8.0683  -8.0683  -7.6235  -7.6235  -7.6223  -7.6223
     1.5568   1.5568   1.5607   1.5607   2.9801   2.9801   3.0042   3.0042
     3.0307   3.0307   3.1007   3.1007   3.2139   3.2139   3.3774   3.3774
     3.3980   3.3980   3.4809   3.4809   3.5217   3.5217   3.6464   3.6464
     3.6778   3.6778   3.9643   3.9643   4.4679   4.4679   4.5761   4.5761
     4.6039   4.6039   4.6514   4.6514   5.3706   5.3706   5.4144   5.4144
     5.6606   5.6606   5.8846   5.8846   6.2029   6.2029   6.2389   6.2389
     6.6900   6.6900   6.7406   6.7406   6.8151   6.8151   6.8494   6.8494
     7.4046   7.4046   7.4345   7.4345   7.6603   7.6603   7.6732   7.6732
     7.8441   7.8441   7.8609   7.8609   7.9641   7.9641   8.0100   8.0100
    11.2013  11.2013  11.2953  11.2953  11.4785  11.4785  11.6094  11.6094
    12.2839  12.2839  12.4562  12.4562  12.5152  12.5152  12.5940  12.5940
    13.3198  13.3198  13.4417  13.4417  13.6441  13.6441  13.7131  13.7131
    15.0200  15.0200  15.0544  15.0544  16.4984  16.4984  16.7781  16.7781
    17.2105  17.2105  17.2675  17.2675  17.4393

          k =-0.5000-0.4983 0.1682 ( 62032 PWs)   bands (ev):

   -65.9367 -65.9367 -65.9367 -65.9366 -65.9361 -65.9361 -65.9361 -65.9361
   -30.3385 -30.3385 -30.3379 -30.3379 -30.3344 -30.3344 -30.3339 -30.3339
   -30.2727 -30.2727 -30.2726 -30.2726 -30.2210 -30.2209 -30.2202 -30.2202
   -30.2123 -30.2123 -30.2110 -30.2110 -30.1941 -30.1941 -30.1936 -30.1936
   -20.1011 -20.1011 -20.1011 -20.1011 -20.0998 -20.0998 -20.0998 -20.0998
   -20.0953 -20.0953 -20.0952 -20.0952 -20.0950 -20.0950 -20.0949 -20.0949
   -20.0834 -20.0834 -20.0833 -20.0833 -20.0829 -20.0829 -20.0829 -20.0829
   -20.0690 -20.0690 -20.0690 -20.0690 -20.0680 -20.0680 -20.0680 -20.0679
   -20.0530 -20.0529 -20.0529 -20.0529 -20.0521 -20.0520 -20.0520 -20.0520
   -20.0374 -20.0374 -20.0374 -20.0374 -20.0367 -20.0367 -20.0367 -20.0367
   -20.0290 -20.0290 -20.0290 -20.0290 -20.0276 -20.0276 -20.0276 -20.0276
    -9.2690  -9.2690  -9.2451  -9.2451  -8.7040  -8.7040  -8.6201  -8.6201
    -8.4286  -8.4286  -8.3713  -8.3713  -8.1969  -8.1968  -8.1577  -8.1577
    -8.0965  -8.0965  -8.0704  -8.0704  -7.7198  -7.7198  -7.7182  -7.7182
     1.7850   1.7850   1.7896   1.7896   2.9771   2.9771   3.0170   3.0170
     3.0411   3.0411   3.1047   3.1047   3.2284   3.2284   3.3573   3.3573
     3.4348   3.4348   3.5506   3.5506   3.5637   3.5637   3.6542   3.6542
     3.7341   3.7341   4.0010   4.0010   4.4712   4.4712   4.5686   4.5686
     4.6119   4.6119   4.6383   4.6383   5.1158   5.1158   5.1808   5.1808
     5.3840   5.3840   5.5934   5.5934   5.8863   5.8863   5.9104   5.9104
     6.8875   6.8875   6.9141   6.9141   7.0380   7.0380   7.1248   7.1248
     7.4040   7.4040   7.4497   7.4497   7.6599   7.6599   7.6638   7.6638
     7.8443   7.8443   7.8652   7.8653   7.9479   7.9479   7.9963   7.9963
    11.3076  11.3076  11.4073  11.4073  11.5777  11.5777  11.7177  11.7177
    12.2987  12.2987  12.4525  12.4525  12.5224  12.5224  12.5895  12.5895
    13.1608  13.1608  13.2742  13.2742  13.4805  13.4805  13.5634  13.5634
    15.3744  15.3744  15.3882  15.3882  16.5608  16.5608  16.8320  16.8320
    17.2065  17.2065  17.2730  17.2730  17.4583

          k =-0.5000-0.4983 0.3363 ( 61976 PWs)   bands (ev):

   -65.9366 -65.9365 -65.9365 -65.9365 -65.9362 -65.9362 -65.9362 -65.9362
   -30.3376 -30.3376 -30.3370 -30.3370 -30.3352 -30.3352 -30.3347 -30.3347
   -30.2597 -30.2597 -30.2596 -30.2596 -30.2282 -30.2282 -30.2278 -30.2278
   -30.2107 -30.2107 -30.2094 -30.2094 -30.2017 -30.2017 -30.2009 -30.2009
   -20.1009 -20.1009 -20.1009 -20.1009 -20.1001 -20.1001 -20.1001 -20.1001
   -20.0953 -20.0953 -20.0952 -20.0952 -20.0949 -20.0949 -20.0948 -20.0948
   -20.0833 -20.0833 -20.0832 -20.0832 -20.0830 -20.0830 -20.0829 -20.0829
   -20.0688 -20.0688 -20.0688 -20.0688 -20.0682 -20.0682 -20.0682 -20.0682
   -20.0528 -20.0528 -20.0527 -20.0527 -20.0523 -20.0522 -20.0522 -20.0522
   -20.0373 -20.0373 -20.0373 -20.0373 -20.0369 -20.0369 -20.0369 -20.0369
   -20.0287 -20.0287 -20.0286 -20.0286 -20.0278 -20.0278 -20.0278 -20.0278
    -9.0994  -9.0994  -9.0660  -9.0660  -8.7657  -8.7657  -8.6917  -8.6917
    -8.3717  -8.3717  -8.3284  -8.3284  -8.2032  -8.2032  -8.1558  -8.1558
    -8.1159  -8.1159  -8.0705  -8.0705  -7.9367  -7.9367  -7.9332  -7.9332
     2.3678   2.3678   2.3806   2.3806   2.9624   2.9624   3.0226   3.0226
     3.0820   3.0820   3.1267   3.1267   3.2714   3.2714   3.3465   3.3465
     3.4823   3.4823   3.5922   3.5922   3.6742   3.6742   3.6911   3.6911
     3.9372   3.9372   4.1382   4.1382   4.4752   4.4752   4.5386   4.5386
     4.5778   4.5778   4.6259   4.6259   4.7058   4.7058   4.7610   4.7610
     4.8990   4.8990   5.0986   5.0986   5.1876   5.1876   5.2287   5.2287
     7.2065   7.2065   7.2180   7.2180   7.2987   7.2987   7.3842   7.3842
     7.4849   7.4849   7.5298   7.5298   7.6204   7.6204   7.6820   7.6820
     7.8388   7.8388   7.8698   7.8698   7.8973   7.8973   7.9536   7.9536
    11.6149  11.6149  11.7268  11.7268  11.8871  11.8871  12.0391  12.0391
    12.2986  12.2986  12.4370  12.4371  12.5191  12.5191  12.5754  12.5754
    12.7846  12.7846  12.8632  12.8632  13.0371  13.0371  13.1402  13.1402
    16.1967  16.1967  16.2782  16.2782  16.7276  16.7276  16.9509  16.9509
    17.2000  17.2000  17.2535  17.2535  17.5277

          k =-0.5000-0.4983-0.5045 ( 61944 PWs)   bands (ev):

   -65.9364 -65.9364 -65.9364 -65.9364 -65.9364 -65.9364 -65.9364 -65.9364
   -30.3364 -30.3364 -30.3364 -30.3364 -30.3358 -30.3358 -30.3358 -30.3358
   -30.2428 -30.2428 -30.2428 -30.2428 -30.2424 -30.2424 -30.2424 -30.2424
   -30.2076 -30.2075 -30.2075 -30.2075 -30.2064 -30.2064 -30.2064 -30.2064
   -20.1007 -20.1007 -20.1007 -20.1007 -20.1004 -20.1003 -20.1003 -20.1003
   -20.0952 -20.0952 -20.0952 -20.0952 -20.0948 -20.0948 -20.0948 -20.0948
   -20.0832 -20.0832 -20.0832 -20.0831 -20.0831 -20.0830 -20.0830 -20.0830
   -20.0685 -20.0685 -20.0685 -20.0685 -20.0685 -20.0685 -20.0685 -20.0684
   -20.0525 -20.0525 -20.0525 -20.0525 -20.0525 -20.0525 -20.0525 -20.0525
   -20.0372 -20.0372 -20.0372 -20.0371 -20.0371 -20.0371 -20.0371 -20.0371
   -20.0282 -20.0282 -20.0282 -20.0282 -20.0282 -20.0282 -20.0282 -20.0282
    -8.9027  -8.9027  -8.9027  -8.9027  -8.8461  -8.8461  -8.8461  -8.8461
    -8.2617  -8.2617  -8.2617  -8.2617  -8.2349  -8.2349  -8.2349  -8.2349
    -8.1119  -8.1119  -8.1119  -8.1119  -8.0461  -8.0461  -8.0461  -8.0461
     2.8525   2.8525   2.8525   2.8525   2.9433   2.9433   2.9433   2.9433
     3.2026   3.2026   3.2026   3.2026   3.3466   3.3466   3.3466   3.3466
     3.4735   3.4735   3.4735   3.4735   3.6225   3.6225   3.6225   3.6225
     4.2963   4.2963   4.2963   4.2963   4.4239   4.4239   4.4239   4.4239
     4.5081   4.5081   4.5081   4.5081   4.5669   4.5669   4.5669   4.5669
     4.7259   4.7259   4.7259   4.7259   4.8349   4.8350   4.8350   4.8350
     7.3459   7.3459   7.3459   7.3459   7.3932   7.3932   7.3932   7.3932
     7.5596   7.5596   7.5597   7.5597   7.7236   7.7236   7.7236   7.7236
     7.8050   7.8050   7.8050   7.8050   7.9015   7.9015   7.9015   7.9015
    12.0363  12.0363  12.0363  12.0363  12.1698  12.1698  12.1698  12.1698
    12.3826  12.3826  12.3826  12.3826  12.5005  12.5005  12.5005  12.5005
    12.6102  12.6102  12.6102  12.6102  12.6540  12.6540  12.6540  12.6540
    16.8010  16.8010  16.8010  16.8010  17.0756  17.0756  17.0756  17.0756
    17.3347  17.3348  17.3349  17.3349  17.4025

     the Fermi energy is    10.1391 ev

!    total energy              =   -6260.48860910 Ry
     Harris-Foulkes estimate   =   -6260.48860910 Ry
     estimated scf accuracy    <          1.4E-09 Ry

     The total energy is the sum of the following terms:

     one-electron contribution =   -4695.85603342 Ry
     hartree contribution      =    2588.00969198 Ry
     xc contribution           =    -966.34227428 Ry
     ewald contribution        =   -3186.29996669 Ry
     smearing contrib. (-TS)   =      -0.00002669 Ry

     convergence has been achieved in  13 iterations

     Writing output data file chempot_6.save/
 
     init_run     :     21.33s CPU     22.79s WALL (       1 calls)
     electrons    :   1275.47s CPU   1297.33s WALL (       1 calls)

     Called by init_run:
     wfcinit      :     19.03s CPU     20.35s WALL (       1 calls)
     potinit      :      0.93s CPU      0.98s WALL (       1 calls)
     hinit0       :      1.17s CPU      1.22s WALL (       1 calls)

     Called by electrons:
     c_bands      :   1103.94s CPU   1123.57s WALL (      13 calls)
     sum_band     :    164.00s CPU    165.54s WALL (      13 calls)
     v_of_rho     :      0.99s CPU      1.05s WALL (      14 calls)
     mix_rho      :      1.67s CPU      2.15s WALL (      13 calls)

     Called by c_bands:
     init_us_2    :      5.43s CPU      6.58s WALL (      54 calls)
     cegterg      :    612.82s CPU    629.68s WALL (      26 calls)

     Called by sum_band:

     Called by *egterg:
     h_psi        :    486.45s CPU    494.77s WALL (     112 calls)
     g_psi        :      1.25s CPU      1.25s WALL (      84 calls)
     cdiaghg      :      9.41s CPU      9.49s WALL (     110 calls)

     Called by h_psi:
     h_psi:pot    :    484.22s CPU    486.99s WALL (     112 calls)
     h_psi:calbec :     48.24s CPU     49.29s WALL (     112 calls)
     vloc_psi     :    379.74s CPU    381.10s WALL (     112 calls)
     add_vuspsi   :     56.25s CPU     56.60s WALL (     112 calls)

     General routines
     calbec       :     48.24s CPU     49.29s WALL (     112 calls)
     fft          :      0.47s CPU      0.47s WALL (      42 calls)
     ffts         :      0.16s CPU      0.16s WALL (      13 calls)
     fftw         :    389.37s CPU    390.56s WALL (   33904 calls)
 
     Parallel routines
 
     PWSCF        :  21m50.21s CPU  22m15.85s WALL

 
   This run was terminated on:  18:34:16  16Dec2019            

=------------------------------------------------------------------------------=
   JOB DONE.
=------------------------------------------------------------------------------=
