
     Program PWSCF v.6.2 (svn rev. 14038) starts on  4Mar2020 at 20: 0: 1 

     This program is part of the open-source Quantum ESPRESSO suite
     for quantum simulation of materials; please cite
         "P. Giannozzi et al., J. Phys.:Condens. Matter 21 395502 (2009);
         "P. Giannozzi et al., J. Phys.:Condens. Matter 29 465901 (2017);
          URL http://www.quantum-espresso.org", 
     in publications or presentations arising from this work. More details at
     http://www.quantum-espresso.org/quote

     Parallel version (MPI), running on    64 processors

     MPI processes distributed on     9 nodes
     K-points division:     npool     =      64
     Reading input from rscf.in

     Current dimensions of program PWSCF are:
     Max number of different atomic species (ntypx) = 10
     Max number of k-points (npk) =  40000
     Max angular momentum in pseudopotentials (lmaxx) =  3

     Subspace diagonalization in iterative solution of the eigenvalue problem:
     a serial algorithm will be used

 
     G-vector sticks info
     --------------------
     sticks:   dense  smooth     PW     G-vecs:    dense   smooth      PW
     Sum        7747    7747   2077               498127   498127   69057
 


     bravais-lattice index     =            0
     lattice parameter (alat)  =      13.8397  a.u.
     unit-cell volume          =    2804.9816 (a.u.)^3
     number of atoms/cell      =           32
     number of atomic types    =            2
     number of electrons       =       368.00
     number of Kohn-Sham states=          221
     kinetic-energy cutoff     =     120.0000  Ry
     charge density cutoff     =     480.0000  Ry
     convergence threshold     =      1.0E-08
     mixing beta               =       0.7000
     number of iterations used =            8  plain     mixing
     Exchange-correlation      = SLA PW NOGX NOGC ( 1  4  0  0 0 0)
     nstep                     =           50


     celldm(1)=  13.839685  celldm(2)=   0.000000  celldm(3)=   0.000000
     celldm(4)=   0.000000  celldm(5)=   0.000000  celldm(6)=   0.000000

     crystal axes: (cart. coord. in units of alat)
               a(1) = (   1.000000   0.000000   0.000000 )  
               a(2) = (   0.000000   1.058160   0.000000 )  
               a(3) = (   0.000000   0.000000   1.000000 )  

     reciprocal axes: (cart. coord. in units 2 pi/alat)
               b(1) = (  1.000000  0.000000  0.000000 )  
               b(2) = (  0.000000  0.945037  0.000000 )  
               b(3) = (  0.000000  0.000000  1.000000 )  


     PseudoPot. # 1 for W  read from file:
     /cluster/scratch/mnoe/QE/pps/W_ONCV_LDA-4.0.upf
     MD5 check sum: ba0307d5d4cd419d6f1d13dc49d7c13a
     Pseudo is Norm-conserving + core correction, Zval = 28.0
     Generated using ONCVPSP code by D. R. Hamann
     Using radial grid of 1380 points,  8 beta functions with: 
                l(1) =   0
                l(2) =   0
                l(3) =   1
                l(4) =   1
                l(5) =   2
                l(6) =   2
                l(7) =   3
                l(8) =   3

     PseudoPot. # 2 for O  read from file:
     /cluster/scratch/mnoe/QE/pps/O_ONCV_LDA-3.0.upf
     MD5 check sum: a1bd6164e7280c17a38c229939bfbd54
     Pseudo is Norm-conserving + core correction, Zval =  6.0
     Generated using ONCVPSP code by D. R. Hamann
     Using radial grid of  926 points,  5 beta functions with: 
                l(1) =   0
                l(2) =   0
                l(3) =   1
                l(4) =   1
                l(5) =   2

     atomic species   valence    mass     pseudopotential
        W             28.00   183.84000     W ( 1.00)
        O              6.00    15.99940     O ( 1.00)

      8 Sym. Ops., with inversion, found ( 6 have fractional translation)



   Cartesian axes

     site n.     atom                  positions (alat units)
         1           W   tau(   1) = (   0.2384400   0.2956230   0.0109200  )
         2           W   tau(   2) = (   0.7615600   0.7625371   0.9890800  )
         3           W   tau(   3) = (   0.2615600   0.2334571   0.5109200  )
         4           W   tau(   4) = (   0.7384400   0.8247030   0.4890800  )
         5           W   tau(   5) = (   0.7615600   0.2956230   0.4890800  )
         6           W   tau(   6) = (   0.2384400   0.7625371   0.5109200  )
         7           W   tau(   7) = (   0.7384400   0.2334571   0.9890800  )
         8           W   tau(   8) = (   0.2615600   0.8247030   0.0109200  )
         9           O   tau(   9) = (   0.2286700   0.0080874   0.0034000  )
        10           O   tau(  10) = (   0.7713300   1.0500727   0.9966000  )
        11           O   tau(  11) = (   0.2713300   0.5209926   0.5034000  )
        12           O   tau(  12) = (   0.7286700   0.5371674   0.4966000  )
        13           O   tau(  13) = (   0.7713300   0.0080874   0.4966000  )
        14           O   tau(  14) = (   0.2286700   1.0500727   0.5034000  )
        15           O   tau(  15) = (   0.7286700   0.5209926   0.9966000  )
        16           O   tau(  16) = (   0.2713300   0.5371674   0.0034000  )
        17           O   tau(  17) = (   0.5031600   0.2413875   0.4556174  )
        18           O   tau(  18) = (   0.4968400   0.8167727   0.5443825  )
        19           O   tau(  19) = (   0.9968400   0.2876926   0.9556175  )
        20           O   tau(  20) = (   0.0031600   0.7704675   0.0443825  )
        21           O   tau(  21) = (   0.4968400   0.2413875   0.0443825  )
        22           O   tau(  22) = (   0.5031600   0.8167727   0.9556175  )
        23           O   tau(  23) = (   0.0031600   0.2876926   0.5443825  )
        24           O   tau(  24) = (   0.9968400   0.7704675   0.4556174  )
        25           O   tau(  25) = (   0.7056175   0.2594820   0.7452100  )
        26           O   tau(  26) = (   0.2943825   0.7986781   0.2547900  )
        27           O   tau(  27) = (   0.7943826   0.2695980   0.2452099  )
        28           O   tau(  28) = (   0.2056175   0.7885621   0.7547900  )
        29           O   tau(  29) = (   0.2943825   0.2594820   0.7547900  )
        30           O   tau(  30) = (   0.7056175   0.7986781   0.2452099  )
        31           O   tau(  31) = (   0.2056175   0.2695980   0.2547900  )
        32           O   tau(  32) = (   0.7943826   0.7885621   0.7452100  )

     number of k points=    64  gaussian smearing, width (Ry)=  0.0007
                       cart. coord. in units 2pi/alat
        k(    1) = (   0.0000000   0.0000000   0.0000000), wk =   0.0092593
        k(    2) = (   0.0000000   0.0000000   0.1666667), wk =   0.0185185
        k(    3) = (   0.0000000   0.0000000   0.3333333), wk =   0.0185185
        k(    4) = (   0.0000000   0.0000000  -0.5000000), wk =   0.0092593
        k(    5) = (   0.0000000   0.1575061   0.0000000), wk =   0.0185185
        k(    6) = (   0.0000000   0.1575061   0.1666667), wk =   0.0370370
        k(    7) = (   0.0000000   0.1575061   0.3333333), wk =   0.0370370
        k(    8) = (   0.0000000   0.1575061  -0.5000000), wk =   0.0185185
        k(    9) = (   0.0000000   0.3150122   0.0000000), wk =   0.0185185
        k(   10) = (   0.0000000   0.3150122   0.1666667), wk =   0.0370370
        k(   11) = (   0.0000000   0.3150122   0.3333333), wk =   0.0370370
        k(   12) = (   0.0000000   0.3150122  -0.5000000), wk =   0.0185185
        k(   13) = (   0.0000000  -0.4725183   0.0000000), wk =   0.0092593
        k(   14) = (   0.0000000  -0.4725183   0.1666667), wk =   0.0185185
        k(   15) = (   0.0000000  -0.4725183   0.3333333), wk =   0.0185185
        k(   16) = (   0.0000000  -0.4725183  -0.5000000), wk =   0.0092593
        k(   17) = (   0.1666667   0.0000000   0.1666667), wk =   0.0370370
        k(   18) = (   0.1666667   0.0000000   0.3333333), wk =   0.0370370
        k(   19) = (   0.1666667   0.0000000  -0.5000000), wk =   0.0185185
        k(   20) = (   0.1666667   0.1575061   0.1666667), wk =   0.0740741
        k(   21) = (   0.1666667   0.1575061   0.3333333), wk =   0.0740741
        k(   22) = (   0.1666667   0.1575061  -0.5000000), wk =   0.0370370
        k(   23) = (   0.1666667   0.3150122   0.1666667), wk =   0.0740741
        k(   24) = (   0.1666667   0.3150122   0.3333333), wk =   0.0740741
        k(   25) = (   0.1666667   0.3150122  -0.5000000), wk =   0.0370370
        k(   26) = (   0.1666667  -0.4725183   0.1666667), wk =   0.0370370
        k(   27) = (   0.1666667  -0.4725183   0.3333333), wk =   0.0370370
        k(   28) = (   0.1666667  -0.4725183  -0.5000000), wk =   0.0185185
        k(   29) = (   0.3333333   0.0000000   0.3333333), wk =   0.0370370
        k(   30) = (   0.3333333   0.0000000  -0.5000000), wk =   0.0185185
        k(   31) = (   0.3333333   0.1575061   0.3333333), wk =   0.0740741
        k(   32) = (   0.3333333   0.1575061  -0.5000000), wk =   0.0370370
        k(   33) = (   0.3333333   0.3150122   0.3333333), wk =   0.0740741
        k(   34) = (   0.3333333   0.3150122  -0.5000000), wk =   0.0370370
        k(   35) = (   0.3333333  -0.4725183   0.3333333), wk =   0.0370370
        k(   36) = (   0.3333333  -0.4725183  -0.5000000), wk =   0.0185185
        k(   37) = (  -0.5000000   0.0000000  -0.5000000), wk =   0.0092593
        k(   38) = (  -0.5000000   0.1575061  -0.5000000), wk =   0.0185185
        k(   39) = (  -0.5000000   0.3150122  -0.5000000), wk =   0.0185185
        k(   40) = (  -0.5000000  -0.4725183  -0.5000000), wk =   0.0092593
        k(   41) = (   0.1666667   0.0000000   0.0000000), wk =   0.0185185
        k(   42) = (   0.3333333   0.0000000   0.0000000), wk =   0.0185185
        k(   43) = (  -0.5000000   0.0000000   0.0000000), wk =   0.0092593
        k(   44) = (   0.1666667  -0.1575061   0.0000000), wk =   0.0370370
        k(   45) = (   0.3333333  -0.1575061   0.0000000), wk =   0.0370370
        k(   46) = (  -0.5000000  -0.1575061   0.0000000), wk =   0.0185185
        k(   47) = (   0.1666667  -0.3150122   0.0000000), wk =   0.0370370
        k(   48) = (   0.3333333  -0.3150122   0.0000000), wk =   0.0370370
        k(   49) = (  -0.5000000  -0.3150122   0.0000000), wk =   0.0185185
        k(   50) = (   0.1666667   0.4725183   0.0000000), wk =   0.0185185
        k(   51) = (   0.3333333   0.4725183   0.0000000), wk =   0.0185185
        k(   52) = (  -0.5000000   0.4725183   0.0000000), wk =   0.0092593
        k(   53) = (   0.3333333   0.0000000   0.1666667), wk =   0.0370370
        k(   54) = (  -0.5000000   0.0000000   0.1666667), wk =   0.0185185
        k(   55) = (   0.3333333  -0.1575061   0.1666667), wk =   0.0740741
        k(   56) = (  -0.5000000  -0.1575061   0.1666667), wk =   0.0370370
        k(   57) = (   0.3333333  -0.3150122   0.1666667), wk =   0.0740741
        k(   58) = (  -0.5000000  -0.3150122   0.1666667), wk =   0.0370370
        k(   59) = (   0.3333333   0.4725183   0.1666667), wk =   0.0370370
        k(   60) = (  -0.5000000   0.4725183   0.1666667), wk =   0.0185185
        k(   61) = (  -0.5000000   0.0000000   0.3333333), wk =   0.0185185
        k(   62) = (  -0.5000000  -0.1575061   0.3333333), wk =   0.0370370
        k(   63) = (  -0.5000000  -0.3150122   0.3333333), wk =   0.0370370
        k(   64) = (  -0.5000000   0.4725183   0.3333333), wk =   0.0185185

     Dense  grid:   498127 G-vectors     FFT dimensions: ( 100, 108, 100)

     Estimated max dynamical RAM per process >       2.74 GB

     Estimated total dynamical RAM >     175.05 GB

     Initial potential from superposition of free atoms

     starting charge  367.99656, renormalised to  368.00000
     Starting wfc are  232 randomized atomic wfcs

     total cpu time spent up to now is       45.0 secs

     Self-consistent Calculation

     iteration #  1     ecut=   120.00 Ry     beta= 0.70
     Davidson diagonalization with overlap
     ethr =  1.00E-02,  avg # of iterations =  5.0

     total cpu time spent up to now is      133.0 secs

     total energy              =   -6253.99810803 Ry
     Harris-Foulkes estimate   =   -6264.56731409 Ry
     estimated scf accuracy    <      13.38729422 Ry

     iteration #  2     ecut=   120.00 Ry     beta= 0.70
     Davidson diagonalization with overlap
     ethr =  3.64E-03,  avg # of iterations =  3.5

     total cpu time spent up to now is      219.3 secs

     total energy              =   -6250.79014095 Ry
     Harris-Foulkes estimate   =   -6270.76396789 Ry
     estimated scf accuracy    <      53.78447685 Ry

     iteration #  3     ecut=   120.00 Ry     beta= 0.70
     Davidson diagonalization with overlap
     ethr =  3.64E-03,  avg # of iterations =  3.5

     total cpu time spent up to now is      299.7 secs

     total energy              =   -6261.05801086 Ry
     Harris-Foulkes estimate   =   -6261.41584570 Ry
     estimated scf accuracy    <       1.14141200 Ry

     iteration #  4     ecut=   120.00 Ry     beta= 0.70
     Davidson diagonalization with overlap
     ethr =  3.10E-04,  avg # of iterations =  2.8

     total cpu time spent up to now is      368.2 secs

     total energy              =   -6261.09217718 Ry
     Harris-Foulkes estimate   =   -6261.17687544 Ry
     estimated scf accuracy    <       0.29384568 Ry

     iteration #  5     ecut=   120.00 Ry     beta= 0.70
     Davidson diagonalization with overlap
     ethr =  7.98E-05,  avg # of iterations =  4.5

     total cpu time spent up to now is      437.9 secs

     total energy              =   -6261.07972656 Ry
     Harris-Foulkes estimate   =   -6261.12103314 Ry
     estimated scf accuracy    <       0.08960370 Ry

     iteration #  6     ecut=   120.00 Ry     beta= 0.70
     Davidson diagonalization with overlap
     ethr =  2.43E-05,  avg # of iterations =  5.4

     total cpu time spent up to now is      513.9 secs

     total energy              =   -6261.09997457 Ry
     Harris-Foulkes estimate   =   -6261.10159824 Ry
     estimated scf accuracy    <       0.00491295 Ry

     iteration #  7     ecut=   120.00 Ry     beta= 0.70
     Davidson diagonalization with overlap
     ethr =  1.34E-06,  avg # of iterations =  4.0

     total cpu time spent up to now is      582.0 secs

     total energy              =   -6261.10039243 Ry
     Harris-Foulkes estimate   =   -6261.10057540 Ry
     estimated scf accuracy    <       0.00050761 Ry

     iteration #  8     ecut=   120.00 Ry     beta= 0.70
     Davidson diagonalization with overlap
     ethr =  1.38E-07,  avg # of iterations =  3.0

     total cpu time spent up to now is      650.7 secs

     total energy              =   -6261.10045419 Ry
     Harris-Foulkes estimate   =   -6261.10048271 Ry
     estimated scf accuracy    <       0.00006123 Ry

     iteration #  9     ecut=   120.00 Ry     beta= 0.70
     Davidson diagonalization with overlap
     ethr =  1.66E-08,  avg # of iterations =  2.9

     total cpu time spent up to now is      722.7 secs

     total energy              =   -6261.10046921 Ry
     Harris-Foulkes estimate   =   -6261.10047153 Ry
     estimated scf accuracy    <       0.00000613 Ry

     iteration # 10     ecut=   120.00 Ry     beta= 0.70
     Davidson diagonalization with overlap
     ethr =  1.66E-09,  avg # of iterations =  2.0

     total cpu time spent up to now is      793.2 secs

     total energy              =   -6261.10046958 Ry
     Harris-Foulkes estimate   =   -6261.10047032 Ry
     estimated scf accuracy    <       0.00000155 Ry

     iteration # 11     ecut=   120.00 Ry     beta= 0.70
     Davidson diagonalization with overlap
     ethr =  4.21E-10,  avg # of iterations =  2.8

     total cpu time spent up to now is      869.7 secs

     total energy              =   -6261.10046992 Ry
     Harris-Foulkes estimate   =   -6261.10046994 Ry
     estimated scf accuracy    <       0.00000004 Ry

     iteration # 12     ecut=   120.00 Ry     beta= 0.70
     Davidson diagonalization with overlap
     ethr =  1.11E-11,  avg # of iterations =  2.0

     total cpu time spent up to now is      947.9 secs

     End of self-consistent calculation

          k = 0.0000 0.0000 0.0000 ( 62239 PWs)   bands (ev):

   -66.1636 -66.1632 -66.1626 -66.1626 -66.1622 -66.1622 -66.1616 -66.1612
   -30.5612 -30.5591 -30.5556 -30.5537 -30.5445 -30.5399 -30.5391 -30.5350
   -30.4916 -30.4916 -30.4901 -30.4872 -30.4624 -30.4582 -30.4490 -30.4485
   -30.4479 -30.4421 -30.4366 -30.4322 -30.4303 -30.4245 -30.4207 -30.4145
   -20.3234 -20.3234 -20.3232 -20.3232 -20.3230 -20.3229 -20.3228 -20.3227
   -20.3024 -20.3020 -20.3018 -20.3017 -20.3014 -20.3013 -20.3010 -20.3007
   -20.2990 -20.2986 -20.2985 -20.2982 -20.2980 -20.2979 -20.2977 -20.2974
   -20.2967 -20.2964 -20.2963 -20.2961 -20.2922 -20.2918 -20.2917 -20.2915
   -20.2914 -20.2910 -20.2910 -20.2905 -20.2904 -20.2903 -20.2898 -20.2896
   -20.2844 -20.2844 -20.2839 -20.2838 -20.2831 -20.2829 -20.2817 -20.2815
   -20.2786 -20.2785 -20.2771 -20.2769 -20.2769 -20.2766 -20.2756 -20.2753
    -9.9959  -9.7743  -9.5641  -9.5122  -9.3956  -9.3166  -9.1403  -9.1225
    -8.8865  -8.7636  -8.7617  -8.7541  -7.8722  -7.8553  -7.8061  -7.7921
    -7.7322  -7.7252  -7.7174  -7.7124  -7.6713  -7.6473  -7.6444  -7.6097
     1.0517   1.0577   1.1397   1.1469   1.2411   1.2446   1.4083   1.5155
     1.7800   1.7886   1.8053   1.8941   2.2654   2.3462   2.6150   2.6265
     2.7650   2.7656   4.0922   4.1912   4.2327   4.3754   4.6285   4.6560
     4.6576   4.6861   4.8380   5.0158   5.1413   5.1654   5.1867   5.4777
     5.4864   5.5509   5.5581   5.5657   5.5905   5.6072   5.6961   5.7641
     5.8714   5.8913   5.9047   5.9159   5.9895   5.9945   6.0071   6.0671
     6.1311   6.2483   6.2971   6.4139   6.5017   6.7380   6.8831   6.8975
     6.9561   6.9682   6.9877   7.0034   7.0207   7.0457   7.1554   7.1841
     7.2394   7.2658   7.8056   7.8231   8.0242   8.0891   8.1133   8.1765
     9.4060   9.4259   9.9496   9.9506   9.9831   9.9859  12.1750  12.2872
    12.4431  12.4493  12.4606  12.4637  12.4993  12.5023  12.7037  12.9668
    13.2455  13.2857  13.3544  13.4079  13.6168  13.7559  14.0817  14.0900
    14.3169  14.3563  14.5685  14.8909  15.3386  15.4401  15.4676  16.1042
    16.1071  16.8622  17.0235  17.0763  17.5393

          k = 0.0000 0.0000 0.1667 ( 62262 PWs)   bands (ev):

   -66.1635 -66.1631 -66.1627 -66.1625 -66.1623 -66.1621 -66.1616 -66.1612
   -30.5548 -30.5528 -30.5491 -30.5475 -30.5440 -30.5395 -30.5393 -30.5354
   -30.4931 -30.4926 -30.4895 -30.4864 -30.4686 -30.4643 -30.4554 -30.4533
   -30.4476 -30.4428 -30.4362 -30.4318 -30.4311 -30.4253 -30.4203 -30.4151
   -20.3234 -20.3233 -20.3232 -20.3231 -20.3230 -20.3229 -20.3228 -20.3227
   -20.3024 -20.3020 -20.3018 -20.3017 -20.3014 -20.3014 -20.3010 -20.3007
   -20.2990 -20.2986 -20.2985 -20.2982 -20.2981 -20.2980 -20.2977 -20.2974
   -20.2967 -20.2965 -20.2964 -20.2962 -20.2923 -20.2918 -20.2918 -20.2917
   -20.2915 -20.2911 -20.2908 -20.2905 -20.2898 -20.2898 -20.2892 -20.2890
   -20.2845 -20.2844 -20.2841 -20.2838 -20.2834 -20.2833 -20.2821 -20.2820
   -20.2785 -20.2784 -20.2771 -20.2770 -20.2768 -20.2768 -20.2757 -20.2754
    -9.9419  -9.7146  -9.5288  -9.4839  -9.3297  -9.3035  -9.1012  -9.0851
    -8.8970  -8.7590  -8.7556  -8.7494  -7.9797  -7.9712  -7.8613  -7.8602
    -7.8211  -7.7843  -7.7390  -7.7083  -7.6793  -7.6538  -7.6496  -7.6131
     1.1758   1.1782   1.2426   1.2479   1.4011   1.4090   1.5023   1.6633
     1.7816   1.7965   1.7967   1.9529   2.3562   2.4374   2.6352   2.7055
     2.7571   2.8514   4.0963   4.1128   4.2690   4.2898   4.3228   4.3560
     4.7014   4.7077   4.7421   4.8198   4.8461   5.1425   5.1903   5.2873
     5.2930   5.4743   5.4942   5.5501   5.5988   5.6471   5.6659   5.6809
     5.6941   5.8802   5.9171   5.9372   5.9851   5.9957   6.1271   6.1375
     6.1587   6.3506   6.4424   6.4895   6.7358   6.7583   6.7717   6.8466
     6.8595   6.8896   6.9587   7.0029   7.0094   7.0142   7.0307   7.0440
     7.0707   7.1340   7.8033   7.8124   8.0454   8.0699   8.0926   8.1330
     9.7101   9.7362   9.9479   9.9835  10.2315  10.2719  12.2370  12.2406
    12.3615  12.3930  12.4712  12.5015  12.5114  12.5884  12.7511  12.8947
    13.0958  13.2508  13.2934  13.4065  13.7051  13.7562  13.9350  13.9700
    14.3313  14.4637  14.5630  15.0095  15.3081  15.4773  15.5423  16.0780
    16.4223  16.8116  17.0352  17.2307  17.5906

          k = 0.0000 0.0000 0.3333 ( 62268 PWs)   bands (ev):

   -66.1634 -66.1629 -66.1628 -66.1624 -66.1623 -66.1619 -66.1618 -66.1614
   -30.5434 -30.5408 -30.5405 -30.5365 -30.5357 -30.5346 -30.5308 -30.5307
   -30.4992 -30.4972 -30.4873 -30.4863 -30.4840 -30.4819 -30.4698 -30.4666
   -30.4467 -30.4441 -30.4353 -30.4326 -30.4307 -30.4272 -30.4194 -30.4164
   -20.3233 -20.3232 -20.3231 -20.3231 -20.3230 -20.3230 -20.3229 -20.3228
   -20.3022 -20.3019 -20.3019 -20.3016 -20.3015 -20.3013 -20.3012 -20.3009
   -20.2989 -20.2987 -20.2984 -20.2982 -20.2982 -20.2980 -20.2977 -20.2975
   -20.2967 -20.2965 -20.2965 -20.2963 -20.2923 -20.2920 -20.2917 -20.2917
   -20.2916 -20.2913 -20.2907 -20.2906 -20.2884 -20.2884 -20.2877 -20.2876
   -20.2852 -20.2850 -20.2843 -20.2842 -20.2842 -20.2837 -20.2831 -20.2831
   -20.2782 -20.2781 -20.2774 -20.2772 -20.2767 -20.2766 -20.2760 -20.2758
    -9.8112  -9.5809  -9.5757  -9.3708  -9.2732  -9.0412  -8.9763  -8.9472
    -8.9372  -8.7754  -8.7292  -8.6915  -8.2951  -8.2856  -8.2115  -8.1847
    -7.8123  -7.7622  -7.7581  -7.7012  -7.6974  -7.6632  -7.6470  -7.6224
     1.2477   1.2499   1.2571   1.2620   1.7034   1.7279   1.7671   1.7789
     2.1303   2.1909   2.3044   2.4057   2.6177   2.6514   2.7094   2.7397
     2.9505   3.0771   3.6348   3.7228   3.9136   3.9150   4.1819   4.2179
     4.2997   4.4739   4.5230   4.7251   4.7616   4.7641   4.8275   5.0377
     5.0976   5.1283   5.1960   5.3398   5.4024   5.4225   5.7336   5.7495
     5.8282   5.8455   5.9261   5.9545   6.0331   6.0915   6.1571   6.2461
     6.2877   6.4127   6.4463   6.4494   6.4784   6.5968   6.6970   6.7409
     6.7616   6.9419   6.9866   6.9888   7.0097   7.0322   7.0387   7.0891
     7.2544   7.3333   7.7215   7.7304   7.9284   7.9923   8.0779   8.0954
     9.9112   9.9417  10.4254  10.5130  10.8570  10.9369  11.8944  11.9676
    12.1605  12.4283  12.4569  12.5139  12.6074  12.6626  12.7101  12.7688
    12.8279  13.1734  13.2431  13.2800  13.5860  13.6759  13.7597  13.7915
    14.4153  14.5445  14.7458  15.2103  15.2967  15.6436  15.9895  15.9965
    16.2758  17.2822  17.4844  17.5860  17.7343

          k = 0.0000 0.0000-0.5000 ( 62264 PWs)   bands (ev):

   -66.1631 -66.1631 -66.1627 -66.1627 -66.1621 -66.1621 -66.1617 -66.1617
   -30.5419 -30.5419 -30.5380 -30.5380 -30.5145 -30.5145 -30.5110 -30.5110
   -30.5104 -30.5104 -30.5063 -30.5063 -30.4821 -30.4820 -30.4784 -30.4784
   -30.4454 -30.4454 -30.4340 -30.4340 -30.4291 -30.4291 -30.4180 -30.4180
   -20.3232 -20.3232 -20.3231 -20.3231 -20.3230 -20.3230 -20.3229 -20.3229
   -20.3021 -20.3021 -20.3017 -20.3017 -20.3014 -20.3014 -20.3011 -20.3011
   -20.2988 -20.2988 -20.2983 -20.2983 -20.2981 -20.2981 -20.2976 -20.2976
   -20.2966 -20.2966 -20.2964 -20.2964 -20.2922 -20.2922 -20.2916 -20.2916
   -20.2916 -20.2916 -20.2907 -20.2907 -20.2867 -20.2867 -20.2867 -20.2867
   -20.2858 -20.2858 -20.2857 -20.2857 -20.2839 -20.2839 -20.2835 -20.2835
   -20.2778 -20.2778 -20.2776 -20.2776 -20.2764 -20.2764 -20.2762 -20.2762
    -9.6755  -9.6755  -9.4485  -9.4485  -9.0491  -9.0490  -8.8248  -8.8248
    -8.6735  -8.6734  -8.6443  -8.6443  -8.6012  -8.6012  -8.5175  -8.5175
    -7.7850  -7.7850  -7.7315  -7.7315  -7.6808  -7.6808  -7.6349  -7.6349
     1.2541   1.2541   1.2675   1.2675   1.7512   1.7512   1.7592   1.7592
     2.6815   2.6815   2.9266   2.9266   3.0299   3.0299   3.0718   3.0718
     3.1509   3.1510   3.2285   3.2285   3.4055   3.4055   3.7354   3.7354
     3.8714   3.8714   4.4356   4.4356   4.6823   4.6823   4.9319   4.9319
     5.2193   5.2193   5.2210   5.2210   5.2503   5.2503   5.8050   5.8050
     5.8209   5.8209   6.0322   6.0322   6.0710   6.0710   6.2066   6.2066
     6.2395   6.2395   6.3363   6.3363   6.5105   6.5105   6.5931   6.5931
     6.7940   6.7940   7.0013   7.0013   7.0141   7.0141   7.4564   7.4564
     7.4879   7.4879   7.6608   7.6608   7.7289   7.7289   8.0926   8.0926
     9.9305   9.9305  11.2125  11.2125  11.2979  11.2979  11.5887  11.5887
    11.7331  11.7331  12.5497  12.5498  12.6502  12.6502  12.9003  12.9003
    12.9181  12.9181  13.1901  13.1901  13.3923  13.3923  13.7741  13.7741
    14.5024  14.5024  15.0262  15.0262  15.7293  15.7293  15.8504  15.8505
    16.7702  16.7702  17.9143  17.9143  18.2419

          k = 0.0000 0.1575 0.0000 ( 62231 PWs)   bands (ev):

   -66.1636 -66.1632 -66.1626 -66.1625 -66.1622 -66.1622 -66.1616 -66.1612
   -30.5611 -30.5592 -30.5555 -30.5537 -30.5441 -30.5402 -30.5388 -30.5353
   -30.4885 -30.4883 -30.4867 -30.4836 -30.4629 -30.4588 -30.4495 -30.4490
   -30.4482 -30.4431 -30.4362 -30.4360 -30.4299 -30.4276 -30.4230 -30.4166
   -20.3234 -20.3234 -20.3232 -20.3232 -20.3229 -20.3229 -20.3228 -20.3227
   -20.3024 -20.3020 -20.3018 -20.3016 -20.3015 -20.3013 -20.3010 -20.3007
   -20.2989 -20.2986 -20.2985 -20.2982 -20.2981 -20.2979 -20.2977 -20.2974
   -20.2964 -20.2962 -20.2960 -20.2958 -20.2924 -20.2920 -20.2918 -20.2917
   -20.2914 -20.2914 -20.2910 -20.2907 -20.2905 -20.2903 -20.2898 -20.2896
   -20.2844 -20.2844 -20.2839 -20.2839 -20.2831 -20.2829 -20.2817 -20.2815
   -20.2786 -20.2785 -20.2771 -20.2769 -20.2769 -20.2766 -20.2756 -20.2753
    -9.9747  -9.7843  -9.5440  -9.4888  -9.4016  -9.3235  -9.1391  -9.1237
    -8.8158  -8.7116  -8.7101  -8.7048  -7.8905  -7.8540  -7.8094  -7.7939
    -7.7881  -7.7816  -7.7691  -7.7237  -7.7113  -7.6932  -7.6820  -7.6733
     1.0519   1.0571   1.1401   1.1465   1.2437   1.2448   1.4554   1.5152
     1.9559   2.0062   2.0326   2.1317   2.2727   2.3405   2.6893   2.6969
     2.8320   2.8368   3.9540   4.0141   4.0604   4.1366   4.6308   4.6487
     4.6510   4.6805   4.7143   5.0742   5.1144   5.1466   5.1675   5.3118
     5.3506   5.4960   5.5168   5.6156   5.6281   5.6371   5.6641   5.7471
     5.7706   5.8498   5.8646   5.9441   5.9937   5.9978   6.0653   6.0711
     6.0746   6.2273   6.3219   6.4368   6.5479   6.7602   6.7749   6.8596
     6.9019   6.9184   6.9712   6.9741   6.9826   7.0023   7.1646   7.1814
     7.2525   7.2626   7.8076   7.8219   8.0008   8.0347   8.0726   8.0971
     9.4152   9.4271  10.1415  10.1416  10.1555  10.1660  12.0611  12.1958
    12.2870  12.3418  12.4335  12.4646  12.4766  12.4917  12.7304  12.9690
    13.2497  13.2998  13.3501  13.4213  13.7752  13.7857  13.9924  14.0016
    14.4210  14.6377  14.7400  15.0081  15.4387  15.4638  15.7387  16.0656
    16.0777  16.5935  17.1369  17.1952  17.4986

          k = 0.0000 0.1575 0.1667 ( 62237 PWs)   bands (ev):

   -66.1635 -66.1632 -66.1626 -66.1625 -66.1623 -66.1621 -66.1616 -66.1613
   -30.5546 -30.5529 -30.5490 -30.5475 -30.5436 -30.5396 -30.5391 -30.5356
   -30.4902 -30.4895 -30.4861 -30.4829 -30.4690 -30.4648 -30.4551 -30.4529
   -30.4492 -30.4440 -30.4358 -30.4356 -30.4307 -30.4286 -30.4226 -30.4173
   -20.3234 -20.3233 -20.3232 -20.3231 -20.3230 -20.3229 -20.3228 -20.3228
   -20.3023 -20.3019 -20.3018 -20.3017 -20.3014 -20.3013 -20.3011 -20.3008
   -20.2989 -20.2986 -20.2985 -20.2982 -20.2981 -20.2979 -20.2977 -20.2974
   -20.2964 -20.2962 -20.2961 -20.2959 -20.2925 -20.2921 -20.2920 -20.2917
   -20.2915 -20.2914 -20.2909 -20.2907 -20.2899 -20.2898 -20.2892 -20.2890
   -20.2845 -20.2843 -20.2841 -20.2838 -20.2834 -20.2833 -20.2821 -20.2820
   -20.2785 -20.2784 -20.2771 -20.2770 -20.2768 -20.2768 -20.2757 -20.2755
    -9.9199  -9.7247  -9.5052  -9.4615  -9.3368  -9.3095  -9.1002  -9.0862
    -8.8264  -8.7103  -8.7046  -8.6995  -7.9780  -7.9773  -7.8787  -7.8586
    -7.8327  -7.7905  -7.7863  -7.7755  -7.7473  -7.7097  -7.6890  -7.6813
     1.1759   1.1785   1.2459   1.2481   1.4073   1.4093   1.5762   1.6630
     1.9599   2.0100   2.0259   2.1502   2.3633   2.4317   2.7051   2.7816
     2.8239   2.9234   3.9685   4.0211   4.0650   4.1211   4.2914   4.3180
     4.6818   4.6928   4.7131   4.7795   4.8362   5.1188   5.1607   5.2183
     5.2690   5.2985   5.4377   5.4736   5.5479   5.5802   5.6642   5.6908
     5.7926   5.7996   5.8580   5.9696   5.9771   5.9841   6.0738   6.1448
     6.1638   6.2858   6.4442   6.5362   6.7291   6.7554   6.7920   6.8342
     6.8551   6.8825   6.9279   6.9717   6.9762   6.9812   7.0072   7.0432
     7.1086   7.1365   7.8041   7.8117   8.0091   8.0317   8.0391   8.0595
     9.7373   9.7421  10.1418  10.1694  10.3725  10.4101  12.1349  12.1686
    12.3420  12.3436  12.3611  12.3643  12.5230  12.5517  12.7801  12.9175
    13.1019  13.2530  13.2835  13.4091  13.7760  13.8276  13.8414  13.8866
    14.4741  14.7175  14.7848  15.1150  15.4737  15.5421  15.7111  16.0407
    16.3895  16.7572  16.9213  17.3257  17.5634

          k = 0.0000 0.1575 0.3333 ( 62284 PWs)   bands (ev):

   -66.1633 -66.1630 -66.1628 -66.1625 -66.1623 -66.1620 -66.1618 -66.1615
   -30.5431 -30.5409 -30.5402 -30.5367 -30.5355 -30.5347 -30.5306 -30.5306
   -30.4971 -30.4947 -30.4865 -30.4841 -30.4820 -30.4807 -30.4688 -30.4654
   -30.4483 -30.4455 -30.4349 -30.4344 -30.4321 -30.4306 -30.4217 -30.4187
   -20.3233 -20.3233 -20.3231 -20.3231 -20.3230 -20.3230 -20.3229 -20.3228
   -20.3022 -20.3018 -20.3018 -20.3016 -20.3015 -20.3013 -20.3012 -20.3009
   -20.2989 -20.2987 -20.2984 -20.2982 -20.2981 -20.2980 -20.2977 -20.2975
   -20.2964 -20.2962 -20.2962 -20.2960 -20.2925 -20.2922 -20.2920 -20.2917
   -20.2917 -20.2915 -20.2909 -20.2907 -20.2884 -20.2884 -20.2877 -20.2876
   -20.2851 -20.2850 -20.2843 -20.2842 -20.2842 -20.2837 -20.2831 -20.2831
   -20.2782 -20.2781 -20.2774 -20.2772 -20.2767 -20.2766 -20.2760 -20.2758
    -9.7874  -9.5856  -9.5567  -9.3785  -9.2407  -9.0474  -8.9729  -8.9486
    -8.8683  -8.7289  -8.6825  -8.6518  -8.2991  -8.2822  -8.2186  -8.1812
    -7.8392  -7.8029  -7.7643  -7.7590  -7.7428  -7.7193  -7.7080  -7.7032
     1.2523   1.2561   1.2572   1.2620   1.8853   1.9078   1.9853   2.0159
     2.1298   2.2208   2.3042   2.4418   2.6253   2.6873   2.7344   2.8082
     3.0267   3.1432   3.6373   3.7163   3.8623   3.9046   4.0717   4.1264
     4.2707   4.4002   4.4887   4.6198   4.6829   4.6906   4.7340   5.0127
     5.0361   5.0489   5.1626   5.2293   5.3697   5.4335   5.4653   5.7202
     5.7741   5.8615   5.8905   5.9149   5.9666   6.0782   6.0950   6.1226
     6.3405   6.4150   6.4711   6.5042   6.5689   6.6973   6.7122   6.7732
     6.8392   6.9042   6.9063   6.9434   6.9784   7.0022   7.0823   7.1088
     7.2597   7.3282   7.7240   7.7291   7.8981   7.9362   8.0280   8.0422
    10.1122  10.1412  10.4351  10.5224  10.9556  11.0204  11.8930  11.9655
    12.1312  12.3545  12.3609  12.4961  12.5137  12.6265  12.6973  12.7501
    12.7991  13.1768  13.2061  13.2749  13.4851  13.6189  13.7802  13.8343
    14.6032  14.7121  15.0984  15.3818  15.6135  15.6290  15.9616  16.0179
    16.3833  17.2288  17.2520  17.5365  17.7903

          k = 0.0000 0.1575-0.5000 ( 62234 PWs)   bands (ev):

   -66.1631 -66.1631 -66.1627 -66.1627 -66.1621 -66.1620 -66.1617 -66.1617
   -30.5416 -30.5416 -30.5382 -30.5382 -30.5138 -30.5138 -30.5110 -30.5109
   -30.5095 -30.5095 -30.5063 -30.5063 -30.4796 -30.4796 -30.4757 -30.4757
   -30.4470 -30.4470 -30.4336 -30.4336 -30.4327 -30.4327 -30.4203 -30.4203
   -20.3232 -20.3232 -20.3231 -20.3231 -20.3230 -20.3230 -20.3229 -20.3229
   -20.3020 -20.3020 -20.3016 -20.3016 -20.3015 -20.3014 -20.3011 -20.3011
   -20.2988 -20.2988 -20.2983 -20.2983 -20.2981 -20.2981 -20.2976 -20.2976
   -20.2963 -20.2963 -20.2961 -20.2961 -20.2924 -20.2924 -20.2919 -20.2919
   -20.2916 -20.2916 -20.2908 -20.2908 -20.2867 -20.2867 -20.2867 -20.2867
   -20.2858 -20.2858 -20.2857 -20.2857 -20.2839 -20.2839 -20.2836 -20.2836
   -20.2778 -20.2778 -20.2777 -20.2776 -20.2764 -20.2764 -20.2762 -20.2762
    -9.6509  -9.6509  -9.4573  -9.4573  -8.9935  -8.9935  -8.7950  -8.7950
    -8.6769  -8.6769  -8.6499  -8.6499  -8.5816  -8.5816  -8.5009  -8.5008
    -7.8209  -7.8209  -7.7359  -7.7359  -7.7336  -7.7336  -7.7296  -7.7296
     1.2605   1.2606   1.2675   1.2675   1.9356   1.9356   2.0104   2.0104
     2.7451   2.7451   2.9375   2.9375   3.0259   3.0259   3.0875   3.0875
     3.1489   3.1489   3.2579   3.2579   3.3977   3.3978   3.7558   3.7558
     3.9271   3.9271   4.2570   4.2570   4.5279   4.5279   4.7734   4.7734
     5.1664   5.1664   5.1939   5.1939   5.2471   5.2472   5.5658   5.5658
     5.8016   5.8016   5.9273   5.9273   6.0605   6.0605   6.1896   6.1896
     6.2932   6.2932   6.3791   6.3791   6.5101   6.5101   6.7467   6.7467
     6.8700   6.8700   6.9271   6.9271   6.9657   6.9657   7.4671   7.4671
     7.4845   7.4845   7.6450   7.6450   7.6984   7.6984   8.0393   8.0393
    10.1362  10.1362  11.2187  11.2187  11.2971  11.2971  11.6492  11.6492
    11.7853  11.7853  12.4021  12.4021  12.6461  12.6461  12.8188  12.8188
    12.9322  12.9322  13.0939  13.0939  13.3700  13.3700  13.7963  13.7963
    14.6806  14.6806  15.4000  15.4000  15.8224  15.8224  15.8398  15.8398
    16.8167  16.8167  17.7156  17.7156  18.1968

          k = 0.0000 0.3150 0.0000 ( 62175 PWs)   bands (ev):

   -66.1635 -66.1633 -66.1625 -66.1625 -66.1623 -66.1623 -66.1615 -66.1613
   -30.5606 -30.5595 -30.5550 -30.5540 -30.5432 -30.5409 -30.5379 -30.5359
   -30.4804 -30.4797 -30.4774 -30.4738 -30.4652 -30.4618 -30.4553 -30.4488
   -30.4468 -30.4468 -30.4451 -30.4352 -30.4349 -30.4285 -30.4280 -30.4214
   -20.3234 -20.3234 -20.3232 -20.3232 -20.3229 -20.3229 -20.3228 -20.3227
   -20.3022 -20.3019 -20.3019 -20.3016 -20.3015 -20.3011 -20.3011 -20.3008
   -20.2988 -20.2986 -20.2985 -20.2982 -20.2981 -20.2978 -20.2978 -20.2975
   -20.2956 -20.2953 -20.2951 -20.2949 -20.2932 -20.2928 -20.2927 -20.2924
   -20.2916 -20.2913 -20.2912 -20.2909 -20.2905 -20.2904 -20.2898 -20.2896
   -20.2843 -20.2843 -20.2840 -20.2840 -20.2831 -20.2830 -20.2817 -20.2816
   -20.2786 -20.2785 -20.2771 -20.2770 -20.2769 -20.2767 -20.2755 -20.2754
    -9.9225  -9.8143  -9.4984  -9.4354  -9.4202  -9.3448  -9.1357  -9.1269
    -8.6179  -8.5545  -8.5537  -8.5505  -8.0667  -8.0166  -8.0038  -7.9729
    -7.8508  -7.8408  -7.8040  -7.7981  -7.7195  -7.7067  -7.6907  -7.6786
     1.0526   1.0556   1.1414   1.1451   1.2454   1.2459   1.4962   1.5138
     2.2817   2.3250   2.4925   2.6089   2.6569   2.7699   2.9009   2.9375
     3.0232   3.0661   3.5871   3.6199   3.7033   3.7394   4.1788   4.5074
     4.5517   4.6382   4.6480   4.6765   4.7237   4.8415   5.2101   5.2370
     5.2379   5.2663   5.4368   5.4472   5.6572   5.6710   5.6993   5.7070
     5.8302   5.8431   5.9159   5.9750   5.9821   5.9836   5.9965   6.0887
     6.0936   6.1569   6.2977   6.4739   6.5043   6.5760   6.7549   6.7722
     6.8087   6.8903   7.1328   7.1470   7.1554   7.1592   7.1806   7.1974
     7.2648   7.2796   7.7857   7.8130   7.8629   7.8669   7.8725   7.8956
     9.4250   9.4290  10.5772  10.6358  10.6473  10.6720  11.7008  11.8275
    11.8627  11.9151  12.4459  12.4651  12.4894  12.4942  12.8025  12.9543
    13.3057  13.3652  13.4061  13.4637  13.6544  13.7592  13.7845  13.7901
    14.9497  15.2176  15.2485  15.4344  15.4481  15.5105  15.9390  15.9699
    16.0730  16.7146  17.1189  17.5384  17.6071

          k = 0.0000 0.3150 0.1667 ( 62260 PWs)   bands (ev):

   -66.1634 -66.1632 -66.1626 -66.1624 -66.1624 -66.1622 -66.1615 -66.1613
   -30.5542 -30.5531 -30.5486 -30.5477 -30.5426 -30.5403 -30.5383 -30.5363
   -30.4828 -30.4814 -30.4769 -30.4732 -30.4706 -30.4667 -30.4549 -30.4541
   -30.4511 -30.4479 -30.4455 -30.4368 -30.4345 -30.4293 -30.4277 -30.4221
   -20.3234 -20.3233 -20.3232 -20.3231 -20.3230 -20.3229 -20.3228 -20.3228
   -20.3022 -20.3019 -20.3018 -20.3015 -20.3015 -20.3012 -20.3012 -20.3009
   -20.2988 -20.2986 -20.2985 -20.2982 -20.2981 -20.2978 -20.2978 -20.2975
   -20.2956 -20.2953 -20.2952 -20.2950 -20.2933 -20.2929 -20.2928 -20.2925
   -20.2916 -20.2913 -20.2912 -20.2909 -20.2899 -20.2899 -20.2892 -20.2891
   -20.2844 -20.2842 -20.2842 -20.2839 -20.2834 -20.2834 -20.2821 -20.2820
   -20.2785 -20.2784 -20.2770 -20.2770 -20.2769 -20.2769 -20.2756 -20.2755
    -9.8658  -9.7551  -9.4512  -9.4112  -9.3586  -9.3284  -9.0972  -9.0892
    -8.6280  -8.5595  -8.5505  -8.5449  -8.0746  -8.0361  -8.0060  -7.9865
    -7.9732  -7.9402  -7.8541  -7.8314  -7.8026  -7.7916  -7.6987  -7.6866
     1.1763   1.1781   1.2486   1.2486   1.4102   1.4114   1.6383   1.6614
     2.3703   2.4160   2.4992   2.5972   2.6476   2.7641   2.9075   3.0158
     3.0286   3.1562   3.6202   3.6816   3.7033   3.7298   4.1529   4.2847
     4.3158   4.5259   4.5540   4.6896   4.7514   4.8476   4.8785   4.9828
     5.1465   5.2785   5.2837   5.3121   5.4531   5.4578   5.6416   5.6542
     5.7367   5.7382   5.8159   5.9395   5.9996   6.0024   6.0140   6.0887
     6.2354   6.3009   6.4033   6.5423   6.5557   6.7406   6.7978   6.8763
     6.8967   6.9258   6.9848   7.0024   7.0431   7.0437   7.1414   7.1843
     7.2042   7.2284   7.7837   7.8015   7.8482   7.8541   7.8689   7.8731
     9.7513   9.7535  10.6393  10.6767  10.7541  10.8222  11.7938  11.8248
    11.9157  11.9462  12.3499  12.3620  12.5365  12.5403  12.8582  12.9583
    13.1726  13.2842  13.3060  13.4020  13.6178  13.6537  13.7133  13.7719
    15.0384  15.2160  15.4407  15.4593  15.5352  15.6016  15.9165  16.2398
    16.2774  16.6826  17.1869  17.2887  17.6633

          k = 0.0000 0.3150 0.3333 ( 62269 PWs)   bands (ev):

   -66.1632 -66.1630 -66.1627 -66.1625 -66.1622 -66.1620 -66.1617 -66.1615
   -30.5424 -30.5412 -30.5393 -30.5374 -30.5351 -30.5347 -30.5304 -30.5303
   -30.4925 -30.4891 -30.4871 -30.4826 -30.4754 -30.4714 -30.4651 -30.4607
   -30.4539 -30.4504 -30.4444 -30.4399 -30.4336 -30.4308 -30.4267 -30.4237
   -20.3233 -20.3233 -20.3231 -20.3231 -20.3230 -20.3230 -20.3229 -20.3228
   -20.3021 -20.3018 -20.3017 -20.3017 -20.3014 -20.3013 -20.3013 -20.3010
   -20.2988 -20.2986 -20.2985 -20.2983 -20.2980 -20.2979 -20.2978 -20.2976
   -20.2956 -20.2953 -20.2953 -20.2951 -20.2933 -20.2930 -20.2929 -20.2926
   -20.2915 -20.2914 -20.2911 -20.2910 -20.2885 -20.2885 -20.2877 -20.2876
   -20.2851 -20.2850 -20.2843 -20.2843 -20.2841 -20.2838 -20.2831 -20.2831
   -20.2782 -20.2781 -20.2774 -20.2772 -20.2767 -20.2766 -20.2759 -20.2758
    -9.7297  -9.6158  -9.5007  -9.4022  -9.1695  -9.0673  -8.9657  -8.9525
    -8.6769  -8.5883  -8.5377  -8.5182  -8.3167  -8.2691  -8.2543  -8.1684
    -8.0362  -8.0132  -7.9848  -7.9528  -7.7816  -7.7699  -7.7206  -7.7087
     1.2564   1.2575   1.2609   1.2621   2.1006   2.1283   2.2254   2.3016
     2.5088   2.5818   2.6383   2.6494   2.6776   2.7917   2.9261   2.9999
     3.2604   3.3492   3.6135   3.6470   3.7036   3.7192   3.7691   3.7848
     4.1290   4.3334   4.3901   4.4338   4.4573   4.5640   4.6085   4.7003
     4.7727   4.9243   5.0146   5.0526   5.2129   5.2872   5.3199   5.3415
     5.4279   5.5441   5.7584   5.9117   6.0767   6.0988   6.1248   6.1298
     6.4153   6.4559   6.4699   6.5683   6.6128   6.7111   6.7186   6.7243
     6.9077   6.9650   7.0418   7.0641   7.1115   7.1543   7.1977   7.2335
     7.2558   7.3303   7.7155   7.7222   7.7633   7.7732   7.8510   7.8678
    10.4349  10.4533  10.6471  10.7157  11.2351  11.2955  11.7842  11.9165
    11.9558  11.9904  12.0880  12.1978  12.5955  12.6417  12.6863  12.7150
    12.8553  13.0588  13.1572  13.2483  13.3191  13.5523  13.6555  13.7312
    15.1311  15.2006  15.5756  15.8071  15.8474  15.9106  16.1229  16.5737
    16.7473  16.7626  17.0836  17.4292  17.7126

          k = 0.0000 0.3150-0.5000 ( 62306 PWs)   bands (ev):

   -66.1630 -66.1630 -66.1628 -66.1628 -66.1620 -66.1620 -66.1618 -66.1618
   -30.5407 -30.5407 -30.5388 -30.5388 -30.5123 -30.5123 -30.5110 -30.5110
   -30.5078 -30.5078 -30.5063 -30.5063 -30.4723 -30.4723 -30.4677 -30.4677
   -30.4524 -30.4524 -30.4425 -30.4425 -30.4323 -30.4323 -30.4253 -30.4253
   -20.3232 -20.3232 -20.3231 -20.3231 -20.3230 -20.3230 -20.3230 -20.3229
   -20.3019 -20.3019 -20.3016 -20.3016 -20.3015 -20.3015 -20.3012 -20.3012
   -20.2987 -20.2987 -20.2984 -20.2984 -20.2980 -20.2979 -20.2977 -20.2977
   -20.2955 -20.2955 -20.2953 -20.2952 -20.2932 -20.2932 -20.2928 -20.2928
   -20.2915 -20.2915 -20.2911 -20.2910 -20.2867 -20.2867 -20.2867 -20.2867
   -20.2858 -20.2858 -20.2858 -20.2858 -20.2838 -20.2838 -20.2836 -20.2836
   -20.2778 -20.2778 -20.2777 -20.2777 -20.2763 -20.2763 -20.2762 -20.2762
    -9.5925  -9.5925  -9.4843  -9.4843  -8.8588  -8.8588  -8.7336  -8.7336
    -8.6909  -8.6909  -8.6674  -8.6674  -8.4919  -8.4919  -8.4309  -8.4309
    -8.0276  -8.0276  -7.9736  -7.9736  -7.7510  -7.7510  -7.7391  -7.7391
     1.2659   1.2660   1.2676   1.2676   2.4895   2.4895   2.6180   2.6180
     2.9049   2.9049   2.9740   2.9740   3.0278   3.0278   3.1276   3.1276
     3.1474   3.1474   3.3419   3.3419   3.3702   3.3702   3.6807   3.6807
     4.0645   4.0645   4.0736   4.0736   4.1318   4.1318   4.3405   4.3405
     4.8914   4.8914   5.0421   5.0421   5.1805   5.1805   5.2343   5.2343
     5.3836   5.3836   5.8355   5.8355   6.1530   6.1530   6.1973   6.1974
     6.3933   6.3934   6.4349   6.4349   6.5173   6.5173   6.6907   6.6907
     7.0878   7.0878   7.0982   7.0982   7.1366   7.1366   7.4748   7.4748
     7.4859   7.4859   7.5683   7.5683   7.6033   7.6033   7.8585   7.8585
    10.6437  10.6437  11.2303  11.2303  11.2978  11.2978  11.7533  11.7533
    11.9528  11.9528  12.0834  12.0834  12.5359  12.5359  12.5763  12.5763
    12.9379  12.9379  12.9382  12.9382  13.3803  13.3803  13.6739  13.6739
    15.1735  15.1735  15.7290  15.7290  16.1956  16.1956  16.3572  16.3572
    16.9790  16.9790  17.3248  17.3248  17.9260

          k = 0.0000-0.4725 0.0000 ( 62212 PWs)   bands (ev):

   -66.1634 -66.1634 -66.1624 -66.1624 -66.1624 -66.1624 -66.1614 -66.1614
   -30.5600 -30.5600 -30.5545 -30.5545 -30.5420 -30.5420 -30.5369 -30.5369
   -30.4711 -30.4711 -30.4693 -30.4693 -30.4655 -30.4655 -30.4602 -30.4602
   -30.4479 -30.4479 -30.4428 -30.4428 -30.4323 -30.4323 -30.4257 -30.4257
   -20.3234 -20.3234 -20.3232 -20.3232 -20.3229 -20.3229 -20.3227 -20.3227
   -20.3021 -20.3021 -20.3017 -20.3017 -20.3013 -20.3013 -20.3010 -20.3010
   -20.2987 -20.2987 -20.2983 -20.2983 -20.2979 -20.2979 -20.2976 -20.2976
   -20.2944 -20.2944 -20.2941 -20.2941 -20.2939 -20.2939 -20.2937 -20.2937
   -20.2914 -20.2914 -20.2911 -20.2911 -20.2904 -20.2904 -20.2897 -20.2897
   -20.2842 -20.2842 -20.2841 -20.2841 -20.2830 -20.2830 -20.2816 -20.2816
   -20.2785 -20.2785 -20.2770 -20.2770 -20.2768 -20.2768 -20.2755 -20.2755
    -9.8629  -9.8629  -9.4529  -9.4528  -9.3824  -9.3824  -9.1312  -9.1312
    -8.3456  -8.3456  -8.3061  -8.3061  -8.2977  -8.2977  -8.2912  -8.2912
    -7.8470  -7.8470  -7.8024  -7.8024  -7.7136  -7.7136  -7.6855  -7.6855
     1.0539   1.0539   1.1431   1.1432   1.2460   1.2460   1.5095   1.5095
     2.3040   2.3040   3.0989   3.0989   3.2151   3.2151   3.2280   3.2280
     3.2694   3.2694   3.4185   3.4185   3.6391   3.6391   3.6739   3.6740
     3.8184   3.8184   4.6503   4.6503   4.6587   4.6587   5.3168   5.3168
     5.3824   5.3824   5.4426   5.4426   5.4982   5.4982   5.7858   5.7858
     5.8217   5.8217   5.8657   5.8657   5.9930   5.9930   6.0661   6.0661
     6.1237   6.1237   6.2643   6.2643   6.6122   6.6122   6.6427   6.6427
     6.8504   6.8504   7.1751   7.1751   7.2487   7.2487   7.5053   7.5053
     7.5125   7.5125   7.5593   7.5593   7.5781   7.5781   7.8251   7.8251
     9.4289   9.4289  11.1547  11.1547  11.2297  11.2297  11.2573  11.2573
    11.3534  11.3534  12.4592  12.4592  12.4959  12.4959  12.8931  12.8931
    13.4533  13.4533  13.4858  13.4858  13.5638  13.5638  13.6402  13.6402
    15.3952  15.3952  15.5586  15.5586  15.6771  15.6771  15.7227  15.7227
    16.3629  16.3629  17.8848  17.8848  18.0041

          k = 0.0000-0.4725 0.1667 ( 62246 PWs)   bands (ev):

   -66.1633 -66.1633 -66.1625 -66.1625 -66.1623 -66.1623 -66.1614 -66.1614
   -30.5536 -30.5536 -30.5481 -30.5481 -30.5414 -30.5414 -30.5373 -30.5373
   -30.4750 -30.4750 -30.4722 -30.4722 -30.4651 -30.4651 -30.4597 -30.4597
   -30.4517 -30.4517 -30.4458 -30.4458 -30.4320 -30.4320 -30.4266 -30.4265
   -20.3234 -20.3234 -20.3232 -20.3231 -20.3230 -20.3229 -20.3228 -20.3228
   -20.3020 -20.3020 -20.3017 -20.3017 -20.3014 -20.3014 -20.3010 -20.3010
   -20.2987 -20.2987 -20.2984 -20.2984 -20.2979 -20.2979 -20.2977 -20.2977
   -20.2944 -20.2944 -20.2941 -20.2941 -20.2940 -20.2940 -20.2937 -20.2937
   -20.2914 -20.2914 -20.2912 -20.2912 -20.2899 -20.2899 -20.2891 -20.2891
   -20.2843 -20.2843 -20.2841 -20.2841 -20.2834 -20.2834 -20.2821 -20.2821
   -20.2784 -20.2784 -20.2769 -20.2769 -20.2769 -20.2769 -20.2756 -20.2756
    -9.8046  -9.8046  -9.3972  -9.3972  -9.3623  -9.3623  -9.0932  -9.0932
    -8.3507  -8.3507  -8.3147  -8.3147  -8.2977  -8.2977  -8.2931  -8.2931
    -7.9651  -7.9651  -7.8468  -7.8468  -7.7983  -7.7982  -7.6936  -7.6936
     1.1771   1.1771   1.2490   1.2490   1.4113   1.4113   1.6561   1.6561
     2.3948   2.3948   3.1225   3.1225   3.1963   3.1963   3.2655   3.2656
     3.3119   3.3119   3.4060   3.4060   3.6509   3.6509   3.6917   3.6917
     3.8424   3.8424   4.3003   4.3003   4.6993   4.6993   5.0467   5.0467
     5.2253   5.2253   5.3161   5.3161   5.4850   5.4850   5.5077   5.5077
     5.7292   5.7292   5.7829   5.7829   5.9972   5.9972   6.0842   6.0842
     6.3042   6.3042   6.3848   6.3848   6.6189   6.6189   6.8465   6.8465
     6.9363   6.9363   6.9972   6.9972   7.0730   7.0730   7.5005   7.5005
     7.5183   7.5183   7.5480   7.5480   7.5680   7.5680   7.8191   7.8191
     9.7558   9.7558  11.2498  11.2498  11.2836  11.2836  11.3096  11.3096
    11.4018  11.4018  12.3566  12.3566  12.5415  12.5415  12.9449  12.9449
    13.3140  13.3140  13.3852  13.3852  13.4531  13.4531  13.6606  13.6606
    15.3938  15.3938  15.6585  15.6585  15.7663  15.7663  15.9909  15.9909
    16.4277  16.4277  17.8157  17.8174  17.8821

          k = 0.0000-0.4725 0.3333 ( 62268 PWs)   bands (ev):

   -66.1632 -66.1631 -66.1626 -66.1626 -66.1621 -66.1621 -66.1616 -66.1616
   -30.5417 -30.5417 -30.5383 -30.5383 -30.5348 -30.5348 -30.5302 -30.5302
   -30.4888 -30.4888 -30.4846 -30.4846 -30.4639 -30.4639 -30.4590 -30.4590
   -30.4572 -30.4572 -30.4514 -30.4514 -30.4310 -30.4310 -30.4281 -30.4281
   -20.3233 -20.3233 -20.3231 -20.3231 -20.3230 -20.3230 -20.3229 -20.3229
   -20.3019 -20.3019 -20.3016 -20.3016 -20.3015 -20.3015 -20.3012 -20.3012
   -20.2986 -20.2986 -20.2984 -20.2984 -20.2979 -20.2979 -20.2977 -20.2977
   -20.2944 -20.2944 -20.2942 -20.2942 -20.2941 -20.2941 -20.2939 -20.2939
   -20.2914 -20.2914 -20.2912 -20.2912 -20.2885 -20.2885 -20.2876 -20.2876
   -20.2851 -20.2851 -20.2843 -20.2843 -20.2840 -20.2840 -20.2831 -20.2831
   -20.2782 -20.2782 -20.2773 -20.2773 -20.2767 -20.2767 -20.2759 -20.2759
    -9.6659  -9.6659  -9.4436  -9.4436  -9.1063  -9.1063  -8.9584  -8.9584
    -8.4242  -8.4241  -8.3910  -8.3910  -8.3025  -8.3025  -8.2826  -8.2826
    -8.2131  -8.2131  -8.1267  -8.1267  -7.7770  -7.7770  -7.7157  -7.7156
     1.2575   1.2575   1.2620   1.2620   2.1239   2.1239   2.2892   2.2892
     2.6565   2.6565   3.1513   3.1513   3.2006   3.2006   3.2854   3.2854
     3.3584   3.3584   3.4469   3.4469   3.6149   3.6149   3.7161   3.7161
     3.7813   3.7813   3.8813   3.8813   4.4741   4.4741   4.6106   4.6106
     4.7888   4.7888   4.8617   4.8617   5.1174   5.1174   5.3148   5.3148
     5.5292   5.5292   5.6995   5.6995   6.1065   6.1065   6.1509   6.1509
     6.4479   6.4479   6.5161   6.5161   6.6113   6.6113   6.7277   6.7277
     6.9825   6.9825   7.1738   7.1738   7.1879   7.1879   7.4708   7.4708
     7.5022   7.5022   7.5372   7.5372   7.5548   7.5548   7.7453   7.7453
    10.4632  10.4632  11.2619  11.2619  11.3165  11.3165  11.6563  11.6564
    11.7374  11.7374  11.9613  11.9613  12.6839  12.6839  12.7738  12.7738
    12.8578  12.8578  13.1180  13.1180  13.4564  13.4564  13.5930  13.5930
    15.4437  15.4437  15.6167  15.6167  16.3507  16.3507  16.6500  16.6500
    16.7043  16.7043  17.3185  17.3185  17.7242

          k = 0.0000-0.4725-0.5000 ( 62284 PWs)   bands (ev):

   -66.1629 -66.1629 -66.1629 -66.1629 -66.1619 -66.1619 -66.1619 -66.1619
   -30.5398 -30.5398 -30.5397 -30.5397 -30.5114 -30.5113 -30.5113 -30.5113
   -30.5067 -30.5067 -30.5067 -30.5067 -30.4618 -30.4618 -30.4618 -30.4618
   -30.4555 -30.4555 -30.4555 -30.4555 -30.4297 -30.4297 -30.4297 -30.4297
   -20.3232 -20.3232 -20.3232 -20.3231 -20.3230 -20.3230 -20.3230 -20.3230
   -20.3017 -20.3017 -20.3017 -20.3017 -20.3014 -20.3014 -20.3014 -20.3014
   -20.2985 -20.2985 -20.2985 -20.2985 -20.2978 -20.2978 -20.2978 -20.2978
   -20.2943 -20.2943 -20.2943 -20.2943 -20.2941 -20.2940 -20.2940 -20.2940
   -20.2913 -20.2913 -20.2913 -20.2913 -20.2867 -20.2867 -20.2867 -20.2867
   -20.2858 -20.2858 -20.2858 -20.2858 -20.2837 -20.2837 -20.2837 -20.2837
   -20.2778 -20.2777 -20.2777 -20.2777 -20.2763 -20.2763 -20.2763 -20.2763
    -9.5307  -9.5307  -9.5307  -9.5307  -8.7403  -8.7403  -8.7403  -8.7403
    -8.6930  -8.6930  -8.6930  -8.6930  -8.2902  -8.2902  -8.2902  -8.2902
    -8.2487  -8.2486  -8.2486  -8.2486  -7.7462  -7.7462  -7.7462  -7.7462
     1.2674   1.2674   1.2674   1.2675   2.9347   2.9347   2.9347   2.9347
     3.0521   3.0521   3.0521   3.0521   3.1897   3.1897   3.1897   3.1897
     3.3065   3.3065   3.3065   3.3065   3.4836   3.4836   3.4836   3.4837
     3.6729   3.6730   3.6730   3.6730   4.3484   4.3484   4.3484   4.3484
     4.4629   4.4629   4.4629   4.4629   5.1858   5.1858   5.1858   5.1858
     5.5946   5.5946   5.5946   5.5946   6.1943   6.1943   6.1943   6.1943
     6.4354   6.4355   6.4355   6.4355   6.5695   6.5695   6.5695   6.5695
     7.2979   7.2979   7.2979   7.2979   7.3973   7.3973   7.3973   7.3973
     7.4673   7.4673   7.4673   7.4673   7.5984   7.5984   7.5984   7.5984
    11.1716  11.1717  11.1717  11.1717  11.3845  11.3845  11.3845  11.3845
    12.2167  12.2167  12.2167  12.2167  12.2658  12.2658  12.2658  12.2658
    12.9217  12.9217  12.9217  12.9217  13.4903  13.4903  13.4903  13.4903
    15.5385  15.5385  15.5385  15.5385  16.8496  16.8496  16.8496  16.8496
    17.3362  17.3362  17.3362  17.3362  17.4085

          k = 0.1667 0.0000 0.1667 ( 62234 PWs)   bands (ev):

   -66.1635 -66.1631 -66.1626 -66.1626 -66.1622 -66.1622 -66.1617 -66.1613
   -30.5543 -30.5524 -30.5495 -30.5478 -30.5380 -30.5338 -30.5327 -30.5291
   -30.4934 -30.4923 -30.4904 -30.4855 -30.4684 -30.4646 -30.4565 -30.4535
   -30.4524 -30.4487 -30.4417 -30.4363 -30.4314 -30.4249 -30.4222 -30.4168
   -20.3234 -20.3233 -20.3232 -20.3231 -20.3230 -20.3229 -20.3228 -20.3228
   -20.3024 -20.3020 -20.3018 -20.3017 -20.3014 -20.3014 -20.3010 -20.3008
   -20.2989 -20.2986 -20.2984 -20.2983 -20.2980 -20.2980 -20.2978 -20.2974
   -20.2967 -20.2965 -20.2964 -20.2962 -20.2922 -20.2919 -20.2917 -20.2912
   -20.2910 -20.2909 -20.2904 -20.2901 -20.2898 -20.2897 -20.2892 -20.2891
   -20.2849 -20.2848 -20.2844 -20.2842 -20.2834 -20.2833 -20.2823 -20.2821
   -20.2784 -20.2783 -20.2771 -20.2770 -20.2770 -20.2767 -20.2758 -20.2756
    -9.8914  -9.6609  -9.5004  -9.4536  -9.3163  -9.2401  -9.0620  -9.0437
    -8.9086  -8.7552  -8.7471  -8.7417  -7.9835  -7.9738  -7.9277  -7.9151
    -7.8773  -7.8711  -7.8347  -7.8024  -7.7102  -7.6636  -7.6583  -7.6173
     1.3159   1.3236   1.4025   1.4126   1.4764   1.5022   1.5549   1.7752
     1.7818   1.7899   1.8249   2.0201   2.4454   2.5301   2.7117   2.7253
     2.8330   2.8592   4.0574   4.0900   4.2428   4.2660   4.3663   4.3815
     4.3867   4.4417   4.6646   4.7337   4.7639   4.9002   5.1005   5.2352
     5.2452   5.3018   5.3326   5.5138   5.5749   5.5810   5.6121   5.6756
     5.6834   5.7956   5.8131   5.8977   5.9858   6.0923   6.1470   6.1954
     6.3496   6.4260   6.5122   6.6233   6.6377   6.7708   6.7753   6.7803
     6.8028   6.8464   6.8676   6.8708   6.8939   6.9459   6.9486   7.0417
     7.1294   7.1890   7.7973   7.7999   8.0145   8.0607   8.0951   8.1339
     9.9346   9.9816  10.1859  10.2277  10.2419  10.3383  12.1989  12.3033
    12.3853  12.4004  12.4167  12.4461  12.5447  12.5906  12.7253  12.9301
    13.0299  13.1398  13.3175  13.3676  13.6819  13.7256  13.9308  13.9676
    14.2755  14.4558  14.5701  15.1542  15.2752  15.5736  15.5885  16.3829
    16.3914  16.9617  16.9799  17.1731  17.6352

          k = 0.1667 0.0000 0.3333 ( 62265 PWs)   bands (ev):

   -66.1633 -66.1629 -66.1628 -66.1624 -66.1624 -66.1620 -66.1619 -66.1615
   -30.5374 -30.5373 -30.5353 -30.5346 -30.5322 -30.5314 -30.5298 -30.5298
   -30.4988 -30.4975 -30.4883 -30.4860 -30.4831 -30.4822 -30.4706 -30.4664
   -30.4518 -30.4496 -30.4410 -30.4383 -30.4303 -30.4268 -30.4213 -30.4183
   -20.3233 -20.3232 -20.3231 -20.3231 -20.3231 -20.3230 -20.3229 -20.3228
   -20.3022 -20.3019 -20.3019 -20.3016 -20.3015 -20.3013 -20.3012 -20.3009
   -20.2989 -20.2987 -20.2984 -20.2982 -20.2981 -20.2981 -20.2977 -20.2975
   -20.2967 -20.2965 -20.2965 -20.2963 -20.2923 -20.2920 -20.2917 -20.2914
   -20.2910 -20.2909 -20.2903 -20.2902 -20.2884 -20.2884 -20.2877 -20.2876
   -20.2853 -20.2851 -20.2846 -20.2843 -20.2843 -20.2841 -20.2833 -20.2833
   -20.2782 -20.2780 -20.2773 -20.2771 -20.2769 -20.2767 -20.2761 -20.2759
    -9.7517  -9.5079  -9.5059  -9.2906  -9.2822  -9.0545  -8.9527  -8.9442
    -8.9191  -8.7569  -8.7230  -8.6966  -8.2874  -8.2776  -8.2251  -8.1939
    -7.9232  -7.8927  -7.8643  -7.8320  -7.7016  -7.6741  -7.6514  -7.6267
     1.4711   1.4768   1.5148   1.5173   1.7160   1.7259   1.7608   1.8083
     2.1353   2.1954   2.2965   2.4035   2.7187   2.7376   2.8178   2.8263
     2.9599   3.0744   3.6816   3.7909   3.8953   3.9324   4.1910   4.2209
     4.2467   4.4414   4.4868   4.5600   4.5994   4.6825   4.7041   4.8036
     4.9501   5.0082   5.0513   5.1482   5.2201   5.3324   5.6146   5.6425
     5.6974   5.8185   5.8737   5.9339   5.9589   5.9670   6.0556   6.1259
     6.3843   6.4713   6.5131   6.5718   6.6523   6.6920   6.7104   6.7886
     6.8420   6.8630   6.8717   6.9130   6.9900   7.0467   7.1203   7.1518
     7.2764   7.3444   7.7245   7.7322   7.9439   7.9933   8.0530   8.0633
    10.1726  10.1761  10.5759  10.6581  10.8652  10.9604  11.9593  12.0222
    12.1971  12.3719  12.4667  12.5294  12.5605  12.5822  12.7512  12.7550
    12.7933  13.0614  13.1688  13.2724  13.5719  13.5965  13.7299  13.7641
    14.3854  14.5448  14.7308  15.1807  15.4609  15.8443  16.0500  16.3029
    16.4356  17.2497  17.4651  17.5671  17.6468

          k = 0.1667 0.0000-0.5000 ( 62322 PWs)   bands (ev):

   -66.1630 -66.1630 -66.1626 -66.1626 -66.1622 -66.1621 -66.1618 -66.1617
   -30.5357 -30.5357 -30.5318 -30.5318 -30.5142 -30.5142 -30.5108 -30.5108
   -30.5105 -30.5105 -30.5067 -30.5066 -30.4831 -30.4830 -30.4777 -30.4777
   -30.4507 -30.4507 -30.4398 -30.4398 -30.4287 -30.4287 -30.4199 -30.4199
   -20.3232 -20.3232 -20.3231 -20.3231 -20.3230 -20.3230 -20.3230 -20.3229
   -20.3021 -20.3020 -20.3017 -20.3017 -20.3014 -20.3014 -20.3011 -20.3011
   -20.2988 -20.2988 -20.2983 -20.2982 -20.2982 -20.2981 -20.2977 -20.2977
   -20.2966 -20.2966 -20.2964 -20.2964 -20.2922 -20.2922 -20.2916 -20.2916
   -20.2910 -20.2910 -20.2902 -20.2902 -20.2867 -20.2867 -20.2866 -20.2866
   -20.2859 -20.2859 -20.2858 -20.2858 -20.2843 -20.2843 -20.2840 -20.2839
   -20.2778 -20.2778 -20.2776 -20.2776 -20.2765 -20.2765 -20.2763 -20.2763
    -9.6066  -9.6066  -9.3648  -9.3648  -9.0659  -9.0659  -8.8014  -8.8014
    -8.6747  -8.6746  -8.6508  -8.6508  -8.5898  -8.5898  -8.5209  -8.5209
    -7.8950  -7.8950  -7.8617  -7.8617  -7.6882  -7.6882  -7.6393  -7.6393
     1.4787   1.4787   1.5289   1.5289   1.7456   1.7456   1.7902   1.7902
     2.7564   2.7564   2.9520   2.9520   3.0241   3.0241   3.1044   3.1044
     3.1521   3.1521   3.3038   3.3038   3.4557   3.4557   3.7524   3.7524
     3.8617   3.8617   4.4007   4.4007   4.5612   4.5612   4.8240   4.8240
     4.9152   4.9152   4.9868   4.9868   5.1578   5.1578   5.6905   5.6905
     5.7291   5.7291   5.7831   5.7831   5.9423   5.9423   6.1029   6.1029
     6.3638   6.3638   6.5688   6.5688   6.6080   6.6080   6.7998   6.7998
     6.8354   6.8354   6.8965   6.8965   6.9623   6.9623   7.4895   7.4895
     7.5105   7.5105   7.6769   7.6769   7.7305   7.7305   8.0617   8.0617
    10.1867  10.1867  11.2968  11.2969  11.3819  11.3819  11.6046  11.6046
    11.7478  11.7479  12.5502  12.5502  12.6133  12.6133  12.8141  12.8141
    12.9394  12.9394  13.1708  13.1708  13.2819  13.2820  13.7332  13.7332
    14.4907  14.4907  15.0025  15.0025  15.8938  15.8938  16.1165  16.1165
    16.8597  16.8597  17.8831  17.8831  18.0143

          k = 0.1667 0.1575 0.1667 ( 62255 PWs)   bands (ev):

   -66.1634 -66.1631 -66.1626 -66.1626 -66.1622 -66.1622 -66.1617 -66.1613
   -30.5541 -30.5524 -30.5493 -30.5478 -30.5375 -30.5337 -30.5326 -30.5294
   -30.4902 -30.4894 -30.4871 -30.4821 -30.4687 -30.4650 -30.4565 -30.4540
   -30.4528 -30.4496 -30.4413 -30.4358 -30.4351 -30.4282 -30.4249 -30.4193
   -20.3234 -20.3233 -20.3232 -20.3231 -20.3230 -20.3229 -20.3228 -20.3228
   -20.3023 -20.3020 -20.3018 -20.3017 -20.3015 -20.3013 -20.3011 -20.3008
   -20.2989 -20.2986 -20.2984 -20.2982 -20.2981 -20.2980 -20.2978 -20.2975
   -20.2964 -20.2962 -20.2961 -20.2959 -20.2925 -20.2921 -20.2920 -20.2915
   -20.2910 -20.2908 -20.2905 -20.2902 -20.2898 -20.2898 -20.2892 -20.2891
   -20.2849 -20.2848 -20.2844 -20.2843 -20.2834 -20.2833 -20.2823 -20.2821
   -20.2784 -20.2783 -20.2771 -20.2770 -20.2770 -20.2767 -20.2758 -20.2756
    -9.8688  -9.6710  -9.4777  -9.4273  -9.3225  -9.2472  -9.0607  -9.0449
    -8.8381  -8.7058  -8.6973  -8.6953  -7.9895  -7.9724  -7.9306  -7.9201
    -7.8821  -7.8774  -7.8388  -7.8091  -7.7917  -7.7497  -7.7469  -7.7098
     1.3163   1.3228   1.4099   1.4131   1.4921   1.5050   1.6570   1.7828
     1.9637   2.0057   2.0322   2.1753   2.4521   2.5250   2.7878   2.7970
     2.9064   2.9253   3.9458   3.9909   4.0937   4.1423   4.3206   4.3594
     4.3724   4.3860   4.6183   4.7481   4.7823   4.8940   4.9973   5.1642
     5.2190   5.2644   5.3070   5.3288   5.4007   5.5408   5.5491   5.6311
     5.6860   5.7785   5.8786   5.9058   5.9316   6.0091   6.1202   6.1925
     6.3424   6.3630   6.4993   6.5882   6.6697   6.7089   6.7551   6.7821
     6.8125   6.8408   6.8715   6.9000   6.9523   6.9758   7.0060   7.0532
     7.1427   7.1911   7.7964   7.8005   7.9790   8.0122   8.0440   8.0605
     9.9624   9.9975  10.3344  10.3687  10.3983  10.4725  12.1092  12.2405
    12.3349  12.3519  12.4005  12.4132  12.4615  12.4756  12.7610  12.9430
    13.0321  13.1345  13.3158  13.3606  13.6975  13.7343  13.8386  13.8894
    14.4969  14.7595  14.8040  15.2521  15.5743  15.5842  15.6794  16.3440
    16.3622  16.8654  17.0572  17.0825  17.6170

          k = 0.1667 0.1575 0.3333 ( 62260 PWs)   bands (ev):

   -66.1633 -66.1629 -66.1628 -66.1624 -66.1624 -66.1620 -66.1619 -66.1615
   -30.5373 -30.5371 -30.5350 -30.5343 -30.5322 -30.5313 -30.5300 -30.5299
   -30.4967 -30.4951 -30.4862 -30.4851 -30.4823 -30.4799 -30.4698 -30.4651
   -30.4530 -30.4507 -30.4406 -30.4378 -30.4340 -30.4302 -30.4239 -30.4208
   -20.3233 -20.3232 -20.3231 -20.3231 -20.3231 -20.3230 -20.3229 -20.3228
   -20.3022 -20.3019 -20.3018 -20.3016 -20.3015 -20.3013 -20.3012 -20.3010
   -20.2988 -20.2986 -20.2984 -20.2982 -20.2982 -20.2980 -20.2978 -20.2976
   -20.2964 -20.2962 -20.2962 -20.2960 -20.2925 -20.2922 -20.2921 -20.2917
   -20.2910 -20.2909 -20.2904 -20.2903 -20.2884 -20.2884 -20.2877 -20.2876
   -20.2853 -20.2851 -20.2846 -20.2844 -20.2843 -20.2842 -20.2834 -20.2833
   -20.2782 -20.2780 -20.2773 -20.2771 -20.2769 -20.2767 -20.2761 -20.2759
    -9.7266  -9.5167  -9.4805  -9.2899  -9.2581  -9.0609  -8.9419  -8.9244
    -8.8801  -8.7128  -8.6766  -8.6570  -8.2915  -8.2743  -8.2326  -8.1902
    -7.9253  -7.8991  -7.8681  -7.8391  -7.7860  -7.7590  -7.7440  -7.7194
     1.4909   1.4987   1.5144   1.5176   1.8888   1.9053   1.9778   2.0209
     2.1351   2.2245   2.2967   2.4365   2.7268   2.7865   2.8342   2.8962
     3.0346   3.1394   3.6811   3.7824   3.8484   3.9300   4.0834   4.1451
     4.2639   4.3970   4.4175   4.5097   4.5780   4.6167   4.6792   4.7898
     4.8707   4.8885   4.9648   5.1248   5.1521   5.1811   5.4100   5.5862
     5.6545   5.7151   5.8017   5.8829   5.9243   5.9433   6.0051   6.0236
     6.3323   6.4868   6.5640   6.6692   6.6985   6.7339   6.7480   6.7518
     6.8285   6.8827   6.9276   6.9911   6.9985   7.0731   7.1194   7.1694
     7.2738   7.3405   7.7261   7.7301   7.9018   7.9365   8.0068   8.0151
    10.3264  10.3425  10.5967  10.6710  10.9641  11.0391  11.9580  12.0179
    12.1760  12.3259  12.4292  12.4799  12.5142  12.5417  12.6660  12.7000
    12.7914  13.0321  13.1475  13.2748  13.4711  13.5194  13.7284  13.7443
    14.6400  14.7767  15.0851  15.5033  15.6168  15.8355  16.0660  16.2722
    16.5262  17.2127  17.2899  17.5252  17.6226

          k = 0.1667 0.1575-0.5000 ( 62292 PWs)   bands (ev):

   -66.1630 -66.1630 -66.1627 -66.1627 -66.1621 -66.1621 -66.1618 -66.1618
   -30.5354 -30.5354 -30.5320 -30.5320 -30.5135 -30.5134 -30.5106 -30.5106
   -30.5097 -30.5097 -30.5066 -30.5066 -30.4807 -30.4807 -30.4751 -30.4751
   -30.4519 -30.4519 -30.4394 -30.4394 -30.4323 -30.4323 -30.4225 -30.4225
   -20.3232 -20.3232 -20.3231 -20.3231 -20.3230 -20.3230 -20.3230 -20.3229
   -20.3020 -20.3020 -20.3017 -20.3017 -20.3014 -20.3014 -20.3012 -20.3012
   -20.2987 -20.2987 -20.2983 -20.2983 -20.2981 -20.2981 -20.2977 -20.2977
   -20.2963 -20.2963 -20.2961 -20.2961 -20.2924 -20.2924 -20.2919 -20.2919
   -20.2910 -20.2910 -20.2903 -20.2903 -20.2867 -20.2867 -20.2866 -20.2866
   -20.2859 -20.2859 -20.2858 -20.2858 -20.2843 -20.2843 -20.2840 -20.2840
   -20.2778 -20.2778 -20.2776 -20.2776 -20.2765 -20.2765 -20.2763 -20.2763
    -9.5798  -9.5798  -9.3738  -9.3738  -9.0110  -9.0110  -8.7743  -8.7742
    -8.6782  -8.6782  -8.6527  -8.6527  -8.5727  -8.5727  -8.5044  -8.5044
    -7.8992  -7.8992  -7.8668  -7.8668  -7.7734  -7.7733  -7.7320  -7.7320
     1.5046   1.5046   1.5281   1.5282   1.9393   1.9393   2.0106   2.0106
     2.8162   2.8162   2.9655   2.9655   3.0318   3.0318   3.1119   3.1119
     3.1548   3.1548   3.3282   3.3282   3.4485   3.4485   3.7741   3.7741
     3.9175   3.9175   4.2587   4.2587   4.4796   4.4796   4.7145   4.7145
     4.8541   4.8541   4.9424   4.9424   5.0426   5.0426   5.5171   5.5171
     5.6869   5.6869   5.7379   5.7379   5.8574   5.8574   5.9702   5.9702
     6.4652   6.4652   6.6153   6.6153   6.6933   6.6933   6.7948   6.7948
     6.8274   6.8274   6.9228   6.9228   7.0293   7.0293   7.4928   7.4928
     7.5074   7.5074   7.6534   7.6534   7.6991   7.6991   8.0130   8.0130
    10.3565  10.3565  11.3034  11.3034  11.3823  11.3823  11.6660  11.6660
    11.7991  11.7991  12.4565  12.4565  12.5675  12.5675  12.7741  12.7741
    12.9158  12.9158  13.0701  13.0701  13.2411  13.2411  13.7176  13.7176
    14.7345  14.7345  15.3788  15.3788  15.9836  15.9836  16.0948  16.0948
    16.8970  16.8970  17.7260  17.7260  17.9873

          k = 0.1667 0.3150 0.1667 ( 62249 PWs)   bands (ev):

   -66.1634 -66.1632 -66.1625 -66.1625 -66.1623 -66.1623 -66.1616 -66.1614
   -30.5537 -30.5527 -30.5489 -30.5480 -30.5365 -30.5342 -30.5319 -30.5300
   -30.4824 -30.4819 -30.4783 -30.4725 -30.4704 -30.4670 -30.4584 -30.4559
   -30.4521 -30.4508 -30.4453 -30.4399 -30.4364 -30.4340 -30.4310 -30.4250
   -20.3234 -20.3233 -20.3232 -20.3232 -20.3230 -20.3229 -20.3228 -20.3228
   -20.3022 -20.3019 -20.3019 -20.3016 -20.3015 -20.3012 -20.3012 -20.3009
   -20.2988 -20.2985 -20.2985 -20.2982 -20.2981 -20.2979 -20.2979 -20.2976
   -20.2956 -20.2954 -20.2952 -20.2950 -20.2933 -20.2929 -20.2928 -20.2925
   -20.2910 -20.2908 -20.2907 -20.2904 -20.2898 -20.2898 -20.2892 -20.2891
   -20.2848 -20.2847 -20.2845 -20.2844 -20.2834 -20.2833 -20.2822 -20.2821
   -20.2784 -20.2783 -20.2771 -20.2770 -20.2769 -20.2768 -20.2758 -20.2756
    -9.8133  -9.7013  -9.4267  -9.3677  -9.3419  -9.2695  -9.0571  -9.0481
    -8.6396  -8.5536  -8.5493  -8.5460  -8.0837  -8.0338  -8.0250  -8.0002
    -7.9675  -7.9373  -7.9163  -7.9042  -7.8656  -7.8397  -7.8153  -7.8036
     1.3172   1.3211   1.4136   1.4152   1.5031   1.5058   1.7497   1.7811
     2.4568   2.4972   2.5152   2.5921   2.6272   2.7435   3.0104   3.0359
     3.1148   3.1518   3.6144   3.6626   3.7536   3.7871   4.1440   4.3108
     4.3304   4.3482   4.3825   4.5427   4.6031   4.8334   4.8550   4.9505
     4.9987   5.0434   5.1531   5.1721   5.3377   5.3811   5.4560   5.4591
     5.6842   5.6982   5.7237   5.7523   5.8470   5.8551   6.1318   6.1627
     6.3715   6.4021   6.4631   6.5995   6.6865   6.7005   6.7890   6.8225
     6.8767   6.8895   6.9802   6.9995   7.0804   7.0846   7.1525   7.1676
     7.2443   7.2503   7.7718   7.7972   7.8285   7.8457   7.8602   7.8724
     9.9927  10.0067  10.7469  10.7723  10.8351  10.8726  11.7870  11.9003
    11.9625  11.9901  12.3970  12.4127  12.4229  12.4387  12.8557  12.9644
    13.1082  13.1936  13.3085  13.3399  13.5170  13.6120  13.6382  13.7146
    15.1871  15.3662  15.4354  15.5702  15.5925  15.6675  16.2132  16.2431
    16.3540  16.6518  17.2238  17.3769  17.3965

          k = 0.1667 0.3150 0.3333 ( 62265 PWs)   bands (ev):

   -66.1632 -66.1630 -66.1627 -66.1625 -66.1623 -66.1621 -66.1618 -66.1616
   -30.5371 -30.5369 -30.5342 -30.5336 -30.5321 -30.5313 -30.5302 -30.5301
   -30.4922 -30.4895 -30.4868 -30.4829 -30.4767 -30.4708 -30.4667 -30.4604
   -30.4574 -30.4544 -30.4441 -30.4396 -30.4389 -30.4360 -30.4301 -30.4269
   -20.3233 -20.3232 -20.3231 -20.3231 -20.3230 -20.3230 -20.3229 -20.3229
   -20.3021 -20.3018 -20.3017 -20.3017 -20.3015 -20.3014 -20.3013 -20.3011
   -20.2987 -20.2985 -20.2985 -20.2983 -20.2981 -20.2979 -20.2978 -20.2976
   -20.2956 -20.2954 -20.2953 -20.2951 -20.2933 -20.2930 -20.2929 -20.2927
   -20.2910 -20.2908 -20.2906 -20.2905 -20.2884 -20.2884 -20.2877 -20.2877
   -20.2853 -20.2851 -20.2845 -20.2844 -20.2844 -20.2843 -20.2834 -20.2833
   -20.2781 -20.2780 -20.2773 -20.2772 -20.2768 -20.2767 -20.2761 -20.2760
    -9.6658  -9.5475  -9.4190  -9.3142  -9.1863  -9.0815  -8.9368  -8.9264
    -8.6912  -8.5773  -8.5331  -8.5247  -8.3105  -8.2690  -8.2616  -8.1765
    -8.0363  -8.0195  -7.9946  -7.9634  -7.8995  -7.8831  -7.8407  -7.8269
     1.5035   1.5078   1.5161   1.5195   2.1051   2.1331   2.2194   2.2949
     2.5116   2.5868   2.6227   2.7025   2.7529   2.8272   3.0279   3.1020
     3.2646   3.3441   3.6253   3.6613   3.7296   3.7709   3.8001   3.8733
     4.1186   4.3175   4.3780   4.4006   4.4512   4.4710   4.6001   4.6327
     4.6529   4.8195   4.8627   4.9146   4.9843   5.0528   5.1186   5.1884
     5.3277   5.3951   5.4989   5.6975   5.7256   5.8521   5.9935   6.0144
     6.4573   6.5393   6.6087   6.7275   6.7784   6.7975   6.8837   6.8958
     6.9606   7.0233   7.0504   7.0743   7.1276   7.1740   7.2293   7.2445
     7.2813   7.3392   7.7146   7.7278   7.7561   7.7671   7.8413   7.8551
    10.5680  10.5904  10.8224  10.8699  11.2464  11.3066  11.8636  11.9459
    12.0143  12.0859  12.1007  12.1965  12.5449  12.6069  12.6199  12.6676
    12.8535  13.0220  13.0428  13.2303  13.2800  13.3767  13.5798  13.6062
    15.3038  15.3705  15.7970  15.8814  15.9046  16.0922  16.2142  16.5428
    16.8170  16.8298  17.0773  17.4544  17.6764

          k = 0.1667 0.3150-0.5000 ( 62264 PWs)   bands (ev):

   -66.1629 -66.1629 -66.1627 -66.1627 -66.1621 -66.1620 -66.1619 -66.1618
   -30.5345 -30.5345 -30.5326 -30.5326 -30.5120 -30.5120 -30.5106 -30.5106
   -30.5080 -30.5080 -30.5066 -30.5066 -30.4737 -30.4737 -30.4671 -30.4671
   -30.4561 -30.4561 -30.4421 -30.4421 -30.4377 -30.4377 -30.4286 -30.4286
   -20.3232 -20.3231 -20.3231 -20.3231 -20.3230 -20.3230 -20.3230 -20.3230
   -20.3019 -20.3019 -20.3016 -20.3016 -20.3016 -20.3015 -20.3013 -20.3013
   -20.2986 -20.2986 -20.2984 -20.2984 -20.2980 -20.2980 -20.2977 -20.2977
   -20.2955 -20.2955 -20.2953 -20.2953 -20.2932 -20.2932 -20.2928 -20.2928
   -20.2909 -20.2909 -20.2905 -20.2905 -20.2867 -20.2867 -20.2866 -20.2866
   -20.2859 -20.2859 -20.2858 -20.2858 -20.2842 -20.2842 -20.2840 -20.2840
   -20.2777 -20.2777 -20.2776 -20.2776 -20.2765 -20.2765 -20.2764 -20.2764
    -9.5166  -9.5166  -9.4018  -9.4018  -8.8781  -8.8780  -8.7281  -8.7281
    -8.6870  -8.6870  -8.6598  -8.6598  -8.4866  -8.4866  -8.4352  -8.4352
    -8.0289  -8.0289  -7.9865  -7.9865  -7.8711  -7.8711  -7.8543  -7.8543
     1.5212   1.5212   1.5274   1.5274   2.4929   2.4929   2.5950   2.5950
     2.9404   2.9404   3.0052   3.0052   3.0704   3.0704   3.1342   3.1342
     3.1877   3.1877   3.3970   3.3970   3.4224   3.4224   3.7213   3.7213
     4.0598   4.0598   4.0769   4.0769   4.1214   4.1214   4.3549   4.3549
     4.7668   4.7668   4.8510   4.8510   5.0033   5.0033   5.0837   5.0837
     5.1133   5.1133   5.5725   5.5725   5.7942   5.7942   5.8749   5.8749
     6.5983   6.5983   6.7112   6.7112   6.7526   6.7526   6.8223   6.8224
     7.0634   7.0634   7.1104   7.1104   7.1975   7.1975   7.4959   7.4959
     7.5040   7.5040   7.5681   7.5681   7.6039   7.6039   7.8451   7.8451
    10.7954  10.7954  11.3150  11.3150  11.3869  11.3869  11.8026  11.8026
    11.9662  11.9662  12.1173  12.1173  12.5105  12.5105  12.5715  12.5716
    12.8422  12.8422  12.9107  12.9107  13.2353  13.2353  13.5560  13.5560
    15.3490  15.3490  15.9924  15.9924  16.2591  16.2592  16.3702  16.3702
    17.0305  17.0305  17.3662  17.3662  17.8700

          k = 0.1667-0.4725 0.1667 ( 62220 PWs)   bands (ev):

   -66.1633 -66.1633 -66.1624 -66.1624 -66.1624 -66.1624 -66.1615 -66.1615
   -30.5531 -30.5531 -30.5484 -30.5484 -30.5353 -30.5353 -30.5309 -30.5309
   -30.4747 -30.4747 -30.4728 -30.4728 -30.4672 -30.4672 -30.4592 -30.4592
   -30.4545 -30.4545 -30.4454 -30.4453 -30.4367 -30.4366 -30.4306 -30.4306
   -20.3233 -20.3233 -20.3232 -20.3232 -20.3229 -20.3229 -20.3228 -20.3228
   -20.3020 -20.3020 -20.3017 -20.3017 -20.3014 -20.3014 -20.3011 -20.3011
   -20.2987 -20.2986 -20.2983 -20.2983 -20.2980 -20.2980 -20.2977 -20.2977
   -20.2944 -20.2944 -20.2941 -20.2941 -20.2940 -20.2940 -20.2938 -20.2938
   -20.2909 -20.2909 -20.2906 -20.2906 -20.2898 -20.2898 -20.2892 -20.2892
   -20.2847 -20.2846 -20.2845 -20.2845 -20.2833 -20.2833 -20.2822 -20.2822
   -20.2784 -20.2784 -20.2771 -20.2771 -20.2769 -20.2769 -20.2757 -20.2757
    -9.7510  -9.7510  -9.3769  -9.3767  -9.3096  -9.3096  -9.0525  -9.0525
    -8.3600  -8.3590  -8.3139  -8.3130  -8.3050  -8.3042  -8.2952  -8.2932
    -7.9621  -7.9605  -7.9162  -7.9157  -7.8591  -7.8588  -7.8120  -7.8115
     1.3180   1.3200   1.4142   1.4158   1.5052   1.5062   1.7733   1.7751
     2.4851   2.4869   3.1256   3.1297   3.1857   3.2210   3.2464   3.2741
     3.3692   3.3699   3.4095   3.4278   3.6686   3.6768   3.7031   3.7097
     3.8555   3.8589   4.3171   4.3588   4.3603   4.3816   4.9907   5.0108
     5.0996   5.1000   5.1933   5.2368   5.2512   5.2803   5.4419   5.4474
     5.5096   5.5178   5.6856   5.7262   5.7527   5.7706   6.1571   6.1593
     6.4179   6.4306   6.5238   6.5243   6.6777   6.6988   6.8409   6.8418
     6.8549   6.8743   7.0257   7.0287   7.1198   7.1252   7.4958   7.4992
     7.5065   7.5151   7.5438   7.5617   7.5655   7.5726   7.8078   7.8111
    10.0042  10.0057  11.2636  11.2885  11.3071  11.3392  11.4019  11.4082
    11.4675  11.4696  12.3988  12.4166  12.4198  12.4393  12.9550  12.9580
    13.2747  13.2882  13.3050  13.3059  13.3620  13.3775  13.5870  13.5905
    15.5456  15.5506  15.7791  15.8062  15.9284  15.9597  15.9723  15.9815
    16.4844  16.4861  17.7470  17.7569  17.8819

          k = 0.1667-0.4725 0.3333 ( 62252 PWs)   bands (ev):

   -66.1631 -66.1631 -66.1626 -66.1626 -66.1622 -66.1622 -66.1617 -66.1617
   -30.5369 -30.5369 -30.5336 -30.5334 -30.5318 -30.5317 -30.5303 -30.5302
   -30.4885 -30.4885 -30.4849 -30.4849 -30.4661 -30.4660 -30.4610 -30.4609
   -30.4574 -30.4574 -30.4510 -30.4510 -30.4358 -30.4357 -30.4326 -30.4326
   -20.3233 -20.3233 -20.3231 -20.3231 -20.3230 -20.3230 -20.3229 -20.3229
   -20.3019 -20.3019 -20.3016 -20.3016 -20.3015 -20.3015 -20.3012 -20.3012
   -20.2986 -20.2986 -20.2984 -20.2984 -20.2979 -20.2979 -20.2978 -20.2978
   -20.2944 -20.2944 -20.2942 -20.2942 -20.2941 -20.2941 -20.2939 -20.2939
   -20.2908 -20.2908 -20.2907 -20.2907 -20.2884 -20.2884 -20.2877 -20.2877
   -20.2852 -20.2852 -20.2844 -20.2844 -20.2844 -20.2843 -20.2833 -20.2833
   -20.2781 -20.2781 -20.2772 -20.2772 -20.2768 -20.2768 -20.2760 -20.2760
    -9.5992  -9.5992  -9.3576  -9.3575  -9.1219  -9.1215  -8.9313  -8.9311
    -8.4413  -8.4388  -8.3868  -8.3804  -8.3062  -8.3011  -8.2888  -8.2856
    -8.2093  -8.2065  -8.1331  -8.1314  -7.8974  -7.8967  -7.8379  -7.8378
     1.5064   1.5078   1.5174   1.5202   2.1278   2.1298   2.2832   2.2843
     2.7531   2.7607   3.1532   3.1675   3.2099   3.2180   3.2749   3.2978
     3.3647   3.3721   3.4938   3.4973   3.6544   3.6546   3.7270   3.7609
     3.7999   3.8087   3.9087   3.9153   4.4248   4.4331   4.5428   4.5603
     4.6416   4.7163   4.8184   4.8315   4.9794   4.9900   5.0235   5.1252
     5.2446   5.3062   5.3364   5.4650   5.7411   5.7634   5.9935   6.0130
     6.5210   6.5298   6.6740   6.6985   6.8119   6.8217   6.9077   6.9298
     7.0097   7.0734   7.1659   7.1831   7.2020   7.2124   7.4710   7.4817
     7.4941   7.4953   7.5295   7.5466   7.5508   7.5678   7.7411   7.7476
    10.6030  10.6040  11.3603  11.3642  11.4275  11.4352  11.6619  11.6699
    11.7276  11.7514  12.0073  12.0459  12.5498  12.6113  12.7707  12.7962
    12.8415  12.8807  13.0265  13.0880  13.2958  13.3157  13.4646  13.5042
    15.6717  15.6785  15.8673  15.8673  16.3959  16.4109  16.6351  16.6786
    16.7082  16.7282  17.3626  17.3700  17.6669

          k = 0.1667-0.4725-0.5000 ( 62232 PWs)   bands (ev):

   -66.1628 -66.1628 -66.1628 -66.1628 -66.1620 -66.1619 -66.1619 -66.1619
   -30.5335 -30.5335 -30.5334 -30.5334 -30.5110 -30.5110 -30.5110 -30.5110
   -30.5070 -30.5070 -30.5070 -30.5070 -30.4642 -30.4642 -30.4641 -30.4641
   -30.4550 -30.4550 -30.4550 -30.4550 -30.4344 -30.4343 -30.4343 -30.4343
   -20.3231 -20.3231 -20.3231 -20.3231 -20.3230 -20.3230 -20.3230 -20.3230
   -20.3017 -20.3017 -20.3017 -20.3017 -20.3014 -20.3014 -20.3014 -20.3014
   -20.2985 -20.2985 -20.2985 -20.2985 -20.2979 -20.2979 -20.2979 -20.2979
   -20.2943 -20.2943 -20.2943 -20.2943 -20.2941 -20.2941 -20.2941 -20.2941
   -20.2908 -20.2907 -20.2907 -20.2907 -20.2867 -20.2867 -20.2867 -20.2867
   -20.2859 -20.2858 -20.2858 -20.2858 -20.2841 -20.2841 -20.2841 -20.2841
   -20.2777 -20.2777 -20.2777 -20.2777 -20.2764 -20.2764 -20.2764 -20.2764
    -9.4505  -9.4505  -9.4504  -9.4504  -8.7629  -8.7629  -8.7605  -8.7605
    -8.6752  -8.6752  -8.6721  -8.6721  -8.2899  -8.2899  -8.2860  -8.2860
    -8.2558  -8.2558  -8.2521  -8.2521  -7.8677  -7.8677  -7.8672  -7.8672
     1.5253   1.5253   1.5265   1.5265   2.9388   2.9388   2.9443   2.9443
     3.0466   3.0467   3.0812   3.0812   3.2018   3.2018   3.2458   3.2458
     3.3226   3.3226   3.3515   3.3515   3.5065   3.5065   3.5265   3.5265
     3.6972   3.6972   3.7213   3.7213   4.3467   4.3467   4.3474   4.3474
     4.4449   4.4449   4.4598   4.4598   4.8323   4.8323   4.9523   4.9523
     5.2373   5.2373   5.3721   5.3721   5.7974   5.7974   5.8244   5.8244
     6.6682   6.6682   6.6819   6.6819   6.8070   6.8070   6.8204   6.8204
     7.2834   7.2834   7.3447   7.3447   7.3879   7.3879   7.3996   7.3996
     7.4706   7.4706   7.4922   7.4922   7.5835   7.5835   7.6180   7.6180
    11.2372  11.2372  11.2751  11.2751  11.4623  11.4623  11.5277  11.5277
    12.2180  12.2180  12.2245  12.2245  12.2533  12.2533  12.2804  12.2804
    12.8099  12.8099  12.8814  12.8814  13.3264  13.3264  13.3772  13.3772
    15.7873  15.7873  15.7960  15.7960  16.8992  16.8992  16.9048  16.9048
    17.3238  17.3240  17.3522  17.3522  17.4024

          k = 0.3333 0.0000 0.3333 ( 62316 PWs)   bands (ev):

   -66.1631 -66.1627 -66.1626 -66.1626 -66.1622 -66.1622 -66.1621 -66.1617
   -30.5352 -30.5345 -30.5325 -30.5321 -30.5208 -30.5186 -30.5146 -30.5130
   -30.4994 -30.4962 -30.4920 -30.4852 -30.4831 -30.4799 -30.4753 -30.4678
   -30.4662 -30.4648 -30.4559 -30.4516 -30.4291 -30.4256 -30.4246 -30.4214
   -20.3233 -20.3232 -20.3232 -20.3231 -20.3230 -20.3230 -20.3229 -20.3229
   -20.3022 -20.3020 -20.3018 -20.3016 -20.3016 -20.3014 -20.3012 -20.3010
   -20.2988 -20.2986 -20.2984 -20.2982 -20.2982 -20.2980 -20.2979 -20.2977
   -20.2967 -20.2966 -20.2965 -20.2964 -20.2922 -20.2919 -20.2918 -20.2915
   -20.2897 -20.2895 -20.2891 -20.2889 -20.2883 -20.2882 -20.2878 -20.2877
   -20.2862 -20.2859 -20.2856 -20.2854 -20.2844 -20.2843 -20.2839 -20.2837
   -20.2779 -20.2778 -20.2772 -20.2771 -20.2770 -20.2769 -20.2765 -20.2762
    -9.6051  -9.3463  -9.3386  -9.3167  -9.0967  -9.0314  -8.9999  -8.8417
    -8.8181  -8.7119  -8.6941  -8.6858  -8.3275  -8.2648  -8.2557  -8.2367
    -8.2100  -8.2084  -8.1306  -8.1072  -7.6946  -7.6682  -7.6634  -7.6382
     1.6714   1.7020   1.7072   1.7467   2.0419   2.0457   2.1425   2.1888
     2.2280   2.2669   2.4274   2.5371   2.9543   2.9646   2.9833   3.0176
     3.1185   3.1491   3.7146   3.8078   3.8168   3.9503   3.9802   4.0046
     4.1654   4.1724   4.2260   4.3181   4.3521   4.3700   4.4699   4.5357
     4.7122   4.7705   4.8744   4.9540   4.9595   4.9696   5.1301   5.3574
     5.3790   5.3997   5.4832   5.7110   6.0358   6.0383   6.0598   6.1392
     6.5106   6.5183   6.5359   6.5937   6.6122   6.6287   6.6511   6.6571
     6.9919   7.0783   7.0965   7.1381   7.1439   7.1771   7.2831   7.3015
     7.3313   7.4553   7.6674   7.6700   7.9013   7.9502   7.9939   8.0105
    10.7073  10.7917  10.8248  10.8966  11.0694  11.2198  12.0743  12.0763
    12.1566  12.2095  12.2249  12.2961  12.4703  12.5116  12.7484  12.7940
    12.8061  12.8871  12.9176  13.0857  13.4556  13.5118  13.5670  13.6533
    14.4480  14.6813  14.6878  15.0871  15.8877  16.3804  16.4035  16.8221
    16.8319  17.2002  17.2231  17.7621  17.8165

          k = 0.3333 0.0000-0.5000 ( 62288 PWs)   bands (ev):

   -66.1628 -66.1628 -66.1624 -66.1624 -66.1623 -66.1623 -66.1619 -66.1619
   -30.5200 -30.5200 -30.5157 -30.5157 -30.5129 -30.5129 -30.5111 -30.5111
   -30.5089 -30.5089 -30.5072 -30.5072 -30.4872 -30.4871 -30.4752 -30.4752
   -30.4667 -30.4667 -30.4545 -30.4545 -30.4275 -30.4275 -30.4231 -30.4231
   -20.3231 -20.3231 -20.3231 -20.3231 -20.3231 -20.3230 -20.3230 -20.3230
   -20.3020 -20.3020 -20.3018 -20.3018 -20.3014 -20.3014 -20.3012 -20.3012
   -20.2987 -20.2987 -20.2983 -20.2983 -20.2981 -20.2981 -20.2978 -20.2978
   -20.2966 -20.2966 -20.2965 -20.2965 -20.2920 -20.2920 -20.2917 -20.2917
   -20.2896 -20.2896 -20.2890 -20.2890 -20.2868 -20.2868 -20.2866 -20.2866
   -20.2860 -20.2860 -20.2859 -20.2859 -20.2852 -20.2852 -20.2850 -20.2850
   -20.2776 -20.2776 -20.2773 -20.2773 -20.2769 -20.2768 -20.2766 -20.2766
    -9.4310  -9.4310  -9.1363  -9.1363  -9.1226  -9.1226  -8.7359  -8.7359
    -8.6994  -8.6994  -8.6201  -8.6201  -8.5696  -8.5696  -8.5284  -8.5284
    -8.1857  -8.1857  -8.1754  -8.1754  -7.6816  -7.6816  -7.6510  -7.6510
     1.6910   1.6910   1.7300   1.7300   2.2194   2.2194   2.2563   2.2563
     2.9104   2.9104   2.9992   2.9992   3.0375   3.0375   3.1306   3.1306
     3.2096   3.2096   3.4860   3.4861   3.6493   3.6493   3.8138   3.8138
     3.8295   3.8295   4.0578   4.0578   4.1809   4.1809   4.3051   4.3051
     4.6159   4.6159   4.8587   4.8587   4.9274   4.9274   5.0480   5.0480
     5.2077   5.2077   5.5670   5.5670   6.0686   6.0686   6.1291   6.1291
     6.4755   6.4755   6.5294   6.5294   6.5757   6.5757   6.6367   6.6367
     7.1223   7.1223   7.1890   7.1890   7.2740   7.2741   7.5125   7.5125
     7.5159   7.5159   7.6836   7.6836   7.7399   7.7399   7.9584   7.9584
    10.7932  10.7932  11.5060  11.5060  11.6111  11.6111  11.6618  11.6618
[...]
   -20.3276 -20.3276 -20.3273 -20.3273 -20.3249 -20.3249 -20.3246 -20.3246
   -20.3204 -20.3204 -20.3203 -20.3203 -20.3183 -20.3183 -20.3182 -20.3181
   -20.3179 -20.3179 -20.3177 -20.3177 -20.3146 -20.3146 -20.3145 -20.3145
   -20.3089 -20.3089 -20.3088 -20.3088 -20.3075 -20.3075 -20.3073 -20.3073
    -9.5032  -9.5032  -9.3490  -9.3490  -8.9784  -8.9784  -8.7517  -8.7517
    -8.6139  -8.6139  -8.5707  -8.5707  -8.5066  -8.5066  -8.4484  -8.4483
    -8.1510  -8.1510  -8.1214  -8.1214  -7.8663  -7.8663  -7.8508  -7.8508
     1.5488   1.5488   1.5578   1.5578   2.3187   2.3187   2.4272   2.4272
     2.9798   2.9798   3.0339   3.0339   3.0631   3.0631   3.2045   3.2045
     3.2469   3.2470   3.4609   3.4609   3.5142   3.5142   3.6959   3.6960
     3.9335   3.9335   4.0130   4.0130   4.1976   4.1976   4.3662   4.3662
     4.6937   4.6937   4.7926   4.7926   4.9734   4.9734   4.9946   4.9946
     5.1025   5.1025   5.4852   5.4852   5.7917   5.7917   5.8432   5.8432
     6.6140   6.6140   6.7475   6.7475   6.7839   6.7839   6.8111   6.8111
     6.9976   6.9976   7.0688   7.0688   7.1367   7.1367   7.4676   7.4676
     7.4904   7.4904   7.5807   7.5807   7.6077   7.6077   7.8300   7.8300
    10.7647  10.7647  11.2594  11.2594  11.3199  11.3199  11.6515  11.6515
    11.9304  11.9304  12.1582  12.1582  12.5411  12.5411  12.6186  12.6186
    12.7843  12.7843  12.9064  12.9064  13.1306  13.1306  13.5708  13.5708
    15.3625  15.3625  15.8189  15.8189  16.3548  16.3548  16.4952  16.4952
    16.7931  16.7931  17.3316  17.3316  17.8354

          k = 0.3317 0.4779 0.1653 ( 62372 PWs)   bands (ev):

   -66.1927 -66.1927 -66.1922 -66.1922 -66.1919 -66.1919 -66.1914 -66.1914
   -30.5552 -30.5552 -30.5517 -30.5516 -30.5461 -30.5460 -30.5392 -30.5392
   -30.5378 -30.5378 -30.5284 -30.5283 -30.5098 -30.5098 -30.5055 -30.5055
   -30.4711 -30.4710 -30.4673 -30.4673 -30.4569 -30.4569 -30.4523 -30.4523
   -20.3558 -20.3558 -20.3557 -20.3557 -20.3554 -20.3554 -20.3553 -20.3553
   -20.3347 -20.3347 -20.3344 -20.3344 -20.3340 -20.3340 -20.3338 -20.3338
   -20.3304 -20.3304 -20.3300 -20.3300 -20.3300 -20.3300 -20.3296 -20.3296
   -20.3264 -20.3264 -20.3261 -20.3261 -20.3261 -20.3261 -20.3258 -20.3258
   -20.3205 -20.3205 -20.3202 -20.3202 -20.3198 -20.3198 -20.3197 -20.3197
   -20.3164 -20.3164 -20.3163 -20.3163 -20.3148 -20.3148 -20.3142 -20.3142
   -20.3091 -20.3091 -20.3086 -20.3086 -20.3076 -20.3076 -20.3072 -20.3072
    -9.5403  -9.5402  -9.3238  -9.3235  -9.0365  -9.0364  -8.8337  -8.8337
    -8.5767  -8.5753  -8.4928  -8.4919  -8.4505  -8.4484  -8.4402  -8.4401
    -8.1808  -8.1806  -8.1071  -8.1056  -7.8883  -7.8880  -7.8297  -7.8296
     1.5401   1.5436   1.5530   1.5557   2.2306   2.2320   2.3854   2.3915
     2.8701   2.8776   3.0531   3.0583   3.1279   3.1441   3.2053   3.2130
     3.3108   3.3108   3.4163   3.4606   3.5619   3.5719   3.7271   3.7277
     3.7788   3.8005   3.8855   3.9383   4.3100   4.3338   4.5686   4.5714
     4.6364   4.6640   4.8068   4.8453   4.8909   4.9759   4.9920   5.0183
     5.1101   5.1625   5.3288   5.3972   5.7224   5.7413   6.0307   6.0326
     6.5936   6.6239   6.6530   6.6562   6.8121   6.8132   6.9120   6.9490
     7.0437   7.0834   7.1159   7.1576   7.1797   7.1887   7.4221   7.4308
     7.4766   7.4878   7.4917   7.5200   7.5371   7.5477   7.7600   7.7615
    10.5680  10.5737  11.3080  11.3252  11.3547  11.3572  11.7542  11.7555
    11.7750  11.7846  11.9283  11.9848  12.4621  12.5075  12.6731  12.6864
    12.8203  12.8396  13.0613  13.1363  13.2610  13.3056  13.3255  13.3944
    15.5451  15.5644  15.7888  15.8001  16.2251  16.2402  16.5862  16.6108
    16.8380  16.8476  17.4126  17.4531  17.8291

          k =-0.4975 0.4779 0.1653 ( 62360 PWs)   bands (ev):

   -66.1924 -66.1924 -66.1924 -66.1924 -66.1917 -66.1917 -66.1917 -66.1917
   -30.5533 -30.5533 -30.5530 -30.5530 -30.5423 -30.5423 -30.5412 -30.5412
   -30.5322 -30.5322 -30.5314 -30.5314 -30.4914 -30.4914 -30.4905 -30.4905
   -30.4884 -30.4884 -30.4870 -30.4870 -30.4554 -30.4554 -30.4553 -30.4553
   -20.3557 -20.3557 -20.3557 -20.3557 -20.3553 -20.3553 -20.3553 -20.3553
   -20.3346 -20.3346 -20.3346 -20.3346 -20.3339 -20.3339 -20.3339 -20.3339
   -20.3302 -20.3302 -20.3302 -20.3302 -20.3298 -20.3298 -20.3298 -20.3298
   -20.3263 -20.3263 -20.3262 -20.3262 -20.3260 -20.3260 -20.3259 -20.3259
   -20.3204 -20.3204 -20.3204 -20.3203 -20.3181 -20.3181 -20.3180 -20.3180
   -20.3180 -20.3180 -20.3179 -20.3179 -20.3145 -20.3145 -20.3145 -20.3145
   -20.3088 -20.3088 -20.3088 -20.3088 -20.3074 -20.3074 -20.3074 -20.3074
    -9.4137  -9.4137  -9.4070  -9.4070  -8.7582  -8.7582  -8.7318  -8.7318
    -8.6249  -8.6249  -8.6013  -8.6013  -8.4287  -8.4286  -8.3874  -8.3874
    -8.3717  -8.3717  -8.3344  -8.3344  -7.8593  -7.8593  -7.8592  -7.8592
     1.5529   1.5529   1.5594   1.5594   2.9055   2.9055   3.0082   3.0082
     3.0464   3.0464   3.0663   3.0663   3.1850   3.1850   3.2174   3.2174
     3.3315   3.3315   3.4054   3.4054   3.4888   3.4888   3.5245   3.5245
     3.5512   3.5512   3.8348   3.8348   4.2263   4.2263   4.2878   4.2878
     4.3196   4.3196   4.4070   4.4070   4.8450   4.8450   4.9868   4.9868
     5.1370   5.1370   5.2647   5.2647   5.7939   5.7939   5.8157   5.8157
     6.6861   6.6861   6.7518   6.7518   6.7992   6.7992   6.8412   6.8412
     7.2247   7.2247   7.2553   7.2553   7.3321   7.3321   7.4021   7.4021
     7.4645   7.4646   7.5429   7.5429   7.5684   7.5684   7.6061   7.6061
    11.2261  11.2261  11.2861  11.2861  11.3287  11.3287  11.4181  11.4181
    12.1705  12.1705  12.2117  12.2117  12.2869  12.2869  12.3407  12.3407
    12.7615  12.7615  12.8319  12.8319  13.2713  13.2713  13.3325  13.3325
    15.6824  15.6824  15.7017  15.7017  16.8340  16.8340  16.9469  16.9469
    17.2923  17.2924  17.3777  17.3777  17.4426

          k =-0.4975 0.0000 0.3307 ( 62398 PWs)   bands (ev):

   -66.1925 -66.1925 -66.1921 -66.1921 -66.1920 -66.1920 -66.1916 -66.1916
   -30.5758 -30.5758 -30.5727 -30.5727 -30.5321 -30.5321 -30.5208 -30.5208
   -30.5170 -30.5170 -30.5136 -30.5136 -30.4949 -30.4949 -30.4926 -30.4926
   -30.4894 -30.4894 -30.4771 -30.4771 -30.4703 -30.4703 -30.4650 -30.4650
   -20.3557 -20.3557 -20.3556 -20.3556 -20.3554 -20.3554 -20.3554 -20.3554
   -20.3347 -20.3347 -20.3344 -20.3344 -20.3342 -20.3342 -20.3338 -20.3338
   -20.3303 -20.3303 -20.3303 -20.3303 -20.3301 -20.3301 -20.3299 -20.3299
   -20.3286 -20.3286 -20.3285 -20.3285 -20.3236 -20.3236 -20.3233 -20.3233
   -20.3192 -20.3192 -20.3191 -20.3191 -20.3184 -20.3184 -20.3182 -20.3182
   -20.3176 -20.3176 -20.3176 -20.3176 -20.3158 -20.3158 -20.3155 -20.3155
   -20.3087 -20.3087 -20.3084 -20.3084 -20.3080 -20.3080 -20.3076 -20.3076
    -9.5003  -9.5003  -9.2836  -9.2836  -9.0786  -9.0786  -8.7878  -8.7878
    -8.6253  -8.6253  -8.5511  -8.5511  -8.5019  -8.5018  -8.4763  -8.4763
    -8.1623  -8.1623  -8.1509  -8.1509  -7.7909  -7.7909  -7.7681  -7.7681
     1.4610   1.4610   1.4934   1.4934   2.2435   2.2435   2.2867   2.2867
     2.9056   2.9056   3.0022   3.0022   3.0210   3.0210   3.1868   3.1869
     3.2687   3.2687   3.5607   3.5607   3.6895   3.6895   3.7969   3.7969
     3.8271   3.8271   3.9993   3.9993   4.1749   4.1749   4.3755   4.3755
     4.6582   4.6582   4.8815   4.8815   5.0427   5.0427   5.0481   5.0481
     5.2944   5.2944   5.5307   5.5307   5.9591   5.9591   6.0570   6.0570
     6.3724   6.3724   6.4051   6.4051   6.4923   6.4923   6.5418   6.5418
     7.1079   7.1079   7.2256   7.2256   7.2943   7.2943   7.4776   7.4776
     7.5230   7.5231   7.6453   7.6454   7.6725   7.6725   7.9621   7.9621
    10.8029  10.8029  11.3705  11.3705  11.4451  11.4451  11.5928  11.5928
    11.7968  11.7968  12.2260  12.2260  12.4318  12.4318  12.5967  12.5967
    12.8400  12.8400  13.1880  13.1880  13.2241  13.2241  13.5943  13.5943
    14.7605  14.7605  15.1178  15.1178  16.2661  16.2661  16.6306  16.6306
    16.9489  16.9489  17.4213  17.4213  17.9456

          k =-0.4975-0.1593 0.3307 ( 62388 PWs)   bands (ev):

   -66.1925 -66.1925 -66.1921 -66.1921 -66.1920 -66.1920 -66.1916 -66.1916
   -30.5719 -30.5719 -30.5687 -30.5687 -30.5331 -30.5331 -30.5211 -30.5211
   -30.5198 -30.5198 -30.5151 -30.5151 -30.4947 -30.4947 -30.4926 -30.4926
   -30.4894 -30.4894 -30.4789 -30.4789 -30.4703 -30.4703 -30.4660 -30.4660
   -20.3557 -20.3557 -20.3556 -20.3556 -20.3554 -20.3554 -20.3554 -20.3554
   -20.3347 -20.3347 -20.3343 -20.3343 -20.3342 -20.3342 -20.3338 -20.3338
   -20.3303 -20.3303 -20.3302 -20.3302 -20.3301 -20.3301 -20.3299 -20.3299
   -20.3284 -20.3284 -20.3282 -20.3282 -20.3239 -20.3239 -20.3237 -20.3237
   -20.3192 -20.3192 -20.3191 -20.3191 -20.3183 -20.3183 -20.3182 -20.3182
   -20.3177 -20.3177 -20.3176 -20.3176 -20.3158 -20.3158 -20.3156 -20.3156
   -20.3087 -20.3087 -20.3085 -20.3085 -20.3079 -20.3079 -20.3076 -20.3076
    -9.4495  -9.4495  -9.2144  -9.2144  -9.0894  -9.0894  -8.7629  -8.7629
    -8.6348  -8.6348  -8.5476  -8.5476  -8.4994  -8.4994  -8.4737  -8.4737
    -8.1604  -8.1604  -8.1554  -8.1554  -7.8910  -7.8910  -7.8684  -7.8684
     1.6883   1.6883   1.7263   1.7263   2.2433   2.2433   2.2950   2.2950
     2.9575   2.9575   3.0291   3.0291   3.0431   3.0432   3.1968   3.1968
     3.2734   3.2734   3.5864   3.5864   3.7076   3.7076   3.8182   3.8182
     3.8271   3.8271   4.0413   4.0413   4.1542   4.1542   4.3817   4.3817
     4.5332   4.5332   4.6921   4.6921   4.9649   4.9649   5.0027   5.0028
     5.0490   5.0490   5.3002   5.3002   5.7227   5.7227   5.8293   5.8293
     6.5331   6.5331   6.5534   6.5534   6.6231   6.6231   6.7402   6.7402
     7.1191   7.1191   7.2226   7.2226   7.2945   7.2945   7.4794   7.4794
     7.5181   7.5181   7.6326   7.6326   7.6614   7.6614   7.9099   7.9099
    10.9016  10.9016  11.4093  11.4093  11.5113  11.5113  11.6025  11.6025
    11.8353  11.8353  12.2536  12.2536  12.4267  12.4267  12.6088  12.6088
    12.6992  12.6992  13.0644  13.0644  13.0986  13.0986  13.4806  13.4806
    15.1173  15.1173  15.4894  15.4894  16.3458  16.3458  16.6330  16.6330
    16.9569  16.9569  17.4469  17.4469  17.8003

          k =-0.4975-0.3186 0.3307 ( 62346 PWs)   bands (ev):

   -66.1924 -66.1924 -66.1921 -66.1921 -66.1919 -66.1919 -66.1917 -66.1917
   -30.5614 -30.5614 -30.5576 -30.5576 -30.5377 -30.5377 -30.5292 -30.5292
   -30.5209 -30.5209 -30.5184 -30.5184 -30.4942 -30.4942 -30.4926 -30.4926
   -30.4889 -30.4889 -30.4829 -30.4829 -30.4701 -30.4701 -30.4680 -30.4680
   -20.3557 -20.3557 -20.3556 -20.3556 -20.3554 -20.3554 -20.3554 -20.3554
   -20.3346 -20.3346 -20.3343 -20.3343 -20.3342 -20.3342 -20.3339 -20.3339
   -20.3302 -20.3302 -20.3301 -20.3301 -20.3300 -20.3300 -20.3298 -20.3298
   -20.3275 -20.3275 -20.3274 -20.3274 -20.3249 -20.3249 -20.3247 -20.3247
   -20.3192 -20.3192 -20.3191 -20.3191 -20.3182 -20.3182 -20.3181 -20.3181
   -20.3178 -20.3178 -20.3178 -20.3178 -20.3157 -20.3157 -20.3156 -20.3156
   -20.3086 -20.3086 -20.3085 -20.3085 -20.3079 -20.3079 -20.3077 -20.3077
    -9.3264  -9.3264  -9.1268  -9.1268  -9.0274  -9.0274  -8.6945  -8.6945
    -8.6583  -8.6583  -8.5412  -8.5412  -8.4869  -8.4868  -8.4556  -8.4556
    -8.1931  -8.1931  -8.1568  -8.1568  -8.1334  -8.1334  -8.0823  -8.0823
     2.1582   2.1582   2.2417   2.2417   2.3351   2.3351   2.4606   2.4606
     3.0196   3.0196   3.0590   3.0590   3.1723   3.1723   3.2281   3.2281
     3.3151   3.3151   3.6320   3.6320   3.6818   3.6818   3.7856   3.7856
     3.9033   3.9033   4.0488   4.0488   4.1794   4.1794   4.1866   4.1866
     4.3163   4.3163   4.4658   4.4658   4.6070   4.6070   4.8175   4.8175
     4.8899   4.8899   4.9931   4.9931   5.0246   5.0246   5.3058   5.3059
     6.8308   6.8308   6.8934   6.8934   6.9709   6.9709   7.0031   7.0031
     7.1468   7.1468   7.2259   7.2259   7.3041   7.3041   7.4667   7.4667
     7.5011   7.5011   7.5849   7.5849   7.6106   7.6106   7.7568   7.7568
    11.1941  11.1941  11.4824  11.4824  11.5798  11.5798  11.7381  11.7381
    11.9882  11.9882  12.2985  12.2985  12.3358  12.3358  12.4041  12.4041
    12.6714  12.6714  12.7705  12.7705  12.7920  12.7920  13.2039  13.2039
    15.9263  15.9263  16.3681  16.3681  16.5881  16.5881  16.6611  16.6611
    17.0014  17.0014  17.4004  17.4004  17.6049

          k =-0.4975 0.4779 0.3307 ( 62332 PWs)   bands (ev):

   -66.1923 -66.1923 -66.1923 -66.1923 -66.1918 -66.1918 -66.1918 -66.1918
   -30.5485 -30.5485 -30.5478 -30.5478 -30.5434 -30.5434 -30.5424 -30.5424
   -30.5207 -30.5207 -30.5202 -30.5202 -30.4937 -30.4937 -30.4930 -30.4930
   -30.4873 -30.4873 -30.4859 -30.4859 -30.4697 -30.4697 -30.4693 -30.4693
   -20.3556 -20.3556 -20.3556 -20.3556 -20.3554 -20.3554 -20.3554 -20.3554
   -20.3344 -20.3344 -20.3344 -20.3344 -20.3341 -20.3341 -20.3341 -20.3341
   -20.3301 -20.3301 -20.3301 -20.3301 -20.3299 -20.3299 -20.3299 -20.3299
   -20.3263 -20.3263 -20.3262 -20.3262 -20.3262 -20.3261 -20.3260 -20.3260
   -20.3191 -20.3191 -20.3191 -20.3191 -20.3181 -20.3181 -20.3180 -20.3180
   -20.3180 -20.3180 -20.3179 -20.3179 -20.3157 -20.3157 -20.3157 -20.3157
   -20.3086 -20.3086 -20.3086 -20.3086 -20.3078 -20.3078 -20.3078 -20.3078
    -9.2082  -9.2082  -9.1982  -9.1982  -8.8194  -8.8194  -8.7941  -8.7941
    -8.5720  -8.5720  -8.5481  -8.5481  -8.4217  -8.4217  -8.3946  -8.3946
    -8.3635  -8.3635  -8.3429  -8.3429  -8.1433  -8.1433  -8.1425  -8.1425
     2.2264   2.2264   2.2400   2.2400   2.9325   2.9325   2.9884   2.9884
     3.0757   3.0757   3.0935   3.0935   3.1884   3.1884   3.2107   3.2107
     3.4161   3.4161   3.4617   3.4617   3.5804   3.5804   3.6378   3.6378
     3.7814   3.7814   3.9246   3.9246   4.2086   4.2087   4.2225   4.2225
     4.2774   4.2775   4.3461   4.3462   4.4515   4.4515   4.5460   4.5460
     4.6604   4.6604   4.7867   4.7867   5.0091   5.0091   5.0392   5.0392
     6.9499   6.9499   7.0532   7.0532   7.1194   7.1194   7.1411   7.1411
     7.2272   7.2272   7.2920   7.2920   7.3637   7.3637   7.3903   7.3903
     7.4570   7.4570   7.5461   7.5461   7.5619   7.5619   7.6174   7.6174
    11.4704  11.4704  11.5140  11.5140  11.6529  11.6529  11.7565  11.7565
    12.1613  12.1613  12.2247  12.2247  12.2324  12.2324  12.3560  12.3560
    12.4671  12.4671  12.6046  12.6047  12.8611  12.8611  12.9444  12.9444
    16.4335  16.4335  16.4814  16.4814  16.9998  16.9999  17.1010  17.1011
    17.2821  17.2821  17.3919  17.3925  17.4448

     the Fermi energy is     8.9737 ev

!    total energy              =   -6261.11298412 Ry
     Harris-Foulkes estimate   =   -6261.11298412 Ry
     estimated scf accuracy    <          4.3E-12 Ry

     The total energy is the sum of the following terms:

     one-electron contribution =   -4723.05853072 Ry
     hartree contribution      =    2597.92596513 Ry
     xc contribution           =    -965.66506853 Ry
     ewald contribution        =   -3170.31535001 Ry
     smearing contrib. (-TS)   =      -0.00000000 Ry

     convergence has been achieved in  15 iterations

     Forces acting on atoms (cartesian axes, Ry/au):

     atom    1 type  1   force =    -0.00202654    0.00161527    0.00137969
     atom    2 type  1   force =     0.00202654   -0.00161527   -0.00137969
     atom    3 type  1   force =     0.00202654   -0.00161527    0.00137969
     atom    4 type  1   force =    -0.00202654    0.00161527   -0.00137969
     atom    5 type  1   force =     0.00202654    0.00161527   -0.00137969
     atom    6 type  1   force =    -0.00202654   -0.00161527    0.00137969
     atom    7 type  1   force =    -0.00202654   -0.00161527   -0.00137969
     atom    8 type  1   force =     0.00202654    0.00161527    0.00137969
     atom    9 type  2   force =    -0.00022964   -0.00064024    0.00008269
     atom   10 type  2   force =     0.00022964    0.00064024   -0.00008269
     atom   11 type  2   force =     0.00022964    0.00064024    0.00008269
     atom   12 type  2   force =    -0.00022964   -0.00064024   -0.00008269
     atom   13 type  2   force =     0.00022964   -0.00064024   -0.00008269
     atom   14 type  2   force =    -0.00022964    0.00064024    0.00008269
     atom   15 type  2   force =    -0.00022964    0.00064024   -0.00008269
     atom   16 type  2   force =     0.00022964   -0.00064024    0.00008269
     atom   17 type  2   force =    -0.00109909   -0.00004551    0.00074382
     atom   18 type  2   force =     0.00109909    0.00004551   -0.00074382
     atom   19 type  2   force =     0.00109909    0.00004551    0.00074382
     atom   20 type  2   force =    -0.00109909   -0.00004551   -0.00074382
     atom   21 type  2   force =     0.00109909   -0.00004551   -0.00074382
     atom   22 type  2   force =    -0.00109909    0.00004551    0.00074382
     atom   23 type  2   force =    -0.00109909    0.00004551   -0.00074382
     atom   24 type  2   force =     0.00109909   -0.00004551    0.00074382
     atom   25 type  2   force =    -0.00110051   -0.00049353    0.00087891
     atom   26 type  2   force =     0.00110051    0.00049353   -0.00087891
     atom   27 type  2   force =     0.00110051    0.00049353    0.00087891
     atom   28 type  2   force =    -0.00110051   -0.00049353   -0.00087891
     atom   29 type  2   force =     0.00110051   -0.00049353   -0.00087891
     atom   30 type  2   force =    -0.00110051    0.00049353    0.00087891
     atom   31 type  2   force =    -0.00110051    0.00049353   -0.00087891
     atom   32 type  2   force =     0.00110051   -0.00049353    0.00087891

     Total force =     0.000000     Total SCF correction =     0.000000


     Computing stress (Cartesian axis) and pressure

          total   stress  (Ry/bohr**3)                   (kbar)     P=    0.11
   0.00000139   0.00000000   0.00000000          0.20      0.00      0.00
   0.00000000  -0.00000126   0.00000000          0.00     -0.19      0.00
   0.00000000   0.00000000   0.00000217          0.00      0.00      0.32


     Writing output data file Landau_25.save
 
     init_run     :     55.94s CPU     57.91s WALL (       2 calls)
     electrons    :   6263.54s CPU   6387.14s WALL (       6 calls)
     update_pot   :    114.62s CPU    114.84s WALL (       4 calls)
     forces       :    148.19s CPU    150.15s WALL (       6 calls)
     stress       :    975.99s CPU    986.91s WALL (       6 calls)

     Called by init_run:
     wfcinit      :     31.48s CPU     33.09s WALL (       2 calls)
     potinit      :     10.50s CPU     10.58s WALL (       2 calls)

     Called by electrons:
     c_bands      :   5443.09s CPU   5557.74s WALL (      84 calls)
     sum_band     :    741.16s CPU    745.21s WALL (      84 calls)
     v_of_rho     :     10.38s CPU     10.55s WALL (      89 calls)
     mix_rho      :     12.57s CPU     16.31s WALL (      84 calls)

     Called by c_bands:
     init_us_2    :     28.07s CPU     31.23s WALL (     170 calls)
     cegterg      :   3299.61s CPU   3412.54s WALL (      84 calls)

     Called by sum_band:

     Called by *egterg:
     h_psi        :   2401.52s CPU   2412.25s WALL (     325 calls)
     g_psi        :     12.82s CPU     12.89s WALL (     239 calls)
     cdiaghg      :     40.13s CPU     40.20s WALL (     318 calls)

     Called by h_psi:
     h_psi:pot    :   2381.36s CPU   2391.62s WALL (     325 calls)
     h_psi:calbec :    332.90s CPU    340.05s WALL (     325 calls)
     vloc_psi     :   1699.62s CPU   1701.77s WALL (     325 calls)
     add_vuspsi   :    348.83s CPU    349.79s WALL (     325 calls)

     General routines
     calbec       :    380.76s CPU    388.49s WALL (     355 calls)
     fft          :      6.66s CPU      6.70s WALL (     404 calls)
     fftw         :   1787.32s CPU   1788.14s WALL (  108776 calls)
 
     Parallel routines
 
     PWSCF        :     2h 6m CPU        2h 8m WALL

 
   This run was terminated on:  22: 8:41   4Mar2020            

=------------------------------------------------------------------------------=
   JOB DONE.
=------------------------------------------------------------------------------=
