
     Program PWSCF v.6.4.1 starts on 22Nov2019 at  1:38:34 

     This program is part of the open-source Quantum ESPRESSO suite
     for quantum simulation of materials; please cite
         "P. Giannozzi et al., J. Phys.:Condens. Matter 21 395502 (2009);
         "P. Giannozzi et al., J. Phys.:Condens. Matter 29 465901 (2017);
          URL http://www.quantum-espresso.org", 
     in publications or presentations arising from this work. More details at
     http://www.quantum-espresso.org/quote

     Parallel version (MPI), running on    40 processors

     MPI processes distributed on     5 nodes
     K-points division:     npool     =      40
     Reading input from scf.in

     Current dimensions of program PWSCF are:
     Max number of different atomic species (ntypx) = 10
     Max number of k-points (npk) =  40000
     Max angular momentum in pseudopotentials (lmaxx) =  3

     Subspace diagonalization in iterative solution of the eigenvalue problem:
     a serial algorithm will be used

     Message from routine setup:
     using ibrav=0 with symmetry is DISCOURAGED, use correct ibrav instead
 
     G-vector sticks info
     --------------------
     sticks:   dense  smooth     PW     G-vecs:    dense   smooth      PW
     Sum        7653    7653   2049               498273   498273   69043
 


     bravais-lattice index     =            0
     lattice parameter (alat)  =      14.1033  a.u.
     unit-cell volume          =    2805.1449 (a.u.)^3
     number of atoms/cell      =           32
     number of atomic types    =            2
     number of electrons       =       368.52
     number of Kohn-Sham states=          221
     kinetic-energy cutoff     =     120.0000  Ry
     charge density cutoff     =     480.0000  Ry
     convergence threshold     =      1.0E-08
     mixing beta               =       0.7000
     number of iterations used =            8  plain     mixing
     Exchange-correlation      = SLA PW NOGX NOGC ( 1  4  0  0 0 0)

     celldm(1)=  14.103305  celldm(2)=   0.000000  celldm(3)=   0.000000
     celldm(4)=   0.000000  celldm(5)=   0.000000  celldm(6)=   0.000000

     crystal axes: (cart. coord. in units of alat)
               a(1) = (   1.000000   0.000000   0.000000 )  
               a(2) = (   0.000000   1.006644   0.000000 )  
               a(3) = (   0.000000   0.000000   0.993383 )  

     reciprocal axes: (cart. coord. in units 2 pi/alat)
               b(1) = (  1.000000  0.000000  0.000000 )  
               b(2) = (  0.000000  0.993400  0.000000 )  
               b(3) = (  0.000000  0.000000  1.006661 )  


     PseudoPot. # 1 for W  read from file:
     /cluster/scratch/mnoe/QE/pps/W_ONCV_LDA-4.0.upf
     MD5 check sum: ba0307d5d4cd419d6f1d13dc49d7c13a
     Pseudo is Norm-conserving + core correction, Zval = 28.0
     Generated using ONCVPSP code by D. R. Hamann
     Using radial grid of 1380 points,  8 beta functions with: 
                l(1) =   0
                l(2) =   0
                l(3) =   1
                l(4) =   1
                l(5) =   2
                l(6) =   2
                l(7) =   3
                l(8) =   3

     PseudoPot. # 2 for O  read from file:
     /cluster/scratch/mnoe/QE/pps/O_ONCV_LDA-3.0.upf
     MD5 check sum: b55cdb4f45ae2203d24ad12cf8d61a31
     Pseudo is Norm-conserving + core correction, Zval =  6.0
     Generated using ONCVPSP code by D. R. Hamann
     Using radial grid of  926 points,  5 beta functions with: 
                l(1) =   0
                l(2) =   0
                l(3) =   1
                l(4) =   1
                l(5) =   2

     atomic species   valence    mass     pseudopotential
        W             28.00   183.84000     W ( 1.00)
        O              6.00    15.99940     O ( 1.00)

      8 Sym. Ops., with inversion, found ( 6 have fractional translation)



   Cartesian axes

     site n.     atom                  positions (alat units)
         1           W   tau(   1) = (   0.2328900   0.2963813   0.0160531  )
         2           W   tau(   2) = (   0.7671100   0.7102625   0.9773301  )
         3           W   tau(   3) = (   0.2671100   0.2069406   0.5127447  )
         4           W   tau(   4) = (   0.7328900   0.7997032   0.4806385  )
         5           W   tau(   5) = (   0.7671100   0.2963813   0.4806385  )
         6           W   tau(   6) = (   0.2328900   0.7102625   0.5127447  )
         7           W   tau(   7) = (   0.7328900   0.2069406   0.9773301  )
         8           W   tau(   8) = (   0.2671100   0.7997032   0.0160531  )
         9           O   tau(   9) = (   0.2184300   0.0323094   0.0049967  )
        10           O   tau(  10) = (   0.7815700   0.9743345   0.9883864  )
        11           O   tau(  11) = (   0.2815700   0.4710125   0.5016883  )
        12           O   tau(  12) = (   0.7184300   0.5356314   0.4916949  )
        13           O   tau(  13) = (   0.7815700   0.0323094   0.4916949  )
        14           O   tau(  14) = (   0.2184300   0.9743345   0.5016883  )
        15           O   tau(  15) = (   0.7184300   0.4710125   0.9883864  )
        16           O   tau(  16) = (   0.2815700   0.5356314   0.0049967  )
        17           O   tau(  17) = (   0.5046800   0.2190658   0.5110819  )
        18           O   tau(  18) = (   0.4953200   0.7875780   0.4823013  )
        19           O   tau(  19) = (   0.9953200   0.2842561   1.0077734  )
        20           O   tau(  20) = (   0.0046799   0.7223877  -0.0143902  )
        21           O   tau(  21) = (   0.4953200   0.2190658  -0.0143902  )
        22           O   tau(  22) = (   0.5046800   0.7875780   1.0077734  )
        23           O   tau(  23) = (   0.0046799   0.2842561   0.4823013  )
        24           O   tau(  24) = (   0.9953200   0.7223877   0.5110819  )
        25           O   tau(  25) = (   0.7644862   0.2445440   0.7379943  )
        26           O   tau(  26) = (   0.2355139   0.7620998   0.2553888  )
        27           O   tau(  27) = (   0.7355139   0.2587779   0.2413027  )
        28           O   tau(  28) = (   0.2644862   0.7478659   0.7520804  )
        29           O   tau(  29) = (   0.2355139   0.2445440   0.7520804  )
        30           O   tau(  30) = (   0.7644862   0.7620998   0.2413027  )
        31           O   tau(  31) = (   0.2644862   0.2587779   0.2553888  )
        32           O   tau(  32) = (   0.7355139   0.7478659   0.7379943  )

     number of k points=    64  gaussian smearing, width (Ry)=  0.0007
                       cart. coord. in units 2pi/alat
        k(    1) = (   0.0000000   0.0000000   0.0000000), wk =   0.0092593
        k(    2) = (   0.0000000   0.0000000   0.1677768), wk =   0.0185185
        k(    3) = (   0.0000000   0.0000000   0.3355537), wk =   0.0185185
        k(    4) = (   0.0000000   0.0000000  -0.5033305), wk =   0.0092593
        k(    5) = (   0.0000000   0.1655667   0.0000000), wk =   0.0185185
        k(    6) = (   0.0000000   0.1655667   0.1677768), wk =   0.0370370
        k(    7) = (   0.0000000   0.1655667   0.3355537), wk =   0.0370370
        k(    8) = (   0.0000000   0.1655667  -0.5033305), wk =   0.0185185
        k(    9) = (   0.0000000   0.3311333   0.0000000), wk =   0.0185185
        k(   10) = (   0.0000000   0.3311333   0.1677768), wk =   0.0370370
        k(   11) = (   0.0000000   0.3311333   0.3355537), wk =   0.0370370
        k(   12) = (   0.0000000   0.3311333  -0.5033305), wk =   0.0185185
        k(   13) = (   0.0000000  -0.4967000   0.0000000), wk =   0.0092593
        k(   14) = (   0.0000000  -0.4967000   0.1677768), wk =   0.0185185
        k(   15) = (   0.0000000  -0.4967000   0.3355537), wk =   0.0185185
        k(   16) = (   0.0000000  -0.4967000  -0.5033305), wk =   0.0092593
        k(   17) = (   0.1666667   0.0000000   0.0000000), wk =   0.0185185
        k(   18) = (   0.1666667   0.0000000   0.1677768), wk =   0.0370370
        k(   19) = (   0.1666667   0.0000000   0.3355537), wk =   0.0370370
        k(   20) = (   0.1666667   0.0000000  -0.5033305), wk =   0.0185185
        k(   21) = (   0.1666667   0.1655667   0.0000000), wk =   0.0370370
        k(   22) = (   0.1666667   0.1655667   0.1677768), wk =   0.0740741
        k(   23) = (   0.1666667   0.1655667   0.3355537), wk =   0.0740741
        k(   24) = (   0.1666667   0.1655667  -0.5033305), wk =   0.0370370
        k(   25) = (   0.1666667   0.3311333   0.0000000), wk =   0.0370370
        k(   26) = (   0.1666667   0.3311333   0.1677768), wk =   0.0740741
        k(   27) = (   0.1666667   0.3311333   0.3355537), wk =   0.0740741
        k(   28) = (   0.1666667   0.3311333  -0.5033305), wk =   0.0370370
        k(   29) = (   0.1666667  -0.4967000   0.0000000), wk =   0.0185185
        k(   30) = (   0.1666667  -0.4967000   0.1677768), wk =   0.0370370
        k(   31) = (   0.1666667  -0.4967000   0.3355537), wk =   0.0370370
        k(   32) = (   0.1666667  -0.4967000  -0.5033305), wk =   0.0185185
        k(   33) = (   0.3333333   0.0000000   0.0000000), wk =   0.0185185
        k(   34) = (   0.3333333   0.0000000   0.1677768), wk =   0.0370370
        k(   35) = (   0.3333333   0.0000000   0.3355537), wk =   0.0370370
        k(   36) = (   0.3333333   0.0000000  -0.5033305), wk =   0.0185185
        k(   37) = (   0.3333333   0.1655667   0.0000000), wk =   0.0370370
        k(   38) = (   0.3333333   0.1655667   0.1677768), wk =   0.0740741
        k(   39) = (   0.3333333   0.1655667   0.3355537), wk =   0.0740741
        k(   40) = (   0.3333333   0.1655667  -0.5033305), wk =   0.0370370
        k(   41) = (   0.3333333   0.3311333   0.0000000), wk =   0.0370370
        k(   42) = (   0.3333333   0.3311333   0.1677768), wk =   0.0740741
        k(   43) = (   0.3333333   0.3311333   0.3355537), wk =   0.0740741
        k(   44) = (   0.3333333   0.3311333  -0.5033305), wk =   0.0370370
        k(   45) = (   0.3333333  -0.4967000   0.0000000), wk =   0.0185185
        k(   46) = (   0.3333333  -0.4967000   0.1677768), wk =   0.0370370
        k(   47) = (   0.3333333  -0.4967000   0.3355537), wk =   0.0370370
        k(   48) = (   0.3333333  -0.4967000  -0.5033305), wk =   0.0185185
        k(   49) = (  -0.5000000   0.0000000   0.0000000), wk =   0.0092593
        k(   50) = (  -0.5000000   0.0000000   0.1677768), wk =   0.0185185
        k(   51) = (  -0.5000000   0.0000000   0.3355537), wk =   0.0185185
        k(   52) = (  -0.5000000   0.0000000  -0.5033305), wk =   0.0092593
        k(   53) = (  -0.5000000   0.1655667   0.0000000), wk =   0.0185185
        k(   54) = (  -0.5000000   0.1655667   0.1677768), wk =   0.0370370
        k(   55) = (  -0.5000000   0.1655667   0.3355537), wk =   0.0370370
        k(   56) = (  -0.5000000   0.1655667  -0.5033305), wk =   0.0185185
        k(   57) = (  -0.5000000   0.3311333   0.0000000), wk =   0.0185185
        k(   58) = (  -0.5000000   0.3311333   0.1677768), wk =   0.0370370
        k(   59) = (  -0.5000000   0.3311333   0.3355537), wk =   0.0370370
        k(   60) = (  -0.5000000   0.3311333  -0.5033305), wk =   0.0185185
        k(   61) = (  -0.5000000  -0.4967000   0.0000000), wk =   0.0092593
        k(   62) = (  -0.5000000  -0.4967000   0.1677768), wk =   0.0185185
        k(   63) = (  -0.5000000  -0.4967000   0.3355537), wk =   0.0185185
        k(   64) = (  -0.5000000  -0.4967000  -0.5033305), wk =   0.0092593

     Dense  grid:   498273 G-vectors     FFT dimensions: ( 100, 100, 100)

     Estimated max dynamical RAM per process >       3.12 GB

     Estimated total dynamical RAM >     124.89 GB

     Initial potential from superposition of free atoms

     starting charge  367.99656, renormalised to  368.52000
     Starting wfcs are  232 randomized atomic wfcs

     total cpu time spent up to now is       45.2 secs

     Self-consistent Calculation

     iteration #  1     ecut=   120.00 Ry     beta= 0.70
     Davidson diagonalization with overlap
     ethr =  1.00E-02,  avg # of iterations =  5.1

     total cpu time spent up to now is      199.0 secs

     total energy              =   -6253.14573992 Ry
     Harris-Foulkes estimate   =   -6264.22024044 Ry
     estimated scf accuracy    <      13.94695197 Ry

     iteration #  2     ecut=   120.00 Ry     beta= 0.70
     Davidson diagonalization with overlap
     ethr =  3.78E-03,  avg # of iterations =  3.6

     total cpu time spent up to now is      348.7 secs

     total energy              =   -6249.73110351 Ry
     Harris-Foulkes estimate   =   -6270.69844460 Ry
     estimated scf accuracy    <      56.47614243 Ry

     iteration #  3     ecut=   120.00 Ry     beta= 0.70
     Davidson diagonalization with overlap
     ethr =  3.78E-03,  avg # of iterations =  3.3

     total cpu time spent up to now is      489.9 secs

     total energy              =   -6260.57394550 Ry
     Harris-Foulkes estimate   =   -6260.85423557 Ry
     estimated scf accuracy    <       0.95320641 Ry

     iteration #  4     ecut=   120.00 Ry     beta= 0.70
     Davidson diagonalization with overlap
     ethr =  2.59E-04,  avg # of iterations =  2.8

     total cpu time spent up to now is      603.6 secs

     total energy              =   -6260.56216744 Ry
     Harris-Foulkes estimate   =   -6260.64039331 Ry
     estimated scf accuracy    <       0.25069727 Ry

     iteration #  5     ecut=   120.00 Ry     beta= 0.70
     Davidson diagonalization with overlap
     ethr =  6.80E-05,  avg # of iterations =  4.8

     total cpu time spent up to now is      722.6 secs

     total energy              =   -6260.56321586 Ry
     Harris-Foulkes estimate   =   -6260.59712147 Ry
     estimated scf accuracy    <       0.07387663 Ry

     iteration #  6     ecut=   120.00 Ry     beta= 0.70
     Davidson diagonalization with overlap
     ethr =  2.00E-05,  avg # of iterations =  5.5

     total cpu time spent up to now is      856.5 secs

     total energy              =   -6260.58029572 Ry
     Harris-Foulkes estimate   =   -6260.58284767 Ry
     estimated scf accuracy    <       0.00815071 Ry

     iteration #  7     ecut=   120.00 Ry     beta= 0.70
     Davidson diagonalization with overlap
     ethr =  2.21E-06,  avg # of iterations =  5.2

     total cpu time spent up to now is      983.0 secs

     total energy              =   -6260.58067122 Ry
     Harris-Foulkes estimate   =   -6260.58113667 Ry
     estimated scf accuracy    <       0.00109095 Ry

     iteration #  8     ecut=   120.00 Ry     beta= 0.70
     Davidson diagonalization with overlap
     ethr =  2.96E-07,  avg # of iterations =  3.4

     total cpu time spent up to now is     1108.9 secs

     total energy              =   -6260.58088943 Ry
     Harris-Foulkes estimate   =   -6260.58090717 Ry
     estimated scf accuracy    <       0.00004285 Ry

     iteration #  9     ecut=   120.00 Ry     beta= 0.70
     Davidson diagonalization with overlap
     ethr =  1.16E-08,  avg # of iterations =  2.9

     total cpu time spent up to now is     1253.8 secs

     total energy              =   -6260.58089718 Ry
     Harris-Foulkes estimate   =   -6260.58090608 Ry
     estimated scf accuracy    <       0.00003090 Ry

     iteration # 10     ecut=   120.00 Ry     beta= 0.70
     Davidson diagonalization with overlap
     ethr =  8.39E-09,  avg # of iterations =  1.6

     total cpu time spent up to now is     1361.0 secs

     total energy              =   -6260.58089689 Ry
     Harris-Foulkes estimate   =   -6260.58089959 Ry
     estimated scf accuracy    <       0.00000627 Ry

     iteration # 11     ecut=   120.00 Ry     beta= 0.70
     Davidson diagonalization with overlap
     ethr =  1.70E-09,  avg # of iterations =  3.0

     total cpu time spent up to now is     1482.8 secs

     total energy              =   -6260.58089829 Ry
     Harris-Foulkes estimate   =   -6260.58089834 Ry
     estimated scf accuracy    <       0.00000011 Ry

     iteration # 12     ecut=   120.00 Ry     beta= 0.70
     Davidson diagonalization with overlap
     ethr =  2.98E-11,  avg # of iterations =  2.0

     total cpu time spent up to now is     1621.8 secs

     total energy              =   -6260.58089831 Ry
     Harris-Foulkes estimate   =   -6260.58089832 Ry
     estimated scf accuracy    <       0.00000002 Ry

     iteration # 13     ecut=   120.00 Ry     beta= 0.70
     Davidson diagonalization with overlap
     ethr =  4.19E-12,  avg # of iterations =  3.0

     total cpu time spent up to now is     1760.3 secs

     End of self-consistent calculation

          k = 0.0000 0.0000 0.0000 ( 62337 PWs)   bands (ev):

   -66.0317 -66.0311 -66.0311 -66.0310 -66.0305 -66.0304 -66.0304 -66.0298
   -30.4475 -30.4425 -30.4407 -30.4357 -30.3902 -30.3863 -30.3814 -30.3808
   -30.3775 -30.3755 -30.3671 -30.3647 -30.3635 -30.3545 -30.3475 -30.3382
   -30.3028 -30.2994 -30.2898 -30.2857 -30.2808 -30.2774 -30.2744 -30.2711
   -20.1925 -20.1923 -20.1923 -20.1920 -20.1915 -20.1913 -20.1912 -20.1909
   -20.1848 -20.1847 -20.1844 -20.1843 -20.1837 -20.1836 -20.1832 -20.1832
   -20.1759 -20.1755 -20.1752 -20.1747 -20.1721 -20.1715 -20.1714 -20.1708
   -20.1636 -20.1635 -20.1626 -20.1625 -20.1621 -20.1621 -20.1612 -20.1611
   -20.1523 -20.1522 -20.1518 -20.1517 -20.1497 -20.1497 -20.1476 -20.1475
   -20.1452 -20.1452 -20.1430 -20.1429 -20.1415 -20.1415 -20.1406 -20.1406
   -20.1341 -20.1340 -20.1339 -20.1337 -20.1330 -20.1330 -20.1326 -20.1325
    -9.9412  -9.5460  -9.5413  -9.4954  -9.1329  -9.1022  -9.0924  -8.8166
    -8.7774  -8.7131  -8.7109  -8.7064  -7.9277  -7.8362  -7.8280  -7.7575
    -7.7400  -7.7302  -7.7096  -7.6915  -7.5572  -7.5301  -7.4978  -7.4777
     1.3607   1.3901   1.3986   1.3998   1.4195   1.4564   1.4737   1.5196
     1.6148   1.6571   1.6879   1.7649   2.4701   2.5172   2.5360   2.6049
     2.6053   2.7366   4.0586   4.2127   4.2630   4.4589   4.6487   4.7234
     4.7474   4.7478   4.8130   4.8615   4.9552   5.0403   5.3430   5.5744
     5.5779   5.5955   5.7393   5.7515   5.7850   5.8599   5.8951   5.9037
     5.9193   5.9976   6.0439   6.1049   6.1149   6.1363   6.1598   6.1661
     6.3324   6.5020   6.5131   6.5351   6.5458   6.8212   6.8427   6.8767
     6.9195   6.9458   7.0273   7.0524   7.1305   7.1351   7.1724   7.2006
     7.2833   7.2931   8.1745   8.2308   8.2986   8.3251   8.5646   8.5739
     9.6632   9.6929   9.8103   9.9832  10.0216  10.1796  12.4521  12.4545
    12.4595  12.6609  12.7146  12.7959  12.8294  12.9345  12.9831  12.9955
    13.0053  13.1786  13.2955  13.3586  13.8103  14.0145  14.0998  14.1796
    14.1906  14.3256  14.6391  14.8255  15.0510  15.0747  15.3717  15.5806
    15.9657  16.3629  16.8924  17.0278  17.2016

          k = 0.0000 0.0000 0.1678 ( 62313 PWs)   bands (ev):

   -66.0317 -66.0311 -66.0311 -66.0310 -66.0305 -66.0304 -66.0304 -66.0298
   -30.4471 -30.4428 -30.4403 -30.4360 -30.3901 -30.3866 -30.3784 -30.3780
   -30.3725 -30.3721 -30.3674 -30.3652 -30.3613 -30.3515 -30.3482 -30.3366
   -30.3075 -30.3041 -30.2947 -30.2905 -30.2804 -30.2771 -30.2751 -30.2719
   -20.1924 -20.1922 -20.1922 -20.1919 -20.1916 -20.1914 -20.1913 -20.1910
   -20.1848 -20.1847 -20.1844 -20.1843 -20.1837 -20.1836 -20.1832 -20.1832
   -20.1759 -20.1755 -20.1752 -20.1748 -20.1720 -20.1715 -20.1714 -20.1708
   -20.1635 -20.1634 -20.1625 -20.1624 -20.1622 -20.1622 -20.1613 -20.1612
   -20.1523 -20.1521 -20.1519 -20.1518 -20.1496 -20.1496 -20.1477 -20.1477
   -20.1451 -20.1450 -20.1432 -20.1430 -20.1415 -20.1414 -20.1407 -20.1407
   -20.1341 -20.1339 -20.1338 -20.1336 -20.1331 -20.1330 -20.1327 -20.1326
    -9.9016  -9.5615  -9.4900  -9.4453  -9.1140  -9.1030  -9.0532  -8.7870
    -8.7457  -8.7130  -8.6991  -8.6766  -7.9497  -7.8687  -7.8399  -7.8240
    -7.8076  -7.8006  -7.7791  -7.7609  -7.5652  -7.5338  -7.5086  -7.4811
     1.3602   1.4121   1.4208   1.4684   1.5123   1.5167   1.6103   1.6516
     1.6875   1.7291   1.8221   1.8916   2.4743   2.5348   2.6001   2.6674
     2.7098   2.8148   4.0381   4.1814   4.2499   4.3987   4.4303   4.5210
     4.6553   4.7484   4.7550   4.7560   4.8092   4.8707   5.3424   5.5178
     5.5491   5.5971   5.6584   5.6605   5.6831   5.7648   5.8425   5.8610
     5.8827   5.9171   6.0059   6.0256   6.1076   6.1728   6.1923   6.2267
     6.3164   6.5051   6.6585   6.7278   6.7645   6.8040   6.8478   6.8916
     6.9025   6.9481   6.9574   6.9628   7.0005   7.0427   7.0940   7.1741
     7.1849   7.1958   8.1807   8.2236   8.2418   8.2707   8.4907   8.5170
     9.9605   9.9964  10.0358  10.1357  10.1719  10.2608  12.4869  12.5009
    12.5133  12.6897  12.6994  12.7795  12.8023  12.8430  12.8536  12.9342
    12.9460  13.0645  13.1819  13.3603  13.7294  13.8969  14.0315  14.0892
    14.3988  14.5914  14.7768  14.9048  15.0487  15.1142  15.5589  15.7706
    15.9351  16.5492  16.7937  17.0178  17.2894

          k = 0.0000 0.0000 0.3356 ( 62253 PWs)   bands (ev):

   -66.0316 -66.0312 -66.0309 -66.0308 -66.0306 -66.0305 -66.0303 -66.0299
   -30.4462 -30.4437 -30.4394 -30.4369 -30.3895 -30.3874 -30.3732 -30.3730
   -30.3684 -30.3667 -30.3636 -30.3587 -30.3520 -30.3506 -30.3414 -30.3308
   -30.3209 -30.3172 -30.3078 -30.3031 -30.2795 -30.2766 -30.2762 -30.2734
   -20.1923 -20.1921 -20.1920 -20.1918 -20.1918 -20.1916 -20.1915 -20.1912
   -20.1848 -20.1847 -20.1843 -20.1843 -20.1836 -20.1836 -20.1832 -20.1832
   -20.1758 -20.1756 -20.1751 -20.1748 -20.1719 -20.1716 -20.1713 -20.1709
   -20.1632 -20.1632 -20.1625 -20.1624 -20.1622 -20.1622 -20.1615 -20.1615
   -20.1522 -20.1521 -20.1520 -20.1518 -20.1492 -20.1492 -20.1482 -20.1481
   -20.1447 -20.1446 -20.1436 -20.1435 -20.1413 -20.1413 -20.1409 -20.1409
   -20.1338 -20.1337 -20.1336 -20.1334 -20.1333 -20.1332 -20.1329 -20.1328
    -9.8035  -9.6098  -9.3648  -9.3261  -9.1543  -9.1384  -8.8273  -8.7443
    -8.7189  -8.6330  -8.6046  -8.5711  -8.1509  -8.1031  -8.0962  -8.0650
    -7.8654  -7.8497  -7.7933  -7.7704  -7.5659  -7.5436  -7.5107  -7.4902
     1.3667   1.3955   1.4335   1.4564   1.5729   1.6001   1.6021   1.6397
     2.2853   2.3301   2.4148   2.4452   2.4809   2.5633   2.8144   2.8658
     2.9700   3.0350   3.8280   3.8402   4.0218   4.0788   4.0942   4.1667
     4.3206   4.3892   4.6462   4.7482   4.8246   4.8425   4.9751   5.1910
     5.2853   5.3643   5.4787   5.4855   5.5071   5.6909   5.7628   5.8160
     5.8279   5.9572   5.9837   6.1210   6.1228   6.2280   6.2352   6.3112
     6.3499   6.3784   6.4797   6.5253   6.6818   6.6940   6.7156   6.7327
     6.9386   6.9406   6.9507   6.9904   7.1741   7.1749   7.2787   7.2972
     7.3955   7.4782   8.0548   8.0879   8.1914   8.2120   8.2742   8.3229
    10.0707  10.1485  10.6462  10.6894  10.8553  10.9274  12.1800  12.2270
    12.3985  12.5045  12.5815  12.5852  12.6769  12.8152  12.9336  12.9383
    12.9666  13.0272  13.1008  13.3709  13.4478  13.6182  13.6903  13.7615
    14.9765  15.0409  15.1010  15.1209  15.1982  15.4126  15.4886  15.8284
    16.2829  16.7574  17.0434  17.1598  17.4480

          k = 0.0000 0.0000-0.5033 ( 62244 PWs)   bands (ev):

   -66.0314 -66.0314 -66.0308 -66.0308 -66.0307 -66.0307 -66.0301 -66.0301
   -30.4449 -30.4449 -30.4381 -30.4381 -30.3884 -30.3884 -30.3701 -30.3701
   -30.3692 -30.3692 -30.3554 -30.3554 -30.3398 -30.3398 -30.3352 -30.3352
   -30.3252 -30.3252 -30.3188 -30.3188 -30.2782 -30.2782 -30.2749 -30.2749
   -20.1920 -20.1920 -20.1918 -20.1918 -20.1918 -20.1918 -20.1915 -20.1915
   -20.1847 -20.1847 -20.1843 -20.1843 -20.1836 -20.1836 -20.1832 -20.1832
   -20.1757 -20.1757 -20.1749 -20.1749 -20.1717 -20.1717 -20.1711 -20.1711
   -20.1628 -20.1628 -20.1628 -20.1628 -20.1619 -20.1619 -20.1618 -20.1618
   -20.1521 -20.1521 -20.1520 -20.1520 -20.1487 -20.1487 -20.1487 -20.1487
   -20.1441 -20.1441 -20.1440 -20.1440 -20.1411 -20.1411 -20.1411 -20.1411
   -20.1335 -20.1335 -20.1334 -20.1334 -20.1332 -20.1332 -20.1331 -20.1331
    -9.6938  -9.6938  -9.2368  -9.2368  -9.2102  -9.2102  -8.7282  -8.7282
    -8.4976  -8.4976  -8.4072  -8.4071  -8.3866  -8.3866  -8.3584  -8.3584
    -7.8616  -7.8616  -7.7828  -7.7828  -7.5561  -7.5561  -7.5017  -7.5017
     1.3789   1.3789   1.4440   1.4440   1.5888   1.5888   1.6256   1.6256
     2.4835   2.4835   2.9060   2.9060   2.9835   2.9835   3.1019   3.1019
     3.2227   3.2227   3.3585   3.3585   3.6690   3.6690   4.0078   4.0078
     4.0263   4.0263   4.3457   4.3457   4.7615   4.7615   5.1583   5.1583
     5.3382   5.3382   5.3990   5.3990   5.4365   5.4365   5.7872   5.7872
     5.9516   5.9516   6.0966   6.0966   6.1422   6.1422   6.2823   6.2823
     6.3037   6.3037   6.4339   6.4339   6.6101   6.6101   6.6283   6.6283
     6.9157   6.9157   6.9440   6.9440   7.1741   7.1742   7.7220   7.7220
     7.7547   7.7547   7.9020   7.9020   7.9717   7.9717   8.2015   8.2015
    10.1124  10.1124  11.4442  11.4442  11.4934  11.4934  11.6658  11.6658
    11.7423  11.7423  12.6017  12.6017  12.9175  12.9175  12.9372  12.9372
    13.0948  13.0948  13.2872  13.2872  13.3588  13.3588  13.4229  13.4229
    15.0240  15.0240  15.3497  15.3497  15.5922  15.5922  15.7267  15.7267
    16.2474  16.2474  17.5341  17.5341  17.9174

          k = 0.0000 0.1656 0.0000 ( 62289 PWs)   bands (ev):

   -66.0317 -66.0311 -66.0311 -66.0310 -66.0305 -66.0304 -66.0304 -66.0298
   -30.4469 -30.4419 -30.4411 -30.4361 -30.3877 -30.3836 -30.3813 -30.3793
   -30.3773 -30.3749 -30.3676 -30.3640 -30.3596 -30.3510 -30.3448 -30.3358
   -30.3042 -30.3009 -30.2898 -30.2862 -30.2858 -30.2825 -30.2782 -30.2746
   -20.1925 -20.1923 -20.1922 -20.1920 -20.1914 -20.1913 -20.1912 -20.1910
   -20.1848 -20.1847 -20.1844 -20.1843 -20.1836 -20.1836 -20.1832 -20.1832
   -20.1759 -20.1754 -20.1752 -20.1748 -20.1720 -20.1715 -20.1714 -20.1709
   -20.1636 -20.1635 -20.1626 -20.1625 -20.1621 -20.1621 -20.1612 -20.1611
   -20.1520 -20.1519 -20.1515 -20.1514 -20.1498 -20.1498 -20.1478 -20.1477
   -20.1451 -20.1451 -20.1429 -20.1428 -20.1419 -20.1418 -20.1409 -20.1409
   -20.1341 -20.1340 -20.1339 -20.1337 -20.1330 -20.1329 -20.1326 -20.1325
    -9.8982  -9.5139  -9.4974  -9.4886  -9.1449  -9.1062  -9.0173  -8.8139
    -8.7801  -8.6755  -8.6675  -8.6669  -7.9439  -7.8437  -7.8303  -7.7624
    -7.7609  -7.7471  -7.7289  -7.6893  -7.6384  -7.6332  -7.6040  -7.5809
     1.3878   1.3972   1.4462   1.4568   1.5344   1.5518   1.6126   1.6854
     1.6992   1.7167   1.7943   1.8791   2.5418   2.5727   2.6107   2.6481
     2.6897   2.7360   3.8967   4.0248   4.0489   4.2017   4.6439   4.6905
     4.7166   4.7368   4.7984   4.8937   5.0226   5.0860   5.2228   5.3531
     5.5129   5.6128   5.6802   5.7009   5.7145   5.7381   5.8027   5.8204
     5.8701   5.9799   5.9940   6.0193   6.0520   6.0970   6.2743   6.3615
     6.4336   6.4603   6.5494   6.5627   6.7515   6.7679   6.7889   6.8295
     6.9236   6.9499   7.0224   7.0274   7.0316   7.0367   7.1459   7.1768
     7.2698   7.2785   8.1513   8.2008   8.3001   8.3221   8.4721   8.4958
     9.7009   9.7094  10.0154  10.1328  10.2732  10.4081  12.4005  12.4755
    12.4936  12.5306  12.5939  12.7169  12.7617  12.7748  12.9888  12.9955
    13.0140  13.2236  13.2966  13.3988  13.7876  14.0146  14.0890  14.1095
    14.2035  14.4979  14.6333  14.9992  15.0880  15.0916  15.3525  15.5547
    16.1338  16.3572  17.0964  17.2580  17.3532

          k = 0.0000 0.1656 0.1678 ( 62302 PWs)   bands (ev):

   -66.0316 -66.0311 -66.0310 -66.0310 -66.0305 -66.0305 -66.0304 -66.0299
   -30.4465 -30.4422 -30.4407 -30.4364 -30.3875 -30.3838 -30.3784 -30.3759
   -30.3723 -30.3715 -30.3680 -30.3617 -30.3602 -30.3485 -30.3456 -30.3344
   -30.3086 -30.3053 -30.2947 -30.2905 -30.2859 -30.2822 -30.2792 -30.2757
   -20.1924 -20.1922 -20.1922 -20.1919 -20.1915 -20.1913 -20.1913 -20.1910
   -20.1848 -20.1847 -20.1844 -20.1843 -20.1836 -20.1836 -20.1832 -20.1832
   -20.1758 -20.1754 -20.1752 -20.1748 -20.1720 -20.1715 -20.1714 -20.1709
   -20.1635 -20.1634 -20.1625 -20.1624 -20.1622 -20.1622 -20.1613 -20.1612
   -20.1520 -20.1519 -20.1515 -20.1514 -20.1497 -20.1496 -20.1479 -20.1478
   -20.1450 -20.1449 -20.1431 -20.1429 -20.1418 -20.1418 -20.1410 -20.1410
   -20.1341 -20.1339 -20.1338 -20.1337 -20.1331 -20.1330 -20.1327 -20.1326
    -9.8573  -9.5095  -9.4640  -9.4368  -9.1176  -9.0649  -9.0293  -8.7832
    -8.7484  -8.6768  -8.6559  -8.6418  -7.9695  -7.8672  -7.8540  -7.8320
    -7.8097  -7.8067  -7.7799  -7.7643  -7.6596  -7.6388  -7.6174  -7.5986
     1.4725   1.5097   1.5389   1.6053   1.6078   1.6101   1.6880   1.7044
     1.7735   1.8074   1.8206   1.9604   2.5491   2.6094   2.6525   2.7317
     2.7743   2.8106   3.8979   4.0354   4.0383   4.1735   4.4417   4.5164
     4.6743   4.6833   4.7567   4.7750   4.8036   4.8928   5.2211   5.3212
     5.4656   5.5236   5.5762   5.6555   5.6621   5.6767   5.6992   5.7735
     5.7860   5.9430   5.9509   5.9765   6.0396   6.0582   6.3284   6.3590
     6.4041   6.6016   6.6644   6.7091   6.7416   6.7707   6.8029   6.8908
     6.9057   6.9195   6.9407   7.0173   7.0190   7.0341   7.0541   7.0998
     7.1999   7.2387   8.1586   8.1939   8.2445   8.2704   8.4149   8.4415
     9.9950   9.9974  10.2879  10.2909  10.3829  10.4011  12.4624  12.5292
    12.5312  12.5867  12.6431  12.6698  12.7617  12.7938  12.7944  12.8089
    12.9563  13.0895  13.1960  13.3974  13.7004  13.8900  13.9323  14.0036
    14.5073  14.7578  14.7745  15.0127  15.1116  15.1992  15.5267  15.7562
    16.3020  16.3261  16.9879  17.1885  17.3661

          k = 0.0000 0.1656 0.3356 ( 62258 PWs)   bands (ev):

   -66.0315 -66.0312 -66.0309 -66.0309 -66.0306 -66.0306 -66.0303 -66.0300
   -30.4456 -30.4431 -30.4397 -30.4373 -30.3867 -30.3846 -30.3735 -30.3695
   -30.3689 -30.3627 -30.3617 -30.3586 -30.3522 -30.3481 -30.3398 -30.3292
   -30.3214 -30.3179 -30.3077 -30.3029 -30.2849 -30.2814 -30.2812 -30.2779
   -20.1923 -20.1921 -20.1920 -20.1918 -20.1918 -20.1915 -20.1915 -20.1913
   -20.1847 -20.1847 -20.1844 -20.1843 -20.1836 -20.1836 -20.1832 -20.1832
   -20.1758 -20.1755 -20.1751 -20.1749 -20.1719 -20.1716 -20.1713 -20.1710
   -20.1632 -20.1632 -20.1625 -20.1624 -20.1622 -20.1622 -20.1615 -20.1615
   -20.1519 -20.1518 -20.1516 -20.1515 -20.1493 -20.1493 -20.1483 -20.1482
   -20.1446 -20.1445 -20.1435 -20.1434 -20.1417 -20.1416 -20.1412 -20.1411
   -20.1338 -20.1337 -20.1336 -20.1334 -20.1333 -20.1332 -20.1329 -20.1328
    -9.7560  -9.5580  -9.3446  -9.3009  -9.1539  -9.0713  -8.8396  -8.7226
    -8.6833  -8.6359  -8.5824  -8.5476  -8.1668  -8.1060  -8.0991  -8.0610
    -7.8677  -7.8548  -7.7969  -7.7738  -7.6673  -7.6492  -7.6258  -7.6094
     1.5007   1.5279   1.5698   1.5975   1.6677   1.6767   1.7428   1.7749
     2.2921   2.3401   2.4140   2.4593   2.5571   2.6282   2.8619   2.9439
     3.0120   3.0280   3.7611   3.8340   3.9659   4.0151   4.0681   4.1539
     4.2166   4.3263   4.6204   4.6640   4.8194   4.8396   4.9164   5.1342
     5.1608   5.1733   5.2545   5.2922   5.5054   5.5589   5.6564   5.7929
     5.8437   5.9443   5.9526   6.0113   6.0322   6.0760   6.0764   6.1748
     6.4685   6.5726   6.5891   6.6671   6.7114   6.7510   6.7831   6.8079
     6.8269   6.9216   7.0190   7.0463   7.0779   7.1328   7.2894   7.3152
     7.4279   7.4795   8.0603   8.0791   8.1703   8.1936   8.2283   8.2666
    10.3065  10.3791  10.6624  10.6963  10.9451  11.0050  12.1890  12.2273
    12.4197  12.5234  12.5966  12.6282  12.7020  12.7659  12.7800  12.8061
    12.8133  12.9263  13.1420  13.4023  13.4131  13.5699  13.6138  13.6655
    14.9999  15.0353  15.0918  15.2421  15.4607  15.4777  15.5819  16.2151
    16.4453  16.7337  16.8225  17.1450  17.5468

          k = 0.0000 0.1656-0.5033 ( 62250 PWs)   bands (ev):

   -66.0314 -66.0313 -66.0307 -66.0307 -66.0307 -66.0307 -66.0301 -66.0301
   -30.4443 -30.4443 -30.4385 -30.4385 -30.3857 -30.3857 -30.3706 -30.3706
   -30.3647 -30.3647 -30.3535 -30.3535 -30.3399 -30.3399 -30.3355 -30.3355
   -30.3247 -30.3247 -30.3181 -30.3181 -30.2833 -30.2833 -30.2798 -30.2798
   -20.1920 -20.1920 -20.1918 -20.1918 -20.1918 -20.1918 -20.1915 -20.1915
   -20.1847 -20.1847 -20.1843 -20.1843 -20.1836 -20.1836 -20.1832 -20.1832
   -20.1756 -20.1756 -20.1750 -20.1750 -20.1717 -20.1717 -20.1711 -20.1711
   -20.1628 -20.1628 -20.1628 -20.1628 -20.1619 -20.1618 -20.1618 -20.1618
   -20.1518 -20.1518 -20.1517 -20.1517 -20.1488 -20.1488 -20.1488 -20.1488
   -20.1440 -20.1440 -20.1439 -20.1439 -20.1414 -20.1414 -20.1414 -20.1414
   -20.1335 -20.1335 -20.1334 -20.1334 -20.1333 -20.1333 -20.1331 -20.1331
    -9.6434  -9.6434  -9.2274  -9.2274  -9.1602  -9.1602  -8.6952  -8.6952
    -8.5109  -8.5108  -8.4122  -8.4121  -8.3783  -8.3783  -8.3480  -8.3480
    -7.8663  -7.8663  -7.7863  -7.7863  -7.6596  -7.6596  -7.6198  -7.6198
     1.5138   1.5138   1.5859   1.5859   1.6756   1.6756   1.7627   1.7627
     2.5569   2.5569   2.9344   2.9344   3.0197   3.0197   3.0912   3.0913
     3.2150   3.2150   3.3817   3.3817   3.6503   3.6503   4.0462   4.0462
     4.0654   4.0654   4.1718   4.1718   4.6673   4.6673   4.9935   4.9935
     5.1528   5.1529   5.3324   5.3324   5.3506   5.3506   5.7541   5.7541
     5.8961   5.8961   5.9189   5.9189   6.0544   6.0544   6.0854   6.0854
     6.4324   6.4324   6.5895   6.5895   6.7040   6.7040   6.8235   6.8235
     6.8714   6.8715   7.0133   7.0133   7.0611   7.0611   7.7336   7.7336
     7.7483   7.7483   7.8925   7.8925   7.9452   7.9452   8.1809   8.1809
    10.3459  10.3459  11.4495  11.4495  11.4942  11.4942  11.7161  11.7161
    11.7918  11.7918  12.6426  12.6426  12.7843  12.7843  12.9565  12.9565
    13.0520  13.0520  13.1403  13.1403  13.2538  13.2538  13.4383  13.4383
    15.0300  15.0300  15.3280  15.3280  15.8640  15.8640  15.9545  15.9545
    16.3866  16.3866  17.3396  17.3396  17.9682

          k = 0.0000 0.3311 0.0000 ( 62318 PWs)   bands (ev):

   -66.0315 -66.0312 -66.0309 -66.0309 -66.0306 -66.0306 -66.0303 -66.0300
   -30.4455 -30.4422 -30.4405 -30.4372 -30.3834 -30.3812 -30.3779 -30.3769
   -30.3769 -30.3725 -30.3693 -30.3656 -30.3457 -30.3393 -30.3359 -30.3278
   -30.3113 -30.3077 -30.3010 -30.2961 -30.2899 -30.2857 -30.2855 -30.2813
   -20.1924 -20.1923 -20.1922 -20.1920 -20.1914 -20.1912 -20.1912 -20.1910
   -20.1847 -20.1846 -20.1845 -20.1844 -20.1836 -20.1835 -20.1833 -20.1833
   -20.1758 -20.1754 -20.1753 -20.1749 -20.1719 -20.1716 -20.1713 -20.1710
   -20.1635 -20.1635 -20.1626 -20.1625 -20.1621 -20.1621 -20.1612 -20.1611
   -20.1513 -20.1513 -20.1505 -20.1505 -20.1501 -20.1500 -20.1483 -20.1483
   -20.1446 -20.1446 -20.1428 -20.1427 -20.1427 -20.1426 -20.1415 -20.1415
   -20.1341 -20.1340 -20.1339 -20.1338 -20.1330 -20.1329 -20.1327 -20.1326
    -9.7903  -9.5709  -9.3799  -9.3628  -9.1845  -9.1507  -8.8103  -8.7876
    -8.7735  -8.5499  -8.5347  -8.5222  -8.0936  -7.9947  -7.9666  -7.9263
    -7.8364  -7.8255  -7.7778  -7.7700  -7.7247  -7.7003  -7.6829  -7.6532
     1.3885   1.3940   1.4563   1.4574   1.5928   1.6076   1.6498   1.6795
     2.3020   2.3555   2.4522   2.4771   2.6335   2.6515   2.8220   2.8294
     2.9299   2.9680   3.5070   3.5503   3.6822   3.7305   4.1884   4.5058
     4.5661   4.6463   4.7007   4.7587   4.8187   4.8599   5.2058   5.2343
     5.2468   5.2472   5.5736   5.6060   5.6455   5.7109   5.7340   5.8352
     5.8700   5.9222   5.9694   6.0025   6.0427   6.0590   6.2239   6.2535
     6.3366   6.4256   6.4752   6.6138   6.7265   6.7312   6.8187   6.9511
     6.9527   7.0016   7.0226   7.0249   7.1477   7.1584   7.2603   7.2973
     7.3495   7.3607   8.0204   8.0503   8.2001   8.2470   8.3046   8.3161
     9.7187   9.7389  10.5750  10.6372  10.8826  10.9673  11.9790  12.0298
    12.2848  12.3026  12.5032  12.5394  12.6290  12.8840  12.9832  12.9897
    12.9934  13.3094  13.3235  13.4031  13.6818  13.8443  13.9687  13.9859
    14.4614  14.6267  14.8434  14.9439  15.2125  15.2795  15.4805  15.6537
    15.7749  17.1248  17.3082  17.4909  17.7226

          k = 0.0000 0.3311 0.1678 ( 62291 PWs)   bands (ev):

   -66.0315 -66.0311 -66.0309 -66.0309 -66.0306 -66.0305 -66.0303 -66.0300
   -30.4451 -30.4418 -30.4408 -30.4375 -30.3825 -30.3786 -30.3779 -30.3729
   -30.3720 -30.3696 -30.3690 -30.3630 -30.3464 -30.3379 -30.3369 -30.3268
   -30.3141 -30.3108 -30.3006 -30.2957 -30.2946 -30.2903 -30.2880 -30.2838
   -20.1924 -20.1923 -20.1921 -20.1920 -20.1915 -20.1913 -20.1913 -20.1911
   -20.1847 -20.1846 -20.1845 -20.1844 -20.1835 -20.1835 -20.1833 -20.1833
   -20.1757 -20.1753 -20.1753 -20.1750 -20.1719 -20.1715 -20.1713 -20.1710
   -20.1634 -20.1634 -20.1625 -20.1624 -20.1622 -20.1622 -20.1613 -20.1612
   -20.1513 -20.1512 -20.1506 -20.1505 -20.1500 -20.1499 -20.1485 -20.1484
   -20.1445 -20.1445 -20.1428 -20.1427 -20.1427 -20.1427 -20.1416 -20.1416
   -20.1340 -20.1339 -20.1339 -20.1337 -20.1330 -20.1329 -20.1328 -20.1327
    -9.7463  -9.5216  -9.3834  -9.3094  -9.1645  -9.1041  -8.7940  -8.7710
    -8.7557  -8.5522  -8.5199  -8.5151  -8.1146  -8.0129  -7.9692  -7.9305
    -7.8630  -7.8226  -7.8052  -7.8003  -7.7799  -7.7726  -7.7703  -7.7406
     1.4920   1.5039   1.5871   1.6024   1.6793   1.6883   1.7810   1.8162
     2.3091   2.3568   2.4519   2.4896   2.7068   2.7093   2.8187   2.8525
     3.0080   3.0408   3.5389   3.5916   3.6776   3.7259   4.1754   4.4515
     4.4621   4.5544   4.5795   4.6774   4.7309   4.8793   4.9473   4.9726
     5.2350   5.2573   5.4796   5.4874   5.5203   5.5968   5.6835   5.6952
     5.7660   5.9059   5.9130   5.9210   5.9518   6.0139   6.0221   6.0905
     6.5020   6.6072   6.6722   6.6745   6.7549   6.8367   6.8701   6.8881
     6.9504   6.9787   7.0090   7.0602   7.0906   7.1088   7.2536   7.3276
     7.3607   7.3806   8.0264   8.0438   8.1718   8.2068   8.2541   8.2655
    10.0097  10.0226  10.7559  10.8126  10.8914  10.9619  12.0653  12.1090
    12.2806  12.3092  12.5568  12.5839  12.6633  12.7683  12.8109  12.8909
    12.9934  13.1730  13.2256  13.3362  13.5621  13.6811  13.8517  13.8753
    14.7391  14.7746  14.9611  15.0760  15.3269  15.4315  15.6979  15.8096
    15.8773  17.2175  17.2676  17.4411  17.5407

          k = 0.0000 0.3311 0.3356 ( 62286 PWs)   bands (ev):

   -66.0314 -66.0311 -66.0310 -66.0308 -66.0307 -66.0305 -66.0304 -66.0301
   -30.4442 -30.4417 -30.4408 -30.4384 -30.3811 -30.3787 -30.3745 -30.3705
   -30.3627 -30.3594 -30.3586 -30.3531 -30.3487 -30.3404 -30.3328 -30.3240
   -30.3231 -30.3209 -30.3068 -30.3019 -30.2992 -30.2944 -30.2929 -30.2886
   -20.1922 -20.1921 -20.1920 -20.1918 -20.1917 -20.1916 -20.1915 -20.1913
   -20.1847 -20.1846 -20.1844 -20.1844 -20.1835 -20.1835 -20.1833 -20.1833
   -20.1756 -20.1754 -20.1753 -20.1750 -20.1718 -20.1714 -20.1714 -20.1711
   -20.1632 -20.1632 -20.1625 -20.1624 -20.1622 -20.1622 -20.1615 -20.1615
   -20.1512 -20.1511 -20.1508 -20.1507 -20.1497 -20.1496 -20.1488 -20.1488
   -20.1442 -20.1441 -20.1432 -20.1431 -20.1425 -20.1425 -20.1419 -20.1418
   -20.1338 -20.1337 -20.1337 -20.1335 -20.1332 -20.1331 -20.1330 -20.1329
    -9.6374  -9.4311  -9.4027  -9.2038  -9.1413  -8.8827  -8.8387  -8.6833
    -8.6446  -8.5636  -8.4806  -8.4587  -8.2532  -8.1571  -8.0856  -8.0470
    -7.9771  -7.9477  -7.9112  -7.8751  -7.8120  -7.8063  -7.7856  -7.7829
     1.5453   1.5630   1.5748   1.5916   2.1686   2.2440   2.2965   2.3166
     2.4068   2.4234   2.4956   2.6128   2.7640   2.8277   2.9253   3.0149
     3.1951   3.2174   3.5490   3.6479   3.6480   3.7276   3.9747   3.9797
     4.1606   4.3846   4.4299   4.4863   4.5058   4.6675   4.6734   4.8936
     4.9411   5.0512   5.1530   5.1657   5.2614   5.3036   5.4589   5.4618
     5.5108   5.6323   5.8130   5.8911   5.9522   6.0250   6.0396   6.0478
     6.6046   6.6120   6.6326   6.6412   6.6850   6.7131   6.8186   6.8409
     7.0282   7.1942   7.2271   7.2279   7.2757   7.3521   7.3900   7.4017
     7.4591   7.4972   8.0012   8.0378   8.0467   8.0646   8.1065   8.1186
    10.6681  10.6837  10.9271  10.9460  11.2464  11.2941  12.1726  12.2075
    12.2743  12.3340  12.3524  12.3760  12.6137  12.6657  12.7205  12.7576
    12.7612  12.9355  13.1500  13.2132  13.2750  13.3331  13.5500  13.5638
    15.0048  15.0656  15.1166  15.3785  15.4811  16.0560  16.2153  16.3171
    16.6539  16.8201  17.1541  17.5051  17.5868

          k = 0.0000 0.3311-0.5033 ( 62302 PWs)   bands (ev):

   -66.0312 -66.0312 -66.0309 -66.0309 -66.0306 -66.0306 -66.0303 -66.0303
   -30.4429 -30.4429 -30.4396 -30.4396 -30.3798 -30.3798 -30.3721 -30.3721
   -30.3536 -30.3536 -30.3480 -30.3480 -30.3407 -30.3407 -30.3368 -30.3368
   -30.3217 -30.3217 -30.3149 -30.3149 -30.2968 -30.2968 -30.2922 -30.2922
   -20.1920 -20.1920 -20.1918 -20.1918 -20.1917 -20.1917 -20.1916 -20.1916
   -20.1846 -20.1846 -20.1844 -20.1844 -20.1835 -20.1835 -20.1833 -20.1833
   -20.1755 -20.1755 -20.1751 -20.1751 -20.1716 -20.1716 -20.1713 -20.1713
   -20.1628 -20.1628 -20.1628 -20.1628 -20.1618 -20.1618 -20.1618 -20.1618
   -20.1510 -20.1510 -20.1509 -20.1509 -20.1493 -20.1492 -20.1492 -20.1492
   -20.1437 -20.1437 -20.1436 -20.1436 -20.1422 -20.1422 -20.1422 -20.1422
   -20.1335 -20.1335 -20.1334 -20.1334 -20.1333 -20.1333 -20.1332 -20.1332
    -9.5183  -9.5183  -9.2822  -9.2822  -8.9541  -8.9541  -8.5954  -8.5954
    -8.5640  -8.5639  -8.4300  -8.4300  -8.3431  -8.3431  -8.3067  -8.3067
    -7.9747  -7.9746  -7.9116  -7.9116  -7.7993  -7.7993  -7.7956  -7.7956
     1.5616   1.5616   1.5794   1.5794   2.2898   2.2898   2.4088   2.4088
     2.7523   2.7523   3.0190   3.0190   3.0564   3.0564   3.1232   3.1232
     3.1974   3.1974   3.4343   3.4343   3.5836   3.5836   3.7616   3.7616
     4.1786   4.1786   4.2193   4.2193   4.2424   4.2424   4.4450   4.4450
     5.0086   5.0086   5.1659   5.1659   5.2876   5.2876   5.2877   5.2877
     5.4190   5.4190   5.8553   5.8553   6.0061   6.0061   6.0544   6.0544
     6.5191   6.5191   6.5725   6.5725   6.6742   6.6742   6.8318   6.8318
     7.1833   7.1833   7.2953   7.2953   7.3416   7.3416   7.7232   7.7232
     7.7464   7.7465   7.8238   7.8238   7.8594   7.8594   8.0537   8.0537
    10.9148  10.9148  11.4595  11.4595  11.4997  11.4997  11.8865  11.8866
    11.9754  11.9754  12.3676  12.3676  12.6901  12.6901  12.7649  12.7649
    12.8464  12.8464  12.9927  12.9927  13.1733  13.1733  13.3658  13.3658
    15.0758  15.0758  15.2638  15.2638  16.1988  16.1988  16.7719  16.7719
    16.8886  16.8886  16.9496  16.9497  17.8631

          k = 0.0000-0.4967 0.0000 ( 62350 PWs)   bands (ev):

   -66.0314 -66.0314 -66.0308 -66.0308 -66.0307 -66.0307 -66.0301 -66.0301
   -30.4437 -30.4437 -30.4388 -30.4388 -30.3815 -30.3815 -30.3766 -30.3766
   -30.3724 -30.3724 -30.3686 -30.3685 -30.3272 -30.3272 -30.3216 -30.3216
   -30.3207 -30.3207 -30.3133 -30.3133 -30.2892 -30.2892 -30.2849 -30.2849
   -20.1924 -20.1924 -20.1921 -20.1921 -20.1913 -20.1913 -20.1911 -20.1911
   -20.1846 -20.1846 -20.1845 -20.1845 -20.1834 -20.1834 -20.1834 -20.1834
   -20.1756 -20.1756 -20.1751 -20.1751 -20.1718 -20.1718 -20.1711 -20.1711
   -20.1635 -20.1635 -20.1626 -20.1625 -20.1621 -20.1621 -20.1612 -20.1611
   -20.1506 -20.1506 -20.1505 -20.1505 -20.1493 -20.1493 -20.1493 -20.1493
   -20.1438 -20.1438 -20.1438 -20.1438 -20.1422 -20.1422 -20.1421 -20.1421
   -20.1341 -20.1341 -20.1339 -20.1339 -20.1329 -20.1329 -20.1328 -20.1328
    -9.6674  -9.6674  -9.2619  -9.2619  -9.2355  -9.2355  -8.7978  -8.7978
    -8.4317  -8.4317  -8.3073  -8.3073  -8.2866  -8.2866  -8.2659  -8.2658
    -7.8420  -7.8420  -7.7807  -7.7807  -7.7166  -7.7166  -7.6724  -7.6724
     1.3907   1.3907   1.4576   1.4576   1.6017   1.6017   1.6705   1.6705
     2.6363   2.6363   2.9793   2.9793   3.0089   3.0089   3.0808   3.0809
     3.1552   3.1552   3.3680   3.3680   3.6122   3.6122   3.6390   3.6390
     3.8013   3.8013   4.6620   4.6620   4.7830   4.7830   5.3934   5.3935
     5.4337   5.4337   5.4740   5.4740   5.5014   5.5014   5.7879   5.7879
     5.9530   5.9530   5.9586   5.9586   6.0305   6.0305   6.0830   6.0830
     6.4168   6.4168   6.4751   6.4751   6.6743   6.6743   6.8290   6.8290
     7.0112   7.0112   7.0216   7.0216   7.1545   7.1545   7.7142   7.7143
     7.7181   7.7181   7.7802   7.7802   7.8458   7.8458   8.3101   8.3101
     9.7350   9.7350  11.2918  11.2918  11.3165  11.3165  11.6212  11.6212
    11.6834  11.6834  12.5245  12.5245  12.8276  12.8276  12.9879  12.9879
    13.1010  13.1010  13.4858  13.4858  13.5812  13.5812  13.9432  13.9432
    14.6107  14.6107  15.1191  15.1191  15.1726  15.1727  15.3634  15.3634
    16.5588  16.5588  17.7929  17.7929  18.0408

          k = 0.0000-0.4967 0.1678 ( 62296 PWs)   bands (ev):

   -66.0313 -66.0313 -66.0308 -66.0308 -66.0307 -66.0307 -66.0302 -66.0302
   -30.4434 -30.4434 -30.4391 -30.4391 -30.3796 -30.3796 -30.3729 -30.3729
   -30.3717 -30.3717 -30.3655 -30.3655 -30.3284 -30.3284 -30.3231 -30.3231
   -30.3200 -30.3200 -30.3127 -30.3127 -30.2933 -30.2933 -30.2889 -30.2889
   -20.1923 -20.1923 -20.1920 -20.1920 -20.1914 -20.1914 -20.1912 -20.1912
   -20.1846 -20.1846 -20.1845 -20.1845 -20.1834 -20.1834 -20.1834 -20.1834
   -20.1755 -20.1755 -20.1751 -20.1751 -20.1717 -20.1717 -20.1712 -20.1712
   -20.1634 -20.1634 -20.1625 -20.1625 -20.1622 -20.1622 -20.1612 -20.1612
   -20.1505 -20.1505 -20.1505 -20.1505 -20.1494 -20.1494 -20.1494 -20.1494
   -20.1437 -20.1437 -20.1437 -20.1437 -20.1423 -20.1423 -20.1423 -20.1422
   -20.1340 -20.1340 -20.1338 -20.1338 -20.1329 -20.1329 -20.1328 -20.1328
    -9.6201  -9.6201  -9.2531  -9.2531  -9.1835  -9.1835  -8.7656  -8.7656
    -8.4465  -8.4465  -8.3142  -8.3142  -8.2810  -8.2810  -8.2635  -8.2635
    -7.8546  -7.8546  -7.8049  -7.8049  -7.7830  -7.7830  -7.7705  -7.7705
     1.4979   1.4979   1.5963   1.5963   1.6867   1.6867   1.8074   1.8074
     2.7157   2.7157   2.9794   2.9795   3.0225   3.0225   3.0920   3.0920
     3.2087   3.2087   3.3592   3.3592   3.6125   3.6125   3.6671   3.6671
     3.8190   3.8190   4.4908   4.4908   4.6989   4.6989   5.2249   5.2249
     5.2407   5.2407   5.4128   5.4128   5.5023   5.5023   5.6678   5.6678
     5.7504   5.7504   5.7892   5.7892   5.9751   5.9751   6.0157   6.0157
     6.5545   6.5545   6.6625   6.6625   6.6951   6.6951   6.8796   6.8796
     6.9888   6.9888   7.0596   7.0596   7.1463   7.1463   7.7033   7.7033
     7.7248   7.7248   7.7873   7.7873   7.8305   7.8305   8.2587   8.2587
    10.0217  10.0217  11.3842  11.3842  11.4345  11.4345  11.6259  11.6259
    11.7032  11.7032  12.5763  12.5763  12.7668  12.7668  12.8933  12.8933
    13.1036  13.1036  13.3333  13.3333  13.4059  13.4059  13.8340  13.8340
    14.7848  14.7848  15.2692  15.2692  15.3092  15.3092  15.5667  15.5667
    16.6618  16.6618  17.7373  17.7373  17.8357

          k = 0.0000-0.4967 0.3356 ( 62314 PWs)   bands (ev):

   -66.0312 -66.0312 -66.0309 -66.0309 -66.0306 -66.0306 -66.0303 -66.0303
   -30.4424 -30.4424 -30.4400 -30.4400 -30.3768 -30.3768 -30.3736 -30.3736
   -30.3594 -30.3594 -30.3553 -30.3553 -30.3331 -30.3331 -30.3291 -30.3291
   -30.3176 -30.3176 -30.3106 -30.3106 -30.3031 -30.3030 -30.2981 -30.2981
   -20.1922 -20.1922 -20.1919 -20.1919 -20.1916 -20.1916 -20.1914 -20.1914
   -20.1846 -20.1845 -20.1845 -20.1845 -20.1834 -20.1834 -20.1834 -20.1834
   -20.1754 -20.1754 -20.1752 -20.1752 -20.1716 -20.1716 -20.1713 -20.1713
   -20.1632 -20.1632 -20.1624 -20.1624 -20.1622 -20.1622 -20.1615 -20.1615
   -20.1503 -20.1503 -20.1503 -20.1503 -20.1497 -20.1497 -20.1496 -20.1496
   -20.1435 -20.1434 -20.1434 -20.1434 -20.1426 -20.1426 -20.1426 -20.1426
   -20.1338 -20.1337 -20.1336 -20.1336 -20.1331 -20.1331 -20.1330 -20.1330
    -9.5042  -9.5041  -9.2970  -9.2970  -8.9787  -8.9787  -8.6593  -8.6593
    -8.5157  -8.5157  -8.3486  -8.3486  -8.2602  -8.2602  -8.2507  -8.2507
    -8.0504  -8.0504  -8.0102  -8.0102  -7.8175  -7.8175  -7.7931  -7.7931
     1.5553   1.5553   1.5848   1.5848   2.2847   2.2847   2.3840   2.3840
     2.9063   2.9063   2.9744   2.9744   3.0830   3.0830   3.1276   3.1276
     3.3071   3.3071   3.3588   3.3588   3.5791   3.5791   3.7255   3.7255
     3.8569   3.8569   3.9920   3.9920   4.6090   4.6090   4.7662   4.7662
     4.9128   4.9128   5.0557   5.0557   5.1876   5.1876   5.3794   5.3794
     5.5402   5.5402   5.6833   5.6833   6.0035   6.0035   6.0508   6.0508
     6.6178   6.6178   6.6326   6.6326   6.6933   6.6933   6.7135   6.7135
     7.2094   7.2094   7.3940   7.3940   7.4188   7.4188   7.6788   7.6788
     7.7408   7.7408   7.7669   7.7669   7.7740   7.7741   8.0919   8.0919
    10.6866  10.6867  11.5599  11.5599  11.6196  11.6196  11.7880  11.7880
    11.8606  11.8606  12.2480  12.2480  12.7291  12.7291  12.8316  12.8316
    12.9253  12.9253  13.0432  13.0432  13.1173  13.1173  13.5273  13.5273
    15.0294  15.0294  15.2530  15.2530  15.8474  15.8474  16.4647  16.4647
    16.9903  16.9903  17.2103  17.2104  17.8946

          k = 0.0000-0.4967-0.5033 ( 62304 PWs)   bands (ev):

   -66.0311 -66.0310 -66.0310 -66.0310 -66.0304 -66.0304 -66.0304 -66.0304
   -30.4412 -30.4412 -30.4412 -30.4412 -30.3749 -30.3749 -30.3749 -30.3749
   -30.3440 -30.3440 -30.3440 -30.3440 -30.3410 -30.3410 -30.3409 -30.3409
   -30.3124 -30.3124 -30.3124 -30.3124 -30.3062 -30.3062 -30.3062 -30.3062
   -20.1919 -20.1919 -20.1919 -20.1919 -20.1917 -20.1917 -20.1917 -20.1917
   -20.1845 -20.1845 -20.1845 -20.1845 -20.1834 -20.1834 -20.1834 -20.1834
   -20.1753 -20.1753 -20.1753 -20.1753 -20.1714 -20.1714 -20.1714 -20.1714
   -20.1628 -20.1628 -20.1628 -20.1628 -20.1618 -20.1618 -20.1618 -20.1618
   -20.1500 -20.1500 -20.1500 -20.1500 -20.1500 -20.1500 -20.1499 -20.1499
   -20.1431 -20.1431 -20.1431 -20.1431 -20.1430 -20.1430 -20.1430 -20.1430
   -20.1334 -20.1334 -20.1334 -20.1334 -20.1333 -20.1333 -20.1333 -20.1333
    -9.3817  -9.3817  -9.3817  -9.3817  -8.7099  -8.7099  -8.7099  -8.7098
    -8.4796  -8.4796  -8.4795  -8.4795  -8.2163  -8.2163  -8.2163  -8.2163
    -8.1844  -8.1844  -8.1844  -8.1844  -7.8062  -7.8062  -7.8062  -7.8062
     1.5720   1.5720   1.5720   1.5720   2.8518   2.8518   2.8518   2.8518
     2.9638   2.9638   2.9638   2.9638   3.2544   3.2544   3.2544   3.2544
     3.3185   3.3185   3.3185   3.3185   3.5396   3.5397   3.5397   3.5397
     3.7486   3.7486   3.7486   3.7486   4.5372   4.5372   4.5372   4.5372
     4.5806   4.5806   4.5806   4.5806   5.2649   5.2649   5.2649   5.2649
     5.5864   5.5864   5.5864   5.5864   6.0450   6.0450   6.0450   6.0450
     6.5507   6.5507   6.5507   6.5508   6.6897   6.6897   6.6897   6.6897
     7.5913   7.5913   7.5913   7.5913   7.6239   7.6239   7.6239   7.6239
     7.6407   7.6407   7.6407   7.6408   7.8562   7.8562   7.8562   7.8562
    11.4354  11.4354  11.4354  11.4354  11.6601  11.6601  11.6601  11.6601
    12.3117  12.3117  12.3117  12.3117  12.3435  12.3435  12.3435  12.3435
    12.9529  12.9529  12.9529  12.9529  13.2138  13.2138  13.2138  13.2138
    15.1677  15.1677  15.1677  15.1677  16.5568  16.5568  16.5568  16.5568
    17.5239  17.5240  17.5240  17.5240  17.6225

          k = 0.1667 0.0000 0.0000 ( 62301 PWs)   bands (ev):

   -66.0317 -66.0311 -66.0310 -66.0310 -66.0305 -66.0304 -66.0303 -66.0298
   -30.4431 -30.4382 -30.4362 -30.4313 -30.3931 -30.3891 -30.3836 -30.3805
   -30.3772 -30.3761 -30.3718 -30.3663 -30.3641 -30.3538 -30.3496 -30.3400
   -30.3025 -30.2996 -30.2895 -30.2860 -30.2805 -30.2776 -30.2742 -30.2713
   -20.1925 -20.1923 -20.1922 -20.1920 -20.1915 -20.1913 -20.1912 -20.1910
   -20.1848 -20.1846 -20.1843 -20.1842 -20.1837 -20.1837 -20.1833 -20.1833
   -20.1757 -20.1752 -20.1749 -20.1745 -20.1724 -20.1717 -20.1717 -20.1711
   -20.1635 -20.1635 -20.1627 -20.1626 -20.1621 -20.1620 -20.1613 -20.1612
   -20.1523 -20.1522 -20.1518 -20.1517 -20.1497 -20.1497 -20.1476 -20.1475
   -20.1452 -20.1452 -20.1430 -20.1429 -20.1415 -20.1415 -20.1406 -20.1406
   -20.1341 -20.1340 -20.1339 -20.1337 -20.1330 -20.1330 -20.1326 -20.1325
    -9.9032  -9.5580  -9.4987  -9.4510  -9.1439  -9.1154  -9.0187  -8.7898
    -8.7465  -8.7092  -8.7001  -8.6823  -7.9997  -7.9242  -7.9164  -7.8700
    -7.7447  -7.7347  -7.7134  -7.6951  -7.5544  -7.5309  -7.5022  -7.4822
     1.3689   1.3949   1.4316   1.4399   1.4479   1.4549   1.4704   1.5175
     1.8184   1.8406   1.9012   1.9473   2.5248   2.5558   2.6003   2.6184
     2.6784   2.8157   4.0363   4.1391   4.2806   4.3332   4.4379   4.4794
     4.5095   4.5256   4.7905   4.8567   4.9913   5.0627   5.2793   5.3964
     5.5195   5.6579   5.6645   5.7325   5.7793   5.7851   5.8166   5.8868
     5.9907   5.9993   6.0374   6.0613   6.1387   6.1503   6.1783   6.2389
     6.3041   6.4949   6.5306   6.5310   6.5891   6.7720   6.8306   6.8568
     6.8736   6.8778   6.9831   7.0221   7.0320   7.1360   7.1366   7.2017
     7.2859   7.3094   8.1441   8.1950   8.2290   8.2592   8.5657   8.5765
     9.7717   9.8151   9.9476  10.1127  10.2758  10.4113  12.3473  12.3476
    12.4395  12.5819  12.7128  12.7397  12.8703  12.9805  13.0339  13.0447
    13.1651  13.2150  13.3020  13.4429  13.7695  13.9214  14.1364  14.1620
    14.1879  14.3213  14.6853  14.8977  15.0808  15.1264  15.3502  15.8538
    15.9317  16.5222  16.6492  17.1483  17.3964

          k = 0.1667 0.0000 0.1678 ( 62310 PWs)   bands (ev):

   -66.0316 -66.0311 -66.0311 -66.0309 -66.0306 -66.0304 -66.0304 -66.0299
   -30.4427 -30.4385 -30.4358 -30.4316 -30.3929 -30.3894 -30.3812 -30.3777
   -30.3733 -30.3721 -30.3716 -30.3646 -30.3634 -30.3509 -30.3503 -30.3383
   -30.3073 -30.3043 -30.2944 -30.2908 -30.2802 -30.2773 -30.2748 -30.2721
   -20.1924 -20.1922 -20.1922 -20.1919 -20.1915 -20.1914 -20.1913 -20.1910
   -20.1847 -20.1846 -20.1843 -20.1842 -20.1837 -20.1837 -20.1833 -20.1833
   -20.1756 -20.1752 -20.1749 -20.1745 -20.1723 -20.1718 -20.1716 -20.1711
   -20.1634 -20.1634 -20.1626 -20.1625 -20.1622 -20.1621 -20.1613 -20.1613
   -20.1522 -20.1521 -20.1518 -20.1518 -20.1496 -20.1496 -20.1477 -20.1476
   -20.1451 -20.1450 -20.1432 -20.1430 -20.1415 -20.1414 -20.1407 -20.1407
   -20.1340 -20.1339 -20.1338 -20.1336 -20.1331 -20.1330 -20.1326 -20.1326
    -9.8623  -9.5137  -9.5070  -9.3977  -9.1284  -9.0636  -9.0294  -8.7565
    -8.7193  -8.6912  -8.6834  -8.6792  -8.0097  -7.9328  -7.9192  -7.8848
    -7.8326  -7.8304  -7.7996  -7.7967  -7.5637  -7.5345  -7.5131  -7.4856
     1.3797   1.4158   1.4313   1.4636   1.6230   1.6259   1.6880   1.7274
     1.8224   1.8425   1.9453   2.0025   2.5594   2.5946   2.6305   2.6749
     2.7723   2.8949   4.0173   4.1088   4.2603   4.2856   4.4848   4.4866
     4.5131   4.5414   4.5603   4.6162   4.7123   4.7810   5.2683   5.3688
     5.4788   5.5154   5.5906   5.6170   5.6739   5.7807   5.8366   5.8545
     5.8944   5.9023   5.9781   5.9873   6.0759   6.1594   6.1836   6.2881
     6.2913   6.5268   6.6794   6.7402   6.7680   6.7700   6.7908   6.7996
     6.8457   6.8601   6.9506   6.9828   7.0279   7.0757   7.1517   7.1720
     7.2053   7.2244   8.1499   8.1810   8.1884   8.2104   8.4959   8.5169
    10.0598  10.1329  10.1967  10.2911  10.3568  10.4048  12.4058  12.4073
    12.4632  12.5897  12.7467  12.7751  12.8070  12.8390  12.8888  12.9811
    13.0124  13.1098  13.2768  13.4467  13.6668  13.7953  14.0284  14.0740
    14.4429  14.5845  14.8703  14.9668  15.0819  15.1862  15.7461  15.8333
    15.9039  16.6754  16.7590  16.9064  17.3701

          k = 0.1667 0.0000 0.3356 ( 62277 PWs)   bands (ev):

   -66.0315 -66.0312 -66.0310 -66.0308 -66.0307 -66.0305 -66.0303 -66.0300
   -30.4418 -30.4393 -30.4349 -30.4324 -30.3922 -30.3901 -30.3772 -30.3733
   -30.3726 -30.3661 -30.3646 -30.3584 -30.3532 -30.3522 -30.3410 -30.3321
   -30.3207 -30.3175 -30.3076 -30.3035 -30.2793 -30.2764 -30.2764 -30.2736
   -20.1923 -20.1921 -20.1920 -20.1918 -20.1917 -20.1916 -20.1915 -20.1913
   -20.1847 -20.1846 -20.1843 -20.1842 -20.1837 -20.1837 -20.1833 -20.1833
   -20.1755 -20.1753 -20.1748 -20.1746 -20.1722 -20.1719 -20.1715 -20.1712
   -20.1631 -20.1631 -20.1624 -20.1624 -20.1623 -20.1622 -20.1616 -20.1616
   -20.1522 -20.1521 -20.1520 -20.1518 -20.1492 -20.1492 -20.1482 -20.1481
   -20.1447 -20.1446 -20.1436 -20.1435 -20.1413 -20.1413 -20.1409 -20.1409
   -20.1338 -20.1337 -20.1336 -20.1334 -20.1333 -20.1332 -20.1329 -20.1328
    -9.7610  -9.5624  -9.3821  -9.2682  -9.1695  -9.0656  -8.8385  -8.7121
    -8.6917  -8.6143  -8.6016  -8.5738  -8.1671  -8.1029  -8.0976  -8.0727
    -7.9435  -7.9297  -7.8880  -7.8636  -7.5655  -7.5441  -7.5152  -7.4947
     1.3879   1.4156   1.4279   1.4513   1.7887   1.7925   1.8251   1.8340
     2.2982   2.3332   2.4171   2.4481   2.5641   2.6295   2.8307   2.8694
     3.0376   3.1157   3.8129   3.8562   4.0780   4.0882   4.1352   4.1599
     4.2365   4.3688   4.5102   4.5578   4.6117   4.7539   4.8301   4.9566
     5.2096   5.3083   5.3185   5.4043   5.4433   5.5275   5.7017   5.8380
     5.9108   5.9266   5.9319   5.9693   5.9741   6.0657   6.2220   6.2900
     6.3984   6.4449   6.5366   6.6222   6.6875   6.7348   6.7418   6.8414
     6.8723   6.9353   7.0380   7.0599   7.1045   7.1659   7.3032   7.3083
     7.4452   7.4771   8.0175   8.0434   8.1612   8.1752   8.2843   8.3227
    10.3121  10.3826  10.7289  10.8119  10.8581  10.9735  12.2297  12.2694
    12.4147  12.5105  12.5363  12.5456  12.5951  12.6720  12.9624  12.9734
    12.9801  13.0246  13.2032  13.3527  13.4511  13.5485  13.6917  13.7437
    14.9754  15.0597  15.1295  15.2777  15.2977  15.4942  15.7752  15.8014
    16.3812  16.7293  17.1083  17.1270  17.2172

          k = 0.1667 0.0000-0.5033 ( 62250 PWs)   bands (ev):

   -66.0314 -66.0314 -66.0308 -66.0308 -66.0307 -66.0307 -66.0301 -66.0301
   -30.4405 -30.4405 -30.4336 -30.4336 -30.3912 -30.3912 -30.3748 -30.3748
   -30.3687 -30.3687 -30.3570 -30.3570 -30.3395 -30.3395 -30.3356 -30.3356
   -30.3250 -30.3250 -30.3195 -30.3195 -30.2780 -30.2780 -30.2752 -30.2752
   -20.1920 -20.1920 -20.1919 -20.1919 -20.1918 -20.1918 -20.1915 -20.1915
   -20.1847 -20.1847 -20.1842 -20.1842 -20.1837 -20.1837 -20.1832 -20.1832
   -20.1754 -20.1754 -20.1747 -20.1747 -20.1720 -20.1720 -20.1714 -20.1714
   -20.1628 -20.1628 -20.1627 -20.1627 -20.1619 -20.1619 -20.1619 -20.1619
   -20.1521 -20.1521 -20.1520 -20.1520 -20.1487 -20.1487 -20.1487 -20.1487
   -20.1441 -20.1441 -20.1440 -20.1440 -20.1411 -20.1411 -20.1411 -20.1411
   -20.1335 -20.1335 -20.1334 -20.1334 -20.1332 -20.1332 -20.1331 -20.1331
    -9.6481  -9.6481  -9.2534  -9.2534  -9.1417  -9.1417  -8.6996  -8.6996
    -8.5100  -8.5100  -8.4007  -8.4007  -8.3835  -8.3835  -8.3614  -8.3614
    -7.9427  -7.9427  -7.8796  -7.8796  -7.5563  -7.5563  -7.5063  -7.5063
     1.3998   1.3998   1.4385   1.4385   1.8064   1.8064   1.8295   1.8295
     2.5625   2.5625   2.9095   2.9095   2.9659   2.9659   3.1229   3.1230
     3.2090   3.2091   3.4468   3.4469   3.7364   3.7364   3.9956   3.9956
     4.0367   4.0368   4.2987   4.2987   4.5155   4.5155   4.9857   4.9857
     5.1924   5.1924   5.2254   5.2254   5.3412   5.3412   5.7309   5.7310
     5.9062   5.9062   5.9477   5.9477   6.0470   6.0470   6.2718   6.2718
     6.3501   6.3501   6.5567   6.5567   6.6313   6.6313   6.7893   6.7893
     6.8867   6.8867   7.0126   7.0126   7.1523   7.1523   7.7163   7.7163
     7.7353   7.7353   7.9193   7.9193   7.9634   7.9634   8.1725   8.1725
    10.3498  10.3498  11.5054  11.5054  11.5671  11.5671  11.6727  11.6727
    11.7630  11.7630  12.5507  12.5507  12.8956  12.8956  12.9662  12.9662
    12.9861  12.9861  13.2901  13.2901  13.3414  13.3414  13.4625  13.4625
    15.0410  15.0410  15.5765  15.5765  15.5876  15.5876  15.8292  15.8292
    16.3428  16.3428  17.4566  17.4566  17.8319

          k = 0.1667 0.1656 0.0000 ( 62315 PWs)   bands (ev):

   -66.0316 -66.0311 -66.0310 -66.0310 -66.0305 -66.0305 -66.0304 -66.0299
   -30.4425 -30.4376 -30.4366 -30.4316 -30.3909 -30.3867 -30.3836 -30.3790
   -30.3770 -30.3754 -30.3723 -30.3666 -30.3591 -30.3504 -30.3466 -30.3375
   -30.3040 -30.3011 -30.2896 -30.2861 -30.2860 -30.2828 -30.2780 -30.2749
   -20.1925 -20.1923 -20.1923 -20.1920 -20.1914 -20.1913 -20.1912 -20.1910
   -20.1847 -20.1846 -20.1844 -20.1843 -20.1837 -20.1837 -20.1833 -20.1833
   -20.1756 -20.1752 -20.1750 -20.1745 -20.1723 -20.1717 -20.1717 -20.1711
   -20.1635 -20.1635 -20.1627 -20.1626 -20.1621 -20.1620 -20.1612 -20.1612
   -20.1520 -20.1519 -20.1515 -20.1514 -20.1498 -20.1498 -20.1478 -20.1477
   -20.1451 -20.1451 -20.1429 -20.1428 -20.1419 -20.1418 -20.1409 -20.1409
   -20.1341 -20.1340 -20.1339 -20.1338 -20.1330 -20.1329 -20.1326 -20.1325
    -9.8591  -9.5092  -9.4711  -9.4410  -9.1556  -9.0375  -9.0264  -8.7858
    -8.7491  -8.6717  -8.6569  -8.6488  -8.0073  -7.9249  -7.9224  -7.8805
    -7.7716  -7.7509  -7.7323  -7.6928  -7.6438  -7.6297  -7.6059  -7.5840
     1.4244   1.4315   1.4460   1.4564   1.6012   1.6580   1.7111   1.7137
     1.8266   1.8770   1.9085   1.9917   2.6055   2.6266   2.6859   2.6891
     2.6998   2.8166   3.8883   3.9672   4.0825   4.2116   4.3439   4.4408
     4.5211   4.5759   4.7999   4.8551   5.0596   5.0822   5.1039   5.3059
     5.4266   5.4428   5.4908   5.6402   5.6453   5.7604   5.7832   5.8122
     5.8671   5.9801   6.0201   6.0455   6.0718   6.1164   6.3043   6.3781
     6.3939   6.4548   6.5295   6.5741   6.6828   6.7462   6.7608   6.8421
     6.8709   6.9830   6.9965   7.0068   7.0417   7.0521   7.1461   7.1595
     7.2785   7.3038   8.1247   8.1694   8.2311   8.2548   8.4752   8.4957
     9.8871   9.9463  10.0258  10.1935  10.4840  10.6043  12.3162  12.3550
    12.4874  12.5299  12.5705  12.6397  12.7645  12.8176  13.0256  13.0323
    13.1812  13.2550  13.3062  13.4476  13.7536  13.9098  14.0850  14.0882
    14.2491  14.5008  14.6820  15.0623  15.1578  15.1674  15.3340  15.8248
    16.2824  16.3180  16.8493  17.3525  17.4141

          k = 0.1667 0.1656 0.1678 ( 62291 PWs)   bands (ev):

   -66.0316 -66.0311 -66.0310 -66.0310 -66.0305 -66.0305 -66.0304 -66.0299
   -30.4421 -30.4379 -30.4362 -30.4320 -30.3906 -30.3869 -30.3813 -30.3757
   -30.3731 -30.3720 -30.3715 -30.3637 -30.3596 -30.3479 -30.3474 -30.3360
   -30.3083 -30.3055 -30.2944 -30.2908 -30.2857 -30.2824 -30.2790 -30.2760
   -20.1924 -20.1922 -20.1922 -20.1920 -20.1915 -20.1914 -20.1913 -20.1911
   -20.1847 -20.1846 -20.1843 -20.1843 -20.1837 -20.1837 -20.1833 -20.1833
   -20.1756 -20.1752 -20.1750 -20.1746 -20.1723 -20.1717 -20.1717 -20.1712
   -20.1634 -20.1634 -20.1626 -20.1625 -20.1622 -20.1621 -20.1613 -20.1613
   -20.1520 -20.1519 -20.1515 -20.1514 -20.1497 -20.1496 -20.1479 -20.1478
   -20.1450 -20.1449 -20.1431 -20.1429 -20.1418 -20.1418 -20.1410 -20.1410
   -20.1340 -20.1339 -20.1338 -20.1337 -20.1331 -20.1330 -20.1327 -20.1326
    -9.8168  -9.4614  -9.4515  -9.4157  -9.0770  -9.0484  -9.0383  -8.7538
    -8.7211  -8.6530  -8.6479  -8.6434  -8.0213  -7.9336  -7.9243  -7.8956
    -7.8460  -7.8294  -7.8115  -7.7945  -7.6598  -7.6423  -7.6199  -7.6016
     1.5754   1.5981   1.6148   1.6305   1.6700   1.6896   1.7085   1.7888
     1.8259   1.8860   1.9456   2.0438   2.6344   2.6754   2.7014   2.7536
     2.7977   2.8917   3.8890   3.9617   4.0844   4.1582   4.4388   4.4708
     4.5032   4.5407   4.5750   4.6090   4.7666   4.8181   5.0890   5.2737
     5.3870   5.4253   5.4407   5.5002   5.6322   5.6428   5.6569   5.7042
     5.7176   5.8784   6.0063   6.0222   6.0429   6.0736   6.3184   6.3436
     6.4117   6.5546   6.6140   6.6471   6.7077   6.7742   6.7929   6.8466
     6.8964   6.9436   6.9708   7.0180   7.0667   7.0740   7.1248   7.1787
     7.2234   7.2659   8.1309   8.1620   8.1836   8.2095   8.4180   8.4411
    10.1399  10.1935  10.2940  10.4295  10.5011  10.5982  12.3804  12.4145
    12.5132  12.5912  12.6140  12.6604  12.7222  12.8108  12.8372  12.8498
    13.0205  13.1090  13.2962  13.4545  13.6481  13.7830  13.9297  13.9796
    14.5581  14.7686  14.8732  15.0847  15.1723  15.2728  15.7232  15.8102
    16.2893  16.4213  16.9377  17.0738  17.4214

          k = 0.1667 0.1656 0.3356 ( 62265 PWs)   bands (ev):

   -66.0315 -66.0312 -66.0309 -66.0309 -66.0306 -66.0305 -66.0303 -66.0300
   -30.4412 -30.4387 -30.4353 -30.4328 -30.3898 -30.3877 -30.3776 -30.3737
   -30.3692 -30.3633 -30.3613 -30.3583 -30.3531 -30.3498 -30.3394 -30.3304
   -30.3212 -30.3181 -30.3075 -30.3034 -30.2847 -30.2815 -30.2811 -30.2781
   -20.1923 -20.1921 -20.1920 -20.1918 -20.1917 -20.1916 -20.1915 -20.1913
   -20.1847 -20.1846 -20.1843 -20.1842 -20.1837 -20.1837 -20.1833 -20.1833
   -20.1755 -20.1753 -20.1749 -20.1746 -20.1721 -20.1718 -20.1716 -20.1713
   -20.1631 -20.1631 -20.1624 -20.1624 -20.1623 -20.1622 -20.1616 -20.1615
   -20.1519 -20.1518 -20.1516 -20.1515 -20.1493 -20.1493 -20.1483 -20.1482
   -20.1446 -20.1445 -20.1435 -20.1434 -20.1417 -20.1416 -20.1412 -20.1411
   -20.1338 -20.1337 -20.1336 -20.1334 -20.1333 -20.1332 -20.1329 -20.1328
    -9.7117  -9.5077  -9.3187  -9.2865  -9.0900  -9.0781  -8.8512  -8.6915
    -8.6598  -8.6166  -8.5800  -8.5502  -8.1843  -8.1072  -8.0985  -8.0685
    -7.9424  -7.9301  -7.8933  -7.8684  -7.6698  -7.6525  -7.6294  -7.6122
     1.6026   1.6287   1.6679   1.6947   1.7938   1.8105   1.8364   1.8742
     2.3018   2.3432   2.4151   2.4612   2.6408   2.7006   2.8960   2.9455
     3.0617   3.1093   3.7544   3.8181   4.0246   4.0641   4.0852   4.1399
     4.2175   4.3239   4.5103   4.5508   4.5990   4.7159   4.8393   4.9336
     5.0394   5.1221   5.1926   5.2256   5.2830   5.3790   5.6163   5.6454
     5.6901   5.8483   5.8732   5.9401   5.9756   6.0399   6.0930   6.1402
     6.4622   6.5582   6.6379   6.6761   6.7500   6.8058   6.8202   6.8906
     6.9110   6.9819   7.0801   7.0978   7.1133   7.1817   7.2961   7.3279
     7.4521   7.4799   8.0208   8.0357   8.1426   8.1579   8.2340   8.2675
    10.5052  10.5755  10.7606  10.8207  10.9493  11.0348  12.2363  12.2725
    12.4354  12.5275  12.5536  12.5885  12.6136  12.6765  12.7989  12.8312
    12.8360  12.8842  13.2297  13.3353  13.4589  13.5361  13.5708  13.6359
    15.0583  15.1060  15.2873  15.3208  15.4845  15.6229  15.7540  16.1861
    16.5255  16.7085  16.8743  17.1897  17.2884

          k = 0.1667 0.1656-0.5033 ( 62228 PWs)   bands (ev):

   -66.0313 -66.0313 -66.0308 -66.0308 -66.0307 -66.0307 -66.0302 -66.0302
   -30.4399 -30.4399 -30.4340 -30.4340 -30.3887 -30.3887 -30.3752 -30.3752
   -30.3642 -30.3642 -30.3548 -30.3548 -30.3396 -30.3396 -30.3358 -30.3358
   -30.3244 -30.3244 -30.3188 -30.3188 -30.2831 -30.2831 -30.2800 -30.2800
   -20.1920 -20.1920 -20.1919 -20.1919 -20.1918 -20.1918 -20.1916 -20.1915
   -20.1846 -20.1846 -20.1843 -20.1843 -20.1837 -20.1837 -20.1833 -20.1833
   -20.1754 -20.1754 -20.1748 -20.1748 -20.1720 -20.1720 -20.1714 -20.1714
   -20.1628 -20.1627 -20.1627 -20.1627 -20.1619 -20.1619 -20.1619 -20.1619
   -20.1518 -20.1518 -20.1517 -20.1517 -20.1488 -20.1488 -20.1488 -20.1488
   -20.1440 -20.1440 -20.1440 -20.1439 -20.1414 -20.1414 -20.1414 -20.1414
   -20.1335 -20.1335 -20.1334 -20.1334 -20.1333 -20.1333 -20.1331 -20.1331
    -9.5952  -9.5952  -9.1785  -9.1785  -9.1579  -9.1579  -8.6691  -8.6691
    -8.5239  -8.5239  -8.4053  -8.4052  -8.3752  -8.3752  -8.3511  -8.3511
    -7.9425  -7.9425  -7.8853  -7.8853  -7.6631  -7.6631  -7.6229  -7.6229
     1.6149   1.6149   1.6819   1.6819   1.8110   1.8110   1.8644   1.8644
     2.6353   2.6353   2.9383   2.9384   2.9986   2.9986   3.1154   3.1154
     3.2049   3.2050   3.4671   3.4671   3.7188   3.7188   4.0382   4.0382
     4.0664   4.0664   4.1656   4.1656   4.5192   4.5192   4.8943   4.8943
     5.0152   5.0152   5.1132   5.1132   5.1686   5.1686   5.6727   5.6727
     5.7335   5.7335   5.7830   5.7830   5.9834   5.9834   6.0562   6.0562
     6.5736   6.5736   6.6240   6.6240   6.8022   6.8022   6.8461   6.8461
     6.9029   6.9029   7.0769   7.0769   7.1281   7.1281   7.7229   7.7229
     7.7290   7.7290   7.9013   7.9013   7.9376   7.9376   8.1548   8.1548
    10.5446  10.5446  11.5132  11.5132  11.5682  11.5682  11.7228  11.7228
    11.8093  11.8093  12.5968  12.5968  12.8314  12.8314  12.9051  12.9051
    12.9606  12.9606  13.1444  13.1444  13.2135  13.2135  13.4666  13.4666
    15.1011  15.1011  15.5684  15.5684  15.9313  15.9313  15.9652  15.9652
    16.4574  16.4574  17.3375  17.3375  17.7553

          k = 0.1667 0.3311 0.0000 ( 62253 PWs)   bands (ev):

   -66.0315 -66.0311 -66.0310 -66.0309 -66.0306 -66.0305 -66.0303 -66.0300
   -30.4410 -30.4377 -30.4361 -30.4327 -30.3869 -30.3839 -30.3813 -30.3769
   -30.3765 -30.3740 -30.3729 -30.3678 -30.3453 -30.3388 -30.3370 -30.3290
   -30.3111 -30.3079 -30.3007 -30.2965 -30.2896 -30.2861 -30.2853 -30.2817
   -20.1924 -20.1923 -20.1922 -20.1921 -20.1914 -20.1912 -20.1912 -20.1910
   -20.1846 -20.1845 -20.1844 -20.1843 -20.1836 -20.1836 -20.1834 -20.1834
   -20.1755 -20.1751 -20.1750 -20.1747 -20.1722 -20.1719 -20.1716 -20.1713
   -20.1635 -20.1635 -20.1626 -20.1626 -20.1620 -20.1620 -20.1612 -20.1612
   -20.1513 -20.1512 -20.1505 -20.1505 -20.1501 -20.1500 -20.1483 -20.1483
   -20.1446 -20.1446 -20.1428 -20.1427 -20.1427 -20.1426 -20.1415 -20.1415
   -20.1341 -20.1340 -20.1340 -20.1338 -20.1330 -20.1329 -20.1327 -20.1326
    -9.7490  -9.5271  -9.3915  -9.3064  -9.1957  -9.0788  -8.7976  -8.7708
    -8.7567  -8.5446  -8.5292  -8.5164  -8.1162  -8.0044  -7.9978  -7.9626
    -7.9019  -7.8889  -7.8523  -7.8394  -7.7263  -7.6977  -7.6863  -7.6563
     1.4270   1.4303   1.4556   1.4570   1.7911   1.7998   1.8548   1.8873
     2.3143   2.3558   2.4364   2.4685   2.7047   2.7302   2.9026   2.9217
     2.9351   2.9673   3.5062   3.5332   3.7251   3.7720   4.1692   4.3551
     4.3810   4.4762   4.5804   4.7853   4.8627   4.8778   4.9666   4.9740
     5.2293   5.2508   5.3834   5.4353   5.4859   5.6354   5.6357   5.7480
     5.7685   5.7917   5.8104   6.0469   6.0987   6.1044   6.2289   6.2794
     6.3780   6.4622   6.5165   6.6318   6.8087   6.8264   6.8970   6.9201
     6.9749   7.0125   7.0220   7.0403   7.0432   7.1068   7.3012   7.3400
     7.3599   7.3982   8.0056   8.0320   8.2080   8.2206   8.2368   8.2710
     9.9651   9.9730  10.5780  10.6434  11.0187  11.0993  11.9698  12.0280
    12.3373  12.3601  12.3822  12.4232  12.6441  12.7910  13.0185  13.0290
    13.1341  13.3080  13.3129  13.3971  13.6673  13.8291  13.8875  13.9376
    14.4983  14.6743  14.8553  15.0679  15.2700  15.3643  15.7315  15.8048
    15.8472  17.1906  17.2539  17.3834  17.5485

          k = 0.1667 0.3311 0.1678 ( 62284 PWs)   bands (ev):

   -66.0315 -66.0311 -66.0309 -66.0309 -66.0306 -66.0306 -66.0304 -66.0300
   -30.4407 -30.4374 -30.4364 -30.4330 -30.3862 -30.3822 -30.3813 -30.3744
   -30.3726 -30.3716 -30.3693 -30.3646 -30.3460 -30.3380 -30.3374 -30.3279
   -30.3139 -30.3110 -30.3003 -30.2961 -30.2943 -30.2906 -30.2878 -30.2842
   -20.1924 -20.1922 -20.1921 -20.1920 -20.1915 -20.1913 -20.1913 -20.1911
   -20.1846 -20.1845 -20.1844 -20.1843 -20.1836 -20.1836 -20.1834 -20.1834
   -20.1755 -20.1751 -20.1750 -20.1747 -20.1721 -20.1718 -20.1716 -20.1713
   -20.1634 -20.1634 -20.1625 -20.1625 -20.1621 -20.1621 -20.1613 -20.1613
   -20.1513 -20.1512 -20.1506 -20.1505 -20.1499 -20.1499 -20.1485 -20.1484
   -20.1445 -20.1445 -20.1428 -20.1427 -20.1427 -20.1427 -20.1416 -20.1416
   -20.1340 -20.1339 -20.1339 -20.1337 -20.1330 -20.1329 -20.1328 -20.1327
    -9.7028  -9.4746  -9.3318  -9.3169  -9.1184  -9.0899  -8.8063  -8.7453
    -8.7280  -8.5387  -8.5220  -8.5098  -8.1381  -8.0212  -7.9974  -7.9656
    -7.9115  -7.8865  -7.8604  -7.8436  -7.8219  -7.7883  -7.7803  -7.7440
     1.6129   1.6199   1.6781   1.6872   1.7932   1.8090   1.8875   1.9341
     2.3201   2.3583   2.4350   2.4763   2.7817   2.7927   2.9033   2.9413
     3.0110   3.0395   3.5393   3.5664   3.7272   3.7626   4.1576   4.3960
     4.4303   4.4686   4.5321   4.5666   4.6064   4.8586   4.9051   4.9822
     4.9951   5.0144   5.3395   5.3938   5.4560   5.5116   5.5388   5.5428
     5.6698   5.6939   5.7636   5.8073   5.9505   5.9655   6.0815   6.1204
     6.5606   6.6473   6.7097   6.7495   6.7891   6.8033   6.9063   6.9699
     6.9865   7.0011   7.0595   7.0895   7.1166   7.1464   7.2964   7.3566
     7.3691   7.4079   8.0104   8.0253   8.1750   8.1787   8.1916   8.2311
    10.2034  10.2120  10.7565  10.8190  11.0292  11.0940  12.0565  12.1067
    12.3365  12.3670  12.4372  12.4783  12.6678  12.7814  12.8230  12.8454
    13.0888  13.1760  13.2446  13.3281  13.5420  13.6758  13.7496  13.8174
    14.7916  14.8766  15.0775  15.1833  15.3985  15.6321  15.7425  15.9327
    15.9367  17.2228  17.2747  17.4163  17.4930

          k = 0.1667 0.3311 0.3356 ( 62276 PWs)   bands (ev):

   -66.0313 -66.0310 -66.0310 -66.0308 -66.0307 -66.0305 -66.0305 -66.0302
   -30.4397 -30.4373 -30.4363 -30.4339 -30.3849 -30.3825 -30.3787 -30.3752
   -30.3625 -30.3597 -30.3583 -30.3537 -30.3483 -30.3413 -30.3324 -30.3243
   -30.3237 -30.3210 -30.3066 -30.3024 -30.2989 -30.2948 -30.2927 -30.2890
   -20.1922 -20.1921 -20.1920 -20.1919 -20.1917 -20.1915 -20.1915 -20.1913
   -20.1846 -20.1845 -20.1844 -20.1843 -20.1836 -20.1836 -20.1834 -20.1834
   -20.1754 -20.1751 -20.1750 -20.1748 -20.1720 -20.1717 -20.1717 -20.1714
   -20.1631 -20.1631 -20.1624 -20.1624 -20.1623 -20.1622 -20.1616 -20.1615
   -20.1512 -20.1511 -20.1507 -20.1507 -20.1497 -20.1496 -20.1488 -20.1488
   -20.1442 -20.1441 -20.1432 -20.1431 -20.1425 -20.1425 -20.1419 -20.1418
   -20.1338 -20.1337 -20.1337 -20.1335 -20.1332 -20.1331 -20.1330 -20.1329
    -9.5885  -9.3731  -9.3456  -9.1588  -9.1323  -8.8961  -8.8549  -8.6581
    -8.6265  -8.5470  -8.4775  -8.4617  -8.2739  -8.1561  -8.0848  -8.0542
    -7.9954  -7.9710  -7.9368  -7.9056  -7.8780  -7.8618  -7.8488  -7.8471
     1.7593   1.7754   1.7881   1.8051   2.1763   2.2373   2.3009   2.3246
     2.4029   2.4130   2.4918   2.5979   2.8506   2.9123   2.9997   3.0972
     3.1931   3.2254   3.5526   3.5935   3.7242   3.7597   4.0444   4.0498
     4.1505   4.3671   4.3966   4.4517   4.5040   4.5798   4.6143   4.8428
     4.8757   4.9093   4.9813   5.0052   5.1050   5.1728   5.2678   5.2807
     5.4786   5.5451   5.5623   5.6800   5.7308   5.8116   5.8853   5.8995
     6.6469   6.7032   6.7400   6.7726   6.8649   6.9161   6.9670   6.9876
     7.0770   7.1983   7.2300   7.2663   7.3039   7.3480   7.4037   7.4164
     7.4698   7.5027   7.9759   8.0166   8.0227   8.0608   8.0664   8.1115
    10.7827  10.8051  11.0560  11.0770  11.2540  11.3036  12.2190  12.2457
    12.3067  12.3453  12.3820  12.4131  12.6005  12.6323  12.6641  12.7204
    12.7442  12.8166  13.1844  13.2133  13.2746  13.3270  13.4421  13.4734
    15.1630  15.2565  15.3023  15.5212  15.6765  16.0483  16.2439  16.3869
    16.6288  16.8887  17.1198  17.5275  17.5355

          k = 0.1667 0.3311-0.5033 ( 62254 PWs)   bands (ev):

   -66.0312 -66.0312 -66.0308 -66.0308 -66.0307 -66.0307 -66.0303 -66.0303
   -30.4385 -30.4385 -30.4351 -30.4351 -30.3836 -30.3836 -30.3766 -30.3766
   -30.3533 -30.3533 -30.3485 -30.3485 -30.3404 -30.3404 -30.3371 -30.3371
   -30.3214 -30.3214 -30.3156 -30.3156 -30.2965 -30.2965 -30.2926 -30.2926
   -20.1920 -20.1920 -20.1919 -20.1919 -20.1917 -20.1917 -20.1916 -20.1916
   -20.1845 -20.1845 -20.1843 -20.1843 -20.1836 -20.1836 -20.1834 -20.1833
   -20.1752 -20.1752 -20.1749 -20.1749 -20.1719 -20.1719 -20.1715 -20.1715
   -20.1627 -20.1627 -20.1627 -20.1627 -20.1619 -20.1619 -20.1619 -20.1619
   -20.1510 -20.1510 -20.1509 -20.1509 -20.1492 -20.1492 -20.1492 -20.1492
   -20.1437 -20.1437 -20.1436 -20.1436 -20.1422 -20.1422 -20.1422 -20.1422
   -20.1335 -20.1335 -20.1334 -20.1334 -20.1333 -20.1333 -20.1332 -20.1332
    -9.4634  -9.4634  -9.2157  -9.2157  -8.9721  -8.9721  -8.5850  -8.5850
    -8.5701  -8.5701  -8.4216  -8.4216  -8.3405  -8.3405  -8.3095  -8.3095
    -7.9899  -7.9899  -7.9444  -7.9444  -7.8663  -7.8663  -7.8586  -7.8586
     1.7770   1.7770   1.7977   1.7977   2.2984   2.2984   2.3895   2.3895
     2.8237   2.8237   3.0212   3.0212   3.0553   3.0553   3.1294   3.1294
     3.2037   3.2037   3.5063   3.5063   3.6544   3.6544   3.7969   3.7969
     4.1633   4.1633   4.2196   4.2196   4.2404   4.2405   4.4464   4.4464
     4.8420   4.8420   5.0294   5.0294   5.0768   5.0768   5.1725   5.1725
     5.2663   5.2663   5.6167   5.6167   5.7362   5.7362   5.8198   5.8198
     6.7164   6.7164   6.7705   6.7705   6.8166   6.8166   6.9857   6.9857
     7.2193   7.2193   7.2984   7.2984   7.3635   7.3635   7.7045   7.7045
     7.7359   7.7359   7.8253   7.8253   7.8510   7.8510   8.0384   8.0384
    11.0433  11.0433  11.5282  11.5282  11.5761  11.5761  11.8965  11.8965
    11.9859  11.9859  12.4178  12.4178  12.6902  12.6902  12.7587  12.7587
    12.8020  12.8020  12.9441  12.9441  13.0529  13.0529  13.3381  13.3381
    15.2470  15.2470  15.5065  15.5065  16.2910  16.2911  16.7584  16.7584
    16.9082  16.9082  17.0003  17.0003  17.7433

          k = 0.1667-0.4967 0.0000 ( 62330 PWs)   bands (ev):

   -66.0313 -66.0313 -66.0308 -66.0308 -66.0307 -66.0307 -66.0302 -66.0302
   -30.4393 -30.4393 -30.4343 -30.4343 -30.3846 -30.3846 -30.3770 -30.3770
   -30.3760 -30.3760 -30.3699 -30.3699 -30.3269 -30.3269 -30.3221 -30.3220
   -30.3204 -30.3204 -30.3140 -30.3140 -30.2889 -30.2889 -30.2852 -30.2852
   -20.1924 -20.1924 -20.1921 -20.1921 -20.1913 -20.1913 -20.1911 -20.1911
   -20.1845 -20.1845 -20.1844 -20.1844 -20.1835 -20.1835 -20.1835 -20.1835
   -20.1753 -20.1753 -20.1749 -20.1748 -20.1720 -20.1720 -20.1714 -20.1714
   -20.1635 -20.1635 -20.1626 -20.1626 -20.1620 -20.1620 -20.1612 -20.1612
   -20.1506 -20.1506 -20.1505 -20.1505 -20.1493 -20.1493 -20.1493 -20.1493
   -20.1438 -20.1438 -20.1438 -20.1438 -20.1422 -20.1422 -20.1421 -20.1421
   -20.1341 -20.1341 -20.1339 -20.1339 -20.1329 -20.1328 -20.1328 -20.1328
    -9.6241  -9.6241  -9.2735  -9.2735  -9.1685  -9.1685  -8.7675  -8.7675
    -8.4471  -8.4471  -8.3065  -8.3065  -8.2923  -8.2923  -8.2639  -8.2639
    -7.9234  -7.9234  -7.8692  -7.8692  -7.7162  -7.7162  -7.6757  -7.6757
     1.4285   1.4285   1.4571   1.4571   1.8005   1.8005   1.8802   1.8802
     2.7107   2.7107   2.9723   2.9723   3.0340   3.0340   3.0672   3.0672
     3.2224   3.2224   3.3727   3.3727   3.6202   3.6202   3.6583   3.6583
     3.8138   3.8138   4.3771   4.3771   4.8342   4.8342   5.1340   5.1340
     5.2177   5.2177   5.4502   5.4502   5.5113   5.5113   5.5442   5.5442
     5.6755   5.6755   5.9309   5.9309   6.0884   6.0884   6.1438   6.1438
     6.4962   6.4962   6.5659   6.5659   6.7681   6.7681   6.9285   6.9285
     6.9732   6.9732   7.0431   7.0431   7.1024   7.1024   7.7172   7.7173
     7.7249   7.7250   7.7931   7.7931   7.8423   7.8424   8.2445   8.2445
     9.9777   9.9777  11.2929  11.2929  11.3220  11.3220  11.6967  11.6967
    11.7699  11.7699  12.3952  12.3952  12.8842  12.8842  13.0206  13.0206
    13.0542  13.0542  13.4768  13.4768  13.5792  13.5792  13.8730  13.8730
    14.6452  14.6453  15.1245  15.1246  15.3245  15.3245  15.5838  15.5838
    16.6324  16.6324  17.6926  17.6926  17.9183

          k = 0.1667-0.4967 0.1678 ( 62302 PWs)   bands (ev):

   -66.0313 -66.0313 -66.0308 -66.0308 -66.0307 -66.0307 -66.0302 -66.0302
   -30.4389 -30.4389 -30.4346 -30.4346 -30.3832 -30.3832 -30.3772 -30.3771
   -30.3716 -30.3715 -30.3664 -30.3664 -30.3282 -30.3281 -30.3236 -30.3235
   -30.3197 -30.3197 -30.3133 -30.3133 -30.2930 -30.2930 -30.2892 -30.2892
   -20.1923 -20.1923 -20.1921 -20.1921 -20.1914 -20.1914 -20.1912 -20.1912
   -20.1845 -20.1845 -20.1844 -20.1844 -20.1835 -20.1835 -20.1835 -20.1835
   -20.1753 -20.1753 -20.1749 -20.1749 -20.1720 -20.1720 -20.1715 -20.1715
   -20.1634 -20.1634 -20.1625 -20.1625 -20.1621 -20.1621 -20.1613 -20.1613
   -20.1505 -20.1505 -20.1505 -20.1505 -20.1494 -20.1494 -20.1494 -20.1494
   -20.1437 -20.1437 -20.1437 -20.1437 -20.1423 -20.1423 -20.1423 -20.1423
   -20.1340 -20.1340 -20.1338 -20.1338 -20.1329 -20.1329 -20.1328 -20.1328
    -9.5740  -9.5740  -9.2032  -9.2013  -9.1808  -9.1787  -8.7382  -8.7378
    -8.4632  -8.4630  -8.3108  -8.3093  -8.2894  -8.2892  -8.2616  -8.2607
    -7.9238  -7.9231  -7.8752  -7.8742  -7.8132  -7.8104  -7.7773  -7.7730
     1.6160   1.6170   1.6854   1.6859   1.8040   1.8059   1.9234   1.9256
     2.7824   2.7943   2.9676   3.0076   3.0225   3.0544   3.0840   3.0882
     3.2558   3.2710   3.3517   3.3817   3.6386   3.6477   3.6604   3.6666
     3.8202   3.8343   4.4179   4.4442   4.5563   4.5619   5.0935   5.1329
     5.1951   5.2060   5.2202   5.2721   5.2983   5.3218   5.4904   5.5039
[...]
    12.1605  12.1605  12.1605  12.1605  12.2737  12.2737  12.2737  12.2737
    13.1344  13.1344  13.1344  13.1344  13.2612  13.2612  13.2612  13.2612
    15.7215  15.7215  15.7215  15.7215  16.6144  16.6144  16.6144  16.6144
    17.2487  17.2488  17.2488  17.2488  17.3432

          k =-0.5000 0.3311 0.0000 ( 62246 PWs)   bands (ev):

   -66.0312 -66.0312 -66.0309 -66.0309 -66.0306 -66.0306 -66.0303 -66.0302
   -30.4129 -30.4129 -30.4093 -30.4093 -30.4076 -30.4076 -30.4035 -30.4035
   -30.3751 -30.3750 -30.3739 -30.3739 -30.3421 -30.3420 -30.3348 -30.3348
   -30.3095 -30.3095 -30.2988 -30.2988 -30.2879 -30.2879 -30.2835 -30.2835
   -20.1923 -20.1923 -20.1922 -20.1922 -20.1913 -20.1913 -20.1912 -20.1912
   -20.1841 -20.1841 -20.1841 -20.1841 -20.1839 -20.1839 -20.1839 -20.1839
   -20.1739 -20.1739 -20.1735 -20.1735 -20.1733 -20.1733 -20.1730 -20.1730
   -20.1631 -20.1631 -20.1630 -20.1630 -20.1616 -20.1616 -20.1616 -20.1616
   -20.1513 -20.1513 -20.1505 -20.1505 -20.1500 -20.1500 -20.1483 -20.1483
   -20.1446 -20.1446 -20.1428 -20.1427 -20.1426 -20.1426 -20.1415 -20.1415
   -20.1340 -20.1340 -20.1339 -20.1339 -20.1329 -20.1329 -20.1327 -20.1327
    -9.5294  -9.5294  -9.3095  -9.3095  -8.9680  -8.9680  -8.6116  -8.6116
    -8.5559  -8.5559  -8.4501  -8.4500  -8.3822  -8.3822  -8.3429  -8.3429
    -7.9783  -7.9783  -7.9144  -7.9143  -7.7083  -7.7083  -7.6773  -7.6773
     1.4507   1.4507   1.4560   1.4560   2.3016   2.3016   2.3881   2.3881
     2.9126   2.9126   2.9998   2.9998   3.0623   3.0624   3.1808   3.1808
     3.2065   3.2065   3.4270   3.4270   3.5142   3.5142   3.5889   3.5890
     4.0944   4.0944   4.1300   4.1300   4.3416   4.3416   4.5525   4.5525
     4.9992   4.9992   5.1221   5.1221   5.1902   5.1902   5.3387   5.3387
     5.4672   5.4672   5.9515   5.9515   6.1227   6.1227   6.2711   6.2711
     6.5491   6.5491   6.6109   6.6109   6.6775   6.6775   6.8986   6.8986
     7.1287   7.1287   7.2074   7.2074   7.3068   7.3068   7.6767   7.6767
     7.7088   7.7088   7.7893   7.7893   7.7973   7.7973   8.2352   8.2352
    10.5672  10.5672  11.2598  11.2598  11.3257  11.3257  11.8991  11.8991
    11.9725  11.9725  12.0771  12.0771  12.8205  12.8205  12.8880  12.8880
    13.2442  13.2442  13.3742  13.3743  13.4614  13.4614  13.8406  13.8406
    14.7392  14.7392  15.0765  15.0765  16.2419  16.2419  16.5615  16.5615
    16.6520  16.6520  16.9997  16.9997  17.6415

          k =-0.5000 0.3311 0.1678 ( 62264 PWs)   bands (ev):

   -66.0312 -66.0312 -66.0308 -66.0308 -66.0307 -66.0306 -66.0303 -66.0303
   -30.4124 -30.4124 -30.4089 -30.4089 -30.4077 -30.4077 -30.4038 -30.4038
   -30.3711 -30.3711 -30.3692 -30.3692 -30.3428 -30.3428 -30.3336 -30.3336
   -30.3124 -30.3124 -30.2983 -30.2983 -30.2926 -30.2926 -30.2861 -30.2861
   -20.1923 -20.1923 -20.1921 -20.1921 -20.1914 -20.1914 -20.1912 -20.1912
   -20.1841 -20.1841 -20.1841 -20.1841 -20.1839 -20.1839 -20.1838 -20.1838
   -20.1738 -20.1738 -20.1735 -20.1735 -20.1734 -20.1733 -20.1730 -20.1730
   -20.1630 -20.1630 -20.1629 -20.1629 -20.1617 -20.1617 -20.1617 -20.1617
   -20.1512 -20.1512 -20.1505 -20.1505 -20.1499 -20.1499 -20.1484 -20.1484
   -20.1445 -20.1445 -20.1428 -20.1428 -20.1427 -20.1427 -20.1416 -20.1416
   -20.1340 -20.1339 -20.1338 -20.1338 -20.1330 -20.1330 -20.1328 -20.1327
    -9.4712  -9.4712  -9.2380  -9.2380  -8.9843  -8.9843  -8.6039  -8.6039
    -8.5558  -8.5558  -8.4405  -8.4405  -8.3798  -8.3798  -8.3450  -8.3450
    -7.9924  -7.9924  -7.9175  -7.9175  -7.8099  -7.8099  -7.7640  -7.7640
     1.6780   1.6781   1.6904   1.6904   2.3088   2.3089   2.3843   2.3843
     2.9596   2.9596   3.0111   3.0111   3.0573   3.0573   3.1874   3.1874
     3.2109   3.2109   3.4944   3.4945   3.5810   3.5810   3.6460   3.6460
     4.0904   4.0905   4.1352   4.1352   4.3302   4.3303   4.5547   4.5547
     4.9226   4.9226   4.9715   4.9715   5.0660   5.0660   5.1482   5.1482
     5.2312   5.2312   5.6662   5.6662   5.7849   5.7849   6.0121   6.0121
     6.7559   6.7559   6.8627   6.8627   6.8894   6.8894   7.0123   7.0123
     7.1360   7.1360   7.2249   7.2249   7.3264   7.3264   7.6658   7.6658
     7.6999   7.6999   7.7931   7.7931   7.7953   7.7953   8.1993   8.1993
    10.7438  10.7438  11.3604  11.3604  11.4268  11.4268  11.9098  11.9098
    11.9870  11.9870  12.1440  12.1440  12.8054  12.8054  12.8870  12.8870
    13.0867  13.0867  13.2034  13.2034  13.2910  13.2911  13.6923  13.6923
    15.0800  15.0800  15.4404  15.4404  16.3331  16.3331  16.5760  16.5760
    16.6632  16.6632  17.0435  17.0435  17.5897

          k =-0.5000 0.3311 0.3356 ( 62268 PWs)   bands (ev):

   -66.0311 -66.0311 -66.0308 -66.0308 -66.0307 -66.0307 -66.0304 -66.0304
   -30.4114 -30.4114 -30.4091 -30.4091 -30.4071 -30.4071 -30.4047 -30.4047
   -30.3612 -30.3612 -30.3563 -30.3563 -30.3455 -30.3455 -30.3291 -30.3291
   -30.3224 -30.3223 -30.3047 -30.3047 -30.2970 -30.2970 -30.2910 -30.2910
   -20.1921 -20.1921 -20.1920 -20.1920 -20.1916 -20.1916 -20.1915 -20.1915
   -20.1841 -20.1841 -20.1841 -20.1841 -20.1838 -20.1838 -20.1838 -20.1838
   -20.1737 -20.1737 -20.1735 -20.1735 -20.1734 -20.1733 -20.1731 -20.1731
   -20.1627 -20.1627 -20.1627 -20.1627 -20.1620 -20.1620 -20.1620 -20.1620
   -20.1511 -20.1511 -20.1507 -20.1507 -20.1496 -20.1496 -20.1488 -20.1487
   -20.1442 -20.1441 -20.1432 -20.1431 -20.1425 -20.1425 -20.1419 -20.1419
   -20.1337 -20.1337 -20.1336 -20.1336 -20.1332 -20.1332 -20.1330 -20.1330
    -9.3225  -9.3225  -9.0533  -9.0532  -9.0311  -9.0311  -8.6484  -8.6484
    -8.4908  -8.4908  -8.4065  -8.4065  -8.3734  -8.3734  -8.3491  -8.3491
    -8.1117  -8.1117  -8.0551  -8.0551  -7.9214  -7.9214  -7.8841  -7.8841
     2.1764   2.1764   2.2976   2.2976   2.3290   2.3290   2.4770   2.4770
     2.9854   2.9854   3.0147   3.0147   3.1275   3.1275   3.1967   3.1967
     3.2611   3.2611   3.5626   3.5626   3.7746   3.7746   3.8331   3.8331
     4.0650   4.0650   4.1620   4.1620   4.2866   4.2866   4.4245   4.4245
     4.5344   4.5344   4.6283   4.6283   4.7829   4.7829   4.9776   4.9776
     5.0060   5.0060   5.0600   5.0600   5.2248   5.2248   5.5455   5.5455
     7.0116   7.0116   7.0985   7.0986   7.1128   7.1128   7.1839   7.1839
     7.2769   7.2769   7.3385   7.3385   7.4547   7.4547   7.6243   7.6243
     7.6692   7.6692   7.7871   7.7871   7.8080   7.8080   8.0815   8.0815
    11.2222  11.2222  11.6510  11.6510  11.7339  11.7339  11.9227  11.9227
    12.0119  12.0119  12.3767  12.3767  12.5235  12.5235  12.7540  12.7540
    12.8064  12.8064  12.9108  12.9108  12.9238  12.9238  13.2984  13.2984
    15.8825  15.8825  16.3110  16.3110  16.5716  16.5717  16.6107  16.6107
    16.7493  16.7493  17.1460  17.1460  17.3761

          k =-0.5000 0.3311-0.5033 ( 62212 PWs)   bands (ev):

   -66.0309 -66.0309 -66.0309 -66.0309 -66.0306 -66.0306 -66.0306 -66.0306
   -30.4102 -30.4102 -30.4102 -30.4102 -30.4059 -30.4059 -30.4059 -30.4059
   -30.3513 -30.3513 -30.3513 -30.3513 -30.3388 -30.3388 -30.3388 -30.3388
   -30.3191 -30.3191 -30.3191 -30.3191 -30.2947 -30.2947 -30.2947 -30.2947
   -20.1919 -20.1919 -20.1919 -20.1919 -20.1917 -20.1917 -20.1917 -20.1917
   -20.1841 -20.1841 -20.1841 -20.1841 -20.1838 -20.1838 -20.1838 -20.1838
   -20.1736 -20.1736 -20.1736 -20.1736 -20.1732 -20.1732 -20.1732 -20.1732
   -20.1624 -20.1624 -20.1624 -20.1624 -20.1623 -20.1623 -20.1623 -20.1623
   -20.1509 -20.1509 -20.1509 -20.1509 -20.1492 -20.1492 -20.1492 -20.1492
   -20.1437 -20.1437 -20.1437 -20.1436 -20.1422 -20.1422 -20.1422 -20.1422
   -20.1335 -20.1334 -20.1334 -20.1334 -20.1333 -20.1333 -20.1333 -20.1333
    -9.1563  -9.1563  -9.1563  -9.1563  -8.8033  -8.8033  -8.8033  -8.8033
    -8.3727  -8.3727  -8.3727  -8.3727  -8.3247  -8.3246  -8.3246  -8.3246
    -8.2881  -8.2881  -8.2881  -8.2881  -7.9138  -7.9138  -7.9138  -7.9138
     2.3009   2.3009   2.3009   2.3009   2.8902   2.8902   2.8902   2.8902
     3.0099   3.0099   3.0099   3.0099   3.1475   3.1475   3.1475   3.1475
     3.3365   3.3365   3.3365   3.3365   3.9860   3.9861   3.9861   3.9861
     4.0998   4.0998   4.0998   4.0998   4.2403   4.2403   4.2403   4.2403
     4.3657   4.3657   4.3657   4.3657   4.5465   4.5465   4.5465   4.5465
     4.8852   4.8852   4.8852   4.8852   5.2736   5.2736   5.2736   5.2736
     7.0971   7.0971   7.0971   7.0971   7.1997   7.1997   7.1997   7.1997
     7.4277   7.4277   7.4277   7.4277   7.5893   7.5893   7.5893   7.5893
     7.7419   7.7419   7.7419   7.7419   7.8849   7.8849   7.8849   7.8849
    11.8093  11.8093  11.8093  11.8093  11.9675  11.9675  11.9675  11.9675
    12.1877  12.1877  12.1877  12.1877  12.2936  12.2936  12.2936  12.2936
    12.7839  12.7839  12.7839  12.7839  12.9251  12.9251  12.9251  12.9251
    16.4559  16.4559  16.4559  16.4559  16.8357  16.8358  16.8358  16.8358
    17.2525  17.2530  17.2531  17.2531  17.3383

          k =-0.5000-0.4967 0.0000 ( 62276 PWs)   bands (ev):

   -66.0311 -66.0311 -66.0311 -66.0310 -66.0304 -66.0304 -66.0304 -66.0304
   -30.4111 -30.4111 -30.4103 -30.4103 -30.4059 -30.4059 -30.4049 -30.4049
   -30.3741 -30.3741 -30.3738 -30.3738 -30.3253 -30.3253 -30.3241 -30.3241
   -30.3185 -30.3185 -30.3168 -30.3168 -30.2873 -30.2873 -30.2870 -30.2870
   -20.1923 -20.1923 -20.1923 -20.1922 -20.1912 -20.1912 -20.1912 -20.1912
   -20.1840 -20.1840 -20.1840 -20.1840 -20.1840 -20.1840 -20.1839 -20.1839
   -20.1737 -20.1737 -20.1737 -20.1737 -20.1732 -20.1732 -20.1732 -20.1732
   -20.1631 -20.1631 -20.1630 -20.1630 -20.1616 -20.1616 -20.1616 -20.1616
   -20.1506 -20.1506 -20.1505 -20.1505 -20.1493 -20.1493 -20.1493 -20.1493
   -20.1438 -20.1438 -20.1438 -20.1438 -20.1422 -20.1422 -20.1422 -20.1422
   -20.1340 -20.1340 -20.1340 -20.1340 -20.1328 -20.1328 -20.1328 -20.1328
    -9.4102  -9.4102  -9.3918  -9.3918  -8.7584  -8.7584  -8.6818  -8.6818
    -8.5203  -8.5203  -8.4638  -8.4638  -8.2827  -8.2827  -8.2479  -8.2478
    -8.1907  -8.1907  -8.1667  -8.1667  -7.6978  -7.6978  -7.6966  -7.6966
     1.4517   1.4517   1.4562   1.4562   2.9130   2.9130   2.9413   2.9413
     2.9585   2.9585   3.0154   3.0154   3.1470   3.1470   3.2929   3.2929
     3.3151   3.3151   3.4056   3.4056   3.4446   3.4446   3.5495   3.5495
     3.5774   3.5774   3.8590   3.8590   4.3951   4.3951   4.4945   4.4945
     4.5253   4.5254   4.5731   4.5731   5.2748   5.2748   5.3242   5.3242
     5.5691   5.5691   5.7787   5.7787   6.1412   6.1412   6.1683   6.1683
     6.6114   6.6114   6.6549   6.6549   6.7302   6.7302   6.7672   6.7672
     7.3253   7.3253   7.3612   7.3612   7.6068   7.6068   7.6123   7.6123
     7.7452   7.7452   7.7632   7.7632   7.8507   7.8507   7.8984   7.8984
    11.1124  11.1124  11.2159  11.2159  11.3729  11.3729  11.5102  11.5102
    12.1956  12.1956  12.3633  12.3633  12.4498  12.4498  12.5237  12.5237
    13.2649  13.2649  13.3809  13.3809  13.5672  13.5672  13.6314  13.6314
    14.9429  14.9429  14.9772  14.9772  16.4343  16.4343  16.6870  16.6870
    17.2201  17.2201  17.2443  17.2443  17.4048

          k =-0.5000-0.4967 0.1678 ( 62280 PWs)   bands (ev):

   -66.0310 -66.0310 -66.0310 -66.0310 -66.0305 -66.0305 -66.0305 -66.0305
   -30.4107 -30.4107 -30.4098 -30.4098 -30.4062 -30.4062 -30.4052 -30.4052
   -30.3696 -30.3696 -30.3694 -30.3694 -30.3267 -30.3267 -30.3255 -30.3255
   -30.3178 -30.3178 -30.3161 -30.3161 -30.2914 -30.2914 -30.2911 -30.2911
   -20.1922 -20.1922 -20.1922 -20.1922 -20.1913 -20.1913 -20.1913 -20.1913
   -20.1841 -20.1841 -20.1840 -20.1840 -20.1839 -20.1839 -20.1839 -20.1839
   -20.1737 -20.1737 -20.1737 -20.1737 -20.1732 -20.1732 -20.1732 -20.1732
   -20.1630 -20.1630 -20.1629 -20.1629 -20.1617 -20.1617 -20.1617 -20.1617
   -20.1505 -20.1505 -20.1504 -20.1504 -20.1494 -20.1494 -20.1494 -20.1494
   -20.1437 -20.1437 -20.1437 -20.1437 -20.1423 -20.1423 -20.1423 -20.1423
   -20.1339 -20.1339 -20.1339 -20.1339 -20.1329 -20.1329 -20.1329 -20.1329
    -9.3446  -9.3446  -9.3240  -9.3240  -8.7748  -8.7748  -8.7006  -8.7006
    -8.5048  -8.5048  -8.4510  -8.4510  -8.2816  -8.2816  -8.2496  -8.2496
    -8.1897  -8.1897  -8.1694  -8.1694  -7.7974  -7.7974  -7.7958  -7.7958
     1.6843   1.6843   1.6895   1.6895   2.9121   2.9121   2.9531   2.9531
     2.9660   2.9660   3.0183   3.0183   3.1584   3.1584   3.2741   3.2741
     3.3545   3.3545   3.4686   3.4686   3.4844   3.4845   3.5649   3.5649
     3.6370   3.6370   3.8959   3.8959   4.3980   4.3980   4.4882   4.4882
     4.5318   4.5319   4.5602   4.5602   5.0335   5.0335   5.0847   5.0847
     5.2925   5.2926   5.4859   5.4859   5.8150   5.8150   5.8332   5.8332
     6.8241   6.8241   6.8506   6.8506   6.9392   6.9393   7.0235   7.0235
     7.3240   7.3240   7.3758   7.3758   7.5968   7.5968   7.6087   7.6087
     7.7447   7.7448   7.7661   7.7661   7.8341   7.8342   7.8864   7.8864
    11.2214  11.2214  11.3295  11.3295  11.4713  11.4713  11.6159  11.6159
    12.2099  12.2099  12.3610  12.3611  12.4561  12.4561  12.5190  12.5190
    13.1015  13.1015  13.2076  13.2076  13.3953  13.3953  13.4711  13.4711
    15.3153  15.3153  15.3256  15.3256  16.5063  16.5063  16.7507  16.7507
    17.2048  17.2048  17.2502  17.2502  17.4168

          k =-0.5000-0.4967 0.3356 ( 62248 PWs)   bands (ev):

   -66.0309 -66.0309 -66.0309 -66.0309 -66.0306 -66.0306 -66.0306 -66.0306
   -30.4095 -30.4095 -30.4086 -30.4086 -30.4070 -30.4070 -30.4060 -30.4060
   -30.3576 -30.3576 -30.3573 -30.3573 -30.3316 -30.3316 -30.3308 -30.3308
   -30.3154 -30.3154 -30.3139 -30.3139 -30.3013 -30.3013 -30.3006 -30.3006
   -20.1921 -20.1921 -20.1921 -20.1920 -20.1915 -20.1915 -20.1915 -20.1915
   -20.1841 -20.1841 -20.1841 -20.1841 -20.1839 -20.1839 -20.1838 -20.1838
   -20.1736 -20.1736 -20.1736 -20.1736 -20.1733 -20.1733 -20.1733 -20.1733
   -20.1627 -20.1627 -20.1627 -20.1627 -20.1620 -20.1620 -20.1620 -20.1620
   -20.1503 -20.1503 -20.1502 -20.1502 -20.1496 -20.1496 -20.1496 -20.1496
   -20.1434 -20.1434 -20.1434 -20.1434 -20.1426 -20.1426 -20.1426 -20.1426
   -20.1337 -20.1337 -20.1337 -20.1337 -20.1331 -20.1331 -20.1331 -20.1331
    -9.1719  -9.1719  -9.1428  -9.1428  -8.8352  -8.8352  -8.7696  -8.7696
    -8.4487  -8.4487  -8.4061  -8.4061  -8.2832  -8.2832  -8.2503  -8.2503
    -8.2008  -8.2008  -8.1716  -8.1715  -8.0249  -8.0249  -8.0228  -8.0228
     2.2807   2.2807   2.2943   2.2943   2.8993   2.8993   2.9572   2.9572
     3.0026   3.0026   3.0352   3.0352   3.1976   3.1976   3.2634   3.2634
     3.4004   3.4004   3.5038   3.5038   3.5876   3.5876   3.6112   3.6112
     3.8550   3.8550   4.0364   4.0364   4.3995   4.3995   4.4649   4.4649
     4.4930   4.4930   4.5417   4.5418   4.6309   4.6309   4.6651   4.6651
     4.8085   4.8086   4.9996   4.9996   5.1017   5.1017   5.1347   5.1347
     7.1492   7.1492   7.1593   7.1593   7.2047   7.2047   7.2981   7.2981
     7.3855   7.3855   7.4461   7.4461   7.5528   7.5528   7.6164   7.6164
     7.7348   7.7348   7.7622   7.7622   7.7959   7.7959   7.8478   7.8479
    11.5381  11.5381  11.6518  11.6518  11.7812  11.7812  11.9313  11.9313
    12.2131  12.2131  12.3537  12.3537  12.4509  12.4509  12.5019  12.5019
    12.7154  12.7154  12.7832  12.7832  12.9399  12.9399  13.0333  13.0333
    16.1640  16.1640  16.2377  16.2377  16.7048  16.7048  16.9049  16.9049
    17.1641  17.1641  17.2176  17.2176  17.4728

          k =-0.5000-0.4967-0.5033 ( 62208 PWs)   bands (ev):

   -66.0308 -66.0307 -66.0307 -66.0307 -66.0307 -66.0307 -66.0307 -66.0307
   -30.4083 -30.4083 -30.4083 -30.4083 -30.4072 -30.4072 -30.4072 -30.4072
   -30.3427 -30.3426 -30.3426 -30.3426 -30.3422 -30.3422 -30.3422 -30.3422
   -30.3104 -30.3104 -30.3104 -30.3104 -30.3092 -30.3092 -30.3092 -30.3092
   -20.1919 -20.1919 -20.1919 -20.1919 -20.1917 -20.1917 -20.1917 -20.1917
   -20.1841 -20.1841 -20.1841 -20.1841 -20.1838 -20.1838 -20.1838 -20.1838
   -20.1735 -20.1735 -20.1735 -20.1735 -20.1734 -20.1734 -20.1734 -20.1733
   -20.1624 -20.1624 -20.1624 -20.1624 -20.1623 -20.1623 -20.1623 -20.1623
   -20.1500 -20.1500 -20.1500 -20.1500 -20.1499 -20.1499 -20.1499 -20.1499
   -20.1431 -20.1431 -20.1430 -20.1430 -20.1430 -20.1430 -20.1430 -20.1430
   -20.1334 -20.1334 -20.1334 -20.1334 -20.1334 -20.1334 -20.1334 -20.1334
    -8.9717  -8.9717  -8.9717  -8.9717  -8.9222  -8.9222  -8.9222  -8.9222
    -8.3351  -8.3351  -8.3351  -8.3351  -8.3097  -8.3097  -8.3097  -8.3097
    -8.2110  -8.2110  -8.2110  -8.2110  -8.1494  -8.1494  -8.1494  -8.1494
     2.7831   2.7831   2.7831   2.7831   2.8854   2.8854   2.8854   2.8854
     3.1094   3.1094   3.1094   3.1094   3.2681   3.2681   3.2681   3.2681
     3.3808   3.3808   3.3808   3.3808   3.5340   3.5340   3.5340   3.5340
     4.2269   4.2269   4.2269   4.2269   4.3364   4.3364   4.3364   4.3364
     4.4199   4.4199   4.4199   4.4199   4.4824   4.4824   4.4824   4.4824
     4.6304   4.6304   4.6304   4.6304   4.7367   4.7367   4.7368   4.7368
     7.2681   7.2681   7.2681   7.2681   7.3352   7.3352   7.3352   7.3352
     7.4852   7.4852   7.4852   7.4852   7.6124   7.6124   7.6124   7.6124
     7.7079   7.7079   7.7079   7.7080   7.8028   7.8028   7.8028   7.8028
    11.9619  11.9619  11.9619  11.9619  12.1048  12.1048  12.1048  12.1048
    12.2986  12.2986  12.2986  12.2986  12.3863  12.3863  12.3863  12.3863
    12.5101  12.5101  12.5101  12.5101  12.5702  12.5702  12.5702  12.5702
    16.7839  16.7839  16.7839  16.7839  17.0366  17.0366  17.0366  17.0366
    17.3175  17.3176  17.3176  17.3177  17.3768

     the Fermi energy is    10.0013 ev

!    total energy              =   -6260.58089831 Ry
     Harris-Foulkes estimate   =   -6260.58089831 Ry
     estimated scf accuracy    <          7.0E-10 Ry

     The total energy is the sum of the following terms:

     one-electron contribution =   -4716.87478502 Ry
     hartree contribution      =    2597.23528797 Ry
     xc contribution           =    -966.26437637 Ry
     ewald contribution        =   -3174.67700515 Ry
     smearing contrib. (-TS)   =      -0.00001974 Ry

     convergence has been achieved in  13 iterations

     Writing output data file Landau_37.save/
 
     init_run     :     43.19s CPU     44.92s WALL (       1 calls)
     electrons    :   1690.43s CPU   1715.15s WALL (       1 calls)

     Called by init_run:
     wfcinit      :     39.75s CPU     41.33s WALL (       1 calls)
     potinit      :      1.34s CPU      1.38s WALL (       1 calls)
     hinit0       :      1.87s CPU      1.93s WALL (       1 calls)

     Called by electrons:
     c_bands      :   1494.23s CPU   1517.11s WALL (      13 calls)
     sum_band     :    188.51s CPU    189.52s WALL (      13 calls)
     v_of_rho     :      1.97s CPU      2.04s WALL (      14 calls)
     mix_rho      :      3.77s CPU      4.37s WALL (      13 calls)

     Called by c_bands:
     init_us_2    :     15.21s CPU     15.98s WALL (      54 calls)
     cegterg      :   1307.50s CPU   1329.02s WALL (      26 calls)

     Called by sum_band:

     Called by *egterg:
     h_psi        :   1003.53s CPU   1014.24s WALL (     112 calls)
     g_psi        :      4.42s CPU      4.42s WALL (      84 calls)
     cdiaghg      :     16.20s CPU     16.26s WALL (     110 calls)

     Called by h_psi:
     h_psi:pot    :   1000.27s CPU   1004.58s WALL (     112 calls)
     h_psi:calbec :    133.10s CPU    135.69s WALL (     112 calls)
     vloc_psi     :    728.88s CPU    730.05s WALL (     112 calls)
     add_vuspsi   :    138.29s CPU    138.84s WALL (     112 calls)

     General routines
     calbec       :    133.10s CPU    135.69s WALL (     112 calls)
     fft          :      0.84s CPU      0.84s WALL (      42 calls)
     ffts         :      0.26s CPU      0.26s WALL (      13 calls)
     fftw         :    721.57s CPU    722.01s WALL (   34086 calls)
 
     Parallel routines
 
     PWSCF        :  28m56.31s CPU  29m25.87s WALL

 
   This run was terminated on:   2: 8: 0  22Nov2019            

=------------------------------------------------------------------------------=
   JOB DONE.
=------------------------------------------------------------------------------=
