
     Program PWSCF v.6.2 (svn rev. 14038) starts on 20Mar2020 at 19: 2:59 

     This program is part of the open-source Quantum ESPRESSO suite
     for quantum simulation of materials; please cite
         "P. Giannozzi et al., J. Phys.:Condens. Matter 21 395502 (2009);
         "P. Giannozzi et al., J. Phys.:Condens. Matter 29 465901 (2017);
          URL http://www.quantum-espresso.org", 
     in publications or presentations arising from this work. More details at
     http://www.quantum-espresso.org/quote

     Parallel version (MPI), running on    40 processors

     MPI processes distributed on     5 nodes
     K-points division:     npool     =      40
     Reading input from scf.in

     Current dimensions of program PWSCF are:
     Max number of different atomic species (ntypx) = 10
     Max number of k-points (npk) =  40000
     Max angular momentum in pseudopotentials (lmaxx) =  3

     Subspace diagonalization in iterative solution of the eigenvalue problem:
     a serial algorithm will be used

     Found symmetry operation: I + ( -0.5000  0.0000 -0.5000)
     This is a supercell, fractional translations are disabled
 
     G-vector sticks info
     --------------------
     sticks:   dense  smooth     PW     G-vecs:    dense   smooth      PW
     Sum        7747    7747   2077               498127   498127   69057
 


     bravais-lattice index     =            0
     lattice parameter (alat)  =      13.8397  a.u.
     unit-cell volume          =    2804.9817 (a.u.)^3
     number of atoms/cell      =           32
     number of atomic types    =            2
     number of electrons       =       368.16
     number of Kohn-Sham states=          221
     kinetic-energy cutoff     =     120.0000  Ry
     charge density cutoff     =     480.0000  Ry
     convergence threshold     =      1.0E-08
     mixing beta               =       0.7000
     number of iterations used =            8  plain     mixing
     Exchange-correlation      = SLA PW NOGX NOGC ( 1  4  0  0 0 0)

     celldm(1)=  13.839685  celldm(2)=   0.000000  celldm(3)=   0.000000
     celldm(4)=   0.000000  celldm(5)=   0.000000  celldm(6)=   0.000000

     crystal axes: (cart. coord. in units of alat)
               a(1) = (   1.000000   0.000000   0.000000 )  
               a(2) = (   0.000000   1.058160   0.000000 )  
               a(3) = (   0.000000   0.000000   1.000000 )  

     reciprocal axes: (cart. coord. in units 2 pi/alat)
               b(1) = (  1.000000  0.000000  0.000000 )  
               b(2) = (  0.000000  0.945037  0.000000 )  
               b(3) = (  0.000000  0.000000  1.000000 )  


     PseudoPot. # 1 for W  read from file:
     /cluster/scratch/mnoe/QE/pps/W_ONCV_LDA-4.0.upf
     MD5 check sum: ba0307d5d4cd419d6f1d13dc49d7c13a
     Pseudo is Norm-conserving + core correction, Zval = 28.0
     Generated using ONCVPSP code by D. R. Hamann
     Using radial grid of 1380 points,  8 beta functions with: 
                l(1) =   0
                l(2) =   0
                l(3) =   1
                l(4) =   1
                l(5) =   2
                l(6) =   2
                l(7) =   3
                l(8) =   3

     PseudoPot. # 2 for O  read from file:
     /cluster/scratch/mnoe/QE/pps/O_ONCV_LDA-3.0.upf
     MD5 check sum: a1bd6164e7280c17a38c229939bfbd54
     Pseudo is Norm-conserving + core correction, Zval =  6.0
     Generated using ONCVPSP code by D. R. Hamann
     Using radial grid of  926 points,  5 beta functions with: 
                l(1) =   0
                l(2) =   0
                l(3) =   1
                l(4) =   1
                l(5) =   2

     atomic species   valence    mass     pseudopotential
        W             28.00   183.84000     W ( 1.00)
        O              6.00    15.99940     O ( 1.00)

      2 Sym. Ops., with inversion, found



   Cartesian axes

     site n.     atom                  positions (alat units)
         1           W   tau(   1) = (   0.2500000   0.2982530   0.0000000  )
         2           W   tau(   2) = (   0.7500000   0.7599071   0.0000000  )
         3           W   tau(   3) = (   0.2500000   0.2308271   0.5000000  )
         4           W   tau(   4) = (   0.7500000   0.8273330   0.5000000  )
         5           W   tau(   5) = (   0.7500000   0.2982530   0.5000000  )
         6           W   tau(   6) = (   0.2500000   0.7599071   0.5000000  )
         7           W   tau(   7) = (   0.7500000   0.2308271   0.0000000  )
         8           W   tau(   8) = (   0.2500000   0.8273330   0.0000000  )
         9           O   tau(   9) = (   0.2500000   0.0088039   0.0000000  )
        10           O   tau(  10) = (   0.7500000   1.0493562   0.0000000  )
        11           O   tau(  11) = (   0.2500000   0.5202761   0.5000000  )
        12           O   tau(  12) = (   0.7500000   0.5378839   0.5000000  )
        13           O   tau(  13) = (   0.7500000   0.0088039   0.5000000  )
        14           O   tau(  14) = (   0.2500000   1.0493562   0.5000000  )
        15           O   tau(  15) = (   0.7500000   0.5202761   0.0000000  )
        16           O   tau(  16) = (   0.2500000   0.5378839   0.0000000  )
        17           O   tau(  17) = (   0.5000000   0.2645400   0.4495400  )
        18           O   tau(  18) = (   0.5000000   0.7936200   0.5504600  )
        19           O   tau(  19) = (   0.0000000   0.2645400   0.9495400  )
        20           O   tau(  20) = (   0.0000000   0.7936200   0.0504600  )
        21           O   tau(  21) = (   0.5000000   0.2645400   0.0504600  )
        22           O   tau(  22) = (   0.5000000   0.7936200   0.9495400  )
        23           O   tau(  23) = (   0.0000000   0.2645400   0.5504600  )
        24           O   tau(  24) = (   0.0000000   0.7936200   0.4495400  )
        25           O   tau(  25) = (   0.6995400   0.2645400   0.7500000  )
        26           O   tau(  26) = (   0.3004600   0.7936200   0.2500000  )
        27           O   tau(  27) = (   0.8004600   0.2645400   0.2500000  )
        28           O   tau(  28) = (   0.1995400   0.7936200   0.7500000  )
        29           O   tau(  29) = (   0.3004600   0.2645400   0.7500000  )
        30           O   tau(  30) = (   0.6995400   0.7936200   0.2500000  )
        31           O   tau(  31) = (   0.1995400   0.2645400   0.2500000  )
        32           O   tau(  32) = (   0.8004600   0.7936200   0.7500000  )

     number of k points=   112  gaussian smearing, width (Ry)=  0.0007

     Number of k-points >= 100: set verbosity='high' to print them.

     Dense  grid:   498127 G-vectors     FFT dimensions: ( 100, 108, 100)

     Estimated max dynamical RAM per process >       3.33 GB

     Estimated total dynamical RAM >     133.28 GB

     Initial potential from superposition of free atoms

     starting charge  367.99656, renormalised to  368.16250
     Starting wfc are  232 randomized atomic wfcs

     total cpu time spent up to now is       74.2 secs

     Self-consistent Calculation

     iteration #  1     ecut=   120.00 Ry     beta= 0.70
     Davidson diagonalization with overlap
     ethr =  1.00E-02,  avg # of iterations =  5.0

     total cpu time spent up to now is      344.3 secs

     total energy              =   -6253.83632814 Ry
     Harris-Foulkes estimate   =   -6264.50077059 Ry
     estimated scf accuracy    <      13.48434865 Ry

     iteration #  2     ecut=   120.00 Ry     beta= 0.70
     Davidson diagonalization with overlap
     ethr =  3.66E-03,  avg # of iterations =  3.4

     total cpu time spent up to now is      607.3 secs

     total energy              =   -6250.68865674 Ry
     Harris-Foulkes estimate   =   -6270.69710655 Ry
     estimated scf accuracy    <      53.68672958 Ry

     iteration #  3     ecut=   120.00 Ry     beta= 0.70
     Davidson diagonalization with overlap
     ethr =  3.66E-03,  avg # of iterations =  3.3

     total cpu time spent up to now is      853.3 secs

     total energy              =   -6260.97799303 Ry
     Harris-Foulkes estimate   =   -6261.26549441 Ry
     estimated scf accuracy    <       0.94584575 Ry

     iteration #  4     ecut=   120.00 Ry     beta= 0.70
     Davidson diagonalization with overlap
     ethr =  2.57E-04,  avg # of iterations =  3.3

     total cpu time spent up to now is     1050.7 secs

     total energy              =   -6260.98338054 Ry
     Harris-Foulkes estimate   =   -6261.05383121 Ry
     estimated scf accuracy    <       0.23342178 Ry

     iteration #  5     ecut=   120.00 Ry     beta= 0.70
     Davidson diagonalization with overlap
     ethr =  6.34E-05,  avg # of iterations =  5.0

     total cpu time spent up to now is     1265.3 secs

     total energy              =   -6260.98072632 Ry
     Harris-Foulkes estimate   =   -6261.01394453 Ry
     estimated scf accuracy    <       0.07320688 Ry

     iteration #  6     ecut=   120.00 Ry     beta= 0.70
     Davidson diagonalization with overlap
     ethr =  1.99E-05,  avg # of iterations =  4.6

     total cpu time spent up to now is     1487.7 secs

     total energy              =   -6260.99682070 Ry
     Harris-Foulkes estimate   =   -6260.99909954 Ry
     estimated scf accuracy    <       0.00606855 Ry

     iteration #  7     ecut=   120.00 Ry     beta= 0.70
     Davidson diagonalization with overlap
     ethr =  1.65E-06,  avg # of iterations =  4.7

     total cpu time spent up to now is     1704.6 secs

     total energy              =   -6260.99760999 Ry
     Harris-Foulkes estimate   =   -6260.99769048 Ry
     estimated scf accuracy    <       0.00015982 Ry

     iteration #  8     ecut=   120.00 Ry     beta= 0.70
     Davidson diagonalization with overlap
     ethr =  4.34E-08,  avg # of iterations =  3.1

     total cpu time spent up to now is     1964.3 secs

     total energy              =   -6260.99766134 Ry
     Harris-Foulkes estimate   =   -6260.99768574 Ry
     estimated scf accuracy    <       0.00008441 Ry

     iteration #  9     ecut=   120.00 Ry     beta= 0.70
     Davidson diagonalization with overlap
     ethr =  2.29E-08,  avg # of iterations =  2.4

     total cpu time spent up to now is     2163.6 secs

     total energy              =   -6260.99767140 Ry
     Harris-Foulkes estimate   =   -6260.99767728 Ry
     estimated scf accuracy    <       0.00002772 Ry

     iteration # 10     ecut=   120.00 Ry     beta= 0.70
     Davidson diagonalization with overlap
     ethr =  7.53E-09,  avg # of iterations =  1.8

     total cpu time spent up to now is     2352.0 secs

     total energy              =   -6260.99766912 Ry
     Harris-Foulkes estimate   =   -6260.99767316 Ry
     estimated scf accuracy    <       0.00000952 Ry

     iteration # 11     ecut=   120.00 Ry     beta= 0.70
     Davidson diagonalization with overlap
     ethr =  2.59E-09,  avg # of iterations =  2.2

     total cpu time spent up to now is     2553.8 secs

     total energy              =   -6260.99767086 Ry
     Harris-Foulkes estimate   =   -6260.99767130 Ry
     estimated scf accuracy    <       0.00000154 Ry

     iteration # 12     ecut=   120.00 Ry     beta= 0.70
     Davidson diagonalization with overlap
     ethr =  4.17E-10,  avg # of iterations =  2.3

     total cpu time spent up to now is     2751.1 secs

     total energy              =   -6260.99767108 Ry
     Harris-Foulkes estimate   =   -6260.99767113 Ry
     estimated scf accuracy    <       0.00000014 Ry

     iteration # 13     ecut=   120.00 Ry     beta= 0.70
     Davidson diagonalization with overlap
     ethr =  3.89E-11,  avg # of iterations =  2.5

     total cpu time spent up to now is     2946.0 secs

     total energy              =   -6260.99767107 Ry
     Harris-Foulkes estimate   =   -6260.99767109 Ry
     estimated scf accuracy    <       0.00000005 Ry

     iteration # 14     ecut=   120.00 Ry     beta= 0.70
     Davidson diagonalization with overlap
     ethr =  1.25E-11,  avg # of iterations =  2.2

     total cpu time spent up to now is     3194.2 secs

     End of self-consistent calculation

     Number of k-points >= 100: set verbosity='high' to print the bands.

     the Fermi energy is     9.6106 ev

!    total energy              =   -6260.99767107 Ry
     Harris-Foulkes estimate   =   -6260.99767108 Ry
     estimated scf accuracy    <          8.7E-09 Ry

     The total energy is the sum of the following terms:

     one-electron contribution =   -4722.13215680 Ry
     hartree contribution      =    2598.26204531 Ry
     xc contribution           =    -965.84640688 Ry
     ewald contribution        =   -3171.28112790 Ry
     smearing contrib. (-TS)   =      -0.00002480 Ry

     convergence has been achieved in  14 iterations

     Writing output data file chempot_13.save
 
     init_run     :     65.70s CPU     68.60s WALL (       1 calls)
     electrons    :   3052.68s CPU   3120.05s WALL (       1 calls)

     Called by init_run:
     wfcinit      :     64.07s CPU     66.82s WALL (       1 calls)
     potinit      :      0.55s CPU      0.58s WALL (       1 calls)

     Called by electrons:
     c_bands      :   2725.97s CPU   2789.58s WALL (      14 calls)
     sum_band     :    317.64s CPU    320.45s WALL (      14 calls)
     v_of_rho     :      1.47s CPU      1.50s WALL (      15 calls)
     mix_rho      :      2.25s CPU      2.95s WALL (      14 calls)

     Called by c_bands:
     init_us_2    :     12.05s CPU     13.43s WALL (      87 calls)
     cegterg      :   2218.79s CPU   2277.48s WALL (      42 calls)

     Called by sum_band:

     Called by *egterg:
     h_psi        :   1630.71s CPU   1643.34s WALL (     186 calls)
     g_psi        :      2.34s CPU      2.35s WALL (     141 calls)
     cdiaghg      :     28.89s CPU     29.04s WALL (     183 calls)

     Called by h_psi:
     h_psi:pot    :   1624.54s CPU   1636.68s WALL (     186 calls)
     h_psi:calbec :    267.33s CPU    273.88s WALL (     186 calls)
     vloc_psi     :   1081.88s CPU   1085.62s WALL (     186 calls)
     add_vuspsi   :    275.33s CPU    277.19s WALL (     186 calls)

     General routines
     calbec       :    267.32s CPU    273.88s WALL (     186 calls)
     fft          :      1.27s CPU      1.28s WALL (      60 calls)
     fftw         :   1174.33s CPU   1177.67s WALL (   53526 calls)
 
     Parallel routines
 
     PWSCF        : 52m 9.09s CPU    53m22.43s WALL

 
   This run was terminated on:  19:56:21  20Mar2020            

=------------------------------------------------------------------------------=
   JOB DONE.
=------------------------------------------------------------------------------=
