
     Program PWSCF v.6.2 (svn rev. 14038) starts on 12Mar2020 at 19:23:43 

     This program is part of the open-source Quantum ESPRESSO suite
     for quantum simulation of materials; please cite
         "P. Giannozzi et al., J. Phys.:Condens. Matter 21 395502 (2009);
         "P. Giannozzi et al., J. Phys.:Condens. Matter 29 465901 (2017);
          URL http://www.quantum-espresso.org", 
     in publications or presentations arising from this work. More details at
     http://www.quantum-espresso.org/quote

     Parallel version (MPI), running on    40 processors

     MPI processes distributed on    10 nodes
     K-points division:     npool     =      40
     Reading input from rscf.in

     Current dimensions of program PWSCF are:
     Max number of different atomic species (ntypx) = 10
     Max number of k-points (npk) =  40000
     Max angular momentum in pseudopotentials (lmaxx) =  3

     Subspace diagonalization in iterative solution of the eigenvalue problem:
     a serial algorithm will be used

 
     G-vector sticks info
     --------------------
     sticks:   dense  smooth     PW     G-vecs:    dense   smooth      PW
     Sum        7747    7747   2077               498127   498127   69057
 


     bravais-lattice index     =            0
     lattice parameter (alat)  =      13.8397  a.u.
     unit-cell volume          =    2804.9816 (a.u.)^3
     number of atoms/cell      =           32
     number of atomic types    =            2
     number of electrons       =       368.00
     number of Kohn-Sham states=          221
     kinetic-energy cutoff     =     120.0000  Ry
     charge density cutoff     =     480.0000  Ry
     convergence threshold     =      1.0E-08
     mixing beta               =       0.7000
     number of iterations used =            8  plain     mixing
     Exchange-correlation      = SLA PW NOGX NOGC ( 1  4  0  0 0 0)
     nstep                     =           50


     celldm(1)=  13.839685  celldm(2)=   0.000000  celldm(3)=   0.000000
     celldm(4)=   0.000000  celldm(5)=   0.000000  celldm(6)=   0.000000

     crystal axes: (cart. coord. in units of alat)
               a(1) = (   1.000000   0.000000   0.000000 )  
               a(2) = (   0.000000   1.058160   0.000000 )  
               a(3) = (   0.000000   0.000000   1.000000 )  

     reciprocal axes: (cart. coord. in units 2 pi/alat)
               b(1) = (  1.000000  0.000000  0.000000 )  
               b(2) = (  0.000000  0.945037  0.000000 )  
               b(3) = (  0.000000  0.000000  1.000000 )  


     PseudoPot. # 1 for W  read from file:
     /cluster/scratch/mnoe/QE/pps/W_ONCV_LDA-4.0.upf
     MD5 check sum: ba0307d5d4cd419d6f1d13dc49d7c13a
     Pseudo is Norm-conserving + core correction, Zval = 28.0
     Generated using ONCVPSP code by D. R. Hamann
     Using radial grid of 1380 points,  8 beta functions with: 
                l(1) =   0
                l(2) =   0
                l(3) =   1
                l(4) =   1
                l(5) =   2
                l(6) =   2
                l(7) =   3
                l(8) =   3

     PseudoPot. # 2 for O  read from file:
     /cluster/scratch/mnoe/QE/pps/O_ONCV_LDA-3.0.upf
     MD5 check sum: a1bd6164e7280c17a38c229939bfbd54
     Pseudo is Norm-conserving + core correction, Zval =  6.0
     Generated using ONCVPSP code by D. R. Hamann
     Using radial grid of  926 points,  5 beta functions with: 
                l(1) =   0
                l(2) =   0
                l(3) =   1
                l(4) =   1
                l(5) =   2

     atomic species   valence    mass     pseudopotential
        W             28.00   183.84000     W ( 1.00)
        O              6.00    15.99940     O ( 1.00)

      8 Sym. Ops., with inversion, found ( 6 have fractional translation)



   Cartesian axes

     site n.     atom                  positions (alat units)
         1           W   tau(   1) = (   0.2347400   0.2913357   0.0144100  )
         2           W   tau(   2) = (   0.7652599   0.7668244   0.9855900  )
         3           W   tau(   3) = (   0.2652600   0.2377444   0.5144100  )
         4           W   tau(   4) = (   0.7347400   0.8204157   0.4855900  )
         5           W   tau(   5) = (   0.7652599   0.2913357   0.4855900  )
         6           W   tau(   6) = (   0.2347400   0.7668244   0.5144100  )
         7           W   tau(   7) = (   0.7347400   0.2377444   0.9855900  )
         8           W   tau(   8) = (   0.2652600   0.8204157   0.0144100  )
         9           O   tau(   9) = (   0.2218500   0.0069194   0.0044800  )
        10           O   tau(  10) = (   0.7781500   1.0512407   0.9955200  )
        11           O   tau(  11) = (   0.2781500   0.5221607   0.5044800  )
        12           O   tau(  12) = (   0.7218499   0.5359995   0.4955200  )
        13           O   tau(  13) = (   0.7781500   0.0069194   0.4955200  )
        14           O   tau(  14) = (   0.2218500   1.0512407   0.5044800  )
        15           O   tau(  15) = (   0.7218499   0.5221607   0.9955200  )
        16           O   tau(  16) = (   0.2781500   0.5359995   0.0044800  )
        17           O   tau(  17) = (   0.5041700   0.2339804   0.4655246  )
        18           O   tau(  18) = (   0.4958300   0.8241798   0.5344755  )
        19           O   tau(  19) = (   0.9958300   0.2950997   0.9655246  )
        20           O   tau(  20) = (   0.0041699   0.7630604   0.0344754  )
        21           O   tau(  21) = (   0.4958300   0.2339804   0.0344754  )
        22           O   tau(  22) = (   0.5041700   0.8241798   0.9655246  )
        23           O   tau(  23) = (   0.0041699   0.2950997   0.5344755  )
        24           O   tau(  24) = (   0.9958300   0.7630604   0.4655246  )
        25           O   tau(  25) = (   0.7155246   0.2578630   0.7436700  )
        26           O   tau(  26) = (   0.2844754   0.8002971   0.2563300  )
        27           O   tau(  27) = (   0.7844755   0.2712170   0.2436700  )
        28           O   tau(  28) = (   0.2155246   0.7869431   0.7563299  )
        29           O   tau(  29) = (   0.2844754   0.2578630   0.7563299  )
        30           O   tau(  30) = (   0.7155246   0.8002971   0.2436700  )
        31           O   tau(  31) = (   0.2155246   0.2712170   0.2563300  )
        32           O   tau(  32) = (   0.7844755   0.7869431   0.7436700  )

     number of k points=    64  gaussian smearing, width (Ry)=  0.0007
                       cart. coord. in units 2pi/alat
        k(    1) = (   0.0000000   0.0000000   0.0000000), wk =   0.0092593
        k(    2) = (   0.0000000   0.0000000   0.1666667), wk =   0.0185185
        k(    3) = (   0.0000000   0.0000000   0.3333333), wk =   0.0185185
        k(    4) = (   0.0000000   0.0000000  -0.5000000), wk =   0.0092593
        k(    5) = (   0.0000000   0.1575061   0.0000000), wk =   0.0185185
        k(    6) = (   0.0000000   0.1575061   0.1666667), wk =   0.0370370
        k(    7) = (   0.0000000   0.1575061   0.3333333), wk =   0.0370370
        k(    8) = (   0.0000000   0.1575061  -0.5000000), wk =   0.0185185
        k(    9) = (   0.0000000   0.3150122   0.0000000), wk =   0.0185185
        k(   10) = (   0.0000000   0.3150122   0.1666667), wk =   0.0370370
        k(   11) = (   0.0000000   0.3150122   0.3333333), wk =   0.0370370
        k(   12) = (   0.0000000   0.3150122  -0.5000000), wk =   0.0185185
        k(   13) = (   0.0000000  -0.4725183   0.0000000), wk =   0.0092593
        k(   14) = (   0.0000000  -0.4725183   0.1666667), wk =   0.0185185
        k(   15) = (   0.0000000  -0.4725183   0.3333333), wk =   0.0185185
        k(   16) = (   0.0000000  -0.4725183  -0.5000000), wk =   0.0092593
        k(   17) = (   0.1666667   0.0000000   0.1666667), wk =   0.0370370
        k(   18) = (   0.1666667   0.0000000   0.3333333), wk =   0.0370370
        k(   19) = (   0.1666667   0.0000000  -0.5000000), wk =   0.0185185
        k(   20) = (   0.1666667   0.1575061   0.1666667), wk =   0.0740741
        k(   21) = (   0.1666667   0.1575061   0.3333333), wk =   0.0740741
        k(   22) = (   0.1666667   0.1575061  -0.5000000), wk =   0.0370370
        k(   23) = (   0.1666667   0.3150122   0.1666667), wk =   0.0740741
        k(   24) = (   0.1666667   0.3150122   0.3333333), wk =   0.0740741
        k(   25) = (   0.1666667   0.3150122  -0.5000000), wk =   0.0370370
        k(   26) = (   0.1666667  -0.4725183   0.1666667), wk =   0.0370370
        k(   27) = (   0.1666667  -0.4725183   0.3333333), wk =   0.0370370
        k(   28) = (   0.1666667  -0.4725183  -0.5000000), wk =   0.0185185
        k(   29) = (   0.3333333   0.0000000   0.3333333), wk =   0.0370370
        k(   30) = (   0.3333333   0.0000000  -0.5000000), wk =   0.0185185
        k(   31) = (   0.3333333   0.1575061   0.3333333), wk =   0.0740741
        k(   32) = (   0.3333333   0.1575061  -0.5000000), wk =   0.0370370
        k(   33) = (   0.3333333   0.3150122   0.3333333), wk =   0.0740741
        k(   34) = (   0.3333333   0.3150122  -0.5000000), wk =   0.0370370
        k(   35) = (   0.3333333  -0.4725183   0.3333333), wk =   0.0370370
        k(   36) = (   0.3333333  -0.4725183  -0.5000000), wk =   0.0185185
        k(   37) = (  -0.5000000   0.0000000  -0.5000000), wk =   0.0092593
        k(   38) = (  -0.5000000   0.1575061  -0.5000000), wk =   0.0185185
        k(   39) = (  -0.5000000   0.3150122  -0.5000000), wk =   0.0185185
        k(   40) = (  -0.5000000  -0.4725183  -0.5000000), wk =   0.0092593
        k(   41) = (   0.1666667   0.0000000   0.0000000), wk =   0.0185185
        k(   42) = (   0.3333333   0.0000000   0.0000000), wk =   0.0185185
        k(   43) = (  -0.5000000   0.0000000   0.0000000), wk =   0.0092593
        k(   44) = (   0.1666667  -0.1575061   0.0000000), wk =   0.0370370
        k(   45) = (   0.3333333  -0.1575061   0.0000000), wk =   0.0370370
        k(   46) = (  -0.5000000  -0.1575061   0.0000000), wk =   0.0185185
        k(   47) = (   0.1666667  -0.3150122   0.0000000), wk =   0.0370370
        k(   48) = (   0.3333333  -0.3150122   0.0000000), wk =   0.0370370
        k(   49) = (  -0.5000000  -0.3150122   0.0000000), wk =   0.0185185
        k(   50) = (   0.1666667   0.4725183   0.0000000), wk =   0.0185185
        k(   51) = (   0.3333333   0.4725183   0.0000000), wk =   0.0185185
        k(   52) = (  -0.5000000   0.4725183   0.0000000), wk =   0.0092593
        k(   53) = (   0.3333333   0.0000000   0.1666667), wk =   0.0370370
        k(   54) = (  -0.5000000   0.0000000   0.1666667), wk =   0.0185185
        k(   55) = (   0.3333333  -0.1575061   0.1666667), wk =   0.0740741
        k(   56) = (  -0.5000000  -0.1575061   0.1666667), wk =   0.0370370
        k(   57) = (   0.3333333  -0.3150122   0.1666667), wk =   0.0740741
        k(   58) = (  -0.5000000  -0.3150122   0.1666667), wk =   0.0370370
        k(   59) = (   0.3333333   0.4725183   0.1666667), wk =   0.0370370
        k(   60) = (  -0.5000000   0.4725183   0.1666667), wk =   0.0185185
        k(   61) = (  -0.5000000   0.0000000   0.3333333), wk =   0.0185185
        k(   62) = (  -0.5000000  -0.1575061   0.3333333), wk =   0.0370370
        k(   63) = (  -0.5000000  -0.3150122   0.3333333), wk =   0.0370370
        k(   64) = (  -0.5000000   0.4725183   0.3333333), wk =   0.0185185

     Dense  grid:   498127 G-vectors     FFT dimensions: ( 100, 108, 100)

     Estimated max dynamical RAM per process >       3.15 GB

     Estimated total dynamical RAM >     125.81 GB

     Initial potential from superposition of free atoms

     starting charge  367.99656, renormalised to  368.00000
     Starting wfc are  232 randomized atomic wfcs

     total cpu time spent up to now is       43.3 secs

     Self-consistent Calculation

     iteration #  1     ecut=   120.00 Ry     beta= 0.70
     Davidson diagonalization with overlap
     ethr =  1.00E-02,  avg # of iterations =  5.2

     total cpu time spent up to now is      144.1 secs

     total energy              =   -6254.00390854 Ry
     Harris-Foulkes estimate   =   -6264.52825728 Ry
     estimated scf accuracy    <      13.34154790 Ry

     iteration #  2     ecut=   120.00 Ry     beta= 0.70
     Davidson diagonalization with overlap
     ethr =  3.63E-03,  avg # of iterations =  3.5

     total cpu time spent up to now is      240.2 secs

     total energy              =   -6250.78083088 Ry
     Harris-Foulkes estimate   =   -6270.58616121 Ry
     estimated scf accuracy    <      53.29148786 Ry

     iteration #  3     ecut=   120.00 Ry     beta= 0.70
     Davidson diagonalization with overlap
     ethr =  3.63E-03,  avg # of iterations =  3.5

     total cpu time spent up to now is      330.7 secs

     total energy              =   -6260.98990405 Ry
     Harris-Foulkes estimate   =   -6261.43713534 Ry
     estimated scf accuracy    <       1.39850339 Ry

     iteration #  4     ecut=   120.00 Ry     beta= 0.70
     Davidson diagonalization with overlap
     ethr =  3.80E-04,  avg # of iterations =  2.7

     total cpu time spent up to now is      409.2 secs

     total energy              =   -6261.05204310 Ry
     Harris-Foulkes estimate   =   -6261.14772498 Ry
     estimated scf accuracy    <       0.33169967 Ry

     iteration #  5     ecut=   120.00 Ry     beta= 0.70
     Davidson diagonalization with overlap
     ethr =  9.01E-05,  avg # of iterations =  4.7

     total cpu time spent up to now is      488.5 secs

     total energy              =   -6261.03356474 Ry
     Harris-Foulkes estimate   =   -6261.07987715 Ry
     estimated scf accuracy    <       0.09999548 Ry

     iteration #  6     ecut=   120.00 Ry     beta= 0.70
     Davidson diagonalization with overlap
     ethr =  2.72E-05,  avg # of iterations =  5.7

     total cpu time spent up to now is      575.3 secs

     total energy              =   -6261.05668403 Ry
     Harris-Foulkes estimate   =   -6261.05845420 Ry
     estimated scf accuracy    <       0.00565515 Ry

     iteration #  7     ecut=   120.00 Ry     beta= 0.70
     Davidson diagonalization with overlap
     ethr =  1.54E-06,  avg # of iterations =  4.8

     total cpu time spent up to now is      658.9 secs

     total energy              =   -6261.05705281 Ry
     Harris-Foulkes estimate   =   -6261.05739934 Ry
     estimated scf accuracy    <       0.00098898 Ry

     iteration #  8     ecut=   120.00 Ry     beta= 0.70
     Davidson diagonalization with overlap
     ethr =  2.69E-07,  avg # of iterations =  2.4

     total cpu time spent up to now is      733.2 secs

     total energy              =   -6261.05716415 Ry
     Harris-Foulkes estimate   =   -6261.05720048 Ry
     estimated scf accuracy    <       0.00008121 Ry

     iteration #  9     ecut=   120.00 Ry     beta= 0.70
     Davidson diagonalization with overlap
     ethr =  2.21E-08,  avg # of iterations =  3.0

     total cpu time spent up to now is      817.6 secs

     total energy              =   -6261.05718211 Ry
     Harris-Foulkes estimate   =   -6261.05718492 Ry
     estimated scf accuracy    <       0.00000577 Ry

     iteration # 10     ecut=   120.00 Ry     beta= 0.70
     Davidson diagonalization with overlap
     ethr =  1.57E-09,  avg # of iterations =  2.3

     total cpu time spent up to now is      902.0 secs

     total energy              =   -6261.05718308 Ry
     Harris-Foulkes estimate   =   -6261.05718353 Ry
     estimated scf accuracy    <       0.00000092 Ry

     iteration # 11     ecut=   120.00 Ry     beta= 0.70
     Davidson diagonalization with overlap
     ethr =  2.49E-10,  avg # of iterations =  2.4

     total cpu time spent up to now is      988.8 secs

     total energy              =   -6261.05718329 Ry
     Harris-Foulkes estimate   =   -6261.05718330 Ry
     estimated scf accuracy    <       0.00000003 Ry

     iteration # 12     ecut=   120.00 Ry     beta= 0.70
     Davidson diagonalization with overlap
     ethr =  6.82E-12,  avg # of iterations =  2.1

     total cpu time spent up to now is     1077.5 secs

     End of self-consistent calculation

          k = 0.0000 0.0000 0.0000 ( 62239 PWs)   bands (ev):

   -66.1518 -66.1514 -66.1508 -66.1508 -66.1504 -66.1503 -66.1498 -66.1494
   -30.6048 -30.6025 -30.5970 -30.5943 -30.5710 -30.5706 -30.5687 -30.5681
   -30.4942 -30.4937 -30.4929 -30.4928 -30.4699 -30.4673 -30.4631 -30.4603
   -30.4259 -30.4209 -30.4194 -30.4146 -30.3699 -30.3661 -30.3651 -30.3614
   -20.3048 -20.3046 -20.3046 -20.3044 -20.3043 -20.3042 -20.3041 -20.3040
   -20.2843 -20.2840 -20.2838 -20.2838 -20.2835 -20.2833 -20.2830 -20.2827
   -20.2787 -20.2782 -20.2782 -20.2781 -20.2778 -20.2777 -20.2776 -20.2772
   -20.2764 -20.2760 -20.2757 -20.2754 -20.2743 -20.2740 -20.2733 -20.2731
   -20.2729 -20.2724 -20.2722 -20.2717 -20.2686 -20.2686 -20.2685 -20.2685
   -20.2683 -20.2683 -20.2680 -20.2678 -20.2648 -20.2647 -20.2637 -20.2635
   -20.2586 -20.2584 -20.2569 -20.2568 -20.2566 -20.2564 -20.2550 -20.2548
   -10.0819  -9.9027  -9.6813  -9.5914  -9.5644  -9.4436  -9.2590  -9.2354
    -8.7141  -8.6471  -8.6466  -8.6450  -7.9222  -7.9036  -7.8325  -7.8179
    -7.7989  -7.7896  -7.7795  -7.7382  -7.5898  -7.5330  -7.5152  -7.4667
     0.8543   0.8645   0.9571   0.9714   1.1296   1.1334   1.3022   1.3427
     1.9001   1.9214   1.9577   2.0101   2.1264   2.2037   2.6190   2.6369
     2.7638   2.7669   4.0441   4.1143   4.2118   4.3387   4.3965   4.4323
     4.4665   4.4937   4.8442   5.1619   5.2204   5.2441   5.2710   5.4387
     5.4490   5.4797   5.5325   5.5746   5.6047   5.6088   5.6331   5.7122
     5.8371   5.8629   5.8777   5.8970   5.9702   5.9851   6.0527   6.2050
     6.2104   6.2633   6.2850   6.3743   6.5267   6.6552   6.8339   6.9268
     6.9639   6.9703   6.9732   6.9988   7.0662   7.0667   7.1340   7.1401
     7.2300   7.2447   7.8878   7.9065   8.0259   8.0768   8.1934   8.2282
     9.4920   9.5256   9.8152   9.8561   9.8578   9.8939  12.1378  12.3659
    12.3889  12.4850  12.6451  12.6722  12.6817  12.7075  12.7145  13.0778
    13.1383  13.2955  13.3554  13.5508  13.6456  13.7100  14.0770  14.0844
    14.3723  14.4096  14.6506  14.9508  15.2509  15.4361  15.4838  16.2204
    16.2377  17.0310  17.1059  17.1834  17.3472

          k = 0.0000 0.0000 0.1667 ( 62262 PWs)   bands (ev):

   -66.1517 -66.1513 -66.1509 -66.1507 -66.1505 -66.1503 -66.1498 -66.1494
   -30.5985 -30.5965 -30.5902 -30.5876 -30.5711 -30.5696 -30.5686 -30.5674
   -30.5015 -30.5003 -30.5001 -30.4989 -30.4696 -30.4669 -30.4639 -30.4611
   -30.4254 -30.4205 -30.4198 -30.4151 -30.3696 -30.3658 -30.3654 -30.3617
   -20.3048 -20.3046 -20.3046 -20.3044 -20.3043 -20.3042 -20.3042 -20.3040
   -20.2843 -20.2839 -20.2838 -20.2837 -20.2835 -20.2833 -20.2831 -20.2828
   -20.2786 -20.2782 -20.2782 -20.2781 -20.2778 -20.2777 -20.2777 -20.2772
   -20.2763 -20.2760 -20.2758 -20.2755 -20.2742 -20.2739 -20.2731 -20.2730
   -20.2729 -20.2719 -20.2718 -20.2711 -20.2686 -20.2686 -20.2686 -20.2685
   -20.2683 -20.2682 -20.2680 -20.2679 -20.2652 -20.2652 -20.2641 -20.2640
   -20.2585 -20.2583 -20.2570 -20.2569 -20.2565 -20.2563 -20.2551 -20.2550
   -10.0225  -9.8387  -9.6056  -9.5900  -9.4681  -9.4545  -9.2205  -9.1994
    -8.7273  -8.6536  -8.6427  -8.6377  -8.0321  -8.0269  -7.9413  -7.9349
    -7.8617  -7.8178  -7.7957  -7.7441  -7.5865  -7.5370  -7.5134  -7.4703
     1.0045   1.0120   1.1296   1.1322   1.2424   1.2506   1.4213   1.4825
     1.8978   1.9299   1.9492   2.0341   2.2154   2.2941   2.6447   2.7119
     2.7553   2.8539   4.0469   4.0587   4.1553   4.1671   4.2360   4.3088
     4.4861   4.4919   4.7740   4.8185   4.8548   5.2190   5.2304   5.2908
     5.2926   5.4182   5.4522   5.5280   5.5468   5.6239   5.6364   5.6871
     5.7123   5.8055   5.8870   5.8897   5.9935   6.0957   6.1181   6.1565
     6.2154   6.3495   6.4749   6.5104   6.6552   6.7541   6.7831   6.8150
     6.8237   6.8791   6.8830   6.8945   6.9870   6.9923   7.0686   7.0947
     7.2312   7.2425   7.8582   7.8708   8.0458   8.0793   8.1440   8.1854
     9.7373   9.8161   9.8294   9.9338  10.1246  10.1784  12.2003  12.3420
    12.4542  12.4862  12.5719  12.5806  12.6793  12.7258  12.7547  12.9267
    13.0817  13.1544  13.3350  13.5544  13.6813  13.7573  13.9164  13.9835
    14.4064  14.4764  14.6440  15.0627  15.2245  15.5011  15.6007  16.2133
    16.5632  16.8890  17.2047  17.3419  17.4378

          k = 0.0000 0.0000 0.3333 ( 62268 PWs)   bands (ev):

   -66.1515 -66.1511 -66.1510 -66.1506 -66.1505 -66.1501 -66.1500 -66.1496
   -30.5839 -30.5835 -30.5728 -30.5717 -30.5704 -30.5694 -30.5621 -30.5615
   -30.5209 -30.5193 -30.5183 -30.5169 -30.4686 -30.4659 -30.4654 -30.4627
   -30.4243 -30.4211 -30.4194 -30.4163 -30.3686 -30.3662 -30.3649 -30.3625
   -20.3047 -20.3045 -20.3045 -20.3044 -20.3043 -20.3043 -20.3043 -20.3041
   -20.2842 -20.2839 -20.2838 -20.2836 -20.2835 -20.2833 -20.2832 -20.2829
   -20.2786 -20.2783 -20.2781 -20.2780 -20.2779 -20.2778 -20.2776 -20.2773
   -20.2762 -20.2759 -20.2759 -20.2756 -20.2740 -20.2737 -20.2734 -20.2732
   -20.2718 -20.2707 -20.2707 -20.2698 -20.2692 -20.2689 -20.2685 -20.2684
   -20.2682 -20.2681 -20.2678 -20.2676 -20.2664 -20.2662 -20.2654 -20.2653
   -20.2582 -20.2581 -20.2574 -20.2572 -20.2562 -20.2561 -20.2554 -20.2553
    -9.8806  -9.6910  -9.6517  -9.4901  -9.3358  -9.1932  -9.0864  -9.0615
    -8.7884  -8.6857  -8.6270  -8.6108  -8.3732  -8.3460  -8.3156  -8.2698
    -7.8556  -7.8122  -7.8038  -7.7601  -7.5765  -7.5478  -7.5053  -7.4799
     1.1138   1.1146   1.1306   1.1308   1.8082   1.8178   1.8906   1.9326
     2.0077   2.1333   2.1432   2.3112   2.4754   2.5493   2.6710   2.7358
     2.9653   3.0841   3.4970   3.5811   3.9046   3.9537   4.1269   4.2054
     4.2645   4.3997   4.4751   4.6243   4.6315   4.7117   4.7335   4.8769
     4.9472   5.1772   5.2605   5.2753   5.3111   5.3580   5.7436   5.7579
     5.8208   5.8549   5.9150   5.9593   5.9973   6.0226   6.2304   6.2602
     6.3150   6.3213   6.3844   6.4304   6.4462   6.6227   6.6885   6.7881
     6.8906   6.9749   6.9785   7.0184   7.0326   7.0398   7.1976   7.2180
     7.2353   7.3314   7.7302   7.7314   7.9837   8.0401   8.0707   8.0812
     9.8123   9.8171  10.5247  10.5845  10.7914  10.8562  12.0566  12.1294
    12.2432  12.3845  12.4264  12.4918  12.6538  12.6538  12.6953  12.8650
    12.9008  13.2290  13.2781  13.3908  13.5356  13.5716  13.7468  13.7678
    14.4777  14.6213  14.7338  15.1397  15.3381  15.7379  16.1347  16.1414
    16.3301  17.4754  17.5991  17.7239  17.7643

          k = 0.0000 0.0000-0.5000 ( 62264 PWs)   bands (ev):

   -66.1513 -66.1513 -66.1509 -66.1509 -66.1503 -66.1503 -66.1499 -66.1499
   -30.5759 -30.5759 -30.5740 -30.5740 -30.5466 -30.5466 -30.5447 -30.5447
   -30.5429 -30.5429 -30.5415 -30.5415 -30.4671 -30.4671 -30.4644 -30.4644
   -30.4227 -30.4227 -30.4179 -30.4178 -30.3674 -30.3674 -30.3637 -30.3636
   -20.3046 -20.3045 -20.3044 -20.3044 -20.3044 -20.3044 -20.3042 -20.3042
   -20.2841 -20.2841 -20.2836 -20.2836 -20.2834 -20.2834 -20.2831 -20.2831
   -20.2785 -20.2784 -20.2780 -20.2780 -20.2779 -20.2779 -20.2775 -20.2775
   -20.2761 -20.2761 -20.2758 -20.2758 -20.2737 -20.2737 -20.2734 -20.2734
   -20.2704 -20.2704 -20.2695 -20.2695 -20.2694 -20.2694 -20.2683 -20.2683
   -20.2681 -20.2681 -20.2672 -20.2672 -20.2671 -20.2671 -20.2667 -20.2667
   -20.2578 -20.2578 -20.2577 -20.2576 -20.2558 -20.2558 -20.2557 -20.2557
    -9.7410  -9.7410  -9.5622  -9.5622  -9.0012  -9.0012  -8.8442  -8.8442
    -8.7899  -8.7898  -8.7608  -8.7607  -8.5774  -8.5774  -8.5278  -8.5278
    -7.8345  -7.8345  -7.7821  -7.7821  -7.5623  -7.5623  -7.4928  -7.4928
     1.1291   1.1291   1.1309   1.1309   1.8797   1.8797   1.9099   1.9099
     2.6765   2.6765   2.8247   2.8248   2.9016   2.9017   3.0135   3.0135
     3.0416   3.0416   3.2085   3.2085   3.3431   3.3431   3.6903   3.6903
     3.8053   3.8053   4.3814   4.3814   4.6093   4.6094   4.8663   4.8664
     5.0379   5.0380   5.0692   5.0692   5.3024   5.3024   5.8154   5.8154
     5.8266   5.8266   5.9857   5.9858   6.0348   6.0348   6.1790   6.1790
     6.2584   6.2584   6.2921   6.2921   6.4864   6.4864   6.7599   6.7599
     6.8636   6.8636   6.9977   6.9977   7.2248   7.2248   7.4407   7.4407
     7.4428   7.4428   7.6789   7.6789   7.7544   7.7544   8.0802   8.0802
     9.8167   9.8167  11.3372  11.3372  11.4063  11.4064  11.5894  11.5894
    11.6741  11.6741  12.5138  12.5138  12.6061  12.6061  12.9787  12.9787
    13.1180  13.1180  13.1302  13.1302  13.4360  13.4360  13.6324  13.6324
    14.5715  14.5715  14.9803  14.9803  15.7737  15.7738  15.9828  15.9828
    16.9494  16.9494  17.9680  17.9680  18.3064

          k = 0.0000 0.1575 0.0000 ( 62231 PWs)   bands (ev):

   -66.1518 -66.1514 -66.1508 -66.1507 -66.1504 -66.1504 -66.1497 -66.1494
   -30.6046 -30.6026 -30.5968 -30.5944 -30.5709 -30.5704 -30.5688 -30.5683
   -30.4941 -30.4936 -30.4930 -30.4928 -30.4697 -30.4675 -30.4628 -30.4605
   -30.4221 -30.4173 -30.4158 -30.4112 -30.3737 -30.3698 -30.3688 -30.3650
   -20.3048 -20.3046 -20.3046 -20.3044 -20.3043 -20.3042 -20.3041 -20.3040
   -20.2843 -20.2840 -20.2838 -20.2837 -20.2835 -20.2833 -20.2830 -20.2827
   -20.2786 -20.2782 -20.2782 -20.2781 -20.2778 -20.2777 -20.2776 -20.2772
   -20.2763 -20.2760 -20.2757 -20.2754 -20.2742 -20.2737 -20.2733 -20.2728
   -20.2726 -20.2724 -20.2721 -20.2716 -20.2689 -20.2688 -20.2686 -20.2686
   -20.2685 -20.2683 -20.2681 -20.2681 -20.2648 -20.2647 -20.2637 -20.2635
   -20.2585 -20.2584 -20.2569 -20.2568 -20.2566 -20.2565 -20.2550 -20.2549
   -10.0657  -9.9115  -9.6691  -9.5759  -9.5694  -9.4499  -9.2573  -9.2369
    -8.6458  -8.5911  -8.5911  -8.5859  -7.9247  -7.9025  -7.8330  -7.8198
    -7.7972  -7.7918  -7.7833  -7.7408  -7.6755  -7.6221  -7.6070  -7.5656
     0.8548   0.8636   0.9579   0.9700   1.1302   1.1346   1.3179   1.3428
     2.0610   2.1359   2.1448   2.1796   2.1976   2.2548   2.6978   2.7066
     2.8302   2.8432   3.9059   3.9275   4.0813   4.1238   4.4000   4.4251
     4.4521   4.4873   4.7055   5.1948   5.2167   5.2475   5.2900   5.3262
     5.3783   5.4521   5.5377   5.5473   5.6028   5.6234   5.6239   5.6802
     5.7850   5.8329   5.8435   5.9280   5.9685   5.9780   6.0568   6.0615
     6.2165   6.2579   6.2912   6.4087   6.6245   6.7130   6.7861   6.8554
     6.8695   6.8697   6.9670   6.9697   7.0466   7.0618   7.1014   7.1301
     7.1543   7.1665   7.8853   7.9053   8.0100   8.0364   8.1489   8.1510
     9.5081   9.5295  10.0156  10.0403  10.0724  10.0783  12.0174  12.2293
    12.2494  12.3277  12.6762  12.6798  12.6837  12.7175  12.7218  13.0977
    13.1445  13.2948  13.3715  13.6013  13.7019  13.8041  13.9879  14.0097
    14.5314  14.6548  14.8056  15.0248  15.4337  15.4770  15.6529  16.1859
    16.2001  16.7584  17.2021  17.2896  17.4712

          k = 0.0000 0.1575 0.1667 ( 62237 PWs)   bands (ev):

   -66.1517 -66.1513 -66.1508 -66.1507 -66.1505 -66.1503 -66.1498 -66.1495
   -30.5984 -30.5967 -30.5900 -30.5877 -30.5710 -30.5694 -30.5688 -30.5676
   -30.5014 -30.5003 -30.5000 -30.4990 -30.4694 -30.4671 -30.4636 -30.4613
   -30.4217 -30.4169 -30.4162 -30.4116 -30.3733 -30.3695 -30.3691 -30.3653
   -20.3047 -20.3046 -20.3046 -20.3044 -20.3043 -20.3042 -20.3042 -20.3040
   -20.2843 -20.2840 -20.2838 -20.2837 -20.2835 -20.2834 -20.2831 -20.2828
   -20.2786 -20.2782 -20.2782 -20.2781 -20.2778 -20.2777 -20.2776 -20.2773
   -20.2763 -20.2760 -20.2758 -20.2755 -20.2740 -20.2736 -20.2729 -20.2729
   -20.2727 -20.2720 -20.2717 -20.2711 -20.2689 -20.2687 -20.2686 -20.2686
   -20.2685 -20.2684 -20.2682 -20.2680 -20.2652 -20.2652 -20.2641 -20.2640
   -20.2584 -20.2583 -20.2570 -20.2569 -20.2565 -20.2563 -20.2551 -20.2550
   -10.0057  -9.8476  -9.5899  -9.5768  -9.4731  -9.4610  -9.2191  -9.2008
    -8.6591  -8.5984  -8.5873  -8.5801  -8.0304  -8.0300  -7.9395  -7.9391
    -7.8616  -7.8203  -7.7975  -7.7467  -7.6724  -7.6249  -7.6069  -7.5672
     1.0049   1.0114   1.1301   1.1336   1.2431   1.2515   1.4461   1.4827
     2.0764   2.1371   2.1726   2.2138   2.2703   2.2882   2.7138   2.7918
     2.8220   2.9303   3.9242   3.9955   4.0061   4.1054   4.1504   4.1712
     4.4679   4.4805   4.6825   4.8037   4.8842   5.1755   5.2034   5.2421
     5.2966   5.3283   5.4031   5.4867   5.5219   5.5560   5.6254   5.7297
     5.7399   5.7984   5.8113   5.8928   5.9612   6.0523   6.0967   6.1363
     6.1565   6.2467   6.5040   6.6101   6.6905   6.7654   6.7744   6.7960
     6.8364   6.8444   6.8777   6.8807   6.9015   6.9029   7.0930   7.1163
     7.1468   7.1758   7.8562   7.8703   8.0184   8.0394   8.1003   8.1175
     9.8093   9.8364  10.0430  10.0969  10.2565  10.3196  12.0880  12.2369
    12.3009  12.3288  12.5679  12.5828  12.7064  12.7290  12.7671  12.9598
    13.0862  13.1591  13.3486  13.6036  13.6432  13.8242  13.8693  13.9318
    14.5569  14.7520  14.8283  15.1307  15.4962  15.5746  15.6557  16.1708
    16.5312  16.9174  16.9824  17.4179  17.5061

          k = 0.0000 0.1575 0.3333 ( 62284 PWs)   bands (ev):

   -66.1515 -66.1512 -66.1510 -66.1507 -66.1505 -66.1501 -66.1500 -66.1496
   -30.5839 -30.5835 -30.5726 -30.5715 -30.5705 -30.5695 -30.5621 -30.5616
   -30.5208 -30.5194 -30.5182 -30.5170 -30.4684 -30.4661 -30.4652 -30.4629
   -30.4206 -30.4174 -30.4158 -30.4128 -30.3724 -30.3699 -30.3686 -30.3662
   -20.3047 -20.3045 -20.3045 -20.3044 -20.3043 -20.3043 -20.3043 -20.3041
   -20.2842 -20.2839 -20.2838 -20.2836 -20.2835 -20.2833 -20.2832 -20.2829
   -20.2785 -20.2783 -20.2782 -20.2780 -20.2779 -20.2777 -20.2776 -20.2774
   -20.2762 -20.2759 -20.2759 -20.2756 -20.2737 -20.2734 -20.2731 -20.2729
   -20.2718 -20.2708 -20.2706 -20.2698 -20.2694 -20.2689 -20.2688 -20.2686
   -20.2684 -20.2681 -20.2681 -20.2677 -20.2664 -20.2662 -20.2654 -20.2653
   -20.2582 -20.2581 -20.2574 -20.2572 -20.2562 -20.2561 -20.2554 -20.2553
    -9.8628  -9.7000  -9.6351  -9.4971  -9.3183  -9.1982  -9.0844  -9.0630
    -8.7259  -8.6369  -8.5739  -8.5576  -8.3766  -8.3380  -8.3204  -8.2617
    -7.8563  -7.8137  -7.8064  -7.7628  -7.6627  -7.6347  -7.5995  -7.5754
     1.1148   1.1156   1.1310   1.1327   1.9228   1.9511   2.0081   2.0928
     2.1431   2.1552   2.2252   2.3943   2.4861   2.5454   2.7362   2.8035
     3.0440   3.1550   3.5008   3.5751   3.8526   3.9388   4.0292   4.1165
     4.2476   4.3751   4.4047   4.5364   4.5878   4.6096   4.6370   4.8818
     4.8955   5.0233   5.2192   5.2553   5.3321   5.3786   5.5233   5.7747
     5.8405   5.8504   5.8725   5.9028   5.9452   5.9670   6.0435   6.0993
     6.3135   6.3502   6.4476   6.4878   6.5347   6.6266   6.7883   6.8204
     6.8300   6.8982   6.9726   7.0225   7.0384   7.0727   7.1090   7.1728
     7.2560   7.3252   7.7286   7.7339   7.9537   7.9887   8.0323   8.0412
    10.0391  10.0487  10.5353  10.5898  10.8752  10.9405  12.0519  12.1270
    12.2134  12.3073  12.3316  12.4648  12.5207  12.5803  12.7304  12.8356
    12.9239  13.2297  13.3044  13.3082  13.4324  13.6178  13.7315  13.8120
    14.6572  14.7689  15.0932  15.3936  15.5393  15.7211  16.0955  16.1771
    16.4195  17.3584  17.4303  17.6506  17.7795

          k = 0.0000 0.1575-0.5000 ( 62234 PWs)   bands (ev):

   -66.1513 -66.1513 -66.1509 -66.1509 -66.1502 -66.1502 -66.1499 -66.1499
   -30.5758 -30.5758 -30.5742 -30.5742 -30.5464 -30.5464 -30.5448 -30.5448
   -30.5428 -30.5428 -30.5416 -30.5416 -30.4669 -30.4669 -30.4646 -30.4646
   -30.4190 -30.4190 -30.4143 -30.4143 -30.3711 -30.3711 -30.3673 -30.3673
   -20.3045 -20.3045 -20.3044 -20.3044 -20.3044 -20.3044 -20.3042 -20.3042
   -20.2840 -20.2840 -20.2837 -20.2837 -20.2834 -20.2834 -20.2831 -20.2831
   -20.2784 -20.2784 -20.2781 -20.2780 -20.2779 -20.2779 -20.2775 -20.2775
   -20.2761 -20.2761 -20.2758 -20.2758 -20.2734 -20.2734 -20.2731 -20.2731
   -20.2705 -20.2705 -20.2696 -20.2696 -20.2695 -20.2695 -20.2684 -20.2684
   -20.2681 -20.2681 -20.2674 -20.2674 -20.2671 -20.2670 -20.2667 -20.2667
   -20.2578 -20.2578 -20.2577 -20.2577 -20.2558 -20.2558 -20.2557 -20.2557
    -9.7233  -9.7233  -9.5702  -9.5702  -8.9675  -8.9674  -8.8315  -8.8314
    -8.7943  -8.7942  -8.7638  -8.7637  -8.5349  -8.5349  -8.4906  -8.4906
    -7.8356  -7.8356  -7.7847  -7.7847  -7.6488  -7.6488  -7.5875  -7.5875
     1.1312   1.1312   1.1314   1.1314   2.0675   2.0676   2.1404   2.1404
     2.7337   2.7337   2.8323   2.8323   2.9042   2.9042   3.0227   3.0228
     3.0417   3.0417   3.2402   3.2402   3.3369   3.3369   3.7255   3.7255
     3.8666   3.8667   4.2152   4.2152   4.4548   4.4548   4.7075   4.7075
     5.0216   5.0216   5.0536   5.0536   5.3194   5.3194   5.6017   5.6017
     5.8849   5.8849   5.8900   5.8900   5.9799   5.9799   6.1061   6.1061
     6.2397   6.2397   6.3255   6.3255   6.5557   6.5557   6.8184   6.8184
     6.9330   6.9330   6.9687   6.9688   7.1104   7.1105   7.4414   7.4414
     7.4541   7.4542   7.6726   7.6726   7.7275   7.7276   8.0397   8.0397
    10.0486  10.0486  11.3442  11.3442  11.4064  11.4065  11.6424  11.6424
    11.7226  11.7226  12.3626  12.3626  12.6022  12.6022  12.8730  12.8730
    13.0387  13.0387  13.1453  13.1453  13.4321  13.4321  13.6715  13.6715
    14.7346  14.7346  15.3574  15.3574  15.8574  15.8574  15.9514  15.9514
    17.0015  17.0015  17.7523  17.7523  18.0997

          k = 0.0000 0.3150 0.0000 ( 62175 PWs)   bands (ev):

   -66.1517 -66.1515 -66.1507 -66.1507 -66.1505 -66.1504 -66.1497 -66.1495
   -30.6042 -30.6030 -30.5963 -30.5949 -30.5705 -30.5700 -30.5693 -30.5687
   -30.4938 -30.4933 -30.4932 -30.4929 -30.4692 -30.4679 -30.4623 -30.4609
   -30.4119 -30.4074 -30.4060 -30.4017 -30.3840 -30.3799 -30.3788 -30.3750
   -20.3047 -20.3047 -20.3046 -20.3045 -20.3043 -20.3042 -20.3041 -20.3040
   -20.2842 -20.2841 -20.2837 -20.2836 -20.2836 -20.2834 -20.2830 -20.2828
   -20.2785 -20.2783 -20.2781 -20.2780 -20.2779 -20.2778 -20.2775 -20.2773
   -20.2762 -20.2761 -20.2756 -20.2755 -20.2738 -20.2734 -20.2731 -20.2725
   -20.2719 -20.2717 -20.2717 -20.2713 -20.2698 -20.2696 -20.2695 -20.2692
   -20.2685 -20.2684 -20.2683 -20.2683 -20.2648 -20.2647 -20.2636 -20.2635
   -20.2585 -20.2585 -20.2569 -20.2568 -20.2565 -20.2565 -20.2550 -20.2549
   -10.0253  -9.9374  -9.6402  -9.5844  -9.5393  -9.4689  -9.2529  -9.2412
    -8.4597  -8.4258  -8.4202  -8.4143  -7.9705  -7.8997  -7.8910  -7.8674
    -7.8649  -7.8322  -7.8242  -7.8118  -7.7924  -7.7698  -7.7534  -7.7476
     0.8562   0.8612   0.9601   0.9669   1.1317   1.1350   1.3350   1.3428
     2.1339   2.1810   2.6039   2.6837   2.7801   2.8101   2.9074   3.0153
     3.0203   3.1073   3.5386   3.5775   3.7228   3.7651   4.2157   4.3959
     4.4073   4.4495   4.4637   4.6359   4.7022   4.9518   5.3023   5.3320
     5.3683   5.3846   5.4261   5.4396   5.5939   5.6827   5.7222   5.7283
     5.7381   5.7740   5.8345   5.9734   5.9855   6.0134   6.0671   6.0690
     6.0693   6.1374   6.3771   6.3948   6.4882   6.6063   6.6572   6.7597
     6.7842   6.8787   6.9700   6.9717   7.0632   7.0667   7.2303   7.2323
     7.2456   7.2614   7.8263   7.8871   7.8995   7.9310   7.9326   7.9635
     9.5226   9.5320  10.4704  10.5556  10.5911  10.6246  11.6406  11.7984
    11.8558  11.9047  12.6904  12.7009  12.7186  12.7323  12.7964  13.0987
    13.1990  13.3562  13.3645  13.5268  13.6336  13.7727  13.8840  13.8923
    15.1395  15.2533  15.3122  15.3190  15.4254  15.5103  16.0459  16.0874
    16.2438  16.6138  17.0010  17.5483  17.6584

          k = 0.0000 0.3150 0.1667 ( 62260 PWs)   bands (ev):

   -66.1516 -66.1514 -66.1508 -66.1506 -66.1506 -66.1504 -66.1497 -66.1495
   -30.5980 -30.5970 -30.5895 -30.5882 -30.5705 -30.5693 -30.5691 -30.5680
   -30.5011 -30.5005 -30.4997 -30.4991 -30.4688 -30.4675 -30.4631 -30.4617
   -30.4115 -30.4070 -30.4064 -30.4020 -30.3836 -30.3796 -30.3792 -30.3753
   -20.3047 -20.3046 -20.3045 -20.3044 -20.3043 -20.3042 -20.3041 -20.3041
   -20.2842 -20.2840 -20.2837 -20.2837 -20.2835 -20.2834 -20.2830 -20.2828
   -20.2785 -20.2783 -20.2781 -20.2780 -20.2779 -20.2778 -20.2775 -20.2773
   -20.2762 -20.2760 -20.2757 -20.2755 -20.2736 -20.2730 -20.2730 -20.2721
   -20.2720 -20.2718 -20.2714 -20.2709 -20.2698 -20.2696 -20.2693 -20.2693
   -20.2685 -20.2684 -20.2684 -20.2682 -20.2652 -20.2652 -20.2641 -20.2640
   -20.2584 -20.2584 -20.2570 -20.2569 -20.2564 -20.2564 -20.2551 -20.2550
    -9.9640  -9.8739  -9.5526  -9.5459  -9.4882  -9.4804  -9.2153  -9.2047
    -8.4708  -8.4353  -8.4218  -8.4103  -8.0504  -8.0234  -7.9723  -7.9326
    -7.9129  -7.8846  -7.8452  -7.8333  -7.8270  -7.8003  -7.7585  -7.7535
     1.0059   1.0098   1.1315   1.1344   1.2453   1.2509   1.4716   1.4826
     2.2241   2.2717   2.6117   2.6791   2.7667   2.8314   2.9127   3.0126
     3.0782   3.1942   3.5786   3.6478   3.7204   3.7555   4.1133   4.1202
     4.2219   4.4471   4.4643   4.6075   4.7021   4.9127   4.9533   5.0333
     5.1472   5.3217   5.3514   5.4019   5.4194   5.4355   5.6353   5.6655
     5.7239   5.7764   5.8366   5.8640   5.9167   5.9332   6.0125   6.0817
     6.2096   6.2327   6.4862   6.5266   6.5817   6.6474   6.7484   6.8066
     6.8272   6.8703   6.8851   6.9159   6.9245   6.9711   7.2311   7.2459
     7.2544   7.2680   7.8168   7.8673   7.8818   7.9049   7.9184   7.9351
     9.8374   9.8438  10.5951  10.6285  10.6468  10.7346  11.7301  11.8557
    11.8860  11.9043  12.5744  12.5850  12.7263  12.7768  12.8378  13.0467
    13.1580  13.2091  13.2645  13.4887  13.5278  13.5990  13.8743  13.9094
    15.1782  15.2621  15.4091  15.4782  15.4952  15.6745  16.0303  16.4022
    16.4152  16.5869  17.0820  17.2960  17.6615

          k = 0.0000 0.3150 0.3333 ( 62269 PWs)   bands (ev):

   -66.1514 -66.1512 -66.1509 -66.1507 -66.1504 -66.1502 -66.1499 -66.1497
   -30.5837 -30.5836 -30.5722 -30.5712 -30.5709 -30.5699 -30.5620 -30.5617
   -30.5204 -30.5196 -30.5179 -30.5172 -30.4678 -30.4665 -30.4647 -30.4634
   -30.4104 -30.4075 -30.4059 -30.4031 -30.3826 -30.3800 -30.3786 -30.3761
   -20.3046 -20.3045 -20.3044 -20.3044 -20.3044 -20.3043 -20.3042 -20.3041
   -20.2841 -20.2839 -20.2838 -20.2836 -20.2835 -20.2834 -20.2832 -20.2830
   -20.2785 -20.2782 -20.2782 -20.2780 -20.2779 -20.2777 -20.2777 -20.2775
   -20.2761 -20.2760 -20.2758 -20.2757 -20.2731 -20.2726 -20.2723 -20.2720
   -20.2720 -20.2711 -20.2704 -20.2701 -20.2697 -20.2696 -20.2692 -20.2688
   -20.2688 -20.2686 -20.2681 -20.2678 -20.2664 -20.2664 -20.2654 -20.2654
   -20.2581 -20.2581 -20.2573 -20.2573 -20.2562 -20.2561 -20.2554 -20.2553
    -9.8188  -9.7264  -9.5955  -9.5181  -9.2791  -9.2137  -9.0792  -9.0671
    -8.5643  -8.5085  -8.4168  -8.3965  -8.3888  -8.3383  -8.2970  -8.2251
    -7.9221  -7.8958  -7.8419  -7.8289  -7.8134  -7.8042  -7.7730  -7.7696
     1.1155   1.1170   1.1321   1.1342   1.9979   2.0089   2.1015   2.1417
     2.4780   2.5307   2.6338   2.6724   2.7681   2.8528   2.9279   2.9953
     3.2900   3.3834   3.5082   3.5507   3.6603   3.7308   3.7607   3.7732
     4.1402   4.2833   4.3336   4.4178   4.4359   4.5042   4.5909   4.6510
     4.7654   4.8788   4.9114   5.0340   5.2425   5.2429   5.3424   5.4333
     5.4768   5.5622   5.7849   5.9039   5.9854   6.0000   6.0366   6.1002
     6.3473   6.3551   6.5293   6.5394   6.5654   6.6047   6.6233   6.6369
     6.8775   6.9380   7.1086   7.1153   7.1580   7.2387   7.2520   7.2665
     7.2843   7.3582   7.7127   7.7385   7.8152   7.8365   7.8791   7.8966
    10.4926  10.5514  10.6044  10.6931  11.1391  11.2257  11.8431  11.9030
    12.0032  12.1281  12.1312  12.1605  12.5670  12.6180  12.8064  12.8641
    12.9280  13.0688  13.1831  13.2458  13.2658  13.5424  13.7215  13.7895
    15.2165  15.2561  15.6627  15.6997  15.9287  15.9681  16.2987  16.4996
    16.7270  16.8676  17.2438  17.4117  17.7577

          k = 0.0000 0.3150-0.5000 ( 62306 PWs)   bands (ev):

   -66.1512 -66.1512 -66.1510 -66.1510 -66.1502 -66.1502 -66.1500 -66.1500
   -30.5754 -30.5754 -30.5745 -30.5745 -30.5461 -30.5461 -30.5451 -30.5451
   -30.5425 -30.5425 -30.5418 -30.5418 -30.4664 -30.4664 -30.4651 -30.4651
   -30.4090 -30.4090 -30.4045 -30.4045 -30.3813 -30.3813 -30.3774 -30.3774
   -20.3045 -20.3045 -20.3044 -20.3044 -20.3043 -20.3043 -20.3043 -20.3042
   -20.2840 -20.2840 -20.2837 -20.2837 -20.2833 -20.2833 -20.2832 -20.2832
   -20.2783 -20.2783 -20.2781 -20.2781 -20.2778 -20.2778 -20.2776 -20.2776
   -20.2760 -20.2760 -20.2758 -20.2758 -20.2727 -20.2726 -20.2723 -20.2723
   -20.2709 -20.2709 -20.2702 -20.2702 -20.2694 -20.2694 -20.2688 -20.2688
   -20.2680 -20.2680 -20.2677 -20.2677 -20.2670 -20.2670 -20.2669 -20.2669
   -20.2578 -20.2577 -20.2577 -20.2577 -20.2558 -20.2558 -20.2557 -20.2557
    -9.6805  -9.6804  -9.5941  -9.5941  -8.8970  -8.8969  -8.8092  -8.8092
    -8.8072  -8.8071  -8.7726  -8.7725  -8.3971  -8.3971  -8.3594  -8.3594
    -7.9098  -7.9098  -7.8329  -7.8329  -7.7919  -7.7919  -7.7917  -7.7917
     1.1320   1.1320   1.1333   1.1334   2.5808   2.5808   2.6854   2.6854
     2.8295   2.8295   2.8815   2.8815   2.9546   2.9546   3.0622   3.0622
     3.0669   3.0669   3.3160   3.3160   3.3251   3.3252   3.6961   3.6961
     4.0223   4.0223   4.0475   4.0475   4.0942   4.0942   4.3062   4.3062
     4.9292   4.9292   5.0163   5.0164   5.0559   5.0559   5.1843   5.1844
     5.4883   5.4883   5.8517   5.8517   6.0548   6.0548   6.1158   6.1158
     6.3062   6.3062   6.3419   6.3419   6.5919   6.5919   6.6191   6.6192
     7.1353   7.1353   7.1708   7.1708   7.2191   7.2191   7.4371   7.4371
     7.4822   7.4823   7.6125   7.6125   7.6408   7.6409   7.8861   7.8861
    10.6021  10.6021  11.3557  11.3557  11.4078  11.4078  11.7700  11.7700
    11.8936  11.8936  12.0000  12.0000  12.4651  12.4651  12.5899  12.5899
    12.9471  12.9471  13.1296  13.1296  13.4431  13.4431  13.6094  13.6094
    15.2407  15.2407  15.8490  15.8490  16.1356  16.1356  16.3145  16.3145
    17.1761  17.1762  17.3125  17.3125  18.0118

          k = 0.0000-0.4725 0.0000 ( 62212 PWs)   bands (ev):

   -66.1516 -66.1516 -66.1506 -66.1506 -66.1506 -66.1505 -66.1496 -66.1496
   -30.6036 -30.6036 -30.5956 -30.5956 -30.5699 -30.5699 -30.5694 -30.5694
   -30.4935 -30.4934 -30.4931 -30.4931 -30.4685 -30.4685 -30.4616 -30.4615
   -30.3980 -30.3980 -30.3937 -30.3937 -30.3925 -30.3925 -30.3884 -30.3884
   -20.3047 -20.3047 -20.3045 -20.3045 -20.3042 -20.3042 -20.3041 -20.3041
   -20.2842 -20.2841 -20.2837 -20.2836 -20.2835 -20.2835 -20.2829 -20.2829
   -20.2784 -20.2784 -20.2780 -20.2780 -20.2779 -20.2779 -20.2774 -20.2774
   -20.2762 -20.2761 -20.2756 -20.2755 -20.2735 -20.2735 -20.2727 -20.2727
   -20.2708 -20.2708 -20.2708 -20.2708 -20.2705 -20.2705 -20.2704 -20.2704
   -20.2684 -20.2684 -20.2684 -20.2683 -20.2648 -20.2648 -20.2636 -20.2636
   -20.2585 -20.2585 -20.2569 -20.2568 -20.2565 -20.2565 -20.2549 -20.2549
    -9.9777  -9.9777  -9.6090  -9.6090  -9.4998  -9.4998  -9.2470  -9.2470
    -8.2089  -8.2089  -8.1712  -8.1711  -8.1536  -8.1535  -8.1410  -8.1409
    -7.8940  -7.8940  -7.8284  -7.8284  -7.7851  -7.7851  -7.7558  -7.7558
     0.8584   0.8584   0.9633   0.9633   1.1337   1.1337   1.3414   1.3414
     2.1582   2.1582   3.0916   3.0916   3.1856   3.1856   3.2192   3.2192
     3.2669   3.2669   3.4975   3.4976   3.7626   3.7626   3.7851   3.7851
     3.9522   3.9523   4.4196   4.4196   4.4654   4.4654   5.3566   5.3566
     5.4113   5.4113   5.5093   5.5093   5.5864   5.5864   5.7685   5.7685
     5.8480   5.8480   5.8986   5.8986   5.9709   5.9709   5.9911   5.9911
     6.0865   6.0865   6.3328   6.3328   6.5139   6.5139   6.5730   6.5730
     6.8108   6.8108   6.9730   6.9730   7.0688   7.0688   7.5553   7.5553
     7.5849   7.5850   7.5985   7.5986   7.6429   7.6429   7.9090   7.9090
     9.5298   9.5298  11.0711  11.0711  11.1347  11.1348  11.2570  11.2570
    11.3479  11.3479  12.7138  12.7138  12.7194  12.7194  12.9647  12.9647
    13.3390  13.3390  13.4659  13.4659  13.5383  13.5383  13.8628  13.8628
    15.3948  15.3948  15.7460  15.7460  15.7515  15.7515  15.8230  15.8230
    16.1997  16.1997  17.7543  17.7543  17.9411

          k = 0.0000-0.4725 0.1667 ( 62246 PWs)   bands (ev):

   -66.1515 -66.1515 -66.1507 -66.1507 -66.1505 -66.1505 -66.1496 -66.1496
   -30.5975 -30.5975 -30.5889 -30.5888 -30.5699 -30.5699 -30.5685 -30.5685
   -30.5008 -30.5008 -30.4994 -30.4994 -30.4682 -30.4682 -30.4624 -30.4624
   -30.3976 -30.3976 -30.3934 -30.3933 -30.3928 -30.3928 -30.3887 -30.3887
   -20.3047 -20.3047 -20.3045 -20.3045 -20.3043 -20.3043 -20.3041 -20.3041
   -20.2841 -20.2841 -20.2836 -20.2836 -20.2836 -20.2836 -20.2829 -20.2829
   -20.2784 -20.2784 -20.2780 -20.2780 -20.2779 -20.2779 -20.2774 -20.2774
   -20.2761 -20.2761 -20.2756 -20.2756 -20.2732 -20.2732 -20.2723 -20.2723
   -20.2709 -20.2709 -20.2706 -20.2706 -20.2705 -20.2705 -20.2703 -20.2703
   -20.2685 -20.2684 -20.2683 -20.2683 -20.2652 -20.2652 -20.2641 -20.2641
   -20.2584 -20.2584 -20.2570 -20.2570 -20.2564 -20.2564 -20.2550 -20.2550
    -9.9151  -9.9151  -9.5136  -9.5136  -9.5119  -9.5119  -9.2100  -9.2100
    -8.2182  -8.2182  -8.1871  -8.1871  -8.1590  -8.1589  -8.1488  -8.1488
    -8.0054  -8.0054  -7.9173  -7.9173  -7.8346  -7.8346  -7.7616  -7.7616
     1.0077   1.0077   1.1333   1.1333   1.2483   1.2483   1.4806   1.4806
     2.2490   2.2490   3.1230   3.1230   3.1772   3.1773   3.2690   3.2690
     3.2977   3.2977   3.4824   3.4824   3.7674   3.7674   3.7999   3.7999
     3.9698   3.9698   4.1351   4.1351   4.4759   4.4760   5.0581   5.0582
     5.2552   5.2552   5.3480   5.3480   5.5039   5.5039   5.5722   5.5722
     5.7183   5.7183   5.8287   5.8287   5.9128   5.9128   6.0555   6.0555
     6.2384   6.2384   6.4096   6.4096   6.5319   6.5319   6.8111   6.8111
     6.8407   6.8407   6.8911   6.8911   6.9505   6.9505   7.5621   7.5622
     7.5747   7.5747   7.5971   7.5971   7.6342   7.6342   7.8780   7.8780
     9.8442   9.8442  11.1833  11.1833  11.2265  11.2265  11.2705  11.2705
    11.3790  11.3790  12.5822  12.5822  12.7600  12.7600  13.0110  13.0110
    13.2754  13.2754  13.3354  13.3354  13.3605  13.3605  13.8766  13.8766
    15.4232  15.4232  15.7436  15.7436  15.9399  15.9399  16.0979  16.0979
    16.2794  16.2794  17.6947  17.6951  17.8342

          k = 0.0000-0.4725 0.3333 ( 62268 PWs)   bands (ev):

   -66.1513 -66.1513 -66.1509 -66.1508 -66.1503 -66.1503 -66.1498 -66.1498
   -30.5836 -30.5836 -30.5716 -30.5716 -30.5705 -30.5705 -30.5619 -30.5619
   -30.5200 -30.5200 -30.5175 -30.5175 -30.4672 -30.4672 -30.4640 -30.4640
   -30.3966 -30.3966 -30.3938 -30.3938 -30.3924 -30.3923 -30.3897 -30.3897
   -20.3046 -20.3046 -20.3044 -20.3044 -20.3043 -20.3043 -20.3042 -20.3042
   -20.2840 -20.2840 -20.2837 -20.2837 -20.2835 -20.2835 -20.2831 -20.2831
   -20.2783 -20.2783 -20.2781 -20.2781 -20.2778 -20.2778 -20.2776 -20.2776
   -20.2761 -20.2760 -20.2757 -20.2757 -20.2724 -20.2724 -20.2717 -20.2717
   -20.2712 -20.2712 -20.2708 -20.2708 -20.2700 -20.2700 -20.2694 -20.2694
   -20.2687 -20.2687 -20.2680 -20.2680 -20.2664 -20.2664 -20.2654 -20.2654
   -20.2581 -20.2581 -20.2573 -20.2573 -20.2561 -20.2561 -20.2553 -20.2553
    -9.7682  -9.7682  -9.5523  -9.5523  -9.2409  -9.2409  -9.0729  -9.0729
    -8.4256  -8.4256  -8.3910  -8.3910  -8.1781  -8.1781  -8.1516  -8.1516
    -8.1286  -8.1286  -8.0866  -8.0866  -7.8215  -7.8215  -7.7778  -7.7778
     1.1165   1.1165   1.1335   1.1335   2.0084   2.0084   2.1344   2.1344
     2.5088   2.5088   3.1490   3.1490   3.1993   3.1994   3.2930   3.2930
     3.4126   3.4126   3.4604   3.4604   3.5990   3.5990   3.7138   3.7138
     3.8620   3.8620   3.9889   3.9889   4.4014   4.4014   4.5400   4.5400
     4.7331   4.7331   4.8728   4.8728   5.0370   5.0370   5.2492   5.2492
     5.6304   5.6304   5.7635   5.7635   6.0172   6.0172   6.0964   6.0964
     6.3599   6.3599   6.4806   6.4806   6.5362   6.5362   6.5882   6.5882
     6.9274   6.9274   7.2026   7.2026   7.2281   7.2281   7.5267   7.5267
     7.5605   7.5606   7.5945   7.5945   7.6070   7.6070   7.7640   7.7640
    10.5549  10.5549  11.2570  11.2570  11.2906  11.2906  11.5741  11.5741
    11.6759  11.6759  12.1264  12.1264  12.7748  12.7748  12.8175  12.8175
    12.9003  12.9003  13.0892  13.0892  13.3748  13.3748  13.7401  13.7401
    15.5319  15.5319  15.7115  15.7115  16.3680  16.3680  16.6929  16.6929
    16.7887  16.7887  17.2367  17.2367  17.6467

          k = 0.0000-0.4725-0.5000 ( 62284 PWs)   bands (ev):

   -66.1511 -66.1511 -66.1511 -66.1511 -66.1501 -66.1501 -66.1501 -66.1501
   -30.5750 -30.5750 -30.5750 -30.5749 -30.5456 -30.5456 -30.5456 -30.5456
   -30.5422 -30.5422 -30.5421 -30.5421 -30.4657 -30.4657 -30.4657 -30.4657
   -30.3952 -30.3952 -30.3952 -30.3952 -30.3910 -30.3910 -30.3910 -30.3910
   -20.3045 -20.3045 -20.3045 -20.3045 -20.3043 -20.3043 -20.3043 -20.3043
   -20.2839 -20.2838 -20.2838 -20.2838 -20.2833 -20.2833 -20.2833 -20.2833
   -20.2782 -20.2782 -20.2782 -20.2782 -20.2777 -20.2777 -20.2777 -20.2777
   -20.2759 -20.2759 -20.2759 -20.2759 -20.2717 -20.2717 -20.2717 -20.2717
   -20.2712 -20.2712 -20.2712 -20.2712 -20.2692 -20.2692 -20.2692 -20.2692
   -20.2680 -20.2679 -20.2679 -20.2679 -20.2670 -20.2670 -20.2670 -20.2670
   -20.2577 -20.2577 -20.2577 -20.2577 -20.2557 -20.2557 -20.2557 -20.2557
    -9.6326  -9.6326  -9.6326  -9.6326  -8.8405  -8.8405  -8.8404  -8.8404
    -8.7869  -8.7869  -8.7868  -8.7868  -8.1683  -8.1683  -8.1682  -8.1682
    -8.1206  -8.1206  -8.1206  -8.1206  -7.7998  -7.7998  -7.7998  -7.7998
     1.1331   1.1331   1.1331   1.1331   2.8289   2.8289   2.8289   2.8289
     2.9596   2.9596   2.9596   2.9596   3.1728   3.1728   3.1728   3.1728
     3.3054   3.3054   3.3054   3.3054   3.4999   3.4999   3.4999   3.4999
     3.7257   3.7257   3.7257   3.7257   4.3651   4.3652   4.3652   4.3652
     4.4639   4.4639   4.4639   4.4640   5.0326   5.0326   5.0327   5.0327
     5.6850   5.6850   5.6850   5.6850   6.1146   6.1146   6.1146   6.1146
     6.3374   6.3374   6.3375   6.3375   6.5255   6.5255   6.5255   6.5255
     7.3125   7.3125   7.3125   7.3125   7.4517   7.4517   7.4517   7.4518
     7.4864   7.4864   7.4864   7.4864   7.6445   7.6446   7.6446   7.6446
    11.2217  11.2217  11.2217  11.2217  11.4426  11.4426  11.4426  11.4426
    12.1451  12.1451  12.1451  12.1451  12.2243  12.2243  12.2243  12.2243
    13.0342  13.0342  13.0342  13.0342  13.4977  13.4977  13.4977  13.4977
    15.6435  15.6435  15.6435  15.6435  16.7521  16.7521  16.7521  16.7522
    17.3693  17.3693  17.3693  17.3693  17.5428

          k = 0.1667 0.0000 0.1667 ( 62234 PWs)   bands (ev):

   -66.1517 -66.1512 -66.1508 -66.1508 -66.1504 -66.1504 -66.1499 -66.1495
   -30.5975 -30.5953 -30.5906 -30.5880 -30.5646 -30.5640 -30.5617 -30.5612
   -30.5021 -30.5007 -30.5000 -30.4990 -30.4765 -30.4740 -30.4702 -30.4677
   -30.4251 -30.4207 -30.4195 -30.4153 -30.3693 -30.3659 -30.3651 -30.3619
   -20.3048 -20.3046 -20.3046 -20.3044 -20.3043 -20.3042 -20.3042 -20.3040
   -20.2843 -20.2839 -20.2838 -20.2837 -20.2835 -20.2833 -20.2831 -20.2828
   -20.2787 -20.2783 -20.2782 -20.2782 -20.2779 -20.2777 -20.2777 -20.2773
   -20.2758 -20.2754 -20.2752 -20.2749 -20.2741 -20.2739 -20.2731 -20.2730
   -20.2728 -20.2720 -20.2717 -20.2713 -20.2692 -20.2691 -20.2688 -20.2687
   -20.2683 -20.2683 -20.2679 -20.2679 -20.2651 -20.2651 -20.2642 -20.2641
   -20.2583 -20.2582 -20.2569 -20.2568 -20.2566 -20.2565 -20.2553 -20.2551
    -9.9708  -9.7870  -9.6038  -9.5202  -9.4784  -9.3622  -9.1787  -9.1545
    -8.7427  -8.6466  -8.6433  -8.6360  -8.0491  -8.0326  -7.9683  -7.9582
    -7.9480  -7.9437  -7.9114  -7.8735  -7.5835  -7.5352  -7.5186  -7.4751
     1.1337   1.1458   1.2426   1.2499   1.3880   1.3954   1.5294   1.6266
     1.8960   1.9234   1.9615   2.0669   2.3017   2.3845   2.7165   2.7374
     2.8362   2.8587   4.0157   4.0333   4.0886   4.1979   4.2162   4.2199
     4.2847   4.3908   4.6612   4.7242   4.7806   4.9354   5.1156   5.1566
     5.2333   5.2419   5.2826   5.4755   5.5179   5.5334   5.6335   5.6468
     5.6566   5.8015   5.8421   5.9942   6.0204   6.0762   6.1655   6.1996
     6.2995   6.4031   6.4936   6.5815   6.5839   6.6907   6.7076   6.7856
     6.8328   6.8829   6.8889   6.9258   6.9617   6.9953   7.0503   7.0650
     7.1346   7.1594   7.8372   7.8413   8.0251   8.0563   8.1622   8.1872
     9.9748  10.0150  10.0831  10.1347  10.1759  10.2758  12.1646  12.4010
    12.4559  12.5038  12.5318  12.6093  12.6305  12.6614  12.7292  12.9499
    12.9656  13.0922  13.4431  13.4983  13.6766  13.6887  13.9084  13.9582
    14.3496  14.4660  14.6248  15.1935  15.2237  15.6241  15.6480  16.5319
    16.5344  17.0405  17.0684  17.3310  17.6653

          k = 0.1667 0.0000 0.3333 ( 62265 PWs)   bands (ev):

   -66.1515 -66.1511 -66.1510 -66.1506 -66.1506 -66.1502 -66.1501 -66.1497
   -30.5815 -30.5804 -30.5720 -30.5697 -30.5662 -30.5640 -30.5582 -30.5569
   -30.5210 -30.5193 -30.5182 -30.5170 -30.4755 -30.4730 -30.4721 -30.4696
   -30.4239 -30.4207 -30.4196 -30.4165 -30.3683 -30.3659 -30.3650 -30.3627
   -20.3047 -20.3045 -20.3045 -20.3044 -20.3043 -20.3043 -20.3043 -20.3041
   -20.2842 -20.2839 -20.2838 -20.2836 -20.2834 -20.2834 -20.2833 -20.2829
   -20.2786 -20.2784 -20.2782 -20.2781 -20.2780 -20.2778 -20.2777 -20.2774
   -20.2757 -20.2754 -20.2753 -20.2751 -20.2739 -20.2737 -20.2733 -20.2732
   -20.2717 -20.2708 -20.2707 -20.2699 -20.2694 -20.2694 -20.2687 -20.2686
   -20.2684 -20.2683 -20.2678 -20.2676 -20.2664 -20.2661 -20.2654 -20.2654
   -20.2581 -20.2579 -20.2573 -20.2571 -20.2564 -20.2562 -20.2556 -20.2554
    -9.8166  -9.6218  -9.5681  -9.3987  -9.3509  -9.2038  -9.0565  -9.0345
    -8.8056  -8.6734  -8.6213  -8.6182  -8.3697  -8.3408  -8.3258  -8.2756
    -7.9780  -7.9425  -7.9336  -7.8966  -7.5740  -7.5458  -7.5104  -7.4848
     1.3599   1.3662   1.3952   1.3964   1.8066   1.8158   1.8864   1.9445
     2.0105   2.1332   2.1443   2.3160   2.5732   2.6475   2.7652   2.8223
     2.9763   3.0776   3.5522   3.6502   3.8829   3.9699   4.1363   4.1610
     4.1966   4.3857   4.4022   4.4747   4.5716   4.6136   4.6568   4.7228
     4.8730   4.8818   5.0573   5.0696   5.0833   5.2464   5.5503   5.6585
     5.6633   5.7756   5.8395   5.8571   6.0007   6.0895   6.1314   6.2182
     6.3628   6.4102   6.5540   6.6146   6.6282   6.6878   6.7822   6.8483
     6.8614   6.8926   6.9186   6.9985   7.0499   7.0521   7.1336   7.1528
     7.2453   7.3290   7.7225   7.7225   7.9937   8.0383   8.0568   8.0578
    10.0711  10.0829  10.6547  10.7347  10.8026  10.8909  12.1207  12.1866
    12.2701  12.3337  12.4401  12.5493  12.5654  12.6385  12.6950  12.7985
    12.8583  13.0247  13.3664  13.3876  13.4975  13.5295  13.6550  13.7034
    14.4351  14.5974  14.7164  15.1108  15.5194  15.9646  16.1986  16.4640
    16.5030  17.4454  17.5411  17.6914  17.7306

          k = 0.1667 0.0000-0.5000 ( 62322 PWs)   bands (ev):

   -66.1512 -66.1512 -66.1508 -66.1508 -66.1503 -66.1503 -66.1499 -66.1499
   -30.5701 -30.5701 -30.5686 -30.5685 -30.5466 -30.5466 -30.5446 -30.5446
   -30.5417 -30.5417 -30.5408 -30.5408 -30.4740 -30.4740 -30.4715 -30.4714
   -30.4223 -30.4223 -30.4181 -30.4181 -30.3671 -30.3671 -30.3638 -30.3638
   -20.3045 -20.3045 -20.3044 -20.3044 -20.3044 -20.3044 -20.3042 -20.3042
   -20.2840 -20.2840 -20.2836 -20.2836 -20.2835 -20.2834 -20.2832 -20.2831
   -20.2785 -20.2785 -20.2781 -20.2781 -20.2780 -20.2780 -20.2776 -20.2776
   -20.2756 -20.2755 -20.2752 -20.2752 -20.2736 -20.2736 -20.2735 -20.2735
   -20.2704 -20.2704 -20.2698 -20.2698 -20.2694 -20.2694 -20.2686 -20.2686
   -20.2681 -20.2681 -20.2674 -20.2674 -20.2670 -20.2670 -20.2667 -20.2667
   -20.2577 -20.2577 -20.2576 -20.2575 -20.2560 -20.2560 -20.2558 -20.2558
    -9.6638  -9.6637  -9.4762  -9.4761  -9.0195  -9.0195  -8.8301  -8.8300
    -8.7934  -8.7933  -8.7529  -8.7528  -8.5724  -8.5723  -8.5326  -8.5326
    -7.9585  -7.9585  -7.9185  -7.9185  -7.5601  -7.5601  -7.4978  -7.4978
     1.3817   1.3817   1.4022   1.4022   1.8746   1.8746   1.9217   1.9217
     2.7455   2.7455   2.8720   2.8720   2.9427   2.9427   3.0150   3.0151
     3.0415   3.0415   3.2562   3.2563   3.3878   3.3878   3.7055   3.7055
     3.7952   3.7952   4.3570   4.3570   4.5301   4.5301   4.7264   4.7264
     4.7671   4.7671   4.9076   4.9076   5.0348   5.0349   5.6073   5.6073
     5.7153   5.7153   5.7431   5.7431   6.0443   6.0443   6.2202   6.2202
     6.3700   6.3700   6.5302   6.5302   6.7112   6.7113   6.7589   6.7589
     6.8827   6.8827   6.9283   6.9283   7.1112   7.1112   7.4525   7.4525
     7.4672   7.4672   7.6947   7.6947   7.7536   7.7537   8.0575   8.0575
    10.0835  10.0835  11.4185  11.4185  11.4959  11.4959  11.6017  11.6017
    11.6937  11.6937  12.5004  12.5004  12.5765  12.5765  12.9646  12.9646
    13.0802  13.0802  13.1162  13.1162  13.2982  13.2982  13.5893  13.5893
    14.5388  14.5388  14.9555  14.9555  15.9540  15.9540  16.2657  16.2657
    17.0470  17.0470  17.9100  17.9102  18.0887

          k = 0.1667 0.1575 0.1667 ( 62255 PWs)   bands (ev):

   -66.1516 -66.1513 -66.1508 -66.1507 -66.1504 -66.1504 -66.1499 -66.1495
   -30.5974 -30.5954 -30.5904 -30.5881 -30.5644 -30.5639 -30.5618 -30.5614
   -30.5020 -30.5008 -30.4999 -30.4990 -30.4763 -30.4742 -30.4700 -30.4678
   -30.4213 -30.4171 -30.4159 -30.4118 -30.3730 -30.3697 -30.3688 -30.3655
   -20.3047 -20.3046 -20.3046 -20.3044 -20.3043 -20.3042 -20.3042 -20.3040
   -20.2842 -20.2839 -20.2837 -20.2837 -20.2835 -20.2833 -20.2831 -20.2828
   -20.2787 -20.2783 -20.2783 -20.2782 -20.2779 -20.2778 -20.2777 -20.2773
   -20.2758 -20.2754 -20.2752 -20.2749 -20.2740 -20.2736 -20.2729 -20.2727
   -20.2727 -20.2720 -20.2717 -20.2712 -20.2692 -20.2691 -20.2690 -20.2688
   -20.2687 -20.2685 -20.2682 -20.2681 -20.2652 -20.2651 -20.2642 -20.2641
   -20.2583 -20.2582 -20.2569 -20.2568 -20.2566 -20.2565 -20.2553 -20.2551
    -9.9538  -9.7958  -9.5903  -9.5032  -9.4834  -9.3687  -9.1770  -9.1561
    -8.6746  -8.5910  -8.5881  -8.5815  -8.0512  -8.0310  -7.9702  -7.9579
    -7.9497  -7.9465  -7.9099  -7.8765  -7.6712  -7.6261  -7.6106  -7.5703
     1.1343   1.1447   1.2434   1.2511   1.3942   1.3963   1.5696   1.6267
     2.0837   2.1328   2.1731   2.2555   2.3169   2.3813   2.7973   2.8088
     2.9123   2.9271   3.9014   3.9426   4.0467   4.1213   4.1657   4.1886
     4.2167   4.2561   4.5969   4.7398   4.8277   4.9479   5.0571   5.1209
     5.1886   5.2555   5.2581   5.3157   5.4308   5.4873   5.5110   5.6192
     5.6590   5.8487   5.8765   5.9027   5.9772   6.0028   6.1061   6.1459
     6.3067   6.3310   6.5051   6.5189   6.5998   6.6926   6.7326   6.7933
     6.8256   6.8419   6.8899   6.9106   6.9469   6.9697   7.0855   7.0988
     7.1501   7.1736   7.8346   7.8422   7.9990   8.0200   8.1064   8.1197
    10.0397  10.0646  10.2289  10.2612  10.3216  10.3999  12.0665  12.2810
    12.3236  12.3833  12.5332  12.5968  12.6265  12.6537  12.7537  12.9555
    12.9839  13.0885  13.4369  13.5017  13.6520  13.7664  13.8188  13.8994
    14.5536  14.7695  14.8416  15.2967  15.5753  15.6250  15.6656  16.4848
    16.5079  17.0024  17.1325  17.1537  17.6032

          k = 0.1667 0.1575 0.3333 ( 62260 PWs)   bands (ev):

   -66.1514 -66.1511 -66.1510 -66.1506 -66.1505 -66.1502 -66.1501 -66.1497
   -30.5814 -30.5805 -30.5719 -30.5698 -30.5660 -30.5642 -30.5581 -30.5570
   -30.5208 -30.5194 -30.5181 -30.5170 -30.4753 -30.4732 -30.4719 -30.4698
   -30.4202 -30.4171 -30.4160 -30.4130 -30.3721 -30.3696 -30.3687 -30.3663
   -20.3046 -20.3045 -20.3045 -20.3044 -20.3043 -20.3043 -20.3043 -20.3041
   -20.2841 -20.2838 -20.2838 -20.2836 -20.2834 -20.2834 -20.2833 -20.2830
   -20.2786 -20.2784 -20.2782 -20.2781 -20.2780 -20.2778 -20.2777 -20.2775
   -20.2757 -20.2754 -20.2753 -20.2751 -20.2737 -20.2734 -20.2731 -20.2729
   -20.2718 -20.2708 -20.2707 -20.2699 -20.2695 -20.2694 -20.2689 -20.2688
   -20.2686 -20.2683 -20.2681 -20.2678 -20.2664 -20.2662 -20.2654 -20.2654
   -20.2581 -20.2580 -20.2573 -20.2571 -20.2564 -20.2562 -20.2556 -20.2554
    -9.7980  -9.6308  -9.5501  -9.4058  -9.3329  -9.2090  -9.0549  -9.0358
    -8.7437  -8.6259  -8.5684  -8.5659  -8.3733  -8.3329  -8.3307  -8.2673
    -7.9763  -7.9462  -7.9324  -7.9003  -7.6623  -7.6354  -7.6031  -7.5787
     1.3640   1.3705   1.3965   1.3998   1.9232   1.9486   2.0097   2.0892
     2.1443   2.1595   2.2222   2.3915   2.5809   2.6488   2.8312   2.8936
     3.0532   3.1480   3.5545   3.6440   3.8360   3.9615   4.0373   4.1125
     4.2395   4.3066   4.3593   4.3934   4.5364   4.5438   4.5995   4.7299
     4.7858   4.8652   4.9916   5.0517   5.0768   5.0985   5.4527   5.5311
     5.6393   5.7480   5.7753   5.8361   5.8837   6.0054   6.0339   6.0787
     6.2944   6.4281   6.6161   6.6505   6.6710   6.7305   6.7712   6.8213
     6.8305   6.8674   7.0063   7.0296   7.0588   7.0760   7.1420   7.1973
     7.2477   7.3312   7.7198   7.7248   7.9536   7.9860   8.0213   8.0223
    10.2512  10.2712  10.6776  10.7423  10.8882  10.9617  12.1159  12.1779
    12.2424  12.2893  12.4038  12.4791  12.5153  12.5886  12.6065  12.7587
    12.8762  13.0092  13.3010  13.3898  13.4219  13.4841  13.6827  13.6974
    14.6669  14.8055  15.0761  15.4787  15.6063  15.9532  16.2176  16.4305
    16.5786  17.3877  17.4126  17.6126  17.7314

          k = 0.1667 0.1575-0.5000 ( 62292 PWs)   bands (ev):

   -66.1512 -66.1512 -66.1509 -66.1508 -66.1503 -66.1503 -66.1500 -66.1500
   -30.5700 -30.5699 -30.5686 -30.5686 -30.5465 -30.5465 -30.5447 -30.5447
   -30.5416 -30.5416 -30.5408 -30.5408 -30.4738 -30.4738 -30.4716 -30.4716
   -30.4187 -30.4186 -30.4145 -30.4145 -30.3708 -30.3708 -30.3675 -30.3675
   -20.3045 -20.3045 -20.3044 -20.3044 -20.3044 -20.3044 -20.3042 -20.3042
   -20.2840 -20.2840 -20.2836 -20.2836 -20.2834 -20.2834 -20.2832 -20.2832
   -20.2785 -20.2785 -20.2781 -20.2781 -20.2780 -20.2779 -20.2776 -20.2776
   -20.2755 -20.2755 -20.2752 -20.2752 -20.2734 -20.2734 -20.2732 -20.2731
   -20.2705 -20.2705 -20.2698 -20.2698 -20.2696 -20.2696 -20.2687 -20.2687
   -20.2681 -20.2681 -20.2675 -20.2675 -20.2670 -20.2670 -20.2668 -20.2668
   -20.2577 -20.2577 -20.2576 -20.2576 -20.2560 -20.2560 -20.2559 -20.2558
    -9.6448  -9.6448  -9.4843  -9.4843  -8.9856  -8.9855  -8.8225  -8.8225
    -8.7946  -8.7946  -8.7551  -8.7550  -8.5300  -8.5299  -8.4961  -8.4961
    -7.9572  -7.9572  -7.9221  -7.9221  -7.6489  -7.6489  -7.5910  -7.5910
     1.3900   1.3900   1.4022   1.4022   2.0687   2.0687   2.1372   2.1372
     2.7920   2.7920   2.8821   2.8821   2.9546   2.9547   3.0238   3.0238
     3.0451   3.0452   3.2861   3.2861   3.3817   3.3818   3.7420   3.7420
     3.8569   3.8570   4.2218   4.2218   4.4190   4.4190   4.6620   4.6620
     4.7244   4.7244   4.8283   4.8284   4.9939   4.9939   5.5389   5.5389
     5.6101   5.6101   5.7001   5.7001   5.9263   5.9263   6.0504   6.0504
     6.4366   6.4366   6.5553   6.5554   6.7383   6.7383   6.7749   6.7749
     6.9124   6.9124   6.9749   6.9749   7.1284   7.1284   7.4525   7.4526
     7.4719   7.4719   7.6773   7.6774   7.7264   7.7264   8.0214   8.0214
    10.2716  10.2716  11.4271  11.4271  11.4974  11.4974  11.6551  11.6551
    11.7387  11.7387  12.4127  12.4127  12.5272  12.5272  12.8682  12.8682
    13.0070  13.0070  13.0859  13.0859  13.2894  13.2894  13.6052  13.6052
    14.7601  14.7601  15.3329  15.3329  16.0266  16.0266  16.2370  16.2370
    17.0883  17.0883  17.7620  17.7621  18.0235

          k = 0.1667 0.3150 0.1667 ( 62249 PWs)   bands (ev):

   -66.1516 -66.1513 -66.1507 -66.1507 -66.1505 -66.1505 -66.1498 -66.1496
   -30.5970 -30.5958 -30.5899 -30.5886 -30.5641 -30.5637 -30.5621 -30.5617
   -30.5017 -30.5010 -30.4996 -30.4991 -30.4758 -30.4746 -30.4695 -30.4682
   -30.4112 -30.4072 -30.4061 -30.4022 -30.3833 -30.3798 -30.3789 -30.3755
   -20.3047 -20.3046 -20.3045 -20.3045 -20.3043 -20.3042 -20.3041 -20.3041
   -20.2842 -20.2840 -20.2837 -20.2836 -20.2836 -20.2834 -20.2831 -20.2829
   -20.2786 -20.2784 -20.2782 -20.2781 -20.2780 -20.2779 -20.2776 -20.2774
   -20.2757 -20.2755 -20.2752 -20.2750 -20.2735 -20.2730 -20.2729 -20.2721
   -20.2720 -20.2718 -20.2713 -20.2710 -20.2698 -20.2696 -20.2695 -20.2694
   -20.2689 -20.2688 -20.2686 -20.2684 -20.2652 -20.2651 -20.2642 -20.2641
   -20.2583 -20.2583 -20.2569 -20.2568 -20.2566 -20.2565 -20.2552 -20.2552
    -9.9117  -9.8217  -9.5586  -9.4993  -9.4630  -9.3884  -9.1725  -9.1605
    -8.4856  -8.4297  -8.4223  -8.4193  -8.0706  -8.0271  -7.9932  -7.9746
    -7.9562  -7.9469  -7.9140  -7.8903  -7.8848  -7.8410  -7.8301  -7.7946
     1.1360   1.1420   1.2455   1.2509   1.3976   1.3996   1.6094   1.6263
     2.3129   2.3597   2.6170   2.6739   2.7391   2.8038   3.0238   3.0811
     3.1208   3.1903   3.5724   3.6335   3.7735   3.8172   4.1252   4.1343
     4.1631   4.1929   4.2398   4.6066   4.6539   4.8771   4.9301   5.0150
     5.0538   5.1139   5.1367   5.1608   5.2986   5.3763   5.4343   5.4435
     5.6565   5.6706   5.7748   5.7971   5.8766   5.8967   5.9557   5.9711
     6.3265   6.3655   6.4511   6.5447   6.6003   6.6787   6.7360   6.8348
     6.8683   6.8880   6.9249   6.9512   7.0077   7.0187   7.2224   7.2399
     7.2900   7.3003   7.8030   7.8437   7.8685   7.8972   7.9072   7.9363
    10.0800  10.0852  10.6487  10.6828  10.7802  10.8138  11.7260  11.8718
    11.9517  11.9782  12.5739  12.6077  12.6315  12.6524  12.8367  12.9889
    13.0782  13.1583  13.3055  13.3897  13.4963  13.5920  13.7958  13.8164
    15.3026  15.3920  15.4895  15.5317  15.6394  15.6910  16.3337  16.3789
    16.5051  16.5655  17.1254  17.3826  17.4128

          k = 0.1667 0.3150 0.3333 ( 62265 PWs)   bands (ev):

   -66.1514 -66.1512 -66.1509 -66.1507 -66.1505 -66.1503 -66.1500 -66.1498
   -30.5812 -30.5806 -30.5714 -30.5703 -30.5656 -30.5646 -30.5579 -30.5573
   -30.5205 -30.5197 -30.5178 -30.5172 -30.4748 -30.4736 -30.4714 -30.4702
   -30.4101 -30.4071 -30.4061 -30.4033 -30.3823 -30.3797 -30.3788 -30.3763
   -20.3046 -20.3045 -20.3045 -20.3044 -20.3044 -20.3043 -20.3042 -20.3041
   -20.2841 -20.2839 -20.2838 -20.2836 -20.2835 -20.2834 -20.2832 -20.2830
   -20.2785 -20.2783 -20.2783 -20.2781 -20.2780 -20.2778 -20.2777 -20.2775
   -20.2756 -20.2754 -20.2753 -20.2751 -20.2731 -20.2726 -20.2723 -20.2721
   -20.2719 -20.2711 -20.2705 -20.2701 -20.2698 -20.2696 -20.2694 -20.2693
   -20.2689 -20.2686 -20.2683 -20.2681 -20.2664 -20.2663 -20.2655 -20.2654
   -20.2580 -20.2580 -20.2572 -20.2572 -20.2563 -20.2563 -20.2555 -20.2555
    -9.7523  -9.6575  -9.5078  -9.4272  -9.2927  -9.2251  -9.0506  -9.0397
    -8.5833  -8.5004  -8.4126  -8.4074  -8.3868  -8.3485  -8.2925  -8.2300
    -7.9820  -7.9697  -7.9361  -7.9182  -7.8772  -7.8507  -7.8281  -7.8048
     1.3680   1.3725   1.3992   1.4031   2.0000   2.0110   2.1029   2.1432
     2.5668   2.6090   2.6524   2.6761   2.7351   2.8282   3.0386   3.1060
     3.2949   3.3755   3.5452   3.6158   3.6634   3.7490   3.8137   3.8312
     4.1205   4.2231   4.2609   4.3753   4.4003   4.4463   4.5681   4.6058
     4.6312   4.7884   4.8011   4.9412   5.0298   5.0473   5.1199   5.1959
     5.3375   5.4379   5.4791   5.6833   5.6955   5.8484   5.8888   5.9215
     6.3821   6.4518   6.6096   6.7178   6.7402   6.7553   6.7894   6.8402
     6.9290   7.0074   7.1058   7.1216   7.1868   7.2388   7.2523   7.2914
     7.3267   7.3547   7.7049   7.7298   7.8119   7.8249   7.8796   7.8886
    10.6307  10.6751  10.7814  10.8476  11.1518  11.2337  11.9106  11.9577
    12.0150  12.1559  12.1864  12.2162  12.5765  12.6169  12.6692  12.7560
    12.9004  13.0155  13.0779  13.1734  13.3030  13.3819  13.6343  13.6561
    15.3639  15.4064  15.8189  15.9048  15.9223  16.2212  16.3731  16.4818
    16.8321  16.9254  17.2390  17.4246  17.7097

          k = 0.1667 0.3150-0.5000 ( 62264 PWs)   bands (ev):

   -66.1511 -66.1511 -66.1509 -66.1509 -66.1502 -66.1502 -66.1500 -66.1500
   -30.5697 -30.5697 -30.5689 -30.5689 -30.5461 -30.5461 -30.5451 -30.5451
   -30.5415 -30.5414 -30.5410 -30.5410 -30.4733 -30.4733 -30.4720 -30.4720
   -30.4086 -30.4086 -30.4047 -30.4047 -30.3810 -30.3810 -30.3776 -30.3776
   -20.3045 -20.3045 -20.3044 -20.3044 -20.3043 -20.3043 -20.3043 -20.3043
   -20.2839 -20.2839 -20.2837 -20.2837 -20.2834 -20.2834 -20.2832 -20.2832
   -20.2784 -20.2784 -20.2782 -20.2782 -20.2779 -20.2779 -20.2777 -20.2777
   -20.2754 -20.2754 -20.2753 -20.2753 -20.2726 -20.2726 -20.2723 -20.2723
   -20.2709 -20.2709 -20.2702 -20.2702 -20.2696 -20.2696 -20.2691 -20.2691
   -20.2681 -20.2681 -20.2678 -20.2678 -20.2671 -20.2671 -20.2670 -20.2670
   -20.2577 -20.2576 -20.2576 -20.2576 -20.2559 -20.2559 -20.2559 -20.2559
    -9.5991  -9.5990  -9.5088  -9.5088  -8.9139  -8.9139  -8.8254  -8.8253
    -8.7869  -8.7869  -8.7616  -8.7616  -8.3929  -8.3929  -8.3676  -8.3676
    -7.9694  -7.9694  -7.9358  -7.9358  -7.8639  -7.8639  -7.8173  -7.8173
     1.3976   1.3976   1.4022   1.4022   2.5854   2.5854   2.6677   2.6677
     2.8553   2.8554   2.9195   2.9195   2.9999   2.9999   3.0633   3.0634
     3.1268   3.1268   3.3590   3.3591   3.3665   3.3665   3.7392   3.7392
     4.0220   4.0220   4.0429   4.0429   4.0854   4.0855   4.3212   4.3212
     4.6852   4.6852   4.7581   4.7582   4.9684   4.9684   5.1367   5.1367
     5.1674   5.1674   5.5374   5.5374   5.7313   5.7313   5.8918   5.8918
     6.5136   6.5136   6.5911   6.5912   6.7193   6.7193   6.8484   6.8484
     7.1269   7.1269   7.1943   7.1943   7.2525   7.2525   7.4491   7.4492
     7.4971   7.4971   7.6079   7.6079   7.6390   7.6390   7.8796   7.8796
    10.7497  10.7497  11.4422  11.4422  11.5004  11.5004  11.8048  11.8048
    11.9064  11.9064  12.0420  12.0420  12.4475  12.4475  12.5875  12.5876
    12.8664  12.8664  13.0523  13.0523  13.2957  13.2957  13.4974  13.4975
    15.3933  15.3933  16.1221  16.1221  16.2201  16.2201  16.3345  16.3345
    17.2238  17.2238  17.3685  17.3685  17.9209

          k = 0.1667-0.4725 0.1667 ( 62220 PWs)   bands (ev):

   -66.1515 -66.1514 -66.1506 -66.1506 -66.1506 -66.1505 -66.1497 -66.1497
   -30.5964 -30.5964 -30.5893 -30.5892 -30.5637 -30.5637 -30.5621 -30.5621
   -30.5013 -30.5013 -30.4993 -30.4993 -30.4752 -30.4752 -30.4688 -30.4688
   -30.3973 -30.3973 -30.3935 -30.3935 -30.3925 -30.3925 -30.3889 -30.3889
   -20.3047 -20.3047 -20.3045 -20.3045 -20.3042 -20.3042 -20.3041 -20.3041
   -20.2841 -20.2841 -20.2836 -20.2836 -20.2835 -20.2835 -20.2830 -20.2830
   -20.2785 -20.2785 -20.2781 -20.2781 -20.2780 -20.2780 -20.2775 -20.2775
   -20.2756 -20.2756 -20.2751 -20.2751 -20.2731 -20.2731 -20.2724 -20.2724
   -20.2709 -20.2708 -20.2707 -20.2706 -20.2705 -20.2705 -20.2704 -20.2704
   -20.2689 -20.2688 -20.2686 -20.2685 -20.2652 -20.2651 -20.2642 -20.2641
   -20.2583 -20.2583 -20.2569 -20.2569 -20.2566 -20.2566 -20.2552 -20.2552
    -9.8627  -9.8627  -9.5252  -9.5250  -9.4209  -9.4209  -9.1664  -9.1664
    -8.2331  -8.2303  -8.1875  -8.1841  -8.1759  -8.1731  -8.1619  -8.1566
    -8.0076  -8.0024  -7.9478  -7.9455  -7.9230  -7.9218  -7.8822  -7.8810
     1.1379   1.1396   1.2480   1.2489   1.3989   1.4000   1.6218   1.6240
     2.3370   2.3390   3.1240   3.1327   3.1748   3.2153   3.2405   3.2648
     3.3740   3.3813   3.4893   3.4901   3.7809   3.7834   3.8065   3.8143
     3.9741   3.9762   4.1425   4.1770   4.2038   4.2062   4.9881   5.0224
     5.1106   5.1177   5.2192   5.2511   5.3145   5.3223   5.4309   5.4609
     5.5494   5.5502   5.6578   5.6976   5.7648   5.7666   5.9588   5.9612
     6.3637   6.3685   6.5469   6.5473   6.5894   6.5997   6.8121   6.8170
     6.8450   6.8507   6.9309   6.9406   7.0288   7.0363   7.5565   7.5579
     7.5818   7.5840   7.5999   7.6131   7.6344   7.6391   7.8520   7.8537
    10.0869  10.0900  11.1783  11.2007  11.2314  11.2506  11.3768  11.3830
    11.4595  11.4626  12.5905  12.6222  12.6361  12.6531  12.9844  12.9932
    13.1942  13.2052  13.2813  13.2845  13.3351  13.3547  13.7887  13.7902
    15.5840  15.5914  15.9308  15.9581  16.0394  16.0665  16.0848  16.0941
    16.3367  16.3400  17.6181  17.6430  17.8377

          k = 0.1667-0.4725 0.3333 ( 62252 PWs)   bands (ev):

   -66.1513 -66.1513 -66.1508 -66.1508 -66.1504 -66.1504 -66.1499 -66.1499
   -30.5809 -30.5809 -30.5709 -30.5708 -30.5651 -30.5651 -30.5576 -30.5576
   -30.5201 -30.5201 -30.5175 -30.5175 -30.4742 -30.4742 -30.4708 -30.4708
   -30.3963 -30.3962 -30.3935 -30.3935 -30.3925 -30.3925 -30.3899 -30.3899
   -20.3046 -20.3046 -20.3044 -20.3044 -20.3043 -20.3043 -20.3042 -20.3042
   -20.2840 -20.2840 -20.2836 -20.2836 -20.2835 -20.2835 -20.2831 -20.2831
   -20.2784 -20.2784 -20.2782 -20.2782 -20.2779 -20.2779 -20.2776 -20.2776
   -20.2755 -20.2755 -20.2752 -20.2752 -20.2724 -20.2723 -20.2717 -20.2717
   -20.2712 -20.2711 -20.2709 -20.2708 -20.2700 -20.2700 -20.2696 -20.2696
   -20.2690 -20.2689 -20.2683 -20.2682 -20.2664 -20.2664 -20.2655 -20.2655
   -20.2580 -20.2580 -20.2572 -20.2572 -20.2563 -20.2563 -20.2555 -20.2555
    -9.7002  -9.7002  -9.4624  -9.4624  -9.2534  -9.2531  -9.0451  -9.0449
    -8.4353  -8.4319  -8.3971  -8.3924  -8.1803  -8.1750  -8.1656  -8.1577
    -8.1347  -8.1293  -8.0978  -8.0957  -7.9391  -7.9385  -7.8985  -7.8985
     1.3700   1.3716   1.4009   1.4031   2.0097   2.0114   2.1352   2.1381
     2.6019   2.6084   3.1544   3.1829   3.2104   3.2249   3.2748   3.3111
     3.4224   3.4382   3.5082   3.5101   3.6243   3.6776   3.7494   3.7529
     3.8414   3.8696   3.9994   4.0023   4.3043   4.3094   4.4774   4.5004
     4.5845   4.6512   4.8499   4.8524   4.9386   4.9812   4.9996   5.0492
     5.2901   5.3400   5.3602   5.4804   5.7250   5.7462   5.8476   5.8757
     6.4311   6.4336   6.6673   6.6990   6.7687   6.7715   6.8194   6.8196
     6.9376   6.9971   7.1948   7.2149   7.2429   7.2512   7.5363   7.5417
     7.5532   7.5572   7.5849   7.5906   7.6120   7.6325   7.7487   7.7585
    10.6965  10.7028  11.3319  11.3473  11.3944  11.4077  11.5742  11.5934
    11.6749  11.6959  12.1765  12.2089  12.6970  12.7743  12.7919  12.7988
    12.8130  12.8672  13.0107  13.0456  13.2215  13.2531  13.6094  13.6323
    15.7779  15.7797  15.9606  15.9620  16.4365  16.4368  16.6964  16.7160
    16.7752  16.7966  17.2806  17.2991  17.5791

          k = 0.1667-0.4725-0.5000 ( 62232 PWs)   bands (ev):

   -66.1510 -66.1510 -66.1510 -66.1510 -66.1501 -66.1501 -66.1501 -66.1501
   -30.5693 -30.5693 -30.5693 -30.5693 -30.5456 -30.5456 -30.5456 -30.5456
   -30.5412 -30.5412 -30.5412 -30.5412 -30.4726 -30.4726 -30.4726 -30.4726
   -30.3949 -30.3949 -30.3949 -30.3948 -30.3912 -30.3912 -30.3912 -30.3912
   -20.3045 -20.3045 -20.3044 -20.3044 -20.3043 -20.3043 -20.3043 -20.3043
   -20.2838 -20.2838 -20.2838 -20.2838 -20.2833 -20.2833 -20.2833 -20.2833
   -20.2783 -20.2783 -20.2783 -20.2783 -20.2778 -20.2778 -20.2778 -20.2778
   -20.2754 -20.2754 -20.2753 -20.2753 -20.2717 -20.2717 -20.2716 -20.2716
   -20.2712 -20.2712 -20.2712 -20.2712 -20.2695 -20.2695 -20.2694 -20.2694
   -20.2680 -20.2680 -20.2680 -20.2680 -20.2671 -20.2671 -20.2670 -20.2670
   -20.2576 -20.2576 -20.2576 -20.2576 -20.2559 -20.2559 -20.2559 -20.2559
    -9.5487  -9.5487  -9.5487  -9.5487  -8.8565  -8.8564  -8.8552  -8.8552
    -8.7732  -8.7732  -8.7718  -8.7718  -8.1696  -8.1695  -8.1683  -8.1683
    -8.1340  -8.1340  -8.1325  -8.1324  -7.9192  -7.9192  -7.9188  -7.9188
     1.4005   1.4005   1.4012   1.4012   2.8562   2.8562   2.8583   2.8583
     2.9559   2.9559   2.9744   2.9744   3.1918   3.1918   3.2181   3.2181
     3.3254   3.3254   3.3569   3.3569   3.5021   3.5022   3.5322   3.5322
     3.7466   3.7466   3.7727   3.7727   4.3566   4.3566   4.3638   4.3638
     4.4436   4.4436   4.4597   4.4597   4.7228   4.7228   4.7866   4.7866
     5.2917   5.2917   5.3890   5.3890   5.7465   5.7465   5.7776   5.7776
     6.5616   6.5616   6.5655   6.5656   6.7921   6.7921   6.7973   6.7973
     7.2976   7.2976   7.3662   7.3662   7.4456   7.4456   7.4488   7.4489
     7.4808   7.4809   7.5103   7.5103   7.6356   7.6357   7.6594   7.6594
    11.2854  11.2854  11.3354  11.3354  11.5095  11.5095  11.5813  11.5813
    12.1499  12.1499  12.1508  12.1508  12.2119  12.2120  12.2355  12.2356
    12.9131  12.9131  12.9827  12.9827  13.3293  13.3293  13.3853  13.3853
    15.8988  15.8988  15.9047  15.9047  16.8044  16.8044  16.8173  16.8174
    17.3339  17.3339  17.3663  17.3663  17.5463

          k = 0.3333 0.0000 0.3333 ( 62316 PWs)   bands (ev):

   -66.1513 -66.1509 -66.1508 -66.1508 -66.1504 -66.1504 -66.1503 -66.1499
   -30.5777 -30.5756 -30.5731 -30.5707 -30.5489 -30.5476 -30.5432 -30.5414
   -30.5227 -30.5210 -30.5162 -30.5155 -30.4942 -30.4919 -30.4897 -30.4875
   -30.4229 -30.4204 -30.4197 -30.4172 -30.3676 -30.3656 -30.3651 -30.3632
   -20.3046 -20.3045 -20.3045 -20.3044 -20.3044 -20.3043 -20.3042 -20.3041
   -20.2840 -20.2837 -20.2837 -20.2837 -20.2834 -20.2834 -20.2833 -20.2830
   -20.2786 -20.2784 -20.2783 -20.2782 -20.2780 -20.2780 -20.2779 -20.2776
   -20.2745 -20.2743 -20.2742 -20.2739 -20.2736 -20.2734 -20.2733 -20.2731
   -20.2718 -20.2712 -20.2708 -20.2705 -20.2704 -20.2698 -20.2695 -20.2691
   -20.2686 -20.2684 -20.2678 -20.2677 -20.2662 -20.2660 -20.2656 -20.2655
   -20.2578 -20.2576 -20.2570 -20.2568 -20.2568 -20.2567 -20.2560 -20.2559
    -9.6595  -9.4573  -9.4008  -9.3407  -9.2384  -9.1396  -8.9508  -8.9280
    -8.8702  -8.6479  -8.6291  -8.5997  -8.4240  -8.3411  -8.3317  -8.2992
    -8.2757  -8.2656  -8.2185  -8.1923  -7.5621  -7.5346  -7.5245  -7.4984
     1.7867   1.8004   1.8068   1.8782   1.9137   1.9188   2.0078   2.0986
     2.1552   2.2175   2.3155   2.4637   2.8406   2.9025   2.9707   3.0287
     3.0330   3.1266   3.6329   3.7011   3.7500   3.8383   3.9141   3.9995
     4.1522   4.1573   4.1903   4.2291   4.3013   4.3423   4.4057   4.5118
     4.5908   4.7015   4.7516   4.8350   4.8464   4.9178   5.0246   5.2013
     5.2568   5.3161   5.4604   5.6997   6.1801   6.1947   6.2314   6.2343
     6.5151   6.5341   6.5933   6.6875   6.7006   6.7853   6.8116   6.8406
     6.9711   6.9855   7.0244   7.0246   7.1133   7.1428   7.2312   7.2551
     7.3133   7.4424   7.6342   7.6395   7.9292   7.9595   8.0333   8.0485
    10.6470  10.7208  10.7725  10.8460  11.1587  11.2487  12.0449  12.0929
    12.2868  12.3490  12.3637  12.3833  12.5206  12.5214  12.6822  12.7571
    12.7598  12.8446  13.0902  13.2389  13.3889  13.4127  13.5206  13.6004
    14.4478  14.6611  14.6760  15.0211  15.9718  16.5568  16.5670  16.9262
    16.9512  17.3417  17.3944  17.8332  17.8791

          k = 0.3333 0.0000-0.5000 ( 62288 PWs)   bands (ev):

   -66.1510 -66.1510 -66.1506 -66.1506 -66.1505 -66.1505 -66.1501 -66.1501
   -30.5574 -30.5574 -30.5566 -30.5566 -30.5476 -30.5476 -30.5455 -30.5455
   -30.5350 -30.5350 -30.5342 -30.5342 -30.4924 -30.4924 -30.4901 -30.4901
   -30.4213 -30.4213 -30.4188 -30.4188 -30.3663 -30.3663 -30.3644 -30.3644
   -20.3045 -20.3045 -20.3044 -20.3044 -20.3044 -20.3043 -20.3043 -20.3042
   -20.2839 -20.2839 -20.2836 -20.2836 -20.2835 -20.2835 -20.2832 -20.2832
   -20.2785 -20.2785 -20.2782 -20.2782 -20.2781 -20.2781 -20.2778 -20.2777
   -20.2744 -20.2744 -20.2741 -20.2741 -20.2735 -20.2735 -20.2733 -20.2733
   -20.2710 -20.2710 -20.2706 -20.2706 -20.2694 -20.2694 -20.2691 -20.2691
   -20.2681 -20.2681 -20.2676 -20.2676 -20.2670 -20.2670 -20.2668 -20.2668
   -20.2574 -20.2574 -20.2573 -20.2572 -20.2564 -20.2564 -20.2563 -20.2563
    -9.4603  -9.4602  -9.2419  -9.2419  -9.0832  -9.0832  -8.8426  -8.8426
    -8.7533  -8.7533  -8.7135  -8.7134  -8.5580  -8.5580  -8.5478  -8.5478
    -8.2597  -8.2597  -8.2462  -8.2462  -7.5486  -7.5486  -7.5116  -7.5116
     1.8116   1.8116   1.8650   1.8650   2.1146   2.1146   2.1899   2.1900
     2.8768   2.8768   2.9493   2.9494   2.9962   2.9962   3.0283   3.0283
     3.1279   3.1279   3.4050   3.4050   3.5568   3.5569   3.7531   3.7531
     3.7633   3.7633   4.0115   4.0115   4.1335   4.1335   4.2183   4.2183
     4.5140   4.5140   4.7579   4.7580   4.8183   4.8183   4.9438   4.9439
     5.0941   5.0941   5.5380   5.5380   6.2153   6.2153   6.2466   6.2466
     6.5754   6.5754   6.5794   6.5795   6.7152   6.7152   6.8111   6.8111
     7.0187   7.0188   7.1309   7.1309   7.2338   7.2338   7.4436   7.4436
     7.4733   7.4733   7.7035   7.7035   7.7576   7.7577   7.9668   7.9668
    10.7133  10.7133  11.5533  11.5533  11.6178  11.6178  11.7728  11.7728
[...]
   -20.4196 -20.4196 -20.4189 -20.4189 -20.4180 -20.4180 -20.4171 -20.4171
   -20.4167 -20.4167 -20.4164 -20.4164 -20.4160 -20.4160 -20.4153 -20.4153
   -20.4149 -20.4149 -20.4141 -20.4141 -20.4109 -20.4109 -20.4108 -20.4108
   -20.4027 -20.4026 -20.4025 -20.4025 -20.4015 -20.4014 -20.4013 -20.4013
    -9.5834  -9.5834  -9.4209  -9.4209  -9.0898  -9.0898  -8.8535  -8.8535
    -8.7051  -8.7051  -8.6374  -8.6374  -8.5855  -8.5854  -8.5526  -8.5526
    -8.2267  -8.2266  -8.1989  -8.1989  -7.9580  -7.9580  -7.9383  -7.9383
     1.4451   1.4451   1.4523   1.4523   2.2015   2.2015   2.2893   2.2893
     2.9295   2.9295   2.9615   2.9615   2.9946   2.9946   3.1059   3.1059
     3.1494   3.1495   3.4042   3.4042   3.4786   3.4786   3.6386   3.6386
     3.7632   3.7632   3.8636   3.8636   4.1426   4.1426   4.3065   4.3065
     4.5890   4.5891   4.7202   4.7202   4.8528   4.8529   4.9115   4.9115
     4.9949   4.9949   5.3686   5.3686   5.6734   5.6734   5.7816   5.7816
     6.5181   6.5181   6.6249   6.6249   6.6765   6.6765   6.7300   6.7300
     6.9418   6.9418   7.0114   7.0114   7.0784   7.0784   7.3935   7.3935
     7.4167   7.4167   7.5015   7.5015   7.5204   7.5204   7.7949   7.7950
    10.5846  10.5846  11.2121  11.2121  11.2783  11.2783  11.5215  11.5215
    11.7475  11.7475  12.0323  12.0323  12.5128  12.5128  12.5511  12.5511
    12.7595  12.7595  12.8662  12.8662  12.9246  12.9246  13.4024  13.4024
    15.3079  15.3079  15.6537  15.6537  16.2573  16.2573  16.5194  16.5194
    16.6991  16.6991  17.2832  17.2833  17.7347

          k = 0.3292 0.4832 0.1639 ( 62730 PWs)   bands (ev):

   -66.2874 -66.2874 -66.2869 -66.2869 -66.2867 -66.2867 -66.2863 -66.2863
   -30.6459 -30.6458 -30.6436 -30.6435 -30.6347 -30.6346 -30.6311 -30.6310
   -30.6159 -30.6158 -30.6139 -30.6138 -30.6044 -30.6043 -30.5935 -30.5935
   -30.5786 -30.5786 -30.5681 -30.5681 -30.5576 -30.5576 -30.5511 -30.5511
   -20.4532 -20.4532 -20.4531 -20.4531 -20.4527 -20.4527 -20.4526 -20.4526
   -20.4323 -20.4323 -20.4320 -20.4320 -20.4317 -20.4317 -20.4315 -20.4315
   -20.4254 -20.4254 -20.4251 -20.4251 -20.4250 -20.4250 -20.4247 -20.4247
   -20.4190 -20.4189 -20.4187 -20.4187 -20.4184 -20.4183 -20.4179 -20.4177
   -20.4170 -20.4170 -20.4169 -20.4169 -20.4160 -20.4160 -20.4155 -20.4155
   -20.4143 -20.4142 -20.4138 -20.4137 -20.4111 -20.4111 -20.4106 -20.4106
   -20.4028 -20.4028 -20.4024 -20.4024 -20.4016 -20.4015 -20.4012 -20.4011
    -9.6070  -9.6069  -9.4050  -9.4048  -9.1268  -9.1268  -8.8977  -8.8977
    -8.6742  -8.6731  -8.5899  -8.5898  -8.5447  -8.5418  -8.5366  -8.5357
    -8.2585  -8.2584  -8.2100  -8.2089  -7.9687  -7.9682  -7.9284  -7.9283
     1.4404   1.4453   1.4478   1.4517   2.1621   2.1639   2.2788   2.2853
     2.8108   2.8211   2.9357   2.9421   3.0215   3.0423   3.0749   3.0789
     3.2172   3.2194   3.3619   3.3979   3.5288   3.5293   3.6904   3.6941
     3.7220   3.7758   3.8393   3.8498   4.1518   4.1602   4.4206   4.4255
     4.5460   4.5804   4.7335   4.7573   4.7879   4.8667   4.8843   4.8961
     5.0122   5.0400   5.2738   5.3223   5.6421   5.6544   5.8599   5.8637
     6.5122   6.5457   6.5616   6.5697   6.7098   6.7113   6.7681   6.7865
     6.9479   6.9890   7.0233   7.0700   7.1106   7.1173   7.3781   7.3792
     7.4153   7.4311   7.4592   7.4788   7.4874   7.4920   7.7301   7.7371
    10.5293  10.5359  11.1723  11.1854  11.2219  11.2263  11.6502  11.6667
    11.6786  11.6963  11.9134  11.9650  12.4821  12.5176  12.5533  12.5572
    12.6431  12.6536  12.9795  13.0228  13.0580  13.1061  13.2246  13.2700
    15.3636  15.3794  15.6725  15.6811  16.1771  16.1810  16.5206  16.5401
    16.7684  16.7917  17.3179  17.3516  17.7542

          k =-0.4938 0.4832 0.1639 ( 62688 PWs)   bands (ev):

   -66.2872 -66.2872 -66.2871 -66.2871 -66.2865 -66.2865 -66.2865 -66.2865
   -30.6447 -30.6447 -30.6446 -30.6446 -30.6227 -30.6227 -30.6214 -30.6214
   -30.6207 -30.6207 -30.6198 -30.6198 -30.5942 -30.5942 -30.5929 -30.5929
   -30.5844 -30.5844 -30.5823 -30.5823 -30.5555 -30.5555 -30.5551 -30.5551
   -20.4532 -20.4532 -20.4531 -20.4531 -20.4527 -20.4527 -20.4526 -20.4526
   -20.4321 -20.4321 -20.4321 -20.4321 -20.4316 -20.4316 -20.4316 -20.4316
   -20.4253 -20.4253 -20.4253 -20.4253 -20.4249 -20.4249 -20.4248 -20.4248
   -20.4188 -20.4188 -20.4185 -20.4185 -20.4179 -20.4179 -20.4172 -20.4172
   -20.4169 -20.4169 -20.4167 -20.4166 -20.4160 -20.4160 -20.4154 -20.4154
   -20.4150 -20.4150 -20.4146 -20.4146 -20.4109 -20.4109 -20.4109 -20.4109
   -20.4026 -20.4026 -20.4026 -20.4026 -20.4014 -20.4014 -20.4014 -20.4013
    -9.4880  -9.4880  -9.4805  -9.4805  -8.8552  -8.8552  -8.8255  -8.8255
    -8.7050  -8.7050  -8.6785  -8.6785  -8.5161  -8.5161  -8.4782  -8.4782
    -8.4659  -8.4659  -8.4316  -8.4315  -7.9492  -7.9492  -7.9491  -7.9491
     1.4490   1.4490   1.4551   1.4551   2.8310   2.8310   2.8972   2.8972
     2.9324   2.9324   2.9861   2.9861   3.0676   3.0676   3.1314   3.1314
     3.2612   3.2612   3.3299   3.3299   3.4310   3.4310   3.4632   3.4633
     3.4962   3.4962   3.8033   3.8034   4.1021   4.1021   4.1778   4.1778
     4.2363   4.2363   4.2877   4.2877   4.7387   4.7387   4.8311   4.8311
     5.0601   5.0602   5.1586   5.1586   5.6887   5.6887   5.7043   5.7043
     6.5963   6.5963   6.6581   6.6582   6.6658   6.6658   6.7174   6.7174
     7.1562   7.1562   7.2038   7.2039   7.2791   7.2791   7.3284   7.3284
     7.3967   7.3967   7.4830   7.4830   7.5196   7.5196   7.5682   7.5682
    11.1325  11.1325  11.1817  11.1817  11.2632  11.2632  11.3344  11.3344
    12.0397  12.0397  12.0975  12.0975  12.1654  12.1654  12.1980  12.1980
    12.7589  12.7589  12.8378  12.8378  13.0630  13.0630  13.1440  13.1440
    15.5514  15.5514  15.5685  15.5685  16.7007  16.7007  16.8290  16.8290
    17.3122  17.3122  17.3676  17.3676  17.4478

          k =-0.4938 0.0000 0.3278 ( 62654 PWs)   bands (ev):

   -66.2873 -66.2873 -66.2870 -66.2869 -66.2867 -66.2867 -66.2864 -66.2863
   -30.6563 -30.6563 -30.6524 -30.6524 -30.6297 -30.6296 -30.6230 -30.6230
   -30.6066 -30.6066 -30.6051 -30.6051 -30.6009 -30.6009 -30.5923 -30.5923
   -30.5897 -30.5897 -30.5698 -30.5697 -30.5598 -30.5598 -30.5526 -30.5526
   -20.4532 -20.4531 -20.4530 -20.4529 -20.4529 -20.4529 -20.4527 -20.4527
   -20.4322 -20.4322 -20.4319 -20.4319 -20.4318 -20.4318 -20.4315 -20.4315
   -20.4254 -20.4254 -20.4252 -20.4252 -20.4251 -20.4251 -20.4248 -20.4247
   -20.4207 -20.4207 -20.4204 -20.4204 -20.4170 -20.4170 -20.4170 -20.4170
   -20.4166 -20.4165 -20.4160 -20.4160 -20.4157 -20.4157 -20.4147 -20.4147
   -20.4142 -20.4142 -20.4128 -20.4127 -20.4119 -20.4118 -20.4115 -20.4115
   -20.4025 -20.4025 -20.4022 -20.4022 -20.4018 -20.4018 -20.4015 -20.4015
    -9.6038  -9.6038  -9.4076  -9.4076  -9.1522  -9.1522  -8.8924  -8.8924
    -8.7027  -8.7027  -8.6308  -8.6307  -8.5912  -8.5911  -8.5680  -8.5680
    -8.2538  -8.2538  -8.2352  -8.2352  -7.8383  -7.8383  -7.8172  -7.8171
     1.3177   1.3177   1.3392   1.3392   2.1422   2.1422   2.2052   2.2052
     2.8363   2.8363   2.9399   2.9399   2.9511   2.9511   3.1048   3.1048
     3.1521   3.1521   3.4363   3.4363   3.5401   3.5401   3.6966   3.6966
     3.7449   3.7449   3.8702   3.8702   4.1012   4.1012   4.3173   4.3173
     4.5656   4.5656   4.7896   4.7896   4.9088   4.9089   4.9817   4.9817
     5.2592   5.2592   5.4991   5.4992   5.9670   5.9670   6.0548   6.0548
     6.2982   6.2982   6.3504   6.3504   6.4577   6.4577   6.4700   6.4700
     6.9913   6.9913   7.0812   7.0812   7.1384   7.1385   7.3785   7.3785
     7.4353   7.4354   7.5218   7.5218   7.5359   7.5359   7.8876   7.8876
    10.6059  10.6059  11.2227  11.2227  11.2516  11.2516  11.5530  11.5530
    11.6789  11.6789  12.0841  12.0841  12.4411  12.4411  12.5319  12.5319
    12.7663  12.7663  13.0917  13.0917  13.1191  13.1191  13.4764  13.4764
    14.8548  14.8548  15.1960  15.1960  16.1713  16.1713  16.5113  16.5113
    16.8114  16.8114  17.2780  17.2780  17.9009

          k =-0.4938-0.1611 0.3278 ( 62684 PWs)   bands (ev):

   -66.2873 -66.2873 -66.2869 -66.2869 -66.2868 -66.2868 -66.2864 -66.2864
   -30.6523 -30.6523 -30.6480 -30.6480 -30.6296 -30.6296 -30.6230 -30.6230
   -30.6079 -30.6079 -30.6062 -30.6061 -30.6007 -30.6007 -30.5933 -30.5933
   -30.5891 -30.5891 -30.5696 -30.5696 -30.5634 -30.5634 -30.5554 -30.5554
   -20.4531 -20.4531 -20.4530 -20.4530 -20.4529 -20.4528 -20.4527 -20.4527
   -20.4322 -20.4322 -20.4319 -20.4319 -20.4319 -20.4319 -20.4316 -20.4315
   -20.4254 -20.4254 -20.4252 -20.4251 -20.4251 -20.4251 -20.4248 -20.4248
   -20.4203 -20.4203 -20.4200 -20.4200 -20.4171 -20.4171 -20.4170 -20.4170
   -20.4165 -20.4165 -20.4161 -20.4161 -20.4158 -20.4157 -20.4147 -20.4147
   -20.4144 -20.4144 -20.4131 -20.4130 -20.4119 -20.4119 -20.4116 -20.4116
   -20.4025 -20.4024 -20.4023 -20.4022 -20.4018 -20.4018 -20.4015 -20.4015
    -9.5482  -9.5482  -9.3340  -9.3339  -9.1631  -9.1631  -8.8672  -8.8671
    -8.7141  -8.7140  -8.6240  -8.6240  -8.5883  -8.5882  -8.5678  -8.5677
    -8.2515  -8.2514  -8.2398  -8.2398  -7.9467  -7.9466  -7.9260  -7.9259
     1.5503   1.5503   1.5809   1.5809   2.1425   2.1425   2.2115   2.2115
     2.9034   2.9034   2.9543   2.9543   2.9737   2.9737   3.1145   3.1145
     3.1610   3.1610   3.4717   3.4717   3.5844   3.5845   3.6969   3.6969
     3.7491   3.7491   3.9261   3.9262   4.0631   4.0631   4.3197   4.3198
     4.4367   4.4367   4.6297   4.6298   4.8348   4.8348   4.8993   4.8993
     4.9888   4.9888   5.2385   5.2385   5.6930   5.6930   5.8181   5.8182
     6.4851   6.4852   6.5036   6.5036   6.5801   6.5801   6.6929   6.6929
     7.0069   7.0069   7.0817   7.0817   7.1474   7.1474   7.3849   7.3849
     7.4310   7.4310   7.5187   7.5187   7.5374   7.5374   7.8407   7.8408
    10.7046  10.7046  11.2864  11.2864  11.3332  11.3332  11.5584  11.5584
    11.7002  11.7002  12.1219  12.1219  12.4357  12.4357  12.5367  12.5367
    12.6096  12.6096  12.9688  12.9688  12.9937  12.9937  13.3506  13.3506
    15.1981  15.1981  15.5535  15.5535  16.2460  16.2461  16.5159  16.5159
    16.8226  16.8226  17.3121  17.3121  17.7468

          k =-0.4938-0.3221 0.3278 ( 62704 PWs)   bands (ev):

   -66.2872 -66.2872 -66.2869 -66.2869 -66.2868 -66.2868 -66.2865 -66.2865
   -30.6421 -30.6421 -30.6364 -30.6363 -30.6299 -30.6299 -30.6225 -30.6225
   -30.6123 -30.6123 -30.6108 -30.6107 -30.6000 -30.6000 -30.5960 -30.5960
   -30.5866 -30.5866 -30.5724 -30.5724 -30.5685 -30.5685 -30.5613 -30.5613
   -20.4531 -20.4531 -20.4530 -20.4530 -20.4528 -20.4528 -20.4527 -20.4527
   -20.4321 -20.4321 -20.4320 -20.4319 -20.4318 -20.4318 -20.4316 -20.4316
   -20.4253 -20.4253 -20.4251 -20.4251 -20.4251 -20.4251 -20.4248 -20.4248
   -20.4194 -20.4194 -20.4190 -20.4190 -20.4174 -20.4174 -20.4170 -20.4170
   -20.4166 -20.4166 -20.4162 -20.4162 -20.4159 -20.4159 -20.4152 -20.4151
   -20.4145 -20.4145 -20.4137 -20.4137 -20.4119 -20.4119 -20.4118 -20.4118
   -20.4024 -20.4024 -20.4023 -20.4023 -20.4017 -20.4017 -20.4016 -20.4016
    -9.4133  -9.4133  -9.2012  -9.2011  -9.1341  -9.1341  -8.7833  -8.7833
    -8.7535  -8.7535  -8.6127  -8.6126  -8.5712  -8.5711  -8.5573  -8.5573
    -8.2761  -8.2761  -8.2452  -8.2452  -8.2100  -8.2100  -8.1625  -8.1625
     2.0439   2.0439   2.1424   2.1424   2.2158   2.2158   2.3541   2.3541
     2.9633   2.9633   2.9862   2.9862   3.0937   3.0938   3.1357   3.1357
     3.2329   3.2330   3.5556   3.5556   3.6229   3.6229   3.7018   3.7018
     3.7547   3.7547   3.9245   3.9245   4.0683   4.0683   4.1101   4.1101
     4.2328   4.2328   4.4069   4.4069   4.5152   4.5152   4.7080   4.7080
     4.7826   4.7826   4.8830   4.8831   4.9461   4.9461   5.2623   5.2623
     6.7759   6.7759   6.8452   6.8453   6.9146   6.9146   6.9288   6.9288
     7.0395   7.0395   7.1074   7.1074   7.1931   7.1931   7.3832   7.3832
     7.4168   7.4168   7.4950   7.4951   7.5117   7.5118   7.6993   7.6993
    11.0198  11.0198  11.4171  11.4171  11.5259  11.5259  11.6044  11.6044
    11.8219  11.8219  12.1804  12.1804  12.2550  12.2550  12.4024  12.4024
    12.5547  12.5547  12.6400  12.6400  12.6796  12.6796  13.0429  13.0429
    15.9709  15.9709  16.3635  16.3635  16.4827  16.4827  16.5923  16.5923
    16.8819  16.8820  17.3530  17.3531  17.4634

          k =-0.4938 0.4832 0.3278 ( 62680 PWs)   bands (ev):

   -66.2870 -66.2870 -66.2870 -66.2870 -66.2867 -66.2867 -66.2866 -66.2866
   -30.6328 -30.6328 -30.6327 -30.6327 -30.6228 -30.6228 -30.6210 -30.6210
   -30.6196 -30.6196 -30.6183 -30.6183 -30.5990 -30.5990 -30.5981 -30.5981
   -30.5821 -30.5821 -30.5802 -30.5802 -30.5666 -30.5666 -30.5657 -30.5657
   -20.4531 -20.4530 -20.4530 -20.4530 -20.4528 -20.4528 -20.4527 -20.4527
   -20.4320 -20.4320 -20.4320 -20.4320 -20.4317 -20.4317 -20.4317 -20.4317
   -20.4252 -20.4252 -20.4252 -20.4252 -20.4250 -20.4249 -20.4249 -20.4249
   -20.4185 -20.4185 -20.4182 -20.4182 -20.4179 -20.4179 -20.4174 -20.4174
   -20.4166 -20.4166 -20.4162 -20.4162 -20.4160 -20.4160 -20.4155 -20.4155
   -20.4144 -20.4144 -20.4142 -20.4142 -20.4119 -20.4119 -20.4119 -20.4119
   -20.4024 -20.4024 -20.4024 -20.4023 -20.4017 -20.4017 -20.4016 -20.4016
    -9.2861  -9.2860  -9.2749  -9.2749  -8.9106  -8.9106  -8.8825  -8.8825
    -8.6548  -8.6548  -8.6291  -8.6291  -8.5103  -8.5103  -8.4855  -8.4855
    -8.4573  -8.4573  -8.4390  -8.4389  -8.2320  -8.2320  -8.2309  -8.2309
     2.1282   2.1282   2.1423   2.1423   2.8568   2.8568   2.8931   2.8931
     2.9684   2.9684   3.0292   3.0292   3.0568   3.0568   3.1116   3.1116
     3.3338   3.3338   3.3781   3.3782   3.5185   3.5185   3.5834   3.5834
     3.7191   3.7191   3.8977   3.8977   4.0899   4.0899   4.1145   4.1145
     4.1758   4.1758   4.2241   4.2241   4.3437   4.3437   4.4235   4.4236
     4.5832   4.5833   4.6843   4.6843   4.9157   4.9157   4.9326   4.9326
     6.8734   6.8734   6.9855   6.9855   6.9903   6.9903   7.0263   7.0263
     7.1392   7.1392   7.2327   7.2327   7.2815   7.2815   7.3394   7.3394
     7.3855   7.3856   7.4657   7.4657   7.4911   7.4911   7.5515   7.5515
    11.4115  11.4115  11.4709  11.4710  11.5148  11.5148  11.6389  11.6389
    12.0409  12.0409  12.1008  12.1008  12.1323  12.1323  12.2367  12.2367
    12.3894  12.3895  12.5468  12.5468  12.6694  12.6695  12.7652  12.7652
    16.3652  16.3652  16.4091  16.4091  16.8829  16.8829  17.0008  17.0008
    17.2663  17.2663  17.3839  17.3840  17.4423

     the Fermi energy is     8.9142 ev

!    total energy              =   -6261.11169783 Ry
     Harris-Foulkes estimate   =   -6261.11169783 Ry
     estimated scf accuracy    <          9.0E-11 Ry

     The total energy is the sum of the following terms:

     one-electron contribution =   -4745.00787433 Ry
     hartree contribution      =    2607.66926558 Ry
     xc contribution           =    -965.66754901 Ry
     ewald contribution        =   -3158.10554008 Ry
     smearing contrib. (-TS)   =      -0.00000000 Ry

     convergence has been achieved in  14 iterations

     Forces acting on atoms (cartesian axes, Ry/au):

     atom    1 type  1   force =    -0.00204394    0.00599521    0.00266281
     atom    2 type  1   force =     0.00204394   -0.00599521   -0.00266281
     atom    3 type  1   force =     0.00204394   -0.00599521    0.00266281
     atom    4 type  1   force =    -0.00204394    0.00599521   -0.00266281
     atom    5 type  1   force =     0.00204394    0.00599521   -0.00266281
     atom    6 type  1   force =    -0.00204394   -0.00599521    0.00266281
     atom    7 type  1   force =    -0.00204394   -0.00599521   -0.00266281
     atom    8 type  1   force =     0.00204394    0.00599521    0.00266281
     atom    9 type  2   force =     0.00043006   -0.00340683   -0.00067233
     atom   10 type  2   force =    -0.00043006    0.00340683    0.00067233
     atom   11 type  2   force =    -0.00043006    0.00340683   -0.00067233
     atom   12 type  2   force =     0.00043006   -0.00340683    0.00067233
     atom   13 type  2   force =    -0.00043006   -0.00340683    0.00067233
     atom   14 type  2   force =     0.00043006    0.00340683   -0.00067233
     atom   15 type  2   force =     0.00043006    0.00340683    0.00067233
     atom   16 type  2   force =    -0.00043006   -0.00340683   -0.00067233
     atom   17 type  2   force =    -0.00126295   -0.00063518    0.00073980
     atom   18 type  2   force =     0.00126295    0.00063518   -0.00073980
     atom   19 type  2   force =     0.00126295    0.00063518    0.00073980
     atom   20 type  2   force =    -0.00126295   -0.00063518   -0.00073980
     atom   21 type  2   force =     0.00126295   -0.00063518   -0.00073980
     atom   22 type  2   force =    -0.00126295    0.00063518    0.00073980
     atom   23 type  2   force =    -0.00126295    0.00063518   -0.00073980
     atom   24 type  2   force =     0.00126295   -0.00063518    0.00073980
     atom   25 type  2   force =    -0.00250597    0.00192807    0.00272836
     atom   26 type  2   force =     0.00250597   -0.00192807   -0.00272836
     atom   27 type  2   force =     0.00250597   -0.00192807    0.00272836
     atom   28 type  2   force =    -0.00250597    0.00192807   -0.00272836
     atom   29 type  2   force =     0.00250597    0.00192807   -0.00272836
     atom   30 type  2   force =    -0.00250597   -0.00192807    0.00272836
     atom   31 type  2   force =    -0.00250597   -0.00192807   -0.00272836
     atom   32 type  2   force =     0.00250597    0.00192807    0.00272836

     Total force =     0.000000     Total SCF correction =     0.000000


     Computing stress (Cartesian axis) and pressure

          total   stress  (Ry/bohr**3)                   (kbar)     P=    0.56
   0.00000536   0.00000000   0.00000000          0.79      0.00      0.00
   0.00000000  -0.00000119   0.00000000          0.00     -0.18      0.00
   0.00000000   0.00000000   0.00000731          0.00      0.00      1.08


     Writing output data file Landau_33.save
 
     init_run     :     65.84s CPU     68.96s WALL (       2 calls)
     electrons    :   7536.85s CPU   7768.43s WALL (       7 calls)
     update_pot   :    103.20s CPU    103.62s WALL (       5 calls)
     forces       :    146.65s CPU    149.45s WALL (       7 calls)
     stress       :   1184.24s CPU   1203.91s WALL (       7 calls)

     Called by init_run:
     wfcinit      :     47.93s CPU     50.73s WALL (       2 calls)
     potinit      :      7.64s CPU      7.71s WALL (       2 calls)

     Called by electrons:
     c_bands      :   6652.28s CPU   6872.37s WALL (      90 calls)
     sum_band     :    835.29s CPU    842.07s WALL (      90 calls)
     v_of_rho     :      7.93s CPU      8.13s WALL (      95 calls)
     mix_rho      :     13.16s CPU     16.74s WALL (      90 calls)

     Called by c_bands:
     init_us_2    :     53.02s CPU     57.32s WALL (     392 calls)
     cegterg      :   5581.89s CPU   5791.67s WALL (     180 calls)

     Called by sum_band:

     Called by *egterg:
     h_psi        :   4358.09s CPU   4382.19s WALL (     744 calls)
     g_psi        :     10.25s CPU     10.32s WALL (     560 calls)
     cdiaghg      :     79.77s CPU     80.07s WALL (     726 calls)

     Called by h_psi:
     h_psi:pot    :   4328.65s CPU   4351.67s WALL (     744 calls)
     h_psi:calbec :    429.23s CPU    438.91s WALL (     744 calls)
     vloc_psi     :   3418.36s CPU   3429.23s WALL (     744 calls)
     add_vuspsi   :    481.06s CPU    483.53s WALL (     744 calls)

     General routines
     calbec       :    494.28s CPU    504.15s WALL (     814 calls)
     fft          :      6.48s CPU      6.52s WALL (     438 calls)
     fftw         :   3546.25s CPU   3556.30s WALL (  234866 calls)
 
     Parallel routines
 
     PWSCF        :     2h30m CPU        2h35m WALL

 
   This run was terminated on:  21:58:47  12Mar2020            

=------------------------------------------------------------------------------=
   JOB DONE.
=------------------------------------------------------------------------------=
