
     Program PWSCF v.6.2 (svn rev. 14038) starts on 23Mar2020 at  3:54:39 

     This program is part of the open-source Quantum ESPRESSO suite
     for quantum simulation of materials; please cite
         "P. Giannozzi et al., J. Phys.:Condens. Matter 21 395502 (2009);
         "P. Giannozzi et al., J. Phys.:Condens. Matter 29 465901 (2017);
          URL http://www.quantum-espresso.org", 
     in publications or presentations arising from this work. More details at
     http://www.quantum-espresso.org/quote

     Parallel version (MPI), running on    40 processors

     MPI processes distributed on     5 nodes
     K-points division:     npool     =      40
     Reading input from rscf.in

     Current dimensions of program PWSCF are:
     Max number of different atomic species (ntypx) = 10
     Max number of k-points (npk) =  40000
     Max angular momentum in pseudopotentials (lmaxx) =  3

     Subspace diagonalization in iterative solution of the eigenvalue problem:
     a serial algorithm will be used

 
     G-vector sticks info
     --------------------
     sticks:   dense  smooth     PW     G-vecs:    dense   smooth      PW
     Sum        7747    7747   2077               498127   498127   69057
 


     bravais-lattice index     =            0
     lattice parameter (alat)  =      13.8397  a.u.
     unit-cell volume          =    2804.9816 (a.u.)^3
     number of atoms/cell      =           32
     number of atomic types    =            2
     number of electrons       =       368.00
     number of Kohn-Sham states=          221
     kinetic-energy cutoff     =     120.0000  Ry
     charge density cutoff     =     480.0000  Ry
     convergence threshold     =      1.0E-08
     mixing beta               =       0.7000
     number of iterations used =            8  plain     mixing
     Exchange-correlation      = SLA PW NOGX NOGC ( 1  4  0  0 0 0)
     nstep                     =           50


     celldm(1)=  13.839685  celldm(2)=   0.000000  celldm(3)=   0.000000
     celldm(4)=   0.000000  celldm(5)=   0.000000  celldm(6)=   0.000000

     crystal axes: (cart. coord. in units of alat)
               a(1) = (   1.000000   0.000000   0.000000 )  
               a(2) = (   0.000000   1.058160   0.000000 )  
               a(3) = (   0.000000   0.000000   1.000000 )  

     reciprocal axes: (cart. coord. in units 2 pi/alat)
               b(1) = (  1.000000  0.000000  0.000000 )  
               b(2) = (  0.000000  0.945037  0.000000 )  
               b(3) = (  0.000000  0.000000  1.000000 )  


     PseudoPot. # 1 for W  read from file:
     /cluster/scratch/mnoe/QE/pps/W_ONCV_LDA-4.0.upf
     MD5 check sum: ba0307d5d4cd419d6f1d13dc49d7c13a
     Pseudo is Norm-conserving + core correction, Zval = 28.0
     Generated using ONCVPSP code by D. R. Hamann
     Using radial grid of 1380 points,  8 beta functions with: 
                l(1) =   0
                l(2) =   0
                l(3) =   1
                l(4) =   1
                l(5) =   2
                l(6) =   2
                l(7) =   3
                l(8) =   3

     PseudoPot. # 2 for O  read from file:
     /cluster/scratch/mnoe/QE/pps/O_ONCV_LDA-3.0.upf
     MD5 check sum: a1bd6164e7280c17a38c229939bfbd54
     Pseudo is Norm-conserving + core correction, Zval =  6.0
     Generated using ONCVPSP code by D. R. Hamann
     Using radial grid of  926 points,  5 beta functions with: 
                l(1) =   0
                l(2) =   0
                l(3) =   1
                l(4) =   1
                l(5) =   2

     atomic species   valence    mass     pseudopotential
        W             28.00   183.84000     W ( 1.00)
        O              6.00    15.99940     O ( 1.00)

      8 Sym. Ops. (no inversion) found ( 7 have fractional translation)



   Cartesian axes

     site n.     atom                  positions (alat units)
         1           W   tau(   1) = (   0.2230225   0.2966685  -0.0007725  )
         2           W   tau(   2) = (   0.7507725   0.7614916  -0.0269775  )
         3           W   tau(   3) = (   0.2769775   0.2324115   0.4992275  )
         4           W   tau(   4) = (   0.7492275   0.8257485   0.4730225  )
         5           W   tau(   5) = (   0.7769775   0.2966685   0.5007725  )
         6           W   tau(   6) = (   0.2492275   0.7614916   0.5269775  )
         7           W   tau(   7) = (   0.7230225   0.2324115   0.0007725  )
         8           W   tau(   8) = (   0.2507725   0.8257485   0.0269775  )
         9           O   tau(   9) = (   0.2203300   0.0083722  -0.0215250  )
        10           O   tau(  10) = (   0.7715250  -0.0083722  -0.0296700  )
        11           O   tau(  11) = (   0.2796700   0.5207078   0.4784750  )
        12           O   tau(  12) = (   0.7284750   0.5374523   0.4703300  )
        13           O   tau(  13) = (   0.7796700   0.0083722   0.5215250  )
        14           O   tau(  14) = (   0.2284750  -0.0083722   0.5296700  )
        15           O   tau(  15) = (   0.7203300   0.5207078   0.0215250  )
        16           O   tau(  16) = (   0.2715250   0.5374523   0.0296700  )
        17           O   tau(  17) = (   0.5095475   0.2306921   0.4532014  )
        18           O   tau(  18) = (   0.5019575   0.8153415   0.5467986  )
        19           O   tau(  19) = (  -0.0095475   0.2983879   0.9532015  )
        20           O   tau(  20) = (  -0.0019575   0.7718987   0.0467986  )
        21           O   tau(  21) = (   0.4904525   0.2306921   0.0467986  )
        22           O   tau(  22) = (   0.4980425   0.8153415   0.9532015  )
        23           O   tau(  23) = (   0.0095475   0.2983879   0.5467986  )
        24           O   tau(  24) = (   0.0019575   0.7718987   0.4532014  )
        25           O   tau(  25) = (   0.7032015   0.2862614   0.7480425  )
        26           O   tau(  26) = (   0.2967986   0.8274680   0.2595475  )
        27           O   tau(  27) = (   0.7967986   0.2428186   0.2480426  )
        28           O   tau(  28) = (   0.2032014   0.7597722   0.7595475  )
        29           O   tau(  29) = (   0.2967986   0.2862614   0.7519575  )
        30           O   tau(  30) = (   0.7032015   0.8274680   0.2404526  )
        31           O   tau(  31) = (   0.2032014   0.2428186   0.2519575  )
        32           O   tau(  32) = (   0.7967986   0.7597722   0.7404525  )

     number of k points=    40  gaussian smearing, width (Ry)=  0.0007
                       cart. coord. in units 2pi/alat
        k(    1) = (   0.0000000   0.0000000   0.0000000), wk =   0.0092593
        k(    2) = (   0.0000000   0.0000000   0.1666667), wk =   0.0370370
        k(    3) = (   0.0000000   0.0000000   0.3333333), wk =   0.0370370
        k(    4) = (   0.0000000   0.0000000  -0.5000000), wk =   0.0185185
        k(    5) = (   0.0000000   0.1575061   0.0000000), wk =   0.0185185
        k(    6) = (   0.0000000   0.1575061   0.1666667), wk =   0.0740741
        k(    7) = (   0.0000000   0.1575061   0.3333333), wk =   0.0740741
        k(    8) = (   0.0000000   0.1575061  -0.5000000), wk =   0.0370370
        k(    9) = (   0.0000000   0.3150122   0.0000000), wk =   0.0185185
        k(   10) = (   0.0000000   0.3150122   0.1666667), wk =   0.0740741
        k(   11) = (   0.0000000   0.3150122   0.3333333), wk =   0.0740741
        k(   12) = (   0.0000000   0.3150122  -0.5000000), wk =   0.0370370
        k(   13) = (   0.0000000  -0.4725183   0.0000000), wk =   0.0092593
        k(   14) = (   0.0000000  -0.4725183   0.1666667), wk =   0.0370370
        k(   15) = (   0.0000000  -0.4725183   0.3333333), wk =   0.0370370
        k(   16) = (   0.0000000  -0.4725183  -0.5000000), wk =   0.0185185
        k(   17) = (   0.1666667   0.0000000   0.1666667), wk =   0.0370370
        k(   18) = (   0.1666667   0.0000000   0.3333333), wk =   0.0740741
        k(   19) = (   0.1666667   0.0000000  -0.5000000), wk =   0.0370370
        k(   20) = (   0.1666667   0.1575061   0.1666667), wk =   0.0740741
        k(   21) = (   0.1666667   0.1575061   0.3333333), wk =   0.1481481
        k(   22) = (   0.1666667   0.1575061  -0.5000000), wk =   0.0740741
        k(   23) = (   0.1666667   0.3150122   0.1666667), wk =   0.0740741
        k(   24) = (   0.1666667   0.3150122   0.3333333), wk =   0.1481481
        k(   25) = (   0.1666667   0.3150122  -0.5000000), wk =   0.0740741
        k(   26) = (   0.1666667  -0.4725183   0.1666667), wk =   0.0370370
        k(   27) = (   0.1666667  -0.4725183   0.3333333), wk =   0.0740741
        k(   28) = (   0.1666667  -0.4725183  -0.5000000), wk =   0.0370370
        k(   29) = (   0.3333333   0.0000000   0.3333333), wk =   0.0370370
        k(   30) = (   0.3333333   0.0000000  -0.5000000), wk =   0.0370370
        k(   31) = (   0.3333333   0.1575061   0.3333333), wk =   0.0740741
        k(   32) = (   0.3333333   0.1575061  -0.5000000), wk =   0.0740741
        k(   33) = (   0.3333333   0.3150122   0.3333333), wk =   0.0740741
        k(   34) = (   0.3333333   0.3150122  -0.5000000), wk =   0.0740741
        k(   35) = (   0.3333333  -0.4725183   0.3333333), wk =   0.0370370
        k(   36) = (   0.3333333  -0.4725183  -0.5000000), wk =   0.0370370
        k(   37) = (  -0.5000000   0.0000000  -0.5000000), wk =   0.0092593
        k(   38) = (  -0.5000000   0.1575061  -0.5000000), wk =   0.0185185
        k(   39) = (  -0.5000000   0.3150122  -0.5000000), wk =   0.0185185
        k(   40) = (  -0.5000000  -0.4725183  -0.5000000), wk =   0.0092593

     Dense  grid:   498127 G-vectors     FFT dimensions: ( 100, 108, 100)

     Estimated max dynamical RAM per process >       2.74 GB

     Estimated total dynamical RAM >     109.40 GB

     Initial potential from superposition of free atoms

     starting charge  367.99656, renormalised to  368.00000
     Starting wfc are  232 randomized atomic wfcs

     total cpu time spent up to now is       49.5 secs

     Self-consistent Calculation

     iteration #  1     ecut=   120.00 Ry     beta= 0.70
     Davidson diagonalization with overlap
     ethr =  1.00E-02,  avg # of iterations =  4.9

     total cpu time spent up to now is      148.6 secs

     total energy              =   -6253.86546195 Ry
     Harris-Foulkes estimate   =   -6264.50447335 Ry
     estimated scf accuracy    <      13.45972361 Ry

     iteration #  2     ecut=   120.00 Ry     beta= 0.70
     Davidson diagonalization with overlap
     ethr =  3.66E-03,  avg # of iterations =  3.5

     total cpu time spent up to now is      246.3 secs

     total energy              =   -6250.13423287 Ry
     Harris-Foulkes estimate   =   -6271.10037368 Ry
     estimated scf accuracy    <      57.41752471 Ry

     iteration #  3     ecut=   120.00 Ry     beta= 0.70
     Davidson diagonalization with overlap
     ethr =  3.66E-03,  avg # of iterations =  3.4

     total cpu time spent up to now is      341.5 secs

     total energy              =   -6261.00131115 Ry
     Harris-Foulkes estimate   =   -6261.40985596 Ry
     estimated scf accuracy    <       1.30994353 Ry

     iteration #  4     ecut=   120.00 Ry     beta= 0.70
     Davidson diagonalization with overlap
     ethr =  3.56E-04,  avg # of iterations =  2.1

     total cpu time spent up to now is      418.3 secs

     total energy              =   -6261.04662610 Ry
     Harris-Foulkes estimate   =   -6261.14232482 Ry
     estimated scf accuracy    <       0.33989360 Ry

     iteration #  5     ecut=   120.00 Ry     beta= 0.70
     Davidson diagonalization with overlap
     ethr =  9.24E-05,  avg # of iterations =  4.8

     total cpu time spent up to now is      499.0 secs

     total energy              =   -6261.02826841 Ry
     Harris-Foulkes estimate   =   -6261.07653092 Ry
     estimated scf accuracy    <       0.10489631 Ry

     iteration #  6     ecut=   120.00 Ry     beta= 0.70
     Davidson diagonalization with overlap
     ethr =  2.85E-05,  avg # of iterations =  5.3

     total cpu time spent up to now is      584.6 secs

     total energy              =   -6261.05192361 Ry
     Harris-Foulkes estimate   =   -6261.05371424 Ry
     estimated scf accuracy    <       0.00554488 Ry

     iteration #  7     ecut=   120.00 Ry     beta= 0.70
     Davidson diagonalization with overlap
     ethr =  1.51E-06,  avg # of iterations =  3.7

     total cpu time spent up to now is      663.0 secs

     total energy              =   -6261.05239436 Ry
     Harris-Foulkes estimate   =   -6261.05258938 Ry
     estimated scf accuracy    <       0.00055073 Ry

     iteration #  8     ecut=   120.00 Ry     beta= 0.70
     Davidson diagonalization with overlap
     ethr =  1.50E-07,  avg # of iterations =  3.0

     total cpu time spent up to now is      742.0 secs

     total energy              =   -6261.05245568 Ry
     Harris-Foulkes estimate   =   -6261.05249242 Ry
     estimated scf accuracy    <       0.00008321 Ry

     iteration #  9     ecut=   120.00 Ry     beta= 0.70
     Davidson diagonalization with overlap
     ethr =  2.26E-08,  avg # of iterations =  3.1

     total cpu time spent up to now is      826.3 secs

     total energy              =   -6261.05247438 Ry
     Harris-Foulkes estimate   =   -6261.05247797 Ry
     estimated scf accuracy    <       0.00000873 Ry

     iteration # 10     ecut=   120.00 Ry     beta= 0.70
     Davidson diagonalization with overlap
     ethr =  2.37E-09,  avg # of iterations =  2.0

     total cpu time spent up to now is      911.7 secs

     total energy              =   -6261.05247555 Ry
     Harris-Foulkes estimate   =   -6261.05247618 Ry
     estimated scf accuracy    <       0.00000144 Ry

     iteration # 11     ecut=   120.00 Ry     beta= 0.70
     Davidson diagonalization with overlap
     ethr =  3.92E-10,  avg # of iterations =  2.1

     total cpu time spent up to now is      991.8 secs

     total energy              =   -6261.05247580 Ry
     Harris-Foulkes estimate   =   -6261.05247580 Ry
     estimated scf accuracy    <       0.00000001 Ry

     iteration # 12     ecut=   120.00 Ry     beta= 0.70
     Davidson diagonalization with overlap
     ethr =  3.74E-12,  avg # of iterations =  3.4

     total cpu time spent up to now is     1102.5 secs

     End of self-consistent calculation

          k = 0.0000 0.0000 0.0000 ( 62239 PWs)   bands (ev):

   -66.1744 -66.1740 -66.1735 -66.1734 -66.1730 -66.1730 -66.1724 -66.1720
   -30.6673 -30.6665 -30.6620 -30.6620 -30.5712 -30.5712 -30.5659 -30.5649
   -30.4876 -30.4868 -30.4789 -30.4789 -30.4409 -30.4372 -30.4372 -30.4346
   -30.3950 -30.3950 -30.3923 -30.3877 -30.3871 -30.3831 -30.3831 -30.3784
   -20.3392 -20.3391 -20.3388 -20.3388 -20.3387 -20.3387 -20.3384 -20.3383
   -20.3247 -20.3247 -20.3246 -20.3245 -20.3238 -20.3236 -20.3236 -20.3235
   -20.3202 -20.3199 -20.3198 -20.3198 -20.3151 -20.3150 -20.3150 -20.3146
   -20.3074 -20.3073 -20.3071 -20.3071 -20.3065 -20.3065 -20.3064 -20.3062
   -20.3044 -20.3044 -20.3043 -20.3037 -20.3021 -20.3017 -20.3017 -20.3013
   -20.2986 -20.2985 -20.2975 -20.2975 -20.2937 -20.2937 -20.2931 -20.2929
   -20.2905 -20.2904 -20.2900 -20.2900 -20.2875 -20.2875 -20.2870 -20.2868
    -9.9865  -9.7861  -9.5692  -9.5692  -9.2091  -9.2091  -9.0343  -9.0330
    -8.6750  -8.5844  -8.5740  -8.5740  -8.0848  -8.0439  -7.9257  -7.9257
    -7.7607  -7.7497  -7.6312  -7.6287  -7.6286  -7.5626  -7.5626  -7.5035
     1.1446   1.1584   1.2193   1.2193   1.4394   1.4394   1.5985   1.6466
     2.0173   2.0389   2.0390   2.1142   2.2341   2.3310   2.6303   2.8041
     2.8641   2.8641   4.1891   4.1891   4.3446   4.3854   4.5271   4.5271
     4.6795   4.6795   4.7947   5.0127   5.2501   5.2968   5.2968   5.3570
     5.4674   5.4674   5.4714   5.5652   5.6193   5.6193   5.7452   5.7453
     5.8049   5.8473   5.8593   5.8982   5.9279   5.9279   6.0275   6.0289
     6.2110   6.4087   6.4859   6.5376   6.5376   6.5740   6.8330   6.8700
     6.8700   7.0055   7.0055   7.0876   7.0951   7.0951   7.1186   7.1410
     7.3598   7.3598   7.6693   7.7022   7.9784   8.0286   8.0286   8.1690
     9.7456   9.8174  10.1071  10.1071  10.1181  10.1527  12.1738  12.1738
    12.2460  12.2460  12.3457  12.3483  12.6285  12.6402  12.7366  12.7366
    13.0879  13.1709  13.1709  13.2557  13.6021  13.6170  13.6170  13.9382
    14.3000  14.4848  14.4848  14.8703  15.1324  15.3759  15.5141  15.9007
    15.9007  16.6012  16.8238  16.8238  17.5439

          k = 0.0000 0.0000 0.1667 ( 62262 PWs)   bands (ev):

   -66.1744 -66.1740 -66.1735 -66.1734 -66.1731 -66.1730 -66.1725 -66.1721
   -30.6666 -30.6623 -30.6604 -30.6556 -30.5776 -30.5720 -30.5707 -30.5657
   -30.4868 -30.4813 -30.4796 -30.4734 -30.4404 -30.4377 -30.4367 -30.4350
   -30.4011 -30.3966 -30.3947 -30.3896 -30.3868 -30.3832 -30.3828 -30.3789
   -20.3392 -20.3391 -20.3388 -20.3388 -20.3387 -20.3386 -20.3384 -20.3383
   -20.3247 -20.3247 -20.3246 -20.3245 -20.3238 -20.3236 -20.3236 -20.3236
   -20.3201 -20.3198 -20.3197 -20.3195 -20.3154 -20.3153 -20.3150 -20.3147
   -20.3074 -20.3072 -20.3071 -20.3069 -20.3065 -20.3065 -20.3063 -20.3062
   -20.3046 -20.3045 -20.3043 -20.3038 -20.3021 -20.3018 -20.3017 -20.3013
   -20.2985 -20.2981 -20.2976 -20.2972 -20.2939 -20.2936 -20.2932 -20.2930
   -20.2905 -20.2903 -20.2900 -20.2899 -20.2878 -20.2874 -20.2873 -20.2869
    -9.9369  -9.7327  -9.5847  -9.4869  -9.2284  -9.1307  -9.0091  -8.9830
    -8.6908  -8.5817  -8.5774  -8.5618  -8.1762  -8.0554  -8.0435  -7.9339
    -7.8682  -7.7467  -7.7459  -7.6368  -7.6274  -7.5675  -7.5609  -7.5079
     1.1822   1.2163   1.3251   1.4437   1.4526   1.6749   1.6865   1.8286
     2.0119   2.0296   2.0472   2.1536   2.3219   2.4197   2.6702   2.8542
     2.8632   2.9535   4.0880   4.1630   4.2435   4.2748   4.3705   4.3978
     4.5887   4.6710   4.6793   4.8803   5.0302   5.1908   5.2382   5.2950
     5.3721   5.4640   5.4722   5.5211   5.5733   5.6200   5.6405   5.7230
     5.7325   5.7763   5.8454   5.9063   5.9182   5.9686   5.9799   6.1585
     6.2045   6.4528   6.5145   6.5603   6.6606   6.6984   6.7101   6.8239
     6.9027   6.9430   6.9862   7.0176   7.0568   7.0759   7.1225   7.1293
     7.2209   7.2667   7.6782   7.7009   7.9705   8.0049   8.0464   8.1606
     9.9434  10.0330  10.1055  10.1941  10.3384  10.4248  12.1316  12.1783
    12.2167  12.2995  12.3887  12.3996  12.6035  12.6595  12.7127  12.7826
    12.9524  13.1551  13.1813  13.2846  13.4977  13.6208  13.6615  13.8653
    14.2827  14.4766  14.4971  14.9635  15.1018  15.4071  15.5624  15.8585
    16.1562  16.6396  16.7469  17.0220  17.6035

          k = 0.0000 0.0000 0.3333 ( 62268 PWs)   bands (ev):

   -66.1742 -66.1738 -66.1737 -66.1733 -66.1732 -66.1728 -66.1727 -66.1723
   -30.6657 -30.6632 -30.6429 -30.6381 -30.5950 -30.5898 -30.5695 -30.5666
   -30.4855 -30.4814 -30.4654 -30.4588 -30.4392 -30.4387 -30.4368 -30.4351
   -30.4169 -30.4114 -30.3938 -30.3912 -30.3860 -30.3839 -30.3820 -30.3798
   -20.3391 -20.3390 -20.3389 -20.3388 -20.3387 -20.3386 -20.3385 -20.3384
   -20.3247 -20.3247 -20.3244 -20.3243 -20.3239 -20.3238 -20.3236 -20.3236
   -20.3200 -20.3198 -20.3188 -20.3186 -20.3163 -20.3161 -20.3150 -20.3148
   -20.3073 -20.3072 -20.3070 -20.3067 -20.3066 -20.3063 -20.3063 -20.3061
   -20.3051 -20.3050 -20.3042 -20.3040 -20.3020 -20.3018 -20.3016 -20.3014
   -20.2983 -20.2979 -20.2971 -20.2962 -20.2946 -20.2939 -20.2935 -20.2931
   -20.2903 -20.2901 -20.2899 -20.2895 -20.2884 -20.2880 -20.2873 -20.2870
    -9.8232  -9.6315  -9.5876  -9.2913  -9.2586  -8.9317  -8.9073  -8.8294
    -8.7575  -8.6132  -8.5501  -8.5139  -8.4321  -8.3341  -8.1480  -8.0866
    -7.9865  -7.9563  -7.7224  -7.6592  -7.6164  -7.5809  -7.5515  -7.5199
     1.2064   1.2120   1.4548   1.4587   1.9343   1.9475   2.0020   2.0133
     2.1805   2.3355   2.3925   2.5420   2.5702   2.6713   2.7288   2.8335
     3.0788   3.1781   3.5758   3.7290   3.9141   3.9700   4.2378   4.2459
     4.3670   4.3801   4.5396   4.5716   4.8157   4.8973   4.9097   4.9485
     5.1727   5.2776   5.3156   5.3691   5.4009   5.4778   5.6505   5.7436
     5.8009   5.8762   5.8998   5.9220   5.9670   5.9684   6.1047   6.2119
     6.2515   6.3395   6.4372   6.5228   6.6421   6.6969   6.7037   6.7511
     6.8582   6.9210   7.0171   7.0502   7.0643   7.0980   7.1152   7.1206
     7.3461   7.4253   7.6212   7.6400   7.9032   7.9221   8.0799   8.1324
    10.0512  10.0971  10.5693  10.7493  10.8601  11.0737  11.8494  11.9231
    12.1416  12.3273  12.3947  12.4479  12.5182  12.5856  12.6939  12.7498
    12.9234  13.0847  13.1438  13.2296  13.3817  13.5909  13.6359  13.7422
    14.3164  14.4505  14.6214  15.0056  15.1448  15.6874  15.7087  15.8358
    16.2612  16.8967  17.2345  17.3175  17.5973

          k = 0.0000 0.0000-0.5000 ( 62264 PWs)   bands (ev):

   -66.1739 -66.1739 -66.1735 -66.1735 -66.1729 -66.1729 -66.1725 -66.1725
   -30.6645 -30.6645 -30.6190 -30.6190 -30.6140 -30.6140 -30.5680 -30.5680
   -30.4835 -30.4835 -30.4459 -30.4458 -30.4432 -30.4432 -30.4331 -30.4331
   -30.4292 -30.4292 -30.3926 -30.3925 -30.3850 -30.3850 -30.3809 -30.3809
   -20.3390 -20.3390 -20.3389 -20.3389 -20.3386 -20.3386 -20.3385 -20.3385
   -20.3247 -20.3247 -20.3242 -20.3242 -20.3240 -20.3240 -20.3236 -20.3236
   -20.3199 -20.3199 -20.3175 -20.3175 -20.3173 -20.3173 -20.3149 -20.3149
   -20.3072 -20.3072 -20.3068 -20.3068 -20.3065 -20.3065 -20.3057 -20.3057
   -20.3057 -20.3057 -20.3041 -20.3041 -20.3019 -20.3019 -20.3015 -20.3015
   -20.2981 -20.2981 -20.2958 -20.2958 -20.2950 -20.2950 -20.2933 -20.2933
   -20.2902 -20.2902 -20.2892 -20.2892 -20.2888 -20.2888 -20.2872 -20.2872
    -9.7114  -9.7114  -9.4139  -9.4139  -8.9587  -8.9587  -8.7544  -8.7543
    -8.6352  -8.6351  -8.6333  -8.6333  -8.4373  -8.4373  -8.3655  -8.3654
    -7.9857  -7.9857  -7.6904  -7.6904  -7.5990  -7.5990  -7.5361  -7.5361
     1.2106   1.2106   1.4663   1.4663   1.9912   1.9912   1.9985   1.9985
     2.7543   2.7543   2.8741   2.8741   2.9642   2.9642   3.1347   3.1347
     3.2130   3.2130   3.2640   3.2640   3.5311   3.5311   3.8120   3.8120
     3.8833   3.8833   4.4323   4.4323   4.7881   4.7881   4.9788   4.9788
     5.1321   5.1321   5.2804   5.2805   5.3924   5.3924   5.7846   5.7846
     5.8274   5.8274   5.8882   5.8882   5.9756   5.9756   6.1983   6.1983
     6.3050   6.3050   6.4153   6.4153   6.5389   6.5389   6.7239   6.7239
     6.8655   6.8655   6.9739   6.9739   7.1112   7.1112   7.4065   7.4065
     7.4288   7.4289   7.6910   7.6911   7.7429   7.7429   8.1047   8.1047
    10.0792  10.0792  11.2463  11.2463  11.4364  11.4364  11.5089  11.5089
    11.8109  11.8109  12.4602  12.4602  12.5585  12.5585  12.8237  12.8237
    12.9263  12.9263  13.1451  13.1451  13.3746  13.3746  13.6736  13.6736
    14.3987  14.3987  14.8356  14.8356  15.4211  15.4211  15.9415  15.9415
    16.5795  16.5795  17.7705  17.7705  17.9832

          k = 0.0000 0.1575 0.0000 ( 62231 PWs)   bands (ev):

   -66.1744 -66.1741 -66.1734 -66.1734 -66.1731 -66.1730 -66.1724 -66.1721
   -30.6672 -30.6665 -30.6620 -30.6620 -30.5712 -30.5712 -30.5658 -30.5649
   -30.4876 -30.4869 -30.4789 -30.4789 -30.4373 -30.4337 -30.4337 -30.4311
   -30.3954 -30.3954 -30.3933 -30.3907 -30.3877 -30.3863 -30.3863 -30.3810
   -20.3392 -20.3391 -20.3388 -20.3388 -20.3387 -20.3387 -20.3384 -20.3383
   -20.3247 -20.3246 -20.3246 -20.3245 -20.3238 -20.3236 -20.3236 -20.3236
   -20.3202 -20.3199 -20.3198 -20.3198 -20.3151 -20.3150 -20.3150 -20.3146
   -20.3073 -20.3073 -20.3071 -20.3070 -20.3063 -20.3062 -20.3062 -20.3059
   -20.3044 -20.3044 -20.3043 -20.3037 -20.3024 -20.3021 -20.3021 -20.3017
   -20.2986 -20.2985 -20.2975 -20.2975 -20.2937 -20.2937 -20.2930 -20.2929
   -20.2905 -20.2904 -20.2900 -20.2900 -20.2875 -20.2875 -20.2870 -20.2868
    -9.9686  -9.7960  -9.5601  -9.5601  -9.2063  -9.2063  -9.0337  -9.0320
    -8.6107  -8.5356  -8.5253  -8.5253  -8.0857  -8.0441  -7.9271  -7.9271
    -7.7601  -7.7532  -7.7074  -7.6500  -7.6500  -7.6253  -7.6253  -7.5949
     1.1453   1.1568   1.2189   1.2189   1.4386   1.4386   1.6198   1.6469
     2.1663   2.2407   2.2411   2.2411   2.3245   2.3450   2.6961   2.8872
     2.9359   2.9359   4.0683   4.0683   4.1343   4.1644   4.5207   4.5207
     4.6718   4.6718   4.6790   5.0751   5.2583   5.2609   5.2609   5.3610
     5.3883   5.3883   5.5003   5.5241   5.5241   5.6247   5.6896   5.6896
     5.7163   5.7856   5.8447   5.9202   5.9666   5.9666   6.0223   6.0688
     6.1213   6.3817   6.4534   6.6038   6.6127   6.6127   6.8554   6.8555
     6.8710   6.9331   6.9331   6.9441   7.0998   7.0998   7.1142   7.1307
     7.3549   7.3549   7.6705   7.6987   7.9560   8.0128   8.0128   8.0982
     9.7769   9.8216  10.2582  10.2582  10.2790  10.3131  12.0936  12.0936
    12.2059  12.2503  12.2504  12.3230  12.5170  12.6362  12.7319  12.7319
    13.0916  13.1587  13.1587  13.3396  13.6187  13.6187  13.6797  13.8805
    14.4017  14.6489  14.6490  14.9458  15.3647  15.4645  15.5676  15.8833
    15.8833  16.4147  16.9156  16.9156  17.4495

          k = 0.0000 0.1575 0.1667 ( 62237 PWs)   bands (ev):

   -66.1743 -66.1740 -66.1735 -66.1734 -66.1731 -66.1730 -66.1725 -66.1721
   -30.6666 -30.6623 -30.6604 -30.6556 -30.5776 -30.5720 -30.5707 -30.5657
   -30.4868 -30.4813 -30.4796 -30.4734 -30.4368 -30.4342 -30.4333 -30.4316
   -30.4012 -30.3971 -30.3951 -30.3904 -30.3899 -30.3865 -30.3860 -30.3816
   -20.3392 -20.3391 -20.3388 -20.3388 -20.3387 -20.3387 -20.3384 -20.3383
   -20.3247 -20.3247 -20.3246 -20.3245 -20.3238 -20.3236 -20.3236 -20.3236
   -20.3201 -20.3198 -20.3197 -20.3195 -20.3154 -20.3153 -20.3150 -20.3147
   -20.3073 -20.3072 -20.3071 -20.3069 -20.3063 -20.3063 -20.3061 -20.3059
   -20.3046 -20.3044 -20.3044 -20.3038 -20.3024 -20.3021 -20.3020 -20.3017
   -20.2985 -20.2981 -20.2976 -20.2972 -20.2939 -20.2936 -20.2932 -20.2930
   -20.2905 -20.2903 -20.2900 -20.2899 -20.2878 -20.2874 -20.2873 -20.2869
    -9.9190  -9.7423  -9.5753  -9.4768  -9.2259  -9.1270  -9.0085  -8.9817
    -8.6267  -8.5339  -8.5297  -8.5149  -8.1762  -8.0565  -8.0437  -7.9354
    -7.8693  -7.7520  -7.7466  -7.7034  -7.6542  -7.6451  -7.6326  -7.5962
     1.1820   1.2159   1.3248   1.4429   1.4535   1.6766   1.7135   1.8407
     2.1711   2.2286   2.2455   2.3285   2.3531   2.4135   2.7384   2.9226
     2.9494   3.0243   4.0156   4.0501   4.1466   4.1942   4.2467   4.2705
     4.5720   4.6123   4.6641   4.8656   5.0374   5.1672   5.2018   5.2688
     5.3496   5.3962   5.4219   5.5004   5.5216   5.5644   5.5964   5.6276
     5.7207   5.7386   5.8005   5.8416   5.9491   5.9622   6.0078   6.0745
     6.2259   6.4129   6.5345   6.6035   6.6529   6.6922   6.7694   6.8442
     6.8670   6.9047   6.9327   6.9979   7.0329   7.0989   7.1247   7.1374
     7.2084   7.2789   7.6773   7.6988   7.9518   7.9902   8.0191   8.0932
    10.0074  10.0585  10.2577  10.3189  10.4616  10.5439  12.0624  12.1425
    12.1923  12.2284  12.3090  12.3855  12.5473  12.6081  12.7158  12.7687
    12.9391  13.1404  13.1681  13.3227  13.5079  13.6221  13.6938  13.8249
    14.4165  14.6426  14.7043  15.0233  15.3949  15.4768  15.5864  15.8502
    16.1339  16.5574  16.7299  17.0898  17.5039

          k = 0.0000 0.1575 0.3333 ( 62284 PWs)   bands (ev):

   -66.1742 -66.1738 -66.1737 -66.1733 -66.1732 -66.1728 -66.1727 -66.1723
   -30.6657 -30.6632 -30.6429 -30.6381 -30.5950 -30.5898 -30.5695 -30.5666
   -30.4854 -30.4814 -30.4653 -30.4585 -30.4359 -30.4353 -30.4336 -30.4318
   -30.4167 -30.4114 -30.3942 -30.3916 -30.3896 -30.3874 -30.3852 -30.3827
   -20.3391 -20.3390 -20.3389 -20.3388 -20.3387 -20.3386 -20.3385 -20.3384
   -20.3247 -20.3247 -20.3244 -20.3243 -20.3239 -20.3238 -20.3236 -20.3236
   -20.3200 -20.3198 -20.3188 -20.3186 -20.3163 -20.3161 -20.3150 -20.3149
   -20.3073 -20.3071 -20.3069 -20.3065 -20.3064 -20.3062 -20.3060 -20.3059
   -20.3051 -20.3050 -20.3043 -20.3040 -20.3023 -20.3021 -20.3020 -20.3017
   -20.2984 -20.2979 -20.2971 -20.2962 -20.2946 -20.2939 -20.2935 -20.2931
   -20.2903 -20.2901 -20.2899 -20.2895 -20.2884 -20.2880 -20.2873 -20.2870
    -9.8069  -9.6211  -9.5941  -9.2899  -9.2442  -8.9282  -8.9035  -8.8247
    -8.6994  -8.5727  -8.5075  -8.4753  -8.4252  -8.3318  -8.1481  -8.0872
    -7.9869  -7.9571  -7.7250  -7.6936  -7.6693  -7.6521  -7.6369  -7.6068
     1.2064   1.2118   1.4546   1.4592   2.0386   2.0898   2.1859   2.2083
     2.2632   2.3629   2.4132   2.5668   2.5828   2.6653   2.7987   2.9045
     3.1574   3.2393   3.5766   3.7247   3.8794   3.9402   4.1818   4.1903
     4.2849   4.3644   4.4370   4.5159   4.7260   4.8015   4.8578   4.9081
     5.0879   5.2702   5.2968   5.3180   5.3758   5.4327   5.5094   5.6696
     5.7602   5.7800   5.8217   5.8693   5.9416   5.9574   6.0359   6.0765
     6.3097   6.3840   6.4331   6.5794   6.6876   6.7117   6.7558   6.7909
     6.8576   6.9174   6.9881   7.0206   7.0699   7.0787   7.1366   7.1609
     7.3635   7.4434   7.6192   7.6415   7.8969   7.9121   8.0367   8.0719
    10.2145  10.2535  10.5932  10.7713  10.9535  11.1329  11.8444  11.9261
    12.1527  12.2651  12.3387  12.4149  12.4627  12.5554  12.6599  12.6826
    12.8790  13.0566  13.1342  13.2128  13.3224  13.5634  13.6372  13.7467
    14.5040  14.6220  14.9025  15.1653  15.3902  15.6997  15.7344  15.8643
    16.3144  16.8644  17.0362  17.3873  17.6065

          k = 0.0000 0.1575-0.5000 ( 62234 PWs)   bands (ev):

   -66.1739 -66.1739 -66.1736 -66.1736 -66.1729 -66.1729 -66.1726 -66.1726
   -30.6645 -30.6645 -30.6190 -30.6190 -30.6140 -30.6140 -30.5680 -30.5680
   -30.4835 -30.4835 -30.4448 -30.4448 -30.4413 -30.4413 -30.4309 -30.4309
   -30.4274 -30.4274 -30.3930 -30.3930 -30.3885 -30.3885 -30.3839 -30.3839
   -20.3390 -20.3390 -20.3389 -20.3389 -20.3386 -20.3386 -20.3385 -20.3385
   -20.3247 -20.3247 -20.3242 -20.3241 -20.3240 -20.3240 -20.3236 -20.3236
   -20.3199 -20.3199 -20.3175 -20.3175 -20.3173 -20.3173 -20.3149 -20.3149
   -20.3072 -20.3072 -20.3066 -20.3066 -20.3062 -20.3062 -20.3057 -20.3057
   -20.3056 -20.3056 -20.3041 -20.3041 -20.3022 -20.3022 -20.3019 -20.3018
   -20.2981 -20.2981 -20.2958 -20.2958 -20.2950 -20.2950 -20.2933 -20.2933
   -20.2902 -20.2902 -20.2892 -20.2892 -20.2888 -20.2888 -20.2872 -20.2872
    -9.6985  -9.6985  -9.4155  -9.4155  -8.9292  -8.9292  -8.7487  -8.7487
    -8.6228  -8.6228  -8.6064  -8.6064  -8.4198  -8.4197  -8.3506  -8.3506
    -7.9863  -7.9863  -7.6952  -7.6952  -7.6747  -7.6747  -7.6221  -7.6221
     1.2106   1.2106   1.4668   1.4668   2.1507   2.1507   2.2267   2.2267
     2.8182   2.8182   2.8799   2.8799   2.9616   2.9616   3.1374   3.1374
     3.2263   3.2263   3.2759   3.2759   3.5496   3.5496   3.8268   3.8268
     3.9356   3.9357   4.2674   4.2674   4.6512   4.6512   4.8427   4.8427
     5.1168   5.1168   5.2761   5.2761   5.3462   5.3462   5.6110   5.6110
     5.7919   5.7919   5.8282   5.8282   5.9478   5.9478   6.0518   6.0518
     6.3440   6.3440   6.5009   6.5009   6.5672   6.5672   6.7971   6.7972
     6.9115   6.9115   6.9420   6.9420   7.1071   7.1071   7.4111   7.4112
     7.4264   7.4264   7.6983   7.6983   7.7459   7.7459   8.0525   8.0525
    10.2432  10.2432  11.2597  11.2597  11.4546  11.4546  11.5602  11.5602
    11.8422  11.8422  12.3587  12.3587  12.5340  12.5340  12.7672  12.7672
    12.9122  12.9122  13.0582  13.0582  13.3527  13.3527  13.6738  13.6738
    14.5823  14.5823  15.1434  15.1434  15.4990  15.4990  15.9613  15.9613
    16.6162  16.6162  17.6473  17.6473  17.8903

          k = 0.0000 0.3150 0.0000 ( 62175 PWs)   bands (ev):

   -66.1743 -66.1741 -66.1734 -66.1733 -66.1731 -66.1731 -66.1723 -66.1721
   -30.6671 -30.6667 -30.6620 -30.6620 -30.5712 -30.5712 -30.5656 -30.5651
   -30.4874 -30.4870 -30.4788 -30.4788 -30.4276 -30.4243 -30.4243 -30.4218
   -30.4007 -30.3992 -30.3992 -30.3981 -30.3922 -30.3922 -30.3877 -30.3855
   -20.3392 -20.3391 -20.3388 -20.3388 -20.3387 -20.3387 -20.3384 -20.3383
   -20.3247 -20.3246 -20.3246 -20.3246 -20.3237 -20.3236 -20.3236 -20.3236
   -20.3201 -20.3200 -20.3198 -20.3198 -20.3150 -20.3150 -20.3150 -20.3147
   -20.3072 -20.3072 -20.3070 -20.3070 -20.3056 -20.3054 -20.3054 -20.3050
   -20.3044 -20.3044 -20.3042 -20.3038 -20.3033 -20.3030 -20.3029 -20.3025
   -20.2986 -20.2985 -20.2975 -20.2975 -20.2937 -20.2937 -20.2930 -20.2929
   -20.2905 -20.2904 -20.2900 -20.2900 -20.2875 -20.2875 -20.2870 -20.2869
    -9.9238  -9.8252  -9.5428  -9.5428  -9.2007  -9.2007  -9.0323  -9.0308
    -8.4371  -8.3842  -8.3787  -8.3787  -8.0978  -8.0433  -7.9470  -7.9470
    -7.9037  -7.8450  -7.8450  -7.8314  -7.7583  -7.7509  -7.6282  -7.6282
     1.1469   1.1532   1.2181   1.2182   1.4377   1.4377   1.6400   1.6474
     2.2582   2.3056   2.6137   2.7505   2.7505   2.8779   2.9124   3.1764
     3.1764   3.1830   3.7478   3.7513   3.7761   3.7761   4.2226   4.5009
     4.5009   4.6122   4.6122   4.7555   4.7555   4.9217   5.1857   5.3474
     5.3487   5.3487   5.3646   5.4827   5.4827   5.5410   5.6860   5.7094
     5.7094   5.8097   5.8103   5.9417   5.9713   5.9713   6.0382   6.0478
     6.2424   6.3005   6.3455   6.5744   6.6003   6.6003   6.8447   6.8447
     6.8739   6.8897   6.8897   6.9360   7.1984   7.2015   7.2240   7.2240
     7.3728   7.3728   7.6627   7.6915   7.8427   7.8962   7.9008   7.9008
     9.8120   9.8258  10.6699  10.6699  10.6722  10.7944  11.7924  11.7924
    11.8297  12.0262  12.2617  12.2617  12.4654  12.6209  12.7335  12.7335
    13.1321  13.1881  13.1881  13.3523  13.4986  13.4986  13.6832  13.7594
    14.8702  15.0826  15.0826  15.2815  15.3296  15.5815  15.8204  15.8204
    16.0069  16.4278  16.9693  17.2544  17.2544

          k = 0.0000 0.3150 0.1667 ( 62260 PWs)   bands (ev):

   -66.1743 -66.1741 -66.1734 -66.1733 -66.1732 -66.1731 -66.1724 -66.1722
   -30.6666 -30.6623 -30.6605 -30.6556 -30.5776 -30.5719 -30.5707 -30.5657
   -30.4867 -30.4812 -30.4795 -30.4732 -30.4272 -30.4248 -30.4239 -30.4224
   -30.4026 -30.4008 -30.4000 -30.3989 -30.3945 -30.3918 -30.3910 -30.3865
   -20.3391 -20.3391 -20.3388 -20.3388 -20.3387 -20.3387 -20.3384 -20.3384
   -20.3247 -20.3247 -20.3246 -20.3245 -20.3238 -20.3236 -20.3236 -20.3236
   -20.3200 -20.3198 -20.3197 -20.3195 -20.3154 -20.3152 -20.3150 -20.3148
   -20.3072 -20.3071 -20.3070 -20.3069 -20.3056 -20.3054 -20.3053 -20.3051
   -20.3046 -20.3044 -20.3044 -20.3039 -20.3033 -20.3029 -20.3029 -20.3026
   -20.2985 -20.2981 -20.2976 -20.2972 -20.2939 -20.2936 -20.2932 -20.2930
   -20.2904 -20.2903 -20.2900 -20.2899 -20.2878 -20.2874 -20.2872 -20.2869
    -9.8746  -9.7702  -9.5573  -9.4577  -9.2208  -9.1199  -9.0076  -8.9795
    -8.4516  -8.3905  -8.3843  -8.3719  -8.1783  -8.0664  -8.0466  -7.9563
    -7.9067  -7.8822  -7.8614  -7.8385  -7.8289  -7.7458  -7.7328  -7.6363
     1.1814   1.2152   1.3240   1.4423   1.4538   1.6773   1.7347   1.8544
     2.3461   2.3938   2.6223   2.7202   2.7621   2.8896   2.9416   3.1541
     3.2404   3.2571   3.7389   3.7549   3.7926   3.8461   4.1631   4.2293
     4.2850   4.5433   4.5919   4.6434   4.7569   4.9228   5.0215   5.1221
     5.1827   5.2774   5.3454   5.4020   5.4329   5.5209   5.5543   5.6335
     5.6731   5.6935   5.7586   5.7965   5.8428   5.9596   5.9859   6.0539
     6.2951   6.3951   6.4679   6.5739   6.6304   6.7098   6.7758   6.8325
     6.8652   6.9701   6.9862   7.0153   7.1154   7.1544   7.2134   7.2223
     7.3077   7.3427   7.6662   7.6933   7.8440   7.8872   7.8897   7.9058
    10.0503  10.1019  10.6713  10.7099  10.8223  10.9247  11.7831  11.8482
    11.8829  12.0701  12.2022  12.3221  12.5120  12.6189  12.6982  12.7669
    12.9800  13.1278  13.1938  13.2933  13.3783  13.5006  13.6425  13.7364
    14.9419  15.0770  15.1932  15.3281  15.3891  15.6657  15.7950  16.0480
    16.1602  16.4005  16.9995  17.0622  17.3787

          k = 0.0000 0.3150 0.3333 ( 62269 PWs)   bands (ev):

   -66.1741 -66.1739 -66.1736 -66.1734 -66.1731 -66.1729 -66.1726 -66.1724
   -30.6657 -30.6632 -30.6429 -30.6381 -30.5950 -30.5898 -30.5695 -30.5666
   -30.4854 -30.4813 -30.4651 -30.4581 -30.4275 -30.4261 -30.4256 -30.4228
   -30.4153 -30.4113 -30.3995 -30.3981 -30.3966 -30.3953 -30.3908 -30.3878
   -20.3391 -20.3390 -20.3389 -20.3388 -20.3387 -20.3386 -20.3385 -20.3384
   -20.3247 -20.3247 -20.3244 -20.3243 -20.3239 -20.3238 -20.3237 -20.3236
   -20.3200 -20.3198 -20.3188 -20.3185 -20.3163 -20.3161 -20.3150 -20.3149
   -20.3072 -20.3071 -20.3067 -20.3065 -20.3057 -20.3055 -20.3053 -20.3052
   -20.3049 -20.3049 -20.3043 -20.3040 -20.3031 -20.3030 -20.3028 -20.3026
   -20.2984 -20.2979 -20.2971 -20.2962 -20.2946 -20.2939 -20.2935 -20.2932
   -20.2903 -20.2901 -20.2899 -20.2895 -20.2884 -20.2879 -20.2873 -20.2870
    -9.7709  -9.6129  -9.5989  -9.2870  -9.2177  -8.9238  -8.8930  -8.8172
    -8.5592  -8.4794  -8.3794  -8.3717  -8.3492  -8.3153  -8.1480  -8.0913
    -7.9924  -7.9680  -7.8932  -7.8578  -7.8521  -7.8216  -7.7216  -7.6586
     1.2060   1.2112   1.4546   1.4592   2.0958   2.2787   2.3014   2.4620
     2.5941   2.6343   2.6662   2.6961   2.7923   2.8713   3.0260   3.1299
     3.3990   3.4103   3.5692   3.6892   3.7539   3.7628   3.8788   3.9531
     4.1269   4.2946   4.3428   4.4535   4.5713   4.6371   4.7002   4.7278
     4.8898   4.9798   5.0158   5.1993   5.3164   5.3429   5.3685   5.4061
     5.5007   5.5182   5.6808   5.7951   5.9414   5.9612   5.9831   6.0618
     6.3799   6.4275   6.5015   6.5738   6.6630   6.7277   6.7953   6.8736
     6.9366   6.9974   7.0403   7.0802   7.1490   7.1731   7.2223   7.2585
     7.4441   7.4967   7.6082   7.6448   7.8267   7.8342   7.8854   7.8973
    10.5574  10.6407  10.6983  10.8556  11.2223  11.3558  11.7327  11.8910
    11.9236  12.1093  12.1698  12.2415  12.4784  12.4911  12.5310  12.7420
    12.8463  12.8943  13.0902  13.1449  13.2299  13.5124  13.5224  13.6531
    15.0042  15.0562  15.3573  15.5941  15.7053  15.8281  15.9737  16.3015
    16.5228  16.7053  16.7530  17.1993  17.5292

          k = 0.0000 0.3150-0.5000 ( 62306 PWs)   bands (ev):

   -66.1738 -66.1738 -66.1736 -66.1736 -66.1728 -66.1728 -66.1726 -66.1726
   -30.6645 -30.6645 -30.6190 -30.6190 -30.6140 -30.6140 -30.5680 -30.5680
   -30.4835 -30.4835 -30.4435 -30.4435 -30.4383 -30.4383 -30.4234 -30.4234
   -30.4205 -30.4205 -30.3983 -30.3983 -30.3968 -30.3968 -30.3893 -30.3893
   -20.3390 -20.3390 -20.3389 -20.3389 -20.3386 -20.3386 -20.3385 -20.3385
   -20.3247 -20.3247 -20.3241 -20.3241 -20.3240 -20.3240 -20.3237 -20.3237
   -20.3199 -20.3199 -20.3176 -20.3175 -20.3173 -20.3173 -20.3149 -20.3149
   -20.3071 -20.3071 -20.3062 -20.3062 -20.3059 -20.3058 -20.3054 -20.3054
   -20.3051 -20.3051 -20.3042 -20.3041 -20.3031 -20.3030 -20.3027 -20.3027
   -20.2981 -20.2981 -20.2958 -20.2958 -20.2950 -20.2950 -20.2933 -20.2933
   -20.2902 -20.2902 -20.2893 -20.2892 -20.2888 -20.2888 -20.2872 -20.2872
    -9.6727  -9.6727  -9.4192  -9.4192  -8.8767  -8.8767  -8.7385  -8.7385
    -8.5844  -8.5844  -8.5577  -8.5577  -8.3351  -8.3351  -8.2818  -8.2817
    -7.9949  -7.9949  -7.8755  -7.8755  -7.8400  -7.8400  -7.6898  -7.6898
     1.2101   1.2101   1.4671   1.4672   2.5962   2.5962   2.7534   2.7534
     2.8965   2.8965   2.9609   2.9610   3.0033   3.0033   3.1567   3.1567
     3.2456   3.2456   3.3379   3.3379   3.5803   3.5803   3.7579   3.7579
     4.0065   4.0065   4.1088   4.1088   4.3407   4.3407   4.4944   4.4944
     4.9720   4.9720   5.0958   5.0958   5.1866   5.1866   5.3339   5.3339
     5.4183   5.4183   5.7921   5.7921   5.9564   5.9564   6.0170   6.0170
     6.4001   6.4001   6.5608   6.5608   6.6097   6.6097   6.7537   6.7537
     7.1022   7.1022   7.1397   7.1397   7.1683   7.1683   7.4046   7.4046
     7.4382   7.4382   7.6950   7.6950   7.7233   7.7233   7.8877   7.8877
    10.6689  10.6689  11.2876  11.2876  11.4770  11.4770  11.6858  11.6858
    11.9606  11.9606  12.0582  12.0582  12.4991  12.4991  12.5396  12.5396
    12.8001  12.8001  12.9760  12.9760  13.3442  13.3442  13.5554  13.5554
    15.0278  15.0278  15.5313  15.5313  16.0437  16.0437  16.1646  16.1646
    16.7264  16.7264  17.3473  17.3473  17.5585

          k = 0.0000-0.4725 0.0000 ( 62212 PWs)   bands (ev):

   -66.1742 -66.1742 -66.1733 -66.1733 -66.1732 -66.1732 -66.1722 -66.1722
   -30.6669 -30.6669 -30.6620 -30.6620 -30.5712 -30.5712 -30.5654 -30.5654
   -30.4872 -30.4872 -30.4787 -30.4787 -30.4142 -30.4142 -30.4129 -30.4128
   -30.4097 -30.4096 -30.4093 -30.4093 -30.3932 -30.3932 -30.3873 -30.3873
   -20.3391 -20.3391 -20.3388 -20.3388 -20.3387 -20.3387 -20.3384 -20.3383
   -20.3246 -20.3246 -20.3246 -20.3246 -20.3237 -20.3237 -20.3236 -20.3236
   -20.3201 -20.3201 -20.3198 -20.3198 -20.3150 -20.3150 -20.3149 -20.3149
   -20.3072 -20.3072 -20.3070 -20.3070 -20.3045 -20.3045 -20.3045 -20.3045
   -20.3041 -20.3041 -20.3041 -20.3041 -20.3041 -20.3041 -20.3037 -20.3037
   -20.2986 -20.2986 -20.2975 -20.2975 -20.2937 -20.2937 -20.2930 -20.2930
   -20.2905 -20.2905 -20.2900 -20.2900 -20.2875 -20.2875 -20.2869 -20.2869
    -9.8705  -9.8705  -9.5346  -9.5346  -9.1980  -9.1980  -9.0309  -9.0309
    -8.2190  -8.2190  -8.1533  -8.1533  -8.1480  -8.1480  -8.1282  -8.1282
    -8.0290  -8.0290  -7.9037  -7.9037  -7.7552  -7.7552  -7.6285  -7.6285
     1.1496   1.1496   1.2178   1.2178   1.4375   1.4375   1.6464   1.6464
     2.2819   2.2819   3.0154   3.0154   3.0866   3.0866   3.4461   3.4461
     3.5443   3.5443   3.5527   3.5527   3.6760   3.6760   3.9407   3.9407
     3.9877   3.9877   4.5291   4.5291   4.6700   4.6700   5.2869   5.2869
     5.3973   5.3973   5.4631   5.4631   5.4916   5.4916   5.7233   5.7233
     5.7398   5.7398   5.9000   5.9000   5.9430   5.9430   6.0530   6.0530
     6.2699   6.2699   6.3765   6.3765   6.5510   6.5510   6.7994   6.7994
     6.8905   6.8905   6.9040   6.9040   7.3194   7.3194   7.4240   7.4240
     7.5402   7.5402   7.6139   7.6139   7.7137   7.7137   7.7297   7.7297
     9.8246   9.8246  11.0778  11.0778  11.1455  11.1455  11.4287  11.4287
    11.5482  11.5482  12.2684  12.2684  12.5459  12.5459  12.7385  12.7386
    13.2473  13.2473  13.3061  13.3061  13.3202  13.3202  13.6722  13.6722
    15.2192  15.2192  15.3529  15.3529  15.6120  15.6120  15.7452  15.7452
    16.2027  16.2027  17.4979  17.4979  17.7945

          k = 0.0000-0.4725 0.1667 ( 62246 PWs)   bands (ev):

   -66.1742 -66.1742 -66.1734 -66.1732 -66.1732 -66.1731 -66.1723 -66.1723
   -30.6666 -30.6623 -30.6605 -30.6556 -30.5776 -30.5719 -30.5707 -30.5657
   -30.4867 -30.4812 -30.4795 -30.4732 -30.4141 -30.4139 -30.4138 -30.4126
   -30.4110 -30.4100 -30.4095 -30.4092 -30.3980 -30.3929 -30.3922 -30.3877
   -20.3391 -20.3391 -20.3388 -20.3388 -20.3387 -20.3387 -20.3384 -20.3384
   -20.3247 -20.3246 -20.3246 -20.3245 -20.3237 -20.3237 -20.3236 -20.3236
   -20.3200 -20.3198 -20.3197 -20.3195 -20.3154 -20.3152 -20.3150 -20.3149
   -20.3072 -20.3071 -20.3070 -20.3069 -20.3048 -20.3047 -20.3044 -20.3044
   -20.3043 -20.3043 -20.3041 -20.3041 -20.3040 -20.3040 -20.3037 -20.3036
   -20.2985 -20.2982 -20.2976 -20.2972 -20.2939 -20.2936 -20.2932 -20.2930
   -20.2904 -20.2903 -20.2900 -20.2899 -20.2878 -20.2874 -20.2872 -20.2870
    -9.8347  -9.8018  -9.5487  -9.4488  -9.2182  -9.1163  -9.0071  -8.9786
    -8.2562  -8.2237  -8.1805  -8.1676  -8.1609  -8.1527  -8.1412  -8.1311
    -8.0880  -8.0209  -7.9905  -7.9115  -7.8600  -7.7462  -7.7386  -7.6366
     1.1810   1.2148   1.3235   1.4423   1.4536   1.6774   1.7393   1.8580
     2.3680   2.3723   3.0127   3.0191   3.1161   3.1432   3.4450   3.4507
     3.4913   3.5447   3.5534   3.6076   3.6824   3.7558   3.9202   3.9663
     4.0036   4.0124   4.2530   4.2557   4.5665   4.6466   5.1002   5.1575
     5.2372   5.2600   5.3650   5.4025   5.4030   5.5770   5.5838   5.5840
     5.6425   5.6689   5.6846   5.7520   5.8160   5.9432   5.9495   6.0699
     6.3190   6.4287   6.4317   6.5141   6.5467   6.7084   6.7576   6.7861
     6.8795   6.9759   7.0234   7.0435   7.1269   7.2014   7.4259   7.4340
     7.5280   7.5495   7.6179   7.6261   7.7038   7.7072   7.7367   7.7472
    10.0588  10.1144  11.0804  11.1433  11.1841  11.2673  11.4276  11.5291
    11.5515  11.6489  12.2053  12.3251  12.5956  12.6275  12.6297  12.7686
    13.0987  13.1788  13.1935  13.2148  13.3100  13.3223  13.6100  13.6800
    15.1853  15.3262  15.3598  15.5261  15.7166  15.7194  15.7965  15.9381
    16.2613  16.2678  17.4153  17.4565  17.6116

          k = 0.0000-0.4725 0.3333 ( 62268 PWs)   bands (ev):

   -66.1740 -66.1740 -66.1735 -66.1734 -66.1730 -66.1729 -66.1725 -66.1725
   -30.6657 -30.6632 -30.6429 -30.6381 -30.5950 -30.5898 -30.5695 -30.5666
   -30.4854 -30.4813 -30.4650 -30.4579 -30.4225 -30.4195 -30.4130 -30.4127
   -30.4118 -30.4108 -30.4099 -30.4081 -30.4063 -30.4018 -30.3919 -30.3889
   -20.3391 -20.3390 -20.3389 -20.3388 -20.3387 -20.3386 -20.3385 -20.3384
   -20.3247 -20.3247 -20.3244 -20.3243 -20.3239 -20.3238 -20.3237 -20.3236
   -20.3200 -20.3198 -20.3188 -20.3185 -20.3163 -20.3161 -20.3150 -20.3149
   -20.3072 -20.3071 -20.3067 -20.3064 -20.3054 -20.3050 -20.3047 -20.3045
   -20.3043 -20.3042 -20.3041 -20.3040 -20.3040 -20.3039 -20.3037 -20.3037
   -20.2984 -20.2979 -20.2971 -20.2962 -20.2946 -20.2939 -20.2935 -20.2932
   -20.2903 -20.2901 -20.2899 -20.2895 -20.2885 -20.2879 -20.2873 -20.2871
    -9.7497  -9.6240  -9.5898  -9.2855  -9.2058  -8.9225  -8.8869  -8.8143
    -8.4968  -8.4175  -8.2846  -8.2609  -8.1820  -8.1615  -8.1390  -8.1362
    -8.1172  -8.0629  -8.0588  -8.0038  -7.9603  -7.9335  -7.7222  -7.6590
     1.2056   1.2109   1.4546   1.4591   2.1015   2.3047   2.3074   2.4765
     2.6188   2.6232   3.0112   3.0213   3.2061   3.2652   3.3661   3.4461
     3.4927   3.5123   3.5328   3.5579   3.6719   3.7353   3.7956   3.8876
     3.9342   3.9757   4.0217   4.0651   4.3733   4.4694   4.5831   4.7324
     4.7666   4.8772   4.9306   4.9840   5.1552   5.3075   5.3422   5.3833
     5.4509   5.5564   5.6866   5.7003   5.9474   5.9588   5.9690   6.0844
     6.4016   6.4392   6.5073   6.5280   6.6159   6.7139   6.7494   6.9189
     6.9640   7.0315   7.0665   7.1381   7.2414   7.2845   7.4148   7.4529
     7.5642   7.5700   7.5955   7.6356   7.6959   7.7096   7.7129   7.7458
    10.6120  10.7429  11.0903  11.1475  11.4279  11.4480  11.5692  11.6645
    11.8213  11.9070  11.9252  12.1877  12.4958  12.5373  12.6058  12.6859
    12.8355  12.8546  12.9491  13.0878  13.3328  13.3400  13.5201  13.5774
    15.1548  15.2821  15.5211  15.6835  16.0595  16.2820  16.2930  16.4561
    16.4711  16.4846  17.0884  17.2472  17.3870

          k = 0.0000-0.4725-0.5000 ( 62284 PWs)   bands (ev):

   -66.1738 -66.1738 -66.1737 -66.1737 -66.1728 -66.1728 -66.1727 -66.1727
   -30.6645 -30.6645 -30.6190 -30.6190 -30.6140 -30.6140 -30.5680 -30.5680
   -30.4835 -30.4834 -30.4430 -30.4430 -30.4373 -30.4373 -30.4120 -30.4120
   -30.4109 -30.4109 -30.4104 -30.4104 -30.4061 -30.4061 -30.3904 -30.3904
   -20.3390 -20.3390 -20.3389 -20.3389 -20.3386 -20.3386 -20.3385 -20.3385
   -20.3247 -20.3247 -20.3241 -20.3241 -20.3240 -20.3240 -20.3237 -20.3237
   -20.3199 -20.3199 -20.3176 -20.3175 -20.3173 -20.3173 -20.3149 -20.3149
   -20.3071 -20.3071 -20.3061 -20.3061 -20.3058 -20.3058 -20.3047 -20.3047
   -20.3042 -20.3042 -20.3041 -20.3041 -20.3038 -20.3038 -20.3038 -20.3038
   -20.2981 -20.2981 -20.2958 -20.2958 -20.2950 -20.2950 -20.2933 -20.2933
   -20.2902 -20.2902 -20.2893 -20.2892 -20.2888 -20.2888 -20.2872 -20.2872
    -9.6597  -9.6597  -9.4213  -9.4213  -8.8556  -8.8556  -8.7339  -8.7338
    -8.5608  -8.5608  -8.5390  -8.5390  -8.1779  -8.1779  -8.1361  -8.1361
    -8.1120  -8.1120  -8.0632  -8.0632  -7.9638  -7.9637  -7.6902  -7.6902
     1.2098   1.2098   1.4672   1.4672   2.8368   2.8368   2.9128   2.9128
     2.9688   2.9688   3.1132   3.1132   3.1833   3.1833   3.2499   3.2499
     3.3629   3.3629   3.4891   3.4891   3.5436   3.5436   3.5820   3.5820
     3.7816   3.7816   3.9967   3.9967   4.3795   4.3795   4.4681   4.4681
     4.5414   4.5415   4.6402   4.6402   5.1498   5.1498   5.2823   5.2823
     5.4931   5.4931   5.7369   5.7369   5.9673   5.9673   6.0193   6.0193
     6.4125   6.4125   6.5397   6.5397   6.6257   6.6258   6.7055   6.7055
     7.2109   7.2109   7.2645   7.2645   7.3318   7.3318   7.3849   7.3849
     7.4976   7.4976   7.6620   7.6621   7.6976   7.6977   7.7149   7.7149
    11.0430  11.0430  11.3422  11.3422  11.3773  11.3773  11.6199  11.6199
    12.0273  12.0273  12.1222  12.1222  12.3102  12.3102  12.3729  12.3729
    12.7422  12.7422  12.9722  12.9722  13.4058  13.4058  13.4133  13.4133
    15.2066  15.2066  15.6158  15.6158  16.6435  16.6435  16.7428  16.7429
    16.8918  16.8918  17.0297  17.0297  17.0927

          k = 0.1667 0.0000 0.1667 ( 62234 PWs)   bands (ev):

   -66.1743 -66.1739 -66.1735 -66.1734 -66.1730 -66.1730 -66.1726 -66.1722
   -30.6606 -30.6597 -30.6559 -30.6559 -30.5771 -30.5771 -30.5727 -30.5718
   -30.4812 -30.4806 -30.4742 -30.4740 -30.4399 -30.4372 -30.4372 -30.4355
   -30.4012 -30.4004 -30.3981 -30.3941 -30.3865 -30.3830 -30.3829 -30.3793
   -20.3391 -20.3390 -20.3388 -20.3388 -20.3387 -20.3387 -20.3385 -20.3384
   -20.3247 -20.3246 -20.3246 -20.3245 -20.3238 -20.3236 -20.3236 -20.3236
   -20.3198 -20.3196 -20.3195 -20.3195 -20.3154 -20.3153 -20.3153 -20.3149
   -20.3073 -20.3072 -20.3070 -20.3069 -20.3066 -20.3065 -20.3063 -20.3063
   -20.3046 -20.3046 -20.3045 -20.3039 -20.3021 -20.3018 -20.3017 -20.3014
   -20.2981 -20.2980 -20.2973 -20.2972 -20.2939 -20.2939 -20.2933 -20.2931
   -20.2904 -20.2902 -20.2899 -20.2899 -20.2877 -20.2877 -20.2874 -20.2871
    -9.8826  -9.6786  -9.5042  -9.5011  -9.1522  -9.1483  -8.9622  -8.9603
    -8.7072  -8.5713  -8.5703  -8.5673  -8.1850  -8.1471  -8.0578  -8.0484
    -7.8646  -7.8540  -7.7606  -7.7461  -7.6239  -7.5658  -7.5656  -7.5123
     1.3932   1.4119   1.4510   1.4538   1.6797   1.6832   1.7758   1.8966
     2.0063   2.0356   2.0420   2.1879   2.4137   2.5134   2.7270   2.8960
     2.9409   2.9556   4.0446   4.0998   4.2690   4.2820   4.3209   4.3401
     4.4149   4.4559   4.5921   4.8333   4.9266   4.9664   5.1339   5.1594
     5.2333   5.3601   5.3727   5.4896   5.4968   5.5907   5.5997   5.6773
     5.6973   5.7418   5.7490   5.8809   5.9144   5.9497   6.0327   6.1941
     6.2748   6.5451   6.5749   6.6119   6.6469   6.6885   6.7931   6.8113
     6.8613   6.9378   6.9458   6.9996   7.0223   7.0319   7.0938   7.1160
     7.2209   7.2317   7.6779   7.6925   7.9631   8.0100   8.0397   8.1498
    10.1375  10.1409  10.3131  10.3481  10.4576  10.5345  12.1640  12.1877
    12.2355  12.2389  12.4165  12.4345  12.6042  12.6613  12.7492  12.7517
    12.9301  13.0246  13.2387  13.2895  13.4722  13.5467  13.6860  13.7864
    14.2641  14.4817  14.4925  15.0731  15.0766  15.4402  15.6457  16.0954
    16.1238  16.7866  16.8333  16.9139  17.6561

          k = 0.1667 0.0000 0.3333 ( 62265 PWs)   bands (ev):

   -66.1741 -66.1737 -66.1736 -66.1733 -66.1732 -66.1728 -66.1728 -66.1724
   -30.6593 -30.6568 -30.6426 -30.6384 -30.5946 -30.5901 -30.5759 -30.5732
   -30.4796 -30.4758 -30.4650 -30.4593 -30.4388 -30.4382 -30.4372 -30.4356
   -30.4166 -30.4120 -30.3997 -30.3969 -30.3857 -30.3837 -30.3822 -30.3801
   -20.3391 -20.3390 -20.3389 -20.3388 -20.3387 -20.3386 -20.3385 -20.3384
   -20.3246 -20.3246 -20.3244 -20.3243 -20.3240 -20.3238 -20.3237 -20.3237
   -20.3197 -20.3195 -20.3188 -20.3186 -20.3163 -20.3161 -20.3153 -20.3151
   -20.3072 -20.3071 -20.3069 -20.3067 -20.3066 -20.3064 -20.3063 -20.3061
   -20.3051 -20.3051 -20.3045 -20.3042 -20.3020 -20.3018 -20.3016 -20.3014
   -20.2979 -20.2975 -20.2970 -20.2963 -20.2946 -20.2940 -20.2937 -20.2934
   -20.2902 -20.2900 -20.2899 -20.2895 -20.2884 -20.2880 -20.2876 -20.2873
    -9.7568  -9.5509  -9.5301  -9.2756  -9.2154  -8.9382  -8.8838  -8.8153
    -8.7740  -8.5981  -8.5439  -8.5206  -8.4252  -8.3435  -8.1651  -8.1356
    -8.0848  -8.0123  -7.8356  -7.7739  -7.6132  -7.5788  -7.5562  -7.5244
     1.4471   1.4558   1.6738   1.6971   1.9357   1.9414   1.9959   2.0240
     2.1823   2.3402   2.3760   2.5255   2.6817   2.7790   2.8109   2.9195
     3.0967   3.1751   3.6158   3.7923   3.8861   3.9840   4.2083   4.2272
     4.3382   4.3493   4.5033   4.5454   4.6371   4.7091   4.7621   4.8348
     5.0279   5.0570   5.1144   5.1784   5.2424   5.4454   5.4904   5.6502
     5.6869   5.6934   5.7506   5.8179   5.9675   6.0162   6.1006   6.2032
     6.3604   6.4787   6.5479   6.6381   6.6591   6.7116   6.7897   6.8491
     6.8751   6.9158   6.9932   7.0164   7.0327   7.0747   7.1077   7.1897
     7.3620   7.4281   7.6271   7.6309   7.9058   7.9327   8.0611   8.1155
    10.2748  10.2910  10.6942  10.8362  10.9131  11.1296  11.9117  11.9607
    12.1600  12.3039  12.3888  12.4531  12.5127  12.5837  12.6946  12.7674
    12.8951  13.0116  13.1200  13.2259  13.3846  13.4681  13.6305  13.6541
    14.3035  14.4558  14.6087  14.9815  15.3133  15.7787  15.9260  15.9471
    16.4534  16.8350  17.2775  17.3635  17.4285

          k = 0.1667 0.0000-0.5000 ( 62322 PWs)   bands (ev):

   -66.1739 -66.1739 -66.1735 -66.1735 -66.1730 -66.1730 -66.1726 -66.1726
   -30.6581 -30.6581 -30.6186 -30.6186 -30.6143 -30.6143 -30.5745 -30.5745
   -30.4778 -30.4778 -30.4456 -30.4456 -30.4432 -30.4432 -30.4329 -30.4329
   -30.4297 -30.4297 -30.3984 -30.3984 -30.3847 -30.3847 -30.3812 -30.3812
   -20.3390 -20.3390 -20.3389 -20.3389 -20.3386 -20.3386 -20.3385 -20.3385
   -20.3246 -20.3246 -20.3242 -20.3242 -20.3240 -20.3240 -20.3237 -20.3237
   -20.3196 -20.3196 -20.3175 -20.3175 -20.3173 -20.3173 -20.3152 -20.3152
   -20.3071 -20.3071 -20.3068 -20.3068 -20.3065 -20.3065 -20.3058 -20.3057
   -20.3056 -20.3056 -20.3043 -20.3043 -20.3019 -20.3019 -20.3015 -20.3015
   -20.2977 -20.2977 -20.2957 -20.2957 -20.2950 -20.2950 -20.2936 -20.2936
   -20.2901 -20.2901 -20.2892 -20.2892 -20.2888 -20.2888 -20.2875 -20.2875
    -9.6350  -9.6350  -9.3462  -9.3462  -8.9784  -8.9784  -8.7331  -8.7331
    -8.6479  -8.6479  -8.6243  -8.6243  -8.4336  -8.4336  -8.3713  -8.3713
    -8.0907  -8.0907  -7.8043  -7.8043  -7.5964  -7.5964  -7.5407  -7.5406
     1.4543   1.4543   1.7008   1.7008   1.9853   1.9853   2.0076   2.0077
     2.8175   2.8175   2.9177   2.9177   2.9808   2.9808   3.1470   3.1470
     3.2275   3.2275   3.3181   3.3181   3.5640   3.5640   3.8264   3.8264
     3.8734   3.8734   4.4235   4.4235   4.6305   4.6305   4.8357   4.8358
     4.9014   4.9015   5.0549   5.0549   5.2678   5.2678   5.5566   5.5566
     5.6802   5.6802   5.7422   5.7422   6.0016   6.0016   6.1971   6.1971
     6.4129   6.4129   6.5702   6.5703   6.6522   6.6522   6.7874   6.7874
     6.9065   6.9065   6.9913   6.9913   7.0459   7.0459   7.4215   7.4215
     7.4427   7.4427   7.7008   7.7008   7.7495   7.7495   8.0838   8.0838
    10.2985  10.2985  11.3214  11.3214  11.4887  11.4887  11.5389  11.5389
    11.8514  11.8514  12.4353  12.4353  12.5684  12.5684  12.7883  12.7883
    12.9474  12.9474  13.1316  13.1317  13.2724  13.2724  13.6073  13.6073
    14.3950  14.3950  14.8179  14.8179  15.6205  15.6205  16.1259  16.1259
    16.6460  16.6460  17.6893  17.6893  17.9596

          k = 0.1667 0.1575 0.1667 ( 62255 PWs)   bands (ev):

   -66.1743 -66.1739 -66.1734 -66.1734 -66.1731 -66.1730 -66.1726 -66.1722
   -30.6605 -30.6598 -30.6559 -30.6559 -30.5771 -30.5771 -30.5727 -30.5718
   -30.4811 -30.4806 -30.4741 -30.4740 -30.4364 -30.4338 -30.4338 -30.4321
   -30.4015 -30.4005 -30.3986 -30.3942 -30.3901 -30.3863 -30.3862 -30.3823
   -20.3391 -20.3390 -20.3388 -20.3388 -20.3387 -20.3387 -20.3384 -20.3384
   -20.3246 -20.3246 -20.3246 -20.3245 -20.3238 -20.3236 -20.3236 -20.3236
   -20.3198 -20.3196 -20.3195 -20.3195 -20.3154 -20.3153 -20.3153 -20.3150
   -20.3072 -20.3072 -20.3069 -20.3069 -20.3063 -20.3062 -20.3061 -20.3059
   -20.3046 -20.3046 -20.3045 -20.3040 -20.3024 -20.3021 -20.3020 -20.3017
   -20.2981 -20.2980 -20.2973 -20.2972 -20.2939 -20.2939 -20.2933 -20.2932
   -20.2904 -20.2902 -20.2899 -20.2899 -20.2877 -20.2877 -20.2873 -20.2872
    -9.8640  -9.6884  -9.4935  -9.4908  -9.1487  -9.1452  -8.9607  -8.9598
    -8.6435  -8.5247  -8.5241  -8.5212  -8.1853  -8.1468  -8.0599  -8.0476
    -7.8651  -7.8566  -7.7668  -7.7467  -7.7009  -7.6483  -7.6483  -7.5983
     1.3955   1.4105   1.4525   1.4547   1.6811   1.6838   1.8309   1.8967
     2.1735   2.2293   2.2384   2.3576   2.4212   2.5094   2.7962   2.9769
     3.0181   3.0228   3.9842   4.0234   4.1721   4.1789   4.2741   4.3027
     4.3495   4.3537   4.5575   4.8304   4.9243   4.9760   5.1118   5.1282
     5.1545   5.3292   5.3422   5.4266   5.4708   5.4712   5.5091   5.5669
     5.6539   5.7420   5.7843   5.8220   5.8407   5.9370   5.9980   6.0870
     6.3357   6.5058   6.5664   6.5833   6.7007   6.7404   6.7593   6.8181
     6.8620   6.9067   6.9219   7.0144   7.0448   7.0543   7.1158   7.1498
     7.2355   7.2392   7.6770   7.6917   7.9474   7.9859   8.0122   8.0852
    10.2015  10.2097  10.4525  10.4597  10.5330  10.6334  12.1062  12.1285
    12.2164  12.2414  12.2999  12.4178  12.5708  12.6100  12.7113  12.7617
    12.9020  12.9967  13.2155  13.2982  13.5009  13.5162  13.7143  13.7369
    14.4348  14.6973  14.6973  15.1190  15.4318  15.4656  15.6644  16.0863
    16.1053  16.6707  16.8990  16.9065  17.5514

          k = 0.1667 0.1575 0.3333 ( 62260 PWs)   bands (ev):

   -66.1741 -66.1737 -66.1736 -66.1732 -66.1732 -66.1729 -66.1727 -66.1724
   -30.6593 -30.6568 -30.6426 -30.6384 -30.5946 -30.5901 -30.5759 -30.5732
   -30.4796 -30.4757 -30.4649 -30.4590 -30.4356 -30.4349 -30.4340 -30.4324
   -30.4164 -30.4120 -30.3999 -30.3971 -30.3893 -30.3871 -30.3855 -30.3833
   -20.3391 -20.3390 -20.3389 -20.3388 -20.3387 -20.3386 -20.3385 -20.3384
   -20.3246 -20.3246 -20.3244 -20.3243 -20.3239 -20.3238 -20.3237 -20.3237
   -20.3197 -20.3195 -20.3188 -20.3186 -20.3163 -20.3161 -20.3153 -20.3152
   -20.3071 -20.3070 -20.3069 -20.3066 -20.3063 -20.3062 -20.3060 -20.3059
   -20.3051 -20.3050 -20.3045 -20.3042 -20.3023 -20.3021 -20.3020 -20.3018
   -20.2979 -20.2975 -20.2970 -20.2963 -20.2946 -20.2940 -20.2937 -20.2934
   -20.2902 -20.2900 -20.2899 -20.2895 -20.2884 -20.2880 -20.2876 -20.2873
    -9.7389  -9.5415  -9.5355  -9.2608  -9.2134  -8.9316  -8.8835  -8.8104
    -8.7172  -8.5588  -8.5019  -8.4825  -8.4188  -8.3419  -8.1645  -8.1357
    -8.0849  -8.0127  -7.8374  -7.7765  -7.6924  -7.6599  -7.6399  -7.6092
     1.4492   1.4579   1.6748   1.6992   2.0381   2.0892   2.1859   2.2050
     2.2605   2.3655   2.3948   2.5512   2.6906   2.7808   2.8766   2.9915
     3.1742   3.2356   3.6157   3.7857   3.8605   3.9598   4.1800   4.2013
     4.2691   4.3105   4.4151   4.4664   4.6175   4.7011   4.7258   4.8045
     4.9712   4.9827   5.0483   5.1153   5.2103   5.2947   5.4605   5.4907
     5.6240   5.6862   5.7187   5.7562   5.8367   5.9165   5.9983   6.0630
     6.3995   6.5075   6.5752   6.6819   6.6904   6.7657   6.8106   6.8595
     6.8930   6.9382   6.9855   7.0381   7.0696   7.0930   7.1544   7.2069
     7.3772   7.4469   7.6251   7.6336   7.8988   7.9148   8.0214   8.0581
    10.4091  10.4193  10.7359  10.8884  10.9743  11.1784  11.9078  11.9686
    12.1709  12.2748  12.3462  12.4004  12.4824  12.5717  12.6109  12.7031
    12.8456  12.9657  13.0816  13.2133  13.3342  13.4245  13.6114  13.6468
    14.5304  14.6737  14.8984  15.2599  15.4407  15.7858  15.9487  15.9689
    16.4898  16.8141  17.0938  17.4010  17.4617

          k = 0.1667 0.1575-0.5000 ( 62292 PWs)   bands (ev):

   -66.1738 -66.1738 -66.1735 -66.1735 -66.1730 -66.1730 -66.1726 -66.1726
   -30.6581 -30.6581 -30.6186 -30.6186 -30.6143 -30.6143 -30.5745 -30.5745
   -30.4778 -30.4777 -30.4446 -30.4446 -30.4414 -30.4414 -30.4306 -30.4306
   -30.4280 -30.4280 -30.3986 -30.3986 -30.3882 -30.3882 -30.3844 -30.3844
   -20.3390 -20.3390 -20.3389 -20.3389 -20.3386 -20.3386 -20.3385 -20.3385
   -20.3246 -20.3246 -20.3242 -20.3242 -20.3240 -20.3240 -20.3237 -20.3237
   -20.3196 -20.3196 -20.3175 -20.3175 -20.3173 -20.3173 -20.3152 -20.3152
   -20.3071 -20.3071 -20.3066 -20.3066 -20.3062 -20.3062 -20.3057 -20.3057
   -20.3056 -20.3056 -20.3043 -20.3043 -20.3022 -20.3022 -20.3019 -20.3018
   -20.2977 -20.2977 -20.2957 -20.2957 -20.2950 -20.2950 -20.2936 -20.2936
   -20.2901 -20.2901 -20.2892 -20.2892 -20.2888 -20.2888 -20.2875 -20.2875
    -9.6207  -9.6207  -9.3482  -9.3482  -8.9483  -8.9483  -8.7272  -8.7272
    -8.6396  -8.6396  -8.5968  -8.5968  -8.4154  -8.4154  -8.3564  -8.3563
    -8.0907  -8.0907  -7.8064  -7.8064  -7.6765  -7.6765  -7.6248  -7.6248
     1.4567   1.4567   1.7039   1.7039   2.1536   2.1536   2.2194   2.2194
     2.8677   2.8677   2.9313   2.9313   2.9816   2.9816   3.1548   3.1548
     3.2381   3.2381   3.3319   3.3319   3.5832   3.5832   3.8422   3.8422
     3.9241   3.9241   4.2838   4.2838   4.5781   4.5781   4.7463   4.7463
     4.8698   4.8698   4.9915   4.9915   5.1551   5.1551   5.5384   5.5384
     5.5781   5.5781   5.6588   5.6588   5.8690   5.8690   6.0233   6.0233
     6.4997   6.4997   6.6179   6.6179   6.7164   6.7164   6.8426   6.8426
     6.9027   6.9027   6.9827   6.9827   7.1222   7.1222   7.4245   7.4245
     7.4407   7.4407   7.7050   7.7050   7.7489   7.7489   8.0356   8.0356
    10.4361  10.4361  11.3398  11.3398  11.5204  11.5204  11.5769  11.5769
    11.8787  11.8787  12.3932  12.3932  12.4956  12.4956  12.7466  12.7466
    12.9114  12.9114  13.0348  13.0349  13.2444  13.2444  13.5901  13.5901
    14.6239  14.6239  15.1432  15.1432  15.6763  15.6763  16.1388  16.1388
    16.6776  16.6776  17.6149  17.6149  17.8652

          k = 0.1667 0.3150 0.1667 ( 62249 PWs)   bands (ev):

   -66.1742 -66.1740 -66.1734 -66.1733 -66.1731 -66.1731 -66.1725 -66.1723
   -30.6604 -30.6599 -30.6559 -30.6559 -30.5771 -30.5771 -30.5725 -30.5720
   -30.4810 -30.4806 -30.4740 -30.4739 -30.4268 -30.4245 -30.4245 -30.4229
   -30.4033 -30.4019 -30.4015 -30.3999 -30.3956 -30.3939 -30.3928 -30.3889
   -20.3391 -20.3391 -20.3388 -20.3388 -20.3387 -20.3387 -20.3384 -20.3384
   -20.3246 -20.3246 -20.3246 -20.3245 -20.3238 -20.3237 -20.3236 -20.3236
   -20.3198 -20.3196 -20.3195 -20.3195 -20.3154 -20.3154 -20.3153 -20.3151
   -20.3071 -20.3070 -20.3069 -20.3069 -20.3056 -20.3054 -20.3054 -20.3051
   -20.3046 -20.3045 -20.3044 -20.3040 -20.3032 -20.3030 -20.3029 -20.3026
   -20.2981 -20.2981 -20.2973 -20.2972 -20.2939 -20.2939 -20.2933 -20.2932
   -20.2903 -20.2903 -20.2899 -20.2899 -20.2877 -20.2877 -20.2873 -20.2872
    -9.8175  -9.7174  -9.4731  -9.4715  -9.1415  -9.1394  -8.9587  -8.9583
    -8.4688  -8.3850  -8.3842  -8.3796  -8.1909  -8.1443  -8.0731  -8.0476
    -7.9157  -7.8899  -7.8847  -7.8485  -7.8320  -7.8248  -7.7462  -7.7353
     1.3990   1.4068   1.4538   1.4549   1.6825   1.6839   1.8794   1.8966
     2.4379   2.4830   2.6314   2.7204   2.7475   2.8770   2.9974   3.2299
     3.2362   3.2956   3.7433   3.7763   3.8160   3.8701   4.1395   4.2443
     4.2991   4.3237   4.3265   4.6410   4.6671   4.9017   4.9590   5.0509
     5.0923   5.1536   5.1608   5.1786   5.3746   5.4059   5.4227   5.4637
     5.6345   5.6476   5.7115   5.7271   5.8099   5.8272   5.8334   5.9525
     6.4417   6.4980   6.5012   6.6323   6.6947   6.7324   6.7877   6.7984
     6.9902   6.9925   7.0290   7.0609   7.0903   7.1129   7.2186   7.2471
     7.3306   7.3330   7.6658   7.6883   7.8437   7.8699   7.8959   7.9015
    10.2749  10.2841  10.7962  10.8223  10.8492  10.9906  11.8381  11.8739
    11.9106  12.1007  12.2592  12.2744  12.5357  12.6289  12.6984  12.7538
    12.9380  13.0033  13.1653  13.2551  13.3607  13.3735  13.6450  13.6549
    15.0378  15.1862  15.2215  15.3975  15.4096  15.7713  16.0153  16.0300
    16.2758  16.3769  17.0412  17.1567  17.1918

          k = 0.1667 0.3150 0.3333 ( 62265 PWs)   bands (ev):

   -66.1740 -66.1738 -66.1735 -66.1733 -66.1732 -66.1729 -66.1727 -66.1725
   -30.6593 -30.6568 -30.6426 -30.6384 -30.5946 -30.5901 -30.5759 -30.5732
   -30.4795 -30.4756 -30.4647 -30.4586 -30.4272 -30.4262 -30.4254 -30.4234
   -30.4152 -30.4119 -30.4013 -30.3992 -30.3985 -30.3964 -30.3932 -30.3907
   -20.3390 -20.3390 -20.3389 -20.3388 -20.3387 -20.3386 -20.3385 -20.3385
   -20.3246 -20.3246 -20.3244 -20.3243 -20.3239 -20.3238 -20.3237 -20.3237
   -20.3197 -20.3195 -20.3188 -20.3186 -20.3163 -20.3161 -20.3153 -20.3152
   -20.3071 -20.3069 -20.3067 -20.3065 -20.3057 -20.3055 -20.3053 -20.3052
   -20.3050 -20.3049 -20.3044 -20.3042 -20.3031 -20.3030 -20.3028 -20.3026
   -20.2980 -20.2975 -20.2970 -20.2963 -20.2946 -20.2940 -20.2937 -20.2934
   -20.2902 -20.2900 -20.2899 -20.2895 -20.2884 -20.2880 -20.2876 -20.2873
    -9.6980  -9.5590  -9.5159  -9.2338  -9.2089  -8.9175  -8.8836  -8.8032
    -8.5757  -8.4700  -8.3762  -8.3704  -8.3580  -8.3289  -8.1609  -8.1353
    -8.0861  -8.0161  -7.9008  -7.8778  -7.8599  -7.8333  -7.8129  -7.7600
     1.4507   1.4596   1.6752   1.7005   2.0983   2.2704   2.3091   2.4447
     2.6523   2.6829   2.7164   2.7353   2.7786   2.8795   3.0879   3.2142
     3.3959   3.4271   3.6017   3.7319   3.7723   3.8075   3.9115   3.9814
     4.1061   4.2720   4.2927   4.4007   4.5427   4.5854   4.6235   4.7081
     4.7933   4.8799   4.9414   4.9819   5.0719   5.1360   5.1624   5.2430
     5.3892   5.4351   5.4761   5.6467   5.6776   5.7607   5.8379   5.8715
     6.4935   6.5751   6.6215   6.6938   6.8084   6.8531   6.8976   6.9371
     6.9886   7.0408   7.0656   7.1065   7.1477   7.1902   7.2573   7.2966
     7.4458   7.4979   7.6141   7.6396   7.8248   7.8269   7.8834   7.8923
    10.6880  10.7436  10.8770  10.9865  11.2354  11.3816  11.8073  11.9246
    12.0040  12.1073  12.2024  12.2619  12.4463  12.5057  12.5462  12.6929
    12.8146  12.8786  12.9752  13.0892  13.2318  13.3157  13.5130  13.5441
    15.1495  15.2051  15.4593  15.6409  15.8024  15.9648  16.0729  16.2844
    16.6047  16.7241  16.7967  17.2387  17.5059

          k = 0.1667 0.3150-0.5000 ( 62264 PWs)   bands (ev):

   -66.1738 -66.1738 -66.1736 -66.1736 -66.1729 -66.1729 -66.1727 -66.1727
   -30.6581 -30.6581 -30.6186 -30.6186 -30.6143 -30.6143 -30.5745 -30.5745
   -30.4777 -30.4777 -30.4431 -30.4431 -30.4386 -30.4386 -30.4230 -30.4230
   -30.4212 -30.4212 -30.4002 -30.4002 -30.3978 -30.3978 -30.3920 -30.3920
   -20.3389 -20.3389 -20.3389 -20.3389 -20.3386 -20.3386 -20.3385 -20.3385
   -20.3246 -20.3246 -20.3242 -20.3241 -20.3241 -20.3240 -20.3237 -20.3237
   -20.3196 -20.3196 -20.3175 -20.3175 -20.3173 -20.3173 -20.3153 -20.3153
   -20.3070 -20.3070 -20.3062 -20.3062 -20.3058 -20.3058 -20.3054 -20.3054
   -20.3051 -20.3051 -20.3043 -20.3043 -20.3031 -20.3031 -20.3027 -20.3027
   -20.2977 -20.2977 -20.2957 -20.2957 -20.2950 -20.2950 -20.2936 -20.2936
   -20.2901 -20.2901 -20.2892 -20.2892 -20.2888 -20.2888 -20.2875 -20.2875
    -9.5916  -9.5916  -9.3529  -9.3528  -8.8936  -8.8936  -8.7158  -8.7158
    -8.6134  -8.6134  -8.5440  -8.5440  -8.3306  -8.3306  -8.2881  -8.2881
    -8.0919  -8.0919  -7.8866  -7.8865  -7.8514  -7.8514  -7.7874  -7.7874
     1.4586   1.4586   1.7058   1.7058   2.6051   2.6051   2.7311   2.7311
     2.9306   2.9306   2.9716   2.9716   3.0493   3.0493   3.1909   3.1909
     3.2766   3.2766   3.3858   3.3858   3.6133   3.6133   3.7962   3.7962
     3.9983   3.9983   4.1210   4.1210   4.3324   4.3324   4.4791   4.4791
     4.8125   4.8125   4.8713   4.8713   5.0864   5.0864   5.1617   5.1617
     5.1996   5.1996   5.5180   5.5180   5.6887   5.6887   5.8455   5.8455
     6.5792   6.5792   6.7084   6.7084   6.7738   6.7738   6.9037   6.9037
     7.0965   7.0965   7.1478   7.1478   7.2272   7.2272   7.4177   7.4177
     7.4522   7.4522   7.6927   7.6927   7.7234   7.7234   7.8824   7.8824
    10.8075  10.8075  11.3783  11.3783  11.5469  11.5469  11.7199  11.7199
    11.9852  11.9852  12.0983  12.0983  12.4789  12.4789  12.5467  12.5468
    12.7834  12.7834  12.9007  12.9007  13.2307  13.2307  13.4511  13.4511
    15.1858  15.1858  15.6901  15.6901  16.0618  16.0618  16.2682  16.2682
    16.7748  16.7748  17.3679  17.3679  17.5629

          k = 0.1667-0.4725 0.1667 ( 62220 PWs)   bands (ev):

   -66.1741 -66.1741 -66.1733 -66.1733 -66.1732 -66.1732 -66.1724 -66.1724
   -30.6602 -30.6601 -30.6559 -30.6559 -30.5771 -30.5771 -30.5722 -30.5722
   -30.4808 -30.4808 -30.4739 -30.4739 -30.4139 -30.4139 -30.4135 -30.4135
   -30.4112 -30.4112 -30.4095 -30.4095 -30.3977 -30.3977 -30.3927 -30.3927
   -20.3391 -20.3391 -20.3388 -20.3388 -20.3387 -20.3387 -20.3384 -20.3384
   -20.3246 -20.3246 -20.3246 -20.3245 -20.3237 -20.3237 -20.3237 -20.3236
   -20.3197 -20.3197 -20.3195 -20.3195 -20.3154 -20.3154 -20.3152 -20.3152
   -20.3070 -20.3070 -20.3069 -20.3069 -20.3049 -20.3048 -20.3045 -20.3045
   -20.3043 -20.3043 -20.3042 -20.3041 -20.3040 -20.3040 -20.3037 -20.3037
   -20.2981 -20.2981 -20.2973 -20.2972 -20.2939 -20.2939 -20.2933 -20.2932
   -20.2903 -20.2903 -20.2899 -20.2899 -20.2877 -20.2877 -20.2873 -20.2872
    -9.7632  -9.7632  -9.4630  -9.4630  -9.1372  -9.1372  -8.9577  -8.9577
    -8.2615  -8.2615  -8.1820  -8.1820  -8.1723  -8.1723  -8.1466  -8.1466
    -8.0855  -8.0855  -7.9952  -7.9952  -7.8513  -7.8513  -7.7459  -7.7459
     1.4026   1.4026   1.4544   1.4544   1.6833   1.6833   1.8934   1.8934
     2.4618   2.4618   3.0295   3.0295   3.1565   3.1565   3.4471   3.4471
     3.4881   3.4881   3.6303   3.6303   3.7513   3.7513   3.9483   3.9483
     4.0213   4.0213   4.2627   4.2627   4.3466   4.3466   5.0336   5.0336
     5.1341   5.1341   5.2488   5.2488   5.3289   5.3289   5.4723   5.4723
     5.5904   5.5904   5.6487   5.6487   5.7356   5.7356   5.8432   5.8432
     6.4830   6.4831   6.5727   6.5727   6.7121   6.7121   6.7779   6.7779
     7.0276   7.0276   7.0715   7.0715   7.1243   7.1243   7.4326   7.4326
     7.5416   7.5416   7.6271   7.6271   7.7027   7.7027   7.7442   7.7442
    10.2967  10.2967  11.1882  11.1882  11.2639  11.2639  11.5291  11.5291
    11.6517  11.6517  12.2670  12.2670  12.6267  12.6267  12.6986  12.6986
    13.0713  13.0713  13.1768  13.1768  13.2014  13.2014  13.6070  13.6070
    15.3315  15.3315  15.5497  15.5497  15.8414  15.8414  15.9321  15.9321
    16.3262  16.3262  17.3978  17.3979  17.6208

          k = 0.1667-0.4725 0.3333 ( 62252 PWs)   bands (ev):

   -66.1739 -66.1739 -66.1735 -66.1734 -66.1731 -66.1730 -66.1726 -66.1726
   -30.6593 -30.6568 -30.6426 -30.6384 -30.5946 -30.5901 -30.5759 -30.5732
   -30.4795 -30.4756 -30.4646 -30.4585 -30.4223 -30.4196 -30.4133 -30.4125
   -30.4124 -30.4115 -30.4102 -30.4084 -30.4061 -30.4022 -30.3967 -30.3938
   -20.3390 -20.3390 -20.3388 -20.3388 -20.3387 -20.3386 -20.3385 -20.3385
   -20.3246 -20.3246 -20.3244 -20.3243 -20.3239 -20.3238 -20.3237 -20.3237
   -20.3197 -20.3195 -20.3188 -20.3186 -20.3163 -20.3161 -20.3153 -20.3152
   -20.3070 -20.3069 -20.3066 -20.3065 -20.3054 -20.3051 -20.3049 -20.3047
   -20.3043 -20.3042 -20.3042 -20.3041 -20.3039 -20.3039 -20.3037 -20.3037
   -20.2980 -20.2975 -20.2970 -20.2963 -20.2946 -20.2939 -20.2937 -20.2934
   -20.2902 -20.2900 -20.2899 -20.2895 -20.2884 -20.2880 -20.2876 -20.2873
    -9.6719  -9.5750  -9.5051  -9.2222  -9.2060  -8.9102  -8.8840  -8.8004
    -8.4989  -8.4188  -8.3270  -8.2547  -8.1862  -8.1768  -8.1585  -8.1440
    -8.1187  -8.0919  -8.0581  -8.0440  -8.0153  -7.9738  -7.8280  -7.7672
     1.4508   1.4598   1.6752   1.7007   2.1043   2.2944   2.3153   2.4595
     2.7228   2.7275   3.0397   3.0481   3.2238   3.2563   3.3730   3.4401
     3.4502   3.4890   3.6073   3.6231   3.7560   3.7943   3.8164   3.9101
     3.9438   3.9809   4.0195   4.0773   4.3333   4.3552   4.5651   4.6468
     4.7180   4.7743   4.8970   4.9309   5.0064   5.0507   5.1506   5.1992
     5.2556   5.3236   5.3806   5.5574   5.6734   5.7109   5.7832   5.7862
     6.5094   6.5986   6.6373   6.7036   6.8168   6.8823   6.9280   6.9725
     7.0198   7.0659   7.0918   7.1850   7.2532   7.2741   7.4245   7.4682
     7.5550   7.5856   7.5959   7.6308   7.6966   7.7109   7.7207   7.7424
    10.7581  10.8486  11.1969  11.2727  11.4763  11.5228  11.5979  11.7095
    11.8347  11.9150  11.9888  12.2274  12.4487  12.5598  12.6265  12.7091
    12.7481  12.8307  12.9340  12.9756  13.1985  13.2219  13.4630  13.4823
    15.3558  15.5186  15.6553  15.8638  16.1110  16.2855  16.3155  16.4470
    16.5274  16.5496  17.1279  17.2539  17.3610

          k = 0.1667-0.4725-0.5000 ( 62232 PWs)   bands (ev):

   -66.1737 -66.1737 -66.1736 -66.1736 -66.1728 -66.1728 -66.1728 -66.1728
   -30.6581 -30.6581 -30.6186 -30.6186 -30.6143 -30.6143 -30.5745 -30.5745
   -30.4776 -30.4776 -30.4427 -30.4427 -30.4377 -30.4377 -30.4126 -30.4126
   -30.4113 -30.4113 -30.4102 -30.4102 -30.4064 -30.4064 -30.3953 -30.3953
   -20.3389 -20.3389 -20.3389 -20.3389 -20.3386 -20.3386 -20.3385 -20.3385
   -20.3246 -20.3246 -20.3241 -20.3241 -20.3241 -20.3240 -20.3237 -20.3237
   -20.3196 -20.3196 -20.3175 -20.3175 -20.3173 -20.3173 -20.3153 -20.3153
   -20.3070 -20.3070 -20.3061 -20.3061 -20.3058 -20.3058 -20.3048 -20.3048
   -20.3042 -20.3042 -20.3042 -20.3042 -20.3038 -20.3038 -20.3038 -20.3038
   -20.2977 -20.2977 -20.2957 -20.2957 -20.2950 -20.2950 -20.2936 -20.2936
   -20.2901 -20.2901 -20.2892 -20.2892 -20.2888 -20.2888 -20.2875 -20.2875
    -9.5769  -9.5769  -9.3555  -9.3555  -8.8708  -8.8708  -8.7108  -8.7108
    -8.5961  -8.5961  -8.5227  -8.5227  -8.1813  -8.1813  -8.1498  -8.1498
    -8.1126  -8.1126  -8.0897  -8.0897  -8.0311  -8.0311  -7.7971  -7.7971
     1.4589   1.4589   1.7062   1.7062   2.8518   2.8518   2.9414   2.9414
     2.9907   2.9907   3.1129   3.1129   3.2145   3.2145   3.2723   3.2723
     3.3790   3.3790   3.4921   3.4921   3.5402   3.5402   3.6874   3.6874
     3.8066   3.8066   4.0139   4.0139   4.3664   4.3664   4.4484   4.4484
     4.5421   4.5421   4.6159   4.6160   4.8780   4.8780   4.9865   4.9865
     5.2462   5.2462   5.4499   5.4499   5.6936   5.6936   5.7389   5.7389
     6.5922   6.5922   6.7343   6.7343   6.7773   6.7773   6.9392   6.9392
     7.2219   7.2219   7.2721   7.2721   7.3506   7.3507   7.4004   7.4004
     7.5035   7.5035   7.6641   7.6642   7.6971   7.6971   7.7186   7.7186
    11.1417  11.1417  11.4143  11.4143  11.4872  11.4872  11.6996  11.6996
    12.0266  12.0266  12.1427  12.1427  12.3202  12.3203  12.3729  12.3729
    12.7271  12.7271  12.8704  12.8704  13.2730  13.2730  13.3193  13.3193
    15.4419  15.4419  15.7968  15.7968  16.6680  16.6680  16.8060  16.8061
    16.8944  16.8945  17.0326  17.0327  17.0938

          k = 0.3333 0.0000 0.3333 ( 62316 PWs)   bands (ev):

   -66.1739 -66.1735 -66.1735 -66.1734 -66.1730 -66.1730 -66.1729 -66.1725
   -30.6421 -30.6413 -30.6393 -30.6393 -30.5936 -30.5935 -30.5914 -30.5905
   -30.4640 -30.4639 -30.4611 -30.4600 -30.4386 -30.4374 -30.4373 -30.4366
   -30.4172 -30.4147 -30.4143 -30.4105 -30.3850 -30.3830 -30.3828 -30.3809
   -20.3390 -20.3389 -20.3388 -20.3388 -20.3387 -20.3387 -20.3386 -20.3385
   -20.3245 -20.3244 -20.3244 -20.3243 -20.3240 -20.3239 -20.3238 -20.3238
   -20.3189 -20.3186 -20.3186 -20.3186 -20.3163 -20.3162 -20.3162 -20.3159
   -20.3071 -20.3069 -20.3068 -20.3067 -20.3065 -20.3064 -20.3063 -20.3059
   -20.3053 -20.3051 -20.3049 -20.3046 -20.3019 -20.3018 -20.3016 -20.3015
   -20.2970 -20.2968 -20.2965 -20.2964 -20.2945 -20.2945 -20.2942 -20.2940
   -20.2899 -20.2897 -20.2896 -20.2895 -20.2883 -20.2883 -20.2882 -20.2879
    -9.5928  -9.3748  -9.3363  -9.3214  -9.0212  -8.9969  -8.8557  -8.7624
    -8.7521  -8.5511  -8.5373  -8.5181  -8.4584  -8.3806  -8.3790  -8.3209
    -8.1196  -8.1073  -8.0698  -8.0324  -7.6028  -7.5696  -7.5684  -7.5366
     1.8917   1.9227   1.9231   1.9828   2.0812   2.1203   2.1821   2.1971
     2.3580   2.3664   2.4921   2.6053   2.9347   2.9744   3.0496   3.1020
     3.2034   3.2202   3.6064   3.7258   3.9304   3.9370   4.0054   4.0613
     4.1319   4.1952   4.2762   4.3381   4.4023   4.4224   4.5355   4.5399
     4.6144   4.7481   4.9318   4.9610   5.0318   5.0649   5.1059   5.2565
     5.2816   5.4327   5.5425   5.7043   6.0983   6.1037   6.1476   6.2110
     6.4879   6.5513   6.6064   6.6201   6.7042   6.7337   6.7686   6.8032
     6.9934   7.0238   7.1005   7.1182   7.1474   7.2471   7.2729   7.3330
     7.4155   7.4904   7.5837   7.5951   7.8735   7.9187   8.0083   8.0585
    10.7025  10.7575  10.9286  10.9365  11.2922  11.4205  11.9946  11.9977
    12.0862  12.1341  12.2776  12.2839  12.5561  12.5613  12.6445  12.7710
    12.8241  12.9015  12.9551  13.1375  13.2919  13.3859  13.4131  13.5417
    14.3582  14.5607  14.5691  14.9007  15.7809  16.0970  16.3054  16.4870
    16.7163  16.9360  17.1340  17.4532  17.5572

          k = 0.3333 0.0000-0.5000 ( 62288 PWs)   bands (ev):

   -66.1737 -66.1737 -66.1733 -66.1733 -66.1732 -66.1732 -66.1728 -66.1728
   -30.6405 -30.6405 -30.6177 -30.6177 -30.6152 -30.6152 -30.5922 -30.5922
   -30.4623 -30.4623 -30.4451 -30.4451 -30.4433 -30.4433 -30.4325 -30.4325
   -30.4310 -30.4310 -30.4139 -30.4139 -30.3839 -30.3839 -30.3819 -30.3819
   -20.3389 -20.3389 -20.3388 -20.3388 -20.3387 -20.3387 -20.3386 -20.3386
   -20.3244 -20.3244 -20.3242 -20.3242 -20.3241 -20.3241 -20.3238 -20.3238
   -20.3187 -20.3187 -20.3175 -20.3175 -20.3174 -20.3174 -20.3161 -20.3161
   -20.3070 -20.3070 -20.3066 -20.3066 -20.3065 -20.3065 -20.3058 -20.3058
   -20.3056 -20.3056 -20.3048 -20.3048 -20.3019 -20.3018 -20.3016 -20.3016
   -20.2967 -20.2967 -20.2956 -20.2956 -20.2952 -20.2952 -20.2943 -20.2943
   -20.2897 -20.2897 -20.2891 -20.2891 -20.2889 -20.2889 -20.2882 -20.2881
    -9.4310  -9.4310  -9.1675  -9.1675  -9.0440  -9.0440  -8.7420  -8.7420
    -8.6262  -8.6262  -8.5906  -8.5906  -8.4345  -8.4345  -8.4013  -8.4013
    -8.3008  -8.3008  -8.0813  -8.0813  -7.5863  -7.5862  -7.5532  -7.5531
     1.9144   1.9144   1.9713   1.9713   2.1875   2.1875   2.3497   2.3497
     2.9096   2.9097   3.0019   3.0019   3.0568   3.0568   3.1828   3.1828
     3.2799   3.2799   3.4842   3.4842   3.6710   3.6710   3.8170   3.8171
     3.8957   3.8957   4.1042   4.1042   4.2426   4.2426   4.3517   4.3517
     4.5972   4.5972   4.8290   4.8290   4.9864   4.9864   5.0590   5.0590
     5.2528   5.2528   5.5723   5.5723   6.1338   6.1339   6.2128   6.2128
     6.5384   6.5384   6.5870   6.5870   6.6543   6.6544   6.7665   6.7666
     7.0971   7.0971   7.1592   7.1592   7.3050   7.3050   7.4399   7.4399
     7.4546   7.4546   7.7127   7.7127   7.7491   7.7491   8.0061   8.0061
    10.8280  10.8280  11.4589  11.4589  11.5174  11.5174  11.7825  11.7825
    12.0097  12.0097  12.1262  12.1262  12.5524  12.5524  12.7302  12.7302
    12.8109  12.8109  13.0706  13.0706  13.1163  13.1163  13.4308  13.4308
    14.4770  14.4770  14.7541  14.7541  16.1948  16.1948  16.6466  16.6466
    16.9015  16.9015  17.3957  17.3957  17.9082

          k = 0.3333 0.1575 0.3333 ( 62283 PWs)   bands (ev):

   -66.1739 -66.1736 -66.1734 -66.1734 -66.1731 -66.1731 -66.1729 -66.1726
   -30.6421 -30.6414 -30.6393 -30.6393 -30.5936 -30.5935 -30.5914 -30.5906
   -30.4638 -30.4638 -30.4608 -30.4599 -30.4355 -30.4343 -30.4343 -30.4334
   -30.4173 -30.4145 -30.4142 -30.4103 -30.3885 -30.3865 -30.3862 -30.3842
   -20.3390 -20.3389 -20.3388 -20.3388 -20.3387 -20.3387 -20.3386 -20.3385
   -20.3245 -20.3244 -20.3244 -20.3243 -20.3240 -20.3239 -20.3238 -20.3238
   -20.3189 -20.3186 -20.3186 -20.3186 -20.3163 -20.3162 -20.3162 -20.3159
   -20.3069 -20.3068 -20.3067 -20.3066 -20.3062 -20.3062 -20.3061 -20.3058
   -20.3053 -20.3051 -20.3048 -20.3046 -20.3022 -20.3021 -20.3019 -20.3018
   -20.2970 -20.2968 -20.2965 -20.2964 -20.2945 -20.2945 -20.2942 -20.2940
   -20.2898 -20.2897 -20.2896 -20.2895 -20.2883 -20.2883 -20.2881 -20.2880
    -9.5713  -9.3844  -9.3189  -9.3052  -9.0169  -8.9946  -8.8097  -8.7520
    -8.7499  -8.5183  -8.5031  -8.4800  -8.4589  -8.3784  -8.3748  -8.3105
    -8.1193  -8.1080  -8.0714  -8.0318  -7.6834  -7.6521  -7.6504  -7.6202
     1.9976   2.0361   2.0390   2.0851   2.1684   2.1895   2.2317   2.2595
     2.3769   2.3895   2.4933   2.6243   2.9560   3.0287   3.0532   3.1764
     3.2671   3.2728   3.6036   3.7206   3.9192   3.9369   4.0002   4.0632
     4.1439   4.2079   4.2518   4.3048   4.3561   4.4486   4.5172   4.5172
     4.6042   4.7257   4.8405   4.8975   4.9098   4.9418   4.9630   5.2208
     5.2306   5.2983   5.3520   5.5803   5.8444   5.9349   5.9649   6.0300
[...]
   -20.0762 -20.0762 -20.0759 -20.0759 -20.0752 -20.0752 -20.0744 -20.0744
   -20.0743 -20.0743 -20.0734 -20.0734 -20.0729 -20.0729 -20.0725 -20.0725
   -20.0651 -20.0651 -20.0640 -20.0640 -20.0637 -20.0637 -20.0627 -20.0627
   -20.0573 -20.0573 -20.0569 -20.0569 -20.0567 -20.0567 -20.0562 -20.0562
    -9.1521  -9.1521  -8.9141  -8.9141  -8.8341  -8.8341  -8.5173  -8.5173
    -8.4393  -8.4393  -8.3246  -8.3246  -8.2419  -8.2419  -8.1537  -8.1537
    -8.0224  -8.0224  -7.9129  -7.9129  -7.8881  -7.8881  -7.7800  -7.7800
     2.3583   2.3583   2.5224   2.5224   2.5745   2.5745   2.7099   2.7099
     3.1767   3.1767   3.2734   3.2734   3.3237   3.3237   3.4558   3.4558
     3.5707   3.5708   3.7532   3.7532   3.9100   3.9100   3.9935   3.9935
     4.1135   4.1135   4.2763   4.2763   4.3133   4.3133   4.4599   4.4599
     4.5830   4.5830   4.7507   4.7507   4.8212   4.8212   5.0501   5.0501
     5.1148   5.1148   5.2009   5.2009   5.3129   5.3129   5.5658   5.5658
     6.9506   6.9506   7.1030   7.1030   7.1305   7.1305   7.2288   7.2288
     7.3575   7.3575   7.4165   7.4165   7.5193   7.5193   7.6757   7.6757
     7.6970   7.6970   7.8029   7.8029   7.8325   7.8325   7.9863   7.9863
    11.4175  11.4175  11.7930  11.7930  11.9603  11.9603  12.0041  12.0041
    12.2698  12.2698  12.4572  12.4572  12.5941  12.5941  12.7260  12.7260
    12.9155  12.9155  13.0304  13.0304  13.1060  13.1060  13.4302  13.4302
    16.0803  16.0803  16.4460  16.4460  16.6998  16.6998  16.8833  16.8833
    17.0941  17.0941  17.5620  17.5620  17.8586

          k = 0.3313-0.4839 0.3313 ( 61554 PWs)   bands (ev):

   -65.9514 -65.9514 -65.9510 -65.9510 -65.9509 -65.9509 -65.9505 -65.9505
   -30.3976 -30.3976 -30.3951 -30.3951 -30.3567 -30.3567 -30.3540 -30.3540
   -30.2745 -30.2745 -30.2731 -30.2731 -30.2689 -30.2689 -30.2673 -30.2673
   -30.2209 -30.2209 -30.2174 -30.2174 -30.1786 -30.1786 -30.1758 -30.1758
   -20.1105 -20.1104 -20.1103 -20.1102 -20.1102 -20.1102 -20.1100 -20.1100
   -20.0965 -20.0965 -20.0965 -20.0965 -20.0959 -20.0959 -20.0959 -20.0959
   -20.0856 -20.0856 -20.0855 -20.0855 -20.0836 -20.0836 -20.0835 -20.0835
   -20.0754 -20.0753 -20.0753 -20.0753 -20.0746 -20.0746 -20.0746 -20.0746
   -20.0744 -20.0744 -20.0742 -20.0742 -20.0733 -20.0733 -20.0731 -20.0731
   -20.0652 -20.0652 -20.0650 -20.0650 -20.0628 -20.0628 -20.0626 -20.0626
   -20.0574 -20.0574 -20.0571 -20.0571 -20.0563 -20.0563 -20.0561 -20.0561
    -9.1879  -9.1879  -8.9960  -8.9960  -8.7591  -8.7591  -8.4697  -8.4697
    -8.4220  -8.4220  -8.2508  -8.2508  -8.2033  -8.2033  -8.1895  -8.1895
    -8.0854  -8.0854  -8.0303  -8.0303  -7.8199  -7.8199  -7.7610  -7.7610
     2.3623   2.3623   2.3997   2.3997   2.6110   2.6110   2.7469   2.7469
     3.1276   3.1277   3.2225   3.2225   3.3647   3.3647   3.4208   3.4208
     3.4723   3.4723   3.8276   3.8276   3.9775   3.9775   4.0124   4.0124
     4.0436   4.0436   4.2423   4.2423   4.3563   4.3563   4.5137   4.5137
     4.7303   4.7303   4.7905   4.7905   4.8983   4.8983   5.0125   5.0125
     5.1204   5.1204   5.1650   5.1650   5.2452   5.2452   5.5507   5.5507
     6.9774   6.9774   7.1187   7.1187   7.2286   7.2286   7.2939   7.2939
     7.3752   7.3752   7.4185   7.4185   7.4845   7.4845   7.6072   7.6072
     7.6778   7.6778   7.7820   7.7820   7.8445   7.8445   7.8969   7.8969
    11.3488  11.3488  11.7928  11.7928  11.8850  11.8850  12.1293  12.1293
    12.2237  12.2237  12.3906  12.3906  12.5545  12.5545  12.7589  12.7589
    12.8958  12.8958  13.0425  13.0425  13.1155  13.1155  13.4119  13.4119
    16.0983  16.0983  16.4416  16.4416  16.6999  16.6999  16.8268  16.8268
    17.1918  17.1918  17.7126  17.7126  17.8121

          k = 0.3313-0.4839-0.4969 ( 61548 PWs)   bands (ev):

   -65.9512 -65.9512 -65.9512 -65.9512 -65.9507 -65.9507 -65.9507 -65.9507
   -30.3963 -30.3963 -30.3768 -30.3768 -30.3743 -30.3742 -30.3553 -30.3553
   -30.2740 -30.2739 -30.2720 -30.2720 -30.2705 -30.2705 -30.2682 -30.2682
   -30.2192 -30.2192 -30.1997 -30.1997 -30.1966 -30.1966 -30.1773 -30.1773
   -20.1103 -20.1103 -20.1103 -20.1103 -20.1101 -20.1101 -20.1101 -20.1101
   -20.0965 -20.0965 -20.0962 -20.0962 -20.0962 -20.0961 -20.0959 -20.0959
   -20.0856 -20.0856 -20.0846 -20.0846 -20.0845 -20.0845 -20.0836 -20.0836
   -20.0753 -20.0753 -20.0750 -20.0750 -20.0746 -20.0746 -20.0746 -20.0745
   -20.0744 -20.0743 -20.0742 -20.0742 -20.0737 -20.0737 -20.0732 -20.0732
   -20.0651 -20.0651 -20.0640 -20.0640 -20.0637 -20.0637 -20.0627 -20.0627
   -20.0573 -20.0573 -20.0569 -20.0569 -20.0567 -20.0567 -20.0562 -20.0562
    -9.0769  -9.0769  -8.9402  -8.9402  -8.6882  -8.6882  -8.5529  -8.5529
    -8.3520  -8.3520  -8.2928  -8.2928  -8.2002  -8.2002  -8.1822  -8.1822
    -8.1026  -8.1026  -8.0625  -8.0625  -8.0047  -8.0047  -7.7905  -7.7905
     2.4036   2.4036   2.6130   2.6130   3.0308   3.0308   3.1416   3.1416
     3.2583   3.2583   3.3110   3.3110   3.3300   3.3300   3.4097   3.4097
     3.6181   3.6181   3.6414   3.6414   3.7768   3.7768   4.0036   4.0036
     4.0545   4.0545   4.1703   4.1703   4.3221   4.3221   4.4719   4.4719
     4.5945   4.5945   4.6173   4.6173   4.7077   4.7077   4.7612   4.7612
     4.8910   4.8910   5.0497   5.0497   5.2276   5.2276   5.2593   5.2593
     7.0361   7.0361   7.2359   7.2359   7.2801   7.2801   7.3162   7.3162
     7.4236   7.4236   7.4837   7.4837   7.5850   7.5850   7.6328   7.6328
     7.7011   7.7011   7.7747   7.7747   7.8050   7.8050   7.8731   7.8731
    11.6816  11.6816  11.8532  11.8532  12.0159  12.0159  12.1633  12.1633
    12.2889  12.2889  12.4510  12.4510  12.5506  12.5506  12.6109  12.6109
    12.7167  12.7167  12.8254  12.8254  13.1315  13.1315  13.2046  13.2046
    16.3247  16.3247  16.6049  16.6049  17.1244  17.1244  17.2555  17.2555
    17.4261  17.4261  17.5270  17.5274  17.6193

          k =-0.4969 0.0000-0.4969 ( 61660 PWs)   bands (ev):

   -65.9513 -65.9513 -65.9513 -65.9513 -65.9507 -65.9506 -65.9506 -65.9506
   -30.3807 -30.3807 -30.3801 -30.3801 -30.3728 -30.3728 -30.3723 -30.3723
   -30.3036 -30.3036 -30.3032 -30.3032 -30.2376 -30.2376 -30.2369 -30.2369
   -30.1992 -30.1992 -30.1985 -30.1985 -30.1976 -30.1976 -30.1971 -30.1971
   -20.1103 -20.1103 -20.1103 -20.1103 -20.1102 -20.1102 -20.1101 -20.1101
   -20.0964 -20.0963 -20.0963 -20.0963 -20.0961 -20.0961 -20.0960 -20.0960
   -20.0850 -20.0850 -20.0849 -20.0849 -20.0842 -20.0842 -20.0841 -20.0841
   -20.0775 -20.0775 -20.0774 -20.0774 -20.0748 -20.0748 -20.0747 -20.0746
   -20.0740 -20.0740 -20.0739 -20.0739 -20.0713 -20.0713 -20.0712 -20.0712
   -20.0641 -20.0641 -20.0640 -20.0640 -20.0637 -20.0637 -20.0637 -20.0637
   -20.0570 -20.0570 -20.0569 -20.0569 -20.0566 -20.0566 -20.0565 -20.0565
    -9.1800  -9.1800  -9.1652  -9.1652  -8.6622  -8.6622  -8.5982  -8.5982
    -8.4814  -8.4814  -8.4095  -8.4095  -8.1727  -8.1727  -8.1330  -8.1330
    -8.0987  -8.0987  -8.0506  -8.0506  -7.5494  -7.5493  -7.5481  -7.5481
     1.7304   1.7304   1.7414   1.7414   3.0532   3.0532   3.0787   3.0787
     3.2127   3.2127   3.2173   3.2173   3.3849   3.3849   3.4677   3.4677
     3.5750   3.5751   3.5901   3.5902   3.7365   3.7365   3.8478   3.8478
     3.8761   3.8761   4.0886   4.0886   4.3866   4.3866   4.4555   4.4555
     4.4778   4.4778   4.6198   4.6198   5.1889   5.1889   5.2336   5.2336
     5.5763   5.5763   5.6397   5.6397   6.2924   6.2924   6.3022   6.3022
     6.5702   6.5702   6.6349   6.6349   6.6359   6.6359   6.6454   6.6454
     7.5297   7.5297   7.5468   7.5468   7.5646   7.5646   7.6660   7.6660
     7.7375   7.7375   7.8151   7.8151   7.8332   7.8332   8.0459   8.0459
    11.5112  11.5112  11.6552  11.6552  11.7300  11.7300  11.8585  11.8585
    12.3382  12.3382  12.3888  12.3888  12.5014  12.5014  12.5521  12.5521
    13.2739  13.2739  13.3943  13.3943  13.5016  13.5016  13.6112  13.6112
    15.3380  15.3380  15.3577  15.3577  16.7855  16.7855  17.1053  17.1054
    17.4128  17.4128  17.4633  17.4633  17.6150

          k =-0.4969 0.1613-0.4969 ( 61604 PWs)   bands (ev):

   -65.9512 -65.9512 -65.9512 -65.9512 -65.9507 -65.9507 -65.9507 -65.9507
   -30.3799 -30.3799 -30.3792 -30.3792 -30.3732 -30.3731 -30.3726 -30.3726
   -30.2995 -30.2995 -30.2991 -30.2991 -30.2422 -30.2422 -30.2415 -30.2415
   -30.1991 -30.1990 -30.1985 -30.1985 -30.1977 -30.1977 -30.1973 -30.1973
   -20.1103 -20.1103 -20.1103 -20.1103 -20.1102 -20.1102 -20.1102 -20.1101
   -20.0963 -20.0963 -20.0963 -20.0963 -20.0961 -20.0961 -20.0960 -20.0960
   -20.0849 -20.0849 -20.0849 -20.0849 -20.0842 -20.0842 -20.0842 -20.0842
   -20.0771 -20.0771 -20.0770 -20.0770 -20.0748 -20.0748 -20.0746 -20.0746
   -20.0741 -20.0741 -20.0739 -20.0739 -20.0718 -20.0717 -20.0716 -20.0716
   -20.0641 -20.0640 -20.0640 -20.0640 -20.0637 -20.0637 -20.0637 -20.0637
   -20.0570 -20.0570 -20.0569 -20.0569 -20.0566 -20.0566 -20.0566 -20.0566
    -9.1198  -9.1198  -9.1025  -9.1025  -8.6733  -8.6733  -8.6110  -8.6110
    -8.4637  -8.4637  -8.3936  -8.3936  -8.1726  -8.1726  -8.1333  -8.1333
    -8.1008  -8.1008  -8.0507  -8.0506  -7.6494  -7.6494  -7.6472  -7.6472
     1.9526   1.9526   1.9638   1.9638   3.0655   3.0655   3.0977   3.0977
     3.2145   3.2145   3.2198   3.2198   3.4036   3.4036   3.5010   3.5010
     3.5728   3.5728   3.5873   3.5873   3.7867   3.7867   3.8884   3.8884
     3.9236   3.9236   4.1357   4.1357   4.3676   4.3676   4.4532   4.4532
     4.4598   4.4598   4.6179   4.6179   4.9633   4.9634   5.0009   5.0009
     5.3385   5.3385   5.3765   5.3765   6.0238   6.0239   6.0251   6.0251
     6.7303   6.7303   6.8009   6.8010   6.8408   6.8408   6.8767   6.8767
     7.5296   7.5296   7.5515   7.5515   7.5742   7.5742   7.6699   7.6699
     7.7408   7.7408   7.8048   7.8048   7.8412   7.8412   8.0174   8.0174
    11.5811  11.5811  11.7359  11.7359  11.7735  11.7736  11.9252  11.9252
    12.3412  12.3412  12.3833  12.3833  12.5134  12.5134  12.5589  12.5589
    13.1387  13.1388  13.2542  13.2542  13.3935  13.3935  13.4969  13.4970
    15.6710  15.6710  15.6853  15.6853  16.8429  16.8429  17.1316  17.1316
    17.3819  17.3819  17.4752  17.4752  17.6319

          k =-0.4969 0.3226-0.4969 ( 61480 PWs)   bands (ev):

   -65.9511 -65.9511 -65.9511 -65.9511 -65.9508 -65.9508 -65.9508 -65.9508
   -30.3780 -30.3780 -30.3773 -30.3773 -30.3741 -30.3741 -30.3736 -30.3736
   -30.2880 -30.2880 -30.2876 -30.2876 -30.2547 -30.2547 -30.2542 -30.2542
   -30.1987 -30.1987 -30.1985 -30.1985 -30.1980 -30.1980 -30.1977 -30.1977
   -20.1103 -20.1103 -20.1102 -20.1102 -20.1102 -20.1102 -20.1102 -20.1102
   -20.0963 -20.0963 -20.0962 -20.0962 -20.0961 -20.0961 -20.0961 -20.0961
   -20.0848 -20.0848 -20.0847 -20.0847 -20.0844 -20.0844 -20.0843 -20.0843
   -20.0761 -20.0761 -20.0760 -20.0759 -20.0748 -20.0748 -20.0745 -20.0745
   -20.0742 -20.0742 -20.0740 -20.0740 -20.0729 -20.0729 -20.0726 -20.0726
   -20.0640 -20.0640 -20.0639 -20.0639 -20.0638 -20.0638 -20.0638 -20.0637
   -20.0569 -20.0569 -20.0568 -20.0568 -20.0567 -20.0567 -20.0566 -20.0566
    -8.9684  -8.9684  -8.9406  -8.9406  -8.7121  -8.7121  -8.6572  -8.6572
    -8.3991  -8.3991  -8.3350  -8.3350  -8.1758  -8.1758  -8.1315  -8.1315
    -8.1158  -8.1158  -8.0492  -8.0492  -7.8891  -7.8891  -7.8777  -7.8777
     2.5306   2.5306   2.5401   2.5401   3.0879   3.0879   3.1291   3.1291
     3.2254   3.2254   3.2282   3.2282   3.4488   3.4488   3.5532   3.5532
     3.5705   3.5705   3.5748   3.5748   3.9085   3.9085   3.9420   3.9420
     4.1036   4.1036   4.1692   4.1692   4.3527   4.3527   4.3671   4.3671
     4.4372   4.4372   4.6118   4.6118   4.6364   4.6364   4.6691   4.6691
     4.9309   4.9309   4.9309   4.9309   5.3320   5.3320   5.3529   5.3530
     7.0242   7.0242   7.1287   7.1287   7.1492   7.1492   7.2483   7.2483
     7.5212   7.5212   7.5575   7.5575   7.5688   7.5688   7.6707   7.6707
     7.7480   7.7480   7.7772   7.7772   7.8246   7.8246   7.9332   7.9332
    11.8013  11.8013  11.9313  11.9313  11.9427  11.9427  12.1001  12.1001
    12.3436  12.3436  12.3635  12.3635  12.5606  12.5606  12.5901  12.5901
    12.8140  12.8140  12.9180  12.9180  13.0954  13.0954  13.1745  13.1745
    16.4935  16.4935  16.4983  16.4983  17.0123  17.0123  17.1911  17.1911
    17.2830  17.2830  17.5000  17.5000  17.6938

          k =-0.4969-0.4839-0.4969 ( 61496 PWs)   bands (ev):

   -65.9510 -65.9510 -65.9510 -65.9510 -65.9509 -65.9509 -65.9509 -65.9509
   -30.3764 -30.3764 -30.3752 -30.3752 -30.3752 -30.3752 -30.3752 -30.3752
   -30.2716 -30.2716 -30.2716 -30.2716 -30.2716 -30.2716 -30.2707 -30.2707
   -30.1984 -30.1984 -30.1983 -30.1983 -30.1982 -30.1982 -30.1981 -30.1981
   -20.1102 -20.1102 -20.1102 -20.1102 -20.1102 -20.1102 -20.1102 -20.1102
   -20.0962 -20.0962 -20.0962 -20.0962 -20.0962 -20.0962 -20.0961 -20.0961
   -20.0846 -20.0846 -20.0846 -20.0846 -20.0846 -20.0846 -20.0844 -20.0844
   -20.0751 -20.0750 -20.0750 -20.0750 -20.0746 -20.0746 -20.0746 -20.0746
   -20.0742 -20.0742 -20.0741 -20.0741 -20.0737 -20.0737 -20.0737 -20.0737
   -20.0639 -20.0639 -20.0639 -20.0639 -20.0638 -20.0638 -20.0638 -20.0638
   -20.0568 -20.0568 -20.0568 -20.0568 -20.0568 -20.0568 -20.0567 -20.0567
    -8.8357  -8.8357  -8.7785  -8.7785  -8.7643  -8.7643  -8.7643  -8.7643
    -8.2981  -8.2981  -8.2204  -8.2204  -8.2204  -8.2204  -8.1847  -8.1847
    -8.0962  -8.0962  -8.0962  -8.0962  -8.0392  -8.0392  -8.0185  -8.0185
     3.0485   3.0485   3.0485   3.0485   3.0654   3.0654   3.0923   3.0923
     3.2714   3.2714   3.3918   3.3918   3.3918   3.3918   3.4710   3.4710
     3.5539   3.5539   3.6773   3.6773   3.6773   3.6773   3.7142   3.7142
     4.2865   4.2865   4.2883   4.2883   4.3677   4.3677   4.3677   4.3677
     4.5565   4.5565   4.5565   4.5565   4.5601   4.5601   4.6678   4.6678
     4.7002   4.7002   4.7764   4.7764   4.7842   4.7842   4.7842   4.7842
     7.1589   7.1589   7.2920   7.2920   7.2920   7.2920   7.4512   7.4512
     7.5297   7.5297   7.5297   7.5297   7.5532   7.5532   7.6520   7.6520
     7.7624   7.7625   7.7785   7.7785   7.7785   7.7785   7.8528   7.8528
    12.0567  12.0567  12.0915  12.0915  12.0915  12.0915  12.1271  12.1271
    12.4108  12.4108  12.4219  12.4219  12.4219  12.4219  12.6431  12.6432
    12.6713  12.6713  12.8109  12.8109  12.8109  12.8109  12.8453  12.8453
    17.0978  17.0978  17.0978  17.0979  17.1786  17.1786  17.2463  17.2463
    17.5580  17.5580  17.5580  17.5580  17.6593

     the Fermi energy is     9.2144 ev

!    total energy              =   -6261.08699778 Ry
     Harris-Foulkes estimate   =   -6261.08699778 Ry
     estimated scf accuracy    <          8.8E-11 Ry

     The total energy is the sum of the following terms:

     one-electron contribution =   -4656.98169577 Ry
     hartree contribution      =    2567.95604654 Ry
     xc contribution           =    -965.63952385 Ry
     ewald contribution        =   -3206.42182470 Ry
     smearing contrib. (-TS)   =      -0.00000000 Ry

     convergence has been achieved in  14 iterations

     Forces acting on atoms (cartesian axes, Ry/au):

     atom    1 type  1   force =     0.04625313   -0.01264671    0.00654072
     atom    2 type  1   force =    -0.00654072    0.01264671    0.04625313
     atom    3 type  1   force =    -0.04625313    0.01264671    0.00654072
     atom    4 type  1   force =     0.00654072   -0.01264671    0.04625313
     atom    5 type  1   force =    -0.04625313   -0.01264671   -0.00654072
     atom    6 type  1   force =     0.00654072    0.01264671   -0.04625313
     atom    7 type  1   force =     0.04625313    0.01264671   -0.00654072
     atom    8 type  1   force =    -0.00654072   -0.01264671   -0.04625313
     atom    9 type  2   force =    -0.00177424    0.00340897    0.00335169
     atom   10 type  2   force =    -0.00335169   -0.00340897   -0.00177424
     atom   11 type  2   force =     0.00177424   -0.00340897    0.00335169
     atom   12 type  2   force =     0.00335169    0.00340897   -0.00177424
     atom   13 type  2   force =     0.00177424    0.00340897   -0.00335169
     atom   14 type  2   force =     0.00335169   -0.00340897    0.00177424
     atom   15 type  2   force =    -0.00177424   -0.00340897   -0.00335169
     atom   16 type  2   force =    -0.00335169    0.00340897    0.00177424
     atom   17 type  2   force =     0.03036856   -0.00296666   -0.00175391
     atom   18 type  2   force =     0.00041820   -0.00461920   -0.00336185
     atom   19 type  2   force =    -0.03036856    0.00296666   -0.00175391
     atom   20 type  2   force =    -0.00041820    0.00461920   -0.00336185
     atom   21 type  2   force =    -0.03036856   -0.00296666    0.00175391
     atom   22 type  2   force =    -0.00041820   -0.00461920    0.00336185
     atom   23 type  2   force =     0.03036856    0.00296666    0.00175391
     atom   24 type  2   force =     0.00041820    0.00461920    0.00336185
     atom   25 type  2   force =     0.00336185   -0.00461920   -0.00041820
     atom   26 type  2   force =     0.00175391    0.00296666    0.03036856
     atom   27 type  2   force =    -0.00336185    0.00461920   -0.00041820
     atom   28 type  2   force =    -0.00175391   -0.00296666    0.03036856
     atom   29 type  2   force =    -0.00336185   -0.00461920    0.00041820
     atom   30 type  2   force =    -0.00175391    0.00296666   -0.03036856
     atom   31 type  2   force =     0.00336185    0.00461920    0.00041820
     atom   32 type  2   force =     0.00175391   -0.00296666   -0.03036856

     Total force =     0.000000     Total SCF correction =     0.000000


     Computing stress (Cartesian axis) and pressure

          total   stress  (Ry/bohr**3)                   (kbar)     P=   -0.06
   0.00000080   0.00000000   0.00000000          0.12      0.00      0.00
   0.00000000  -0.00000272   0.00000000          0.00     -0.40      0.00
   0.00000000   0.00000000   0.00000080          0.00      0.00      0.12


     Writing output data file Landau_15.save
 
     init_run     :     57.43s CPU     59.00s WALL (       2 calls)
     electrons    :   7146.30s CPU   7269.80s WALL (       6 calls)
     update_pot   :    115.47s CPU    115.62s WALL (       4 calls)
     forces       :    156.49s CPU    158.54s WALL (       6 calls)
     stress       :   1151.25s CPU   1162.17s WALL (       6 calls)

     Called by init_run:
     wfcinit      :     33.31s CPU     34.62s WALL (       2 calls)
     potinit      :     10.68s CPU     10.73s WALL (       2 calls)

     Called by electrons:
     c_bands      :   6200.89s CPU   6317.24s WALL (      83 calls)
     sum_band     :    824.23s CPU    827.06s WALL (      83 calls)
     v_of_rho     :     11.11s CPU     11.27s WALL (      88 calls)
     mix_rho      :     17.56s CPU     20.79s WALL (      83 calls)

     Called by c_bands:
     init_us_2    :     36.49s CPU     38.88s WALL (     168 calls)
     cegterg      :   3738.61s CPU   3851.95s WALL (      83 calls)

     Called by sum_band:

     Called by *egterg:
     h_psi        :   2790.29s CPU   2801.84s WALL (     334 calls)
     g_psi        :     13.02s CPU     13.11s WALL (     249 calls)
     cdiaghg      :     43.54s CPU     43.58s WALL (     327 calls)

     Called by h_psi:
     h_psi:pot    :   2769.26s CPU   2780.11s WALL (     334 calls)
     h_psi:calbec :    349.28s CPU    356.95s WALL (     334 calls)
     vloc_psi     :   2056.35s CPU   2058.75s WALL (     334 calls)
     add_vuspsi   :    363.62s CPU    364.41s WALL (     334 calls)

     General routines
     calbec       :    398.86s CPU    407.27s WALL (     364 calls)
     fft          :      7.56s CPU      7.57s WALL (     400 calls)
     fftw         :   2088.94s CPU   2090.55s WALL (  109341 calls)
 
     Parallel routines
 
     PWSCF        :     2h24m CPU        2h26m WALL

 
   This run was terminated on:   6:21:23  23Mar2020            

=------------------------------------------------------------------------------=
   JOB DONE.
=------------------------------------------------------------------------------=
