
     Program PWSCF v.6.2 (svn rev. 14038) starts on 11Mar2020 at  7:41:48 

     This program is part of the open-source Quantum ESPRESSO suite
     for quantum simulation of materials; please cite
         "P. Giannozzi et al., J. Phys.:Condens. Matter 21 395502 (2009);
         "P. Giannozzi et al., J. Phys.:Condens. Matter 29 465901 (2017);
          URL http://www.quantum-espresso.org", 
     in publications or presentations arising from this work. More details at
     http://www.quantum-espresso.org/quote

     Parallel version (MPI), running on    40 processors

     MPI processes distributed on     9 nodes
     K-points division:     npool     =      40
     Reading input from rscf.in

     Current dimensions of program PWSCF are:
     Max number of different atomic species (ntypx) = 10
     Max number of k-points (npk) =  40000
     Max angular momentum in pseudopotentials (lmaxx) =  3

     Subspace diagonalization in iterative solution of the eigenvalue problem:
     a serial algorithm will be used

 
     G-vector sticks info
     --------------------
     sticks:   dense  smooth     PW     G-vecs:    dense   smooth      PW
     Sum        7747    7747   2077               498127   498127   69057
 


     bravais-lattice index     =            0
     lattice parameter (alat)  =      13.8397  a.u.
     unit-cell volume          =    2804.9816 (a.u.)^3
     number of atoms/cell      =           32
     number of atomic types    =            2
     number of electrons       =       368.00
     number of Kohn-Sham states=          221
     kinetic-energy cutoff     =     120.0000  Ry
     charge density cutoff     =     480.0000  Ry
     convergence threshold     =      1.0E-08
     mixing beta               =       0.7000
     number of iterations used =            8  plain     mixing
     Exchange-correlation      = SLA PW NOGX NOGC ( 1  4  0  0 0 0)
     nstep                     =           50


     celldm(1)=  13.839685  celldm(2)=   0.000000  celldm(3)=   0.000000
     celldm(4)=   0.000000  celldm(5)=   0.000000  celldm(6)=   0.000000

     crystal axes: (cart. coord. in units of alat)
               a(1) = (   1.000000   0.000000   0.000000 )  
               a(2) = (   0.000000   1.058160   0.000000 )  
               a(3) = (   0.000000   0.000000   1.000000 )  

     reciprocal axes: (cart. coord. in units 2 pi/alat)
               b(1) = (  1.000000  0.000000  0.000000 )  
               b(2) = (  0.000000  0.945037  0.000000 )  
               b(3) = (  0.000000  0.000000  1.000000 )  


     PseudoPot. # 1 for W  read from file:
     /cluster/scratch/mnoe/QE/pps/W_ONCV_LDA-4.0.upf
     MD5 check sum: ba0307d5d4cd419d6f1d13dc49d7c13a
     Pseudo is Norm-conserving + core correction, Zval = 28.0
     Generated using ONCVPSP code by D. R. Hamann
     Using radial grid of 1380 points,  8 beta functions with: 
                l(1) =   0
                l(2) =   0
                l(3) =   1
                l(4) =   1
                l(5) =   2
                l(6) =   2
                l(7) =   3
                l(8) =   3

     PseudoPot. # 2 for O  read from file:
     /cluster/scratch/mnoe/QE/pps/O_ONCV_LDA-3.0.upf
     MD5 check sum: a1bd6164e7280c17a38c229939bfbd54
     Pseudo is Norm-conserving + core correction, Zval =  6.0
     Generated using ONCVPSP code by D. R. Hamann
     Using radial grid of  926 points,  5 beta functions with: 
                l(1) =   0
                l(2) =   0
                l(3) =   1
                l(4) =   1
                l(5) =   2

     atomic species   valence    mass     pseudopotential
        W             28.00   183.84000     W ( 1.00)
        O              6.00    15.99940     O ( 1.00)

      8 Sym. Ops., with inversion, found ( 6 have fractional translation)



   Cartesian axes

     site n.     atom                  positions (alat units)
         1           W   tau(   1) = (   0.2365900   0.2967333   0.0126700  )
         2           W   tau(   2) = (   0.7634100   0.7614268   0.9873300  )
         3           W   tau(   3) = (   0.2634100   0.2323468   0.5126700  )
         4           W   tau(   4) = (   0.7365900   0.8258133   0.4873300  )
         5           W   tau(   5) = (   0.7634100   0.2967333   0.4873300  )
         6           W   tau(   6) = (   0.2365900   0.7614268   0.5126700  )
         7           W   tau(   7) = (   0.7365900   0.2323468   0.9873300  )
         8           W   tau(   8) = (   0.2634100   0.8258133   0.0126700  )
         9           O   tau(   9) = (   0.2252600   0.0083899   0.0039400  )
        10           O   tau(  10) = (   0.7747400   1.0497702   0.9960600  )
        11           O   tau(  11) = (   0.2747400   0.5206902   0.5039400  )
        12           O   tau(  12) = (   0.7252600   0.5374699   0.4960600  )
        13           O   tau(  13) = (   0.7747400   0.0083899   0.4960600  )
        14           O   tau(  14) = (   0.2252600   1.0497702   0.5039400  )
        15           O   tau(  15) = (   0.7252600   0.5206902   0.9960600  )
        16           O   tau(  16) = (   0.2747400   0.5374699   0.0039400  )
        17           O   tau(  17) = (   0.5036700   0.2376839   0.4530518  )
        18           O   tau(  18) = (   0.4963300   0.8204762   0.5469482  )
        19           O   tau(  19) = (   0.9963300   0.2913962   0.9530518  )
        20           O   tau(  20) = (   0.0036700   0.7667639   0.0469482  )
        21           O   tau(  21) = (   0.4963300   0.2376839   0.0469482  )
        22           O   tau(  22) = (   0.5036700   0.8204762   0.9530518  )
        23           O   tau(  23) = (   0.0036700   0.2913962   0.5469482  )
        24           O   tau(  24) = (   0.9963300   0.7667639   0.4530518  )
        25           O   tau(  25) = (   0.7030518   0.2586778   0.7444400  )
        26           O   tau(  26) = (   0.2969482   0.7994823   0.2555600  )
        27           O   tau(  27) = (   0.7969482   0.2704022   0.2444401  )
        28           O   tau(  28) = (   0.2030518   0.7877578   0.7555600  )
        29           O   tau(  29) = (   0.2969482   0.2586778   0.7555600  )
        30           O   tau(  30) = (   0.7030518   0.7994823   0.2444401  )
        31           O   tau(  31) = (   0.2030518   0.2704022   0.2555600  )
        32           O   tau(  32) = (   0.7969482   0.7877578   0.7444400  )

     number of k points=    64  gaussian smearing, width (Ry)=  0.0007
                       cart. coord. in units 2pi/alat
        k(    1) = (   0.0000000   0.0000000   0.0000000), wk =   0.0092593
        k(    2) = (   0.0000000   0.0000000   0.1666667), wk =   0.0185185
        k(    3) = (   0.0000000   0.0000000   0.3333333), wk =   0.0185185
        k(    4) = (   0.0000000   0.0000000  -0.5000000), wk =   0.0092593
        k(    5) = (   0.0000000   0.1575061   0.0000000), wk =   0.0185185
        k(    6) = (   0.0000000   0.1575061   0.1666667), wk =   0.0370370
        k(    7) = (   0.0000000   0.1575061   0.3333333), wk =   0.0370370
        k(    8) = (   0.0000000   0.1575061  -0.5000000), wk =   0.0185185
        k(    9) = (   0.0000000   0.3150122   0.0000000), wk =   0.0185185
        k(   10) = (   0.0000000   0.3150122   0.1666667), wk =   0.0370370
        k(   11) = (   0.0000000   0.3150122   0.3333333), wk =   0.0370370
        k(   12) = (   0.0000000   0.3150122  -0.5000000), wk =   0.0185185
        k(   13) = (   0.0000000  -0.4725183   0.0000000), wk =   0.0092593
        k(   14) = (   0.0000000  -0.4725183   0.1666667), wk =   0.0185185
        k(   15) = (   0.0000000  -0.4725183   0.3333333), wk =   0.0185185
        k(   16) = (   0.0000000  -0.4725183  -0.5000000), wk =   0.0092593
        k(   17) = (   0.1666667   0.0000000   0.1666667), wk =   0.0370370
        k(   18) = (   0.1666667   0.0000000   0.3333333), wk =   0.0370370
        k(   19) = (   0.1666667   0.0000000  -0.5000000), wk =   0.0185185
        k(   20) = (   0.1666667   0.1575061   0.1666667), wk =   0.0740741
        k(   21) = (   0.1666667   0.1575061   0.3333333), wk =   0.0740741
        k(   22) = (   0.1666667   0.1575061  -0.5000000), wk =   0.0370370
        k(   23) = (   0.1666667   0.3150122   0.1666667), wk =   0.0740741
        k(   24) = (   0.1666667   0.3150122   0.3333333), wk =   0.0740741
        k(   25) = (   0.1666667   0.3150122  -0.5000000), wk =   0.0370370
        k(   26) = (   0.1666667  -0.4725183   0.1666667), wk =   0.0370370
        k(   27) = (   0.1666667  -0.4725183   0.3333333), wk =   0.0370370
        k(   28) = (   0.1666667  -0.4725183  -0.5000000), wk =   0.0185185
        k(   29) = (   0.3333333   0.0000000   0.3333333), wk =   0.0370370
        k(   30) = (   0.3333333   0.0000000  -0.5000000), wk =   0.0185185
        k(   31) = (   0.3333333   0.1575061   0.3333333), wk =   0.0740741
        k(   32) = (   0.3333333   0.1575061  -0.5000000), wk =   0.0370370
        k(   33) = (   0.3333333   0.3150122   0.3333333), wk =   0.0740741
        k(   34) = (   0.3333333   0.3150122  -0.5000000), wk =   0.0370370
        k(   35) = (   0.3333333  -0.4725183   0.3333333), wk =   0.0370370
        k(   36) = (   0.3333333  -0.4725183  -0.5000000), wk =   0.0185185
        k(   37) = (  -0.5000000   0.0000000  -0.5000000), wk =   0.0092593
        k(   38) = (  -0.5000000   0.1575061  -0.5000000), wk =   0.0185185
        k(   39) = (  -0.5000000   0.3150122  -0.5000000), wk =   0.0185185
        k(   40) = (  -0.5000000  -0.4725183  -0.5000000), wk =   0.0092593
        k(   41) = (   0.1666667   0.0000000   0.0000000), wk =   0.0185185
        k(   42) = (   0.3333333   0.0000000   0.0000000), wk =   0.0185185
        k(   43) = (  -0.5000000   0.0000000   0.0000000), wk =   0.0092593
        k(   44) = (   0.1666667  -0.1575061   0.0000000), wk =   0.0370370
        k(   45) = (   0.3333333  -0.1575061   0.0000000), wk =   0.0370370
        k(   46) = (  -0.5000000  -0.1575061   0.0000000), wk =   0.0185185
        k(   47) = (   0.1666667  -0.3150122   0.0000000), wk =   0.0370370
        k(   48) = (   0.3333333  -0.3150122   0.0000000), wk =   0.0370370
        k(   49) = (  -0.5000000  -0.3150122   0.0000000), wk =   0.0185185
        k(   50) = (   0.1666667   0.4725183   0.0000000), wk =   0.0185185
        k(   51) = (   0.3333333   0.4725183   0.0000000), wk =   0.0185185
        k(   52) = (  -0.5000000   0.4725183   0.0000000), wk =   0.0092593
        k(   53) = (   0.3333333   0.0000000   0.1666667), wk =   0.0370370
        k(   54) = (  -0.5000000   0.0000000   0.1666667), wk =   0.0185185
        k(   55) = (   0.3333333  -0.1575061   0.1666667), wk =   0.0740741
        k(   56) = (  -0.5000000  -0.1575061   0.1666667), wk =   0.0370370
        k(   57) = (   0.3333333  -0.3150122   0.1666667), wk =   0.0740741
        k(   58) = (  -0.5000000  -0.3150122   0.1666667), wk =   0.0370370
        k(   59) = (   0.3333333   0.4725183   0.1666667), wk =   0.0370370
        k(   60) = (  -0.5000000   0.4725183   0.1666667), wk =   0.0185185
        k(   61) = (  -0.5000000   0.0000000   0.3333333), wk =   0.0185185
        k(   62) = (  -0.5000000  -0.1575061   0.3333333), wk =   0.0370370
        k(   63) = (  -0.5000000  -0.3150122   0.3333333), wk =   0.0370370
        k(   64) = (  -0.5000000   0.4725183   0.3333333), wk =   0.0185185

     Dense  grid:   498127 G-vectors     FFT dimensions: ( 100, 108, 100)

     Estimated max dynamical RAM per process >       3.15 GB

     Estimated total dynamical RAM >     125.81 GB

     Initial potential from superposition of free atoms

     starting charge  367.99656, renormalised to  368.00000
     Starting wfc are  232 randomized atomic wfcs

     total cpu time spent up to now is       73.0 secs

     Self-consistent Calculation

     iteration #  1     ecut=   120.00 Ry     beta= 0.70
     Davidson diagonalization with overlap
     ethr =  1.00E-02,  avg # of iterations =  5.0

     total cpu time spent up to now is      234.0 secs

     total energy              =   -6253.96856611 Ry
     Harris-Foulkes estimate   =   -6264.56039897 Ry
     estimated scf accuracy    <      13.40922676 Ry

     iteration #  2     ecut=   120.00 Ry     beta= 0.70
     Davidson diagonalization with overlap
     ethr =  3.64E-03,  avg # of iterations =  3.4

     total cpu time spent up to now is      404.4 secs

     total energy              =   -6250.62011494 Ry
     Harris-Foulkes estimate   =   -6270.89109724 Ry
     estimated scf accuracy    <      54.84960063 Ry

     iteration #  3     ecut=   120.00 Ry     beta= 0.70
     Davidson diagonalization with overlap
     ethr =  3.64E-03,  avg # of iterations =  3.4

     total cpu time spent up to now is      557.8 secs

     total energy              =   -6261.06129767 Ry
     Harris-Foulkes estimate   =   -6261.41532667 Ry
     estimated scf accuracy    <       1.13494322 Ry

     iteration #  4     ecut=   120.00 Ry     beta= 0.70
     Davidson diagonalization with overlap
     ethr =  3.08E-04,  avg # of iterations =  2.5

     total cpu time spent up to now is      683.2 secs

     total energy              =   -6261.09335225 Ry
     Harris-Foulkes estimate   =   -6261.17804639 Ry
     estimated scf accuracy    <       0.29566293 Ry

     iteration #  5     ecut=   120.00 Ry     beta= 0.70
     Davidson diagonalization with overlap
     ethr =  8.03E-05,  avg # of iterations =  4.9

     total cpu time spent up to now is      815.1 secs

     total energy              =   -6261.08067809 Ry
     Harris-Foulkes estimate   =   -6261.12258816 Ry
     estimated scf accuracy    <       0.09109990 Ry

     iteration #  6     ecut=   120.00 Ry     beta= 0.70
     Davidson diagonalization with overlap
     ethr =  2.48E-05,  avg # of iterations =  5.0

     total cpu time spent up to now is      956.6 secs

     total energy              =   -6261.10122753 Ry
     Harris-Foulkes estimate   =   -6261.10285240 Ry
     estimated scf accuracy    <       0.00502807 Ry

     iteration #  7     ecut=   120.00 Ry     beta= 0.70
     Davidson diagonalization with overlap
     ethr =  1.37E-06,  avg # of iterations =  3.5

     total cpu time spent up to now is     1086.6 secs

     total energy              =   -6261.10160326 Ry
     Harris-Foulkes estimate   =   -6261.10184685 Ry
     estimated scf accuracy    <       0.00068101 Ry

     iteration #  8     ecut=   120.00 Ry     beta= 0.70
     Davidson diagonalization with overlap
     ethr =  1.85E-07,  avg # of iterations =  2.9

     total cpu time spent up to now is     1215.7 secs

     total energy              =   -6261.10168369 Ry
     Harris-Foulkes estimate   =   -6261.10171457 Ry
     estimated scf accuracy    <       0.00006647 Ry

     iteration #  9     ecut=   120.00 Ry     beta= 0.70
     Davidson diagonalization with overlap
     ethr =  1.81E-08,  avg # of iterations =  3.0

     total cpu time spent up to now is     1363.6 secs

     total energy              =   -6261.10169990 Ry
     Harris-Foulkes estimate   =   -6261.10170239 Ry
     estimated scf accuracy    <       0.00000610 Ry

     iteration # 10     ecut=   120.00 Ry     beta= 0.70
     Davidson diagonalization with overlap
     ethr =  1.66E-09,  avg # of iterations =  2.0

     total cpu time spent up to now is     1501.9 secs

     total energy              =   -6261.10170036 Ry
     Harris-Foulkes estimate   =   -6261.10170108 Ry
     estimated scf accuracy    <       0.00000153 Ry

     iteration # 11     ecut=   120.00 Ry     beta= 0.70
     Davidson diagonalization with overlap
     ethr =  4.15E-10,  avg # of iterations =  2.7

     total cpu time spent up to now is     1644.6 secs

     total energy              =   -6261.10170070 Ry
     Harris-Foulkes estimate   =   -6261.10170072 Ry
     estimated scf accuracy    <       0.00000005 Ry

     iteration # 12     ecut=   120.00 Ry     beta= 0.70
     Davidson diagonalization with overlap
     ethr =  1.35E-11,  avg # of iterations =  2.0

     total cpu time spent up to now is     1796.2 secs

     End of self-consistent calculation

          k = 0.0000 0.0000 0.0000 ( 62239 PWs)   bands (ev):

   -66.1652 -66.1648 -66.1642 -66.1641 -66.1638 -66.1637 -66.1631 -66.1627
   -30.5611 -30.5594 -30.5558 -30.5542 -30.5376 -30.5325 -30.5322 -30.5276
   -30.4913 -30.4904 -30.4871 -30.4818 -30.4651 -30.4611 -30.4489 -30.4469
   -30.4454 -30.4391 -30.4299 -30.4284 -30.4240 -30.4200 -30.4146 -30.4085
   -20.3287 -20.3286 -20.3285 -20.3284 -20.3281 -20.3280 -20.3279 -20.3278
   -20.3082 -20.3078 -20.3077 -20.3075 -20.3074 -20.3072 -20.3070 -20.3067
   -20.3042 -20.3038 -20.3038 -20.3035 -20.3033 -20.3032 -20.3031 -20.3027
   -20.3000 -20.2997 -20.2995 -20.2994 -20.2959 -20.2958 -20.2955 -20.2952
   -20.2951 -20.2950 -20.2943 -20.2943 -20.2942 -20.2939 -20.2936 -20.2935
   -20.2885 -20.2884 -20.2879 -20.2879 -20.2874 -20.2873 -20.2864 -20.2861
   -20.2801 -20.2800 -20.2790 -20.2788 -20.2786 -20.2783 -20.2775 -20.2772
    -9.9719  -9.7448  -9.5373  -9.4671  -9.3656  -9.2571  -9.0983  -9.0784
    -8.8638  -8.7367  -8.7366  -8.7226  -7.8972  -7.8786  -7.8171  -7.7975
    -7.7403  -7.7373  -7.7310  -7.7125  -7.6691  -7.6462  -7.6408  -7.6100
     1.1219   1.1300   1.1875   1.1988   1.3261   1.3287   1.4730   1.5828
     1.8141   1.8265   1.8483   1.9355   2.2916   2.3726   2.6399   2.6568
     2.7958   2.7983   4.0834   4.2120   4.2390   4.4323   4.6598   4.6838
     4.6997   4.7236   4.8162   5.0239   5.1737   5.2074   5.2127   5.4651
     5.4923   5.5689   5.5694   5.5923   5.6077   5.6217   5.7406   5.7481
     5.8662   5.8792   5.8806   5.8912   5.9696   5.9932   6.0025   6.0544
     6.1332   6.2336   6.2998   6.4301   6.5383   6.7362   6.8600   6.8736
     6.9387   6.9405   6.9683   7.0185   7.0289   7.0446   7.1330   7.1686
     7.2504   7.2848   7.7439   7.7640   7.9894   8.0537   8.1055   8.1670
     9.5001   9.5226  10.0166  10.0212  10.0643  10.0714  12.1230  12.2593
    12.4179  12.4386  12.4437  12.4503  12.4811  12.5229  12.5642  12.8478
    13.2084  13.2643  13.3468  13.3523  13.5443  13.6631  14.0392  14.0450
    14.3256  14.3556  14.5788  14.8948  15.3025  15.4169  15.4533  16.0292
    16.0385  16.7597  16.9180  16.9878  17.5530

          k = 0.0000 0.0000 0.1667 ( 62262 PWs)   bands (ev):

   -66.1651 -66.1647 -66.1642 -66.1641 -66.1638 -66.1637 -66.1632 -66.1628
   -30.5547 -30.5533 -30.5494 -30.5482 -30.5372 -30.5326 -30.5320 -30.5280
   -30.4927 -30.4923 -30.4864 -30.4810 -30.4712 -30.4671 -30.4546 -30.4516
   -30.4451 -30.4399 -30.4296 -30.4280 -30.4246 -30.4210 -30.4143 -30.4090
   -20.3287 -20.3286 -20.3284 -20.3283 -20.3282 -20.3281 -20.3280 -20.3279
   -20.3082 -20.3078 -20.3077 -20.3076 -20.3073 -20.3073 -20.3071 -20.3068
   -20.3042 -20.3038 -20.3037 -20.3035 -20.3033 -20.3033 -20.3031 -20.3028
   -20.3000 -20.2997 -20.2996 -20.2994 -20.2959 -20.2958 -20.2955 -20.2953
   -20.2952 -20.2949 -20.2944 -20.2944 -20.2938 -20.2934 -20.2931 -20.2930
   -20.2885 -20.2884 -20.2881 -20.2879 -20.2877 -20.2876 -20.2868 -20.2866
   -20.2800 -20.2799 -20.2789 -20.2787 -20.2787 -20.2784 -20.2776 -20.2773
    -9.9174  -9.6839  -9.4850  -9.4588  -9.2755  -9.2715  -9.0609  -9.0438
    -8.8746  -8.7309  -8.7275  -8.7228  -7.9970  -7.9922  -7.8709  -7.8675
    -7.8300  -7.7896  -7.7472  -7.7083  -7.6776  -7.6526  -7.6463  -7.6134
     1.2547   1.2587   1.3271   1.3318   1.4488   1.4508   1.5535   1.7143
     1.8195   1.8290   1.8392   1.9919   2.3829   2.4644   2.6655   2.7301
     2.7899   2.8816   4.0849   4.1257   4.2748   4.3288   4.3563   4.4102
     4.7286   4.7288   4.7616   4.7983   4.8951   5.1758   5.2244   5.2985
     5.2993   5.4785   5.5169   5.5602   5.5995   5.6337   5.6525   5.6958
     5.7353   5.8544   5.9035   5.9196   5.9763   5.9765   6.1140   6.1398
     6.1525   6.3495   6.4392   6.5254   6.7392   6.7462   6.7570   6.8382
     6.8622   6.8709   6.9433   7.0132   7.0152   7.0164   7.0398   7.0419
     7.0850   7.1508   7.7530   7.7628   8.0092   8.0579   8.0619   8.1245
     9.7746   9.8120  10.0186  10.0608  10.2993  10.3466  12.1845  12.2079
    12.3307  12.3935  12.4637  12.4882  12.5269  12.5819  12.6198  12.8185
    13.0884  13.2158  13.2562  13.3520  13.6282  13.6639  13.8977  13.9339
    14.3397  14.4543  14.5732  15.0092  15.2725  15.4424  15.5228  16.0028
    16.3358  16.7448  16.9313  17.1188  17.6041

          k = 0.0000 0.0000 0.3333 ( 62268 PWs)   bands (ev):

   -66.1649 -66.1645 -66.1644 -66.1640 -66.1639 -66.1635 -66.1634 -66.1630
   -30.5379 -30.5369 -30.5364 -30.5336 -30.5328 -30.5319 -30.5292 -30.5291
   -30.4999 -30.4981 -30.4883 -30.4841 -30.4840 -30.4784 -30.4677 -30.4630
   -30.4441 -30.4414 -30.4287 -30.4268 -30.4260 -30.4230 -30.4133 -30.4104
   -20.3286 -20.3285 -20.3283 -20.3283 -20.3282 -20.3282 -20.3281 -20.3280
   -20.3081 -20.3077 -20.3077 -20.3076 -20.3074 -20.3072 -20.3072 -20.3069
   -20.3041 -20.3039 -20.3036 -20.3035 -20.3034 -20.3033 -20.3030 -20.3028
   -20.2999 -20.2997 -20.2997 -20.2995 -20.2958 -20.2957 -20.2956 -20.2954
   -20.2951 -20.2947 -20.2946 -20.2945 -20.2925 -20.2923 -20.2917 -20.2917
   -20.2893 -20.2892 -20.2884 -20.2884 -20.2883 -20.2878 -20.2876 -20.2875
   -20.2798 -20.2796 -20.2790 -20.2788 -20.2786 -20.2784 -20.2779 -20.2776
    -9.7837  -9.5408  -9.5391  -9.3165  -9.2526  -9.0193  -8.9412  -8.9163
    -8.9161  -8.7439  -8.7068  -8.6663  -8.3008  -8.2897  -8.2095  -8.1802
    -7.8226  -7.7667  -7.7661  -7.7009  -7.6968  -7.6608  -7.6466  -7.6225
     1.3315   1.3348   1.3411   1.3481   1.7459   1.7694   1.8050   1.8212
     2.1562   2.2144   2.3287   2.4299   2.6439   2.6809   2.7373   2.7732
     2.9729   3.1049   3.6652   3.7570   3.9027   3.9310   4.1818   4.2431
     4.3378   4.4707   4.5868   4.7404   4.7439   4.7549   4.8389   5.0761
     5.1328   5.1611   5.2268   5.3459   5.4304   5.4368   5.7252   5.7664
     5.8194   5.8359   5.9250   5.9529   6.0138   6.0591   6.1565   6.2266
     6.3041   6.3906   6.4572   6.4767   6.4935   6.6013   6.6977   6.7536
     6.7585   6.9424   6.9748   6.9973   7.0194   7.0262   7.0555   7.1022
     7.2476   7.3430   7.6948   7.7025   7.9184   7.9869   8.0417   8.0610
     9.9655  10.0094  10.4678  10.5742  10.8990  10.9893  11.8793  11.9669
    12.1631  12.3563  12.4513  12.5352  12.5899  12.6384  12.6524  12.7248
    12.8227  13.1179  13.1978  13.2528  13.5612  13.6593  13.6694  13.7135
    14.4213  14.5541  14.7216  15.1761  15.2826  15.5838  15.9210  15.9539
    16.2329  17.1638  17.4436  17.4748  17.7239

          k = 0.0000 0.0000-0.5000 ( 62264 PWs)   bands (ev):

   -66.1647 -66.1647 -66.1643 -66.1642 -66.1637 -66.1636 -66.1633 -66.1632
   -30.5349 -30.5349 -30.5307 -30.5307 -30.5161 -30.5161 -30.5121 -30.5121
   -30.5121 -30.5121 -30.5077 -30.5076 -30.4789 -30.4788 -30.4731 -30.4731
   -30.4429 -30.4428 -30.4274 -30.4274 -30.4251 -30.4251 -30.4119 -30.4119
   -20.3284 -20.3284 -20.3283 -20.3283 -20.3282 -20.3282 -20.3281 -20.3281
   -20.3079 -20.3079 -20.3076 -20.3075 -20.3074 -20.3074 -20.3071 -20.3071
   -20.3040 -20.3040 -20.3035 -20.3035 -20.3034 -20.3034 -20.3029 -20.3029
   -20.2998 -20.2998 -20.2997 -20.2997 -20.2957 -20.2957 -20.2956 -20.2956
   -20.2949 -20.2949 -20.2946 -20.2946 -20.2908 -20.2908 -20.2907 -20.2907
   -20.2900 -20.2899 -20.2899 -20.2899 -20.2881 -20.2881 -20.2877 -20.2877
   -20.2794 -20.2794 -20.2792 -20.2792 -20.2783 -20.2782 -20.2780 -20.2780
    -9.6417  -9.6417  -9.4016  -9.4016  -9.0304  -9.0303  -8.7925  -8.7925
    -8.6626  -8.6626  -8.6296  -8.6296  -8.5900  -8.5900  -8.4994  -8.4994
    -7.7945  -7.7945  -7.7333  -7.7332  -7.6794  -7.6794  -7.6348  -7.6348
     1.3380   1.3380   1.3525   1.3526   1.7898   1.7898   1.8013   1.8014
     2.7102   2.7102   2.9380   2.9380   3.0434   3.0434   3.0819   3.0819
     3.1578   3.1578   3.2634   3.2634   3.4344   3.4344   3.7488   3.7488
     3.8959   3.8959   4.4984   4.4984   4.6655   4.6656   4.9455   4.9455
     5.2433   5.2433   5.2523   5.2523   5.2806   5.2806   5.7792   5.7793
     5.8376   5.8376   6.0253   6.0253   6.0591   6.0591   6.1932   6.1932
     6.2500   6.2500   6.3441   6.3441   6.5407   6.5407   6.5996   6.5996
     6.7865   6.7865   7.0056   7.0056   7.0104   7.0104   7.4533   7.4533
     7.4819   7.4819   7.6493   7.6493   7.7299   7.7299   8.0575   8.0575
     9.9930   9.9930  11.2252  11.2252  11.3274  11.3274  11.6047  11.6047
    11.7603  11.7603  12.5537  12.5537  12.5731  12.5732  12.8699  12.8699
    12.8802  12.8803  13.1766  13.1766  13.3795  13.3796  13.6892  13.6892
    14.5104  14.5104  14.9950  14.9950  15.7013  15.7013  15.7777  15.7777
    16.7231  16.7232  17.9032  17.9033  18.1938

          k = 0.0000 0.1575 0.0000 ( 62231 PWs)   bands (ev):

   -66.1651 -66.1648 -66.1641 -66.1641 -66.1638 -66.1638 -66.1631 -66.1628
   -30.5610 -30.5595 -30.5556 -30.5542 -30.5372 -30.5328 -30.5318 -30.5279
   -30.4882 -30.4877 -30.4838 -30.4784 -30.4657 -30.4618 -30.4488 -30.4472
   -30.4463 -30.4403 -30.4320 -30.4295 -30.4235 -30.4231 -30.4167 -30.4104
   -20.3287 -20.3286 -20.3285 -20.3284 -20.3281 -20.3280 -20.3279 -20.3278
   -20.3082 -20.3078 -20.3078 -20.3075 -20.3074 -20.3072 -20.3070 -20.3068
   -20.3041 -20.3038 -20.3038 -20.3035 -20.3033 -20.3032 -20.3031 -20.3028
   -20.2997 -20.2994 -20.2992 -20.2991 -20.2961 -20.2957 -20.2955 -20.2954
   -20.2953 -20.2951 -20.2946 -20.2946 -20.2942 -20.2940 -20.2936 -20.2936
   -20.2884 -20.2883 -20.2880 -20.2879 -20.2874 -20.2873 -20.2864 -20.2862
   -20.2801 -20.2800 -20.2789 -20.2788 -20.2786 -20.2783 -20.2775 -20.2772
    -9.9504  -9.7552  -9.5170  -9.4421  -9.3718  -9.2645  -9.0967  -9.0797
    -8.7942  -8.6865  -8.6862  -8.6757  -7.9125  -7.8775  -7.8224  -7.7992
    -7.7945  -7.7800  -7.7724  -7.7358  -7.7092  -7.6998  -7.6774  -7.6712
     1.1222   1.1291   1.1881   1.1974   1.3286   1.3290   1.5220   1.5824
     1.9875   2.0355   2.0710   2.1657   2.3007   2.3667   2.7154   2.7271
     2.8644   2.8689   3.9488   4.0215   4.0883   4.1866   4.6618   4.6743
     4.6906   4.6954   4.7178   5.0815   5.1353   5.1769   5.1934   5.3228
     5.3721   5.5253   5.5508   5.6044   5.6289   5.6571   5.6585   5.7539
     5.7552   5.8402   5.8609   5.9284   5.9810   5.9922   6.0513   6.0599
     6.0644   6.2069   6.3318   6.4527   6.5880   6.7510   6.7599   6.8472
     6.8966   6.9156   6.9740   6.9767   6.9843   7.0086   7.1431   7.1654
     7.2666   7.2810   7.7458   7.7625   7.9720   8.0063   8.0657   8.0878
     9.5124   9.5243  10.2079  10.2119  10.2135  10.2342  12.0227  12.1978
    12.2952  12.3630  12.4012  12.4193  12.4596  12.4687  12.5925  12.8469
    13.2078  13.2773  13.3332  13.3664  13.6867  13.7046  13.9530  13.9583
    14.4311  14.6293  14.7400  15.0095  15.4143  15.4490  15.6982  15.9914
    16.0113  16.5170  17.0298  17.1070  17.4906

          k = 0.0000 0.1575 0.1667 ( 62237 PWs)   bands (ev):

   -66.1651 -66.1647 -66.1642 -66.1640 -66.1639 -66.1637 -66.1632 -66.1628
   -30.5546 -30.5533 -30.5493 -30.5482 -30.5368 -30.5323 -30.5322 -30.5283
   -30.4900 -30.4896 -30.4832 -30.4776 -30.4716 -30.4675 -30.4542 -30.4508
   -30.4469 -30.4412 -30.4316 -30.4291 -30.4242 -30.4241 -30.4163 -30.4110
   -20.3287 -20.3286 -20.3284 -20.3283 -20.3282 -20.3281 -20.3280 -20.3279
   -20.3081 -20.3078 -20.3077 -20.3075 -20.3074 -20.3072 -20.3071 -20.3068
   -20.3041 -20.3038 -20.3037 -20.3035 -20.3034 -20.3032 -20.3031 -20.3028
   -20.2997 -20.2994 -20.2993 -20.2991 -20.2961 -20.2957 -20.2955 -20.2955
   -20.2953 -20.2951 -20.2947 -20.2946 -20.2938 -20.2935 -20.2931 -20.2931
   -20.2885 -20.2884 -20.2882 -20.2879 -20.2877 -20.2876 -20.2868 -20.2866
   -20.2800 -20.2799 -20.2789 -20.2787 -20.2787 -20.2784 -20.2776 -20.2773
    -9.8950  -9.6944  -9.4598  -9.4363  -9.2817  -9.2790  -9.0597  -9.0449
    -8.8051  -8.6822  -8.6807  -8.6739  -7.9980  -7.9954  -7.8871  -7.8659
    -7.8415  -7.7972  -7.7917  -7.7737  -7.7437  -7.7077  -7.6846  -7.6797
     1.2548   1.2587   1.3304   1.3320   1.4512   1.4531   1.6279   1.7139
     1.9920   2.0390   2.0634   2.1836   2.3912   2.4584   2.7354   2.8072
     2.8564   2.9545   3.9603   4.0431   4.0725   4.1697   4.3301   4.3501
     4.6728   4.7197   4.7238   4.8011   4.8696   5.1387   5.1900   5.2305
     5.2789   5.3035   5.4776   5.4983   5.5500   5.5920   5.6491   5.6845
     5.7725   5.8060   5.8465   5.9519   5.9657   5.9664   6.0633   6.1105
     6.1909   6.2830   6.4494   6.5741   6.7205   6.7594   6.7843   6.8366
     6.8500   6.8748   6.9258   6.9745   6.9805   6.9888   7.0108   7.0501
     7.1276   7.1518   7.7537   7.7616   7.9803   8.0117   8.0247   8.0513
     9.8106   9.8184  10.2071  10.2335  10.4311  10.4727  12.0937  12.1626
    12.3320  12.3451  12.3472  12.3674  12.5034  12.5313  12.6501  12.8357
    13.0906  13.2131  13.2397  13.3549  13.6875  13.7494  13.8065  13.8530
    14.4784  14.7094  14.7746  15.1113  15.4372  15.5213  15.6728  15.9657
    16.3058  16.6839  16.8563  17.2129  17.5512

          k = 0.0000 0.1575 0.3333 ( 62284 PWs)   bands (ev):

   -66.1649 -66.1645 -66.1644 -66.1640 -66.1639 -66.1635 -66.1634 -66.1630
   -30.5378 -30.5369 -30.5359 -30.5332 -30.5328 -30.5316 -30.5294 -30.5293
   -30.4982 -30.4959 -30.4885 -30.4842 -30.4810 -30.4753 -30.4666 -30.4615
   -30.4459 -30.4429 -30.4304 -30.4282 -30.4264 -30.4255 -30.4154 -30.4124
   -20.3286 -20.3285 -20.3283 -20.3283 -20.3282 -20.3282 -20.3281 -20.3280
   -20.3080 -20.3077 -20.3077 -20.3076 -20.3073 -20.3073 -20.3072 -20.3069
   -20.3041 -20.3039 -20.3037 -20.3034 -20.3034 -20.3033 -20.3030 -20.3029
   -20.2996 -20.2994 -20.2994 -20.2992 -20.2960 -20.2957 -20.2956 -20.2955
   -20.2954 -20.2951 -20.2948 -20.2947 -20.2925 -20.2923 -20.2917 -20.2917
   -20.2893 -20.2892 -20.2884 -20.2884 -20.2883 -20.2879 -20.2876 -20.2875
   -20.2798 -20.2796 -20.2790 -20.2788 -20.2786 -20.2784 -20.2779 -20.2776
    -9.7593  -9.5495  -9.5153  -9.3247  -9.2204  -9.0255  -8.9385  -8.9176
    -8.8485  -8.6998  -8.6609  -8.6274  -8.3046  -8.2862  -8.2166  -8.1766
    -7.8484  -7.8102  -7.7683  -7.7568  -7.7400  -7.7171  -7.7043  -7.7030
     1.3364   1.3412   1.3418   1.3480   1.9201   1.9454   2.0198   2.0537
     2.1558   2.2424   2.3286   2.4654   2.6524   2.7141   2.7650   2.8411
     3.0495   3.1709   3.6686   3.7486   3.8537   3.9240   4.0748   4.1706
     4.2960   4.4547   4.4854   4.6023   4.6714   4.6981   4.7397   5.0339
     5.0734   5.0736   5.1925   5.2540   5.3939   5.4482   5.4990   5.7192
     5.7755   5.8613   5.8748   5.9049   5.9495   6.0649   6.0781   6.1120
     6.3582   6.3915   6.4909   6.5365   6.5785   6.6956   6.7198   6.7691
     6.8312   6.9077   6.9245   6.9477   6.9896   7.0018   7.0976   7.1146
     7.2564   7.3364   7.6957   7.7013   7.8896   7.9311   7.9994   8.0153
    10.1600  10.2038  10.4782  10.5854  10.9922  11.0661  11.8789  11.9644
    12.1432  12.3069  12.3761  12.4894  12.4987  12.6172  12.6807  12.6888
    12.7401  13.1141  13.1612  13.2429  13.4616  13.6039  13.6932  13.7610
    14.5989  14.7089  15.0674  15.3639  15.5680  15.5724  15.8863  15.9849
    16.3421  17.1219  17.1900  17.4933  17.7512

          k = 0.0000 0.1575-0.5000 ( 62234 PWs)   bands (ev):

   -66.1646 -66.1646 -66.1643 -66.1643 -66.1636 -66.1636 -66.1633 -66.1633
   -30.5345 -30.5345 -30.5309 -30.5309 -30.5154 -30.5154 -30.5121 -30.5121
   -30.5113 -30.5113 -30.5077 -30.5076 -30.4765 -30.4764 -30.4704 -30.4704
   -30.4446 -30.4446 -30.4286 -30.4286 -30.4270 -30.4269 -30.4140 -30.4140
   -20.3284 -20.3284 -20.3283 -20.3283 -20.3282 -20.3282 -20.3281 -20.3281
   -20.3079 -20.3079 -20.3075 -20.3075 -20.3074 -20.3074 -20.3071 -20.3071
   -20.3040 -20.3040 -20.3036 -20.3036 -20.3034 -20.3034 -20.3030 -20.3030
   -20.2995 -20.2995 -20.2994 -20.2993 -20.2958 -20.2958 -20.2956 -20.2956
   -20.2952 -20.2952 -20.2948 -20.2948 -20.2908 -20.2908 -20.2908 -20.2907
   -20.2900 -20.2900 -20.2899 -20.2899 -20.2881 -20.2881 -20.2877 -20.2877
   -20.2794 -20.2794 -20.2792 -20.2792 -20.2782 -20.2782 -20.2781 -20.2780
    -9.6161  -9.6161  -9.4110  -9.4110  -8.9761  -8.9761  -8.7655  -8.7655
    -8.6661  -8.6661  -8.6350  -8.6350  -8.5695  -8.5695  -8.4826  -8.4826
    -7.8292  -7.8292  -7.7354  -7.7354  -7.7333  -7.7333  -7.7268  -7.7268
     1.3452   1.3452   1.3525   1.3525   1.9693   1.9693   2.0468   2.0468
     2.7726   2.7726   2.9493   2.9493   3.0399   3.0399   3.0976   3.0976
     3.1562   3.1562   3.2923   3.2923   3.4266   3.4266   3.7699   3.7699
     3.9520   3.9520   4.3139   4.3139   4.5155   4.5155   4.7797   4.7797
     5.1886   5.1886   5.2243   5.2243   5.2775   5.2775   5.5888   5.5888
     5.8007   5.8007   5.9112   5.9112   6.0444   6.0444   6.1737   6.1737
     6.3064   6.3064   6.3852   6.3852   6.5445   6.5445   6.7422   6.7422
     6.8603   6.8604   6.9342   6.9342   6.9779   6.9779   7.4606   7.4606
     7.4790   7.4790   7.6356   7.6356   7.6993   7.6993   8.0117   8.0117
    10.1936  10.1936  11.2319  11.2320  11.3266  11.3266  11.6632  11.6632
    11.8087  11.8087  12.4270  12.4270  12.5590  12.5590  12.7912  12.7912
    12.8915  12.8916  13.0768  13.0768  13.3545  13.3545  13.7148  13.7148
    14.6767  14.6767  15.3622  15.3622  15.7493  15.7493  15.8109  15.8109
    16.7694  16.7694  17.7096  17.7096  18.1305

          k = 0.0000 0.3150 0.0000 ( 62175 PWs)   bands (ev):

   -66.1651 -66.1649 -66.1641 -66.1640 -66.1639 -66.1638 -66.1630 -66.1628
   -30.5606 -30.5597 -30.5552 -30.5544 -30.5361 -30.5336 -30.5308 -30.5286
   -30.4806 -30.4802 -30.4749 -30.4689 -30.4678 -30.4645 -30.4532 -30.4482
   -30.4441 -30.4438 -30.4416 -30.4307 -30.4281 -30.4220 -30.4213 -30.4149
   -20.3287 -20.3286 -20.3284 -20.3284 -20.3281 -20.3280 -20.3279 -20.3278
   -20.3081 -20.3079 -20.3077 -20.3075 -20.3074 -20.3071 -20.3071 -20.3068
   -20.3041 -20.3038 -20.3037 -20.3034 -20.3034 -20.3032 -20.3031 -20.3029
   -20.2988 -20.2986 -20.2983 -20.2982 -20.2967 -20.2962 -20.2959 -20.2958
   -20.2956 -20.2953 -20.2952 -20.2950 -20.2943 -20.2942 -20.2937 -20.2936
   -20.2883 -20.2882 -20.2881 -20.2880 -20.2874 -20.2873 -20.2863 -20.2862
   -20.2801 -20.2800 -20.2789 -20.2788 -20.2785 -20.2784 -20.2774 -20.2773
    -9.8971  -9.7862  -9.4707  -9.3908  -9.3849  -9.2873  -9.0929  -9.0831
    -8.6001  -8.5343  -8.5336  -8.5278  -8.0664  -8.0131  -7.9958  -7.9653
    -7.8746  -7.8617  -7.8098  -7.8035  -7.7317  -7.7186  -7.6888  -7.6768
     1.1231   1.1270   1.1895   1.1946   1.3296   1.3305   1.5635   1.5809
     2.3052   2.3509   2.5080   2.6196   2.6817   2.7906   2.9300   2.9708
     3.0538   3.1058   3.5956   3.6197   3.7506   3.7776   4.1783   4.5084
     4.5679   4.6691   4.6840   4.7087   4.7697   4.8489   5.2312   5.2415
     5.2662   5.2771   5.4677   5.4813   5.6352   5.6762   5.7084   5.7166
     5.8187   5.8205   5.9026   5.9584   5.9770   5.9789   5.9937   6.0806
     6.0870   6.1369   6.3178   6.4768   6.5196   6.6108   6.7687   6.7828
     6.8137   6.8908   7.1231   7.1404   7.1538   7.1552   7.1751   7.1882
     7.2836   7.2989   7.7317   7.7562   7.8438   7.8503   7.8611   7.8927
     9.5246   9.5273  10.6173  10.6906  10.6916  10.7167  11.6881  11.8559
    11.8793  11.9431  12.4024  12.4210  12.4625  12.4755  12.6653  12.8247
    13.2531  13.3377  13.3780  13.4096  13.5802  13.7039  13.7507  13.7534
    14.9153  15.1823  15.2240  15.4052  15.4293  15.5174  15.8674  15.9115
    16.0245  16.6549  17.0981  17.4279  17.5191

          k = 0.0000 0.3150 0.1667 ( 62260 PWs)   bands (ev):

   -66.1650 -66.1648 -66.1641 -66.1640 -66.1639 -66.1638 -66.1631 -66.1629
   -30.5542 -30.5534 -30.5489 -30.5483 -30.5357 -30.5331 -30.5312 -30.5290
   -30.4836 -30.4823 -30.4744 -30.4732 -30.4694 -30.4683 -30.4529 -30.4528
   -30.4479 -30.4453 -30.4414 -30.4322 -30.4277 -30.4227 -30.4209 -30.4156
   -20.3286 -20.3286 -20.3284 -20.3284 -20.3281 -20.3281 -20.3279 -20.3279
   -20.3081 -20.3078 -20.3077 -20.3075 -20.3075 -20.3072 -20.3071 -20.3069
   -20.3040 -20.3038 -20.3037 -20.3035 -20.3034 -20.3032 -20.3031 -20.3029
   -20.2988 -20.2986 -20.2984 -20.2982 -20.2967 -20.2963 -20.2960 -20.2958
   -20.2956 -20.2954 -20.2952 -20.2950 -20.2938 -20.2937 -20.2931 -20.2931
   -20.2884 -20.2883 -20.2882 -20.2880 -20.2877 -20.2876 -20.2867 -20.2866
   -20.2800 -20.2799 -20.2788 -20.2787 -20.2786 -20.2785 -20.2775 -20.2774
    -9.8398  -9.7259  -9.4020  -9.3854  -9.3026  -9.3009  -9.0565  -9.0480
    -8.6105  -8.5378  -8.5313  -8.5232  -8.0783  -8.0338  -8.0006  -7.9907
    -7.9794  -7.9503  -7.8614  -7.8364  -7.8074  -7.7971  -7.6972  -7.6853
     1.2553   1.2577   1.3325   1.3329   1.4524   1.4552   1.6898   1.7124
     2.3926   2.4424   2.5172   2.6109   2.6710   2.7858   2.9366   3.0464
     3.0587   3.1926   3.6208   3.6869   3.7499   3.7681   4.1499   4.3182
     4.3490   4.5255   4.5690   4.7161   4.7867   4.8584   4.8996   5.0029
     5.1596   5.2993   5.3183   5.3201   5.4595   5.4808   5.6442   5.6520
     5.7235   5.7305   5.8048   5.9266   5.9837   5.9855   6.0000   6.0768
     6.2550   6.3011   6.4219   6.5429   6.5870   6.7501   6.8023   6.8773
     6.9004   6.9276   6.9871   7.0036   7.0514   7.0535   7.1391   7.1859
     7.2130   7.2473   7.7381   7.7541   7.8377   7.8417   7.8539   7.8659
     9.8294   9.8328  10.6933  10.7244  10.7900  10.8633  11.7801  11.8513
    11.9442  11.9596  12.3218  12.3324  12.5067  12.5187  12.7299  12.8564
    13.1531  13.2410  13.2550  13.3487  13.5799  13.5879  13.6858  13.7213
    14.9959  15.1788  15.4061  15.4176  15.5076  15.6100  15.8438  16.1800
    16.2181  16.6235  17.1613  17.2337  17.5528

          k = 0.0000 0.3150 0.3333 ( 62269 PWs)   bands (ev):

   -66.1648 -66.1646 -66.1643 -66.1641 -66.1638 -66.1636 -66.1633 -66.1631
   -30.5375 -30.5370 -30.5346 -30.5330 -30.5322 -30.5310 -30.5301 -30.5298
   -30.4943 -30.4910 -30.4892 -30.4849 -30.4727 -30.4665 -30.4625 -30.4561
   -30.4518 -30.4480 -30.4402 -30.4353 -30.4268 -30.4240 -30.4200 -30.4170
   -20.3285 -20.3285 -20.3283 -20.3283 -20.3282 -20.3282 -20.3280 -20.3280
   -20.3079 -20.3077 -20.3076 -20.3076 -20.3074 -20.3073 -20.3073 -20.3070
   -20.3040 -20.3038 -20.3037 -20.3035 -20.3034 -20.3032 -20.3031 -20.3030
   -20.2988 -20.2986 -20.2985 -20.2984 -20.2966 -20.2963 -20.2962 -20.2959
   -20.2956 -20.2954 -20.2951 -20.2950 -20.2925 -20.2924 -20.2917 -20.2917
   -20.2892 -20.2892 -20.2884 -20.2884 -20.2882 -20.2880 -20.2876 -20.2875
   -20.2797 -20.2796 -20.2790 -20.2788 -20.2786 -20.2785 -20.2778 -20.2777
    -9.6998  -9.5811  -9.4558  -9.3501  -9.1493  -9.0458  -8.9327  -8.9212
    -8.6612  -8.5665  -8.5193  -8.4971  -8.3211  -8.2724  -8.2516  -8.1633
    -8.0331  -8.0102  -7.9767  -7.9451  -7.7852  -7.7741  -7.7205  -7.7087
     1.3405   1.3414   1.3468   1.3480   2.1291   2.1545   2.2529   2.3262
     2.5265   2.5948   2.6637   2.6726   2.7039   2.8142   2.9552   3.0309
     3.2839   3.3771   3.6429   3.6504   3.7413   3.7470   3.7769   3.8290
     4.1299   4.3575   4.3798   4.4313   4.4848   4.5647   4.6233   4.7063
     4.7915   4.9435   5.0501   5.0892   5.2336   5.3107   5.3442   5.3661
     5.4367   5.5605   5.7585   5.9065   6.0547   6.0873   6.1079   6.1127
     6.4284   6.4429   6.4920   6.5922   6.6211   6.7188   6.7270   6.7351
     6.9304   6.9668   7.0436   7.0668   7.1158   7.1547   7.2016   7.2338
     7.2575   7.3380   7.6895   7.6926   7.7569   7.7705   7.8381   7.8529
    10.4763  10.4989  10.6977  10.7760  11.2589  11.3265  11.7924  11.9453
    11.9525  12.0061  12.0727  12.1988  12.5686  12.6272  12.6476  12.6979
    12.7551  13.0204  13.0834  13.2223  13.2757  13.5343  13.5844  13.6817
    15.0872  15.1615  15.5121  15.7738  15.7889  15.8605  16.0872  16.5170
    16.7163  16.7313  16.9824  17.3792  17.6595

          k = 0.0000 0.3150-0.5000 ( 62306 PWs)   bands (ev):

   -66.1646 -66.1646 -66.1644 -66.1644 -66.1636 -66.1635 -66.1634 -66.1633
   -30.5336 -30.5336 -30.5316 -30.5316 -30.5140 -30.5140 -30.5123 -30.5123
   -30.5096 -30.5095 -30.5078 -30.5078 -30.4694 -30.4694 -30.4626 -30.4625
   -30.4501 -30.4501 -30.4382 -30.4381 -30.4255 -30.4255 -30.4186 -30.4186
   -20.3284 -20.3284 -20.3283 -20.3283 -20.3282 -20.3282 -20.3281 -20.3281
   -20.3078 -20.3078 -20.3075 -20.3075 -20.3074 -20.3074 -20.3072 -20.3072
   -20.3039 -20.3039 -20.3036 -20.3036 -20.3033 -20.3033 -20.3030 -20.3030
   -20.2987 -20.2987 -20.2985 -20.2985 -20.2965 -20.2964 -20.2961 -20.2961
   -20.2955 -20.2955 -20.2951 -20.2951 -20.2908 -20.2908 -20.2908 -20.2908
   -20.2900 -20.2900 -20.2899 -20.2899 -20.2880 -20.2880 -20.2878 -20.2878
   -20.2794 -20.2793 -20.2793 -20.2792 -20.2782 -20.2782 -20.2781 -20.2781
    -9.5548  -9.5548  -9.4399  -9.4399  -8.8449  -8.8448  -8.7118  -8.7118
    -8.6801  -8.6801  -8.6520  -8.6520  -8.4779  -8.4778  -8.4129  -8.4129
    -8.0246  -8.0246  -7.9653  -7.9653  -7.7527  -7.7526  -7.7412  -7.7412
     1.3508   1.3509   1.3525   1.3525   2.5076   2.5076   2.6385   2.6385
     2.9217   2.9217   2.9888   2.9888   3.0464   3.0464   3.1394   3.1394
     3.1583   3.1583   3.3745   3.3745   3.3987   3.3987   3.7125   3.7126
     4.0703   4.0703   4.0937   4.0937   4.1646   4.1646   4.3453   4.3453
     4.9084   4.9084   5.0666   5.0666   5.2111   5.2112   5.2618   5.2619
     5.4089   5.4089   5.8368   5.8368   6.1284   6.1284   6.1770   6.1770
     6.4063   6.4063   6.4431   6.4431   6.5479   6.5479   6.6981   6.6981
     7.0792   7.0792   7.1104   7.1104   7.1392   7.1392   7.4714   7.4714
     7.4739   7.4739   7.5633   7.5633   7.6042   7.6042   7.8446   7.8446
    10.6894  10.6894  11.2448  11.2448  11.3282  11.3283  11.7778  11.7778
    11.9653  11.9653  12.0993  12.0993  12.4990  12.4990  12.5532  12.5532
    12.8902  12.8902  12.8933  12.8933  13.3535  13.3535  13.6107  13.6107
    15.1323  15.1323  15.6565  15.6566  16.1660  16.1660  16.3089  16.3089
    16.9242  16.9242  17.3296  17.3296  17.8296

          k = 0.0000-0.4725 0.0000 ( 62212 PWs)   bands (ev):

   -66.1650 -66.1650 -66.1640 -66.1640 -66.1639 -66.1639 -66.1630 -66.1629
   -30.5601 -30.5601 -30.5548 -30.5548 -30.5348 -30.5347 -30.5296 -30.5296
   -30.4728 -30.4728 -30.4709 -30.4709 -30.4634 -30.4633 -30.4558 -30.4558
   -30.4464 -30.4464 -30.4389 -30.4389 -30.4254 -30.4254 -30.4192 -30.4192
   -20.3287 -20.3287 -20.3284 -20.3284 -20.3281 -20.3281 -20.3279 -20.3279
   -20.3080 -20.3080 -20.3076 -20.3076 -20.3073 -20.3073 -20.3070 -20.3070
   -20.3039 -20.3039 -20.3035 -20.3035 -20.3033 -20.3033 -20.3030 -20.3030
   -20.2977 -20.2977 -20.2974 -20.2974 -20.2971 -20.2971 -20.2970 -20.2970
   -20.2954 -20.2954 -20.2952 -20.2952 -20.2943 -20.2943 -20.2937 -20.2937
   -20.2882 -20.2882 -20.2881 -20.2881 -20.2873 -20.2873 -20.2863 -20.2863
   -20.2801 -20.2800 -20.2789 -20.2789 -20.2784 -20.2784 -20.2774 -20.2773
    -9.8361  -9.8361  -9.4242  -9.4242  -9.3278  -9.3278  -9.0879  -9.0879
    -8.3347  -8.3347  -8.2934  -8.2934  -8.2820  -8.2820  -8.2773  -8.2773
    -7.8705  -7.8705  -7.8081  -7.8081  -7.7258  -7.7258  -7.6840  -7.6840
     1.1248   1.1248   1.1918   1.1918   1.3304   1.3304   1.5767   1.5767
     2.3292   2.3293   3.0938   3.0938   3.2116   3.2116   3.2573   3.2573
     3.2839   3.2839   3.4448   3.4448   3.6681   3.6681   3.7184   3.7184
     3.8486   3.8486   4.6825   4.6825   4.6947   4.6947   5.3317   5.3318
     5.4238   5.4238   5.4315   5.4315   5.5099   5.5099   5.7802   5.7802
     5.8306   5.8306   5.8369   5.8369   5.9839   5.9839   6.0532   6.0532
     6.1200   6.1200   6.2848   6.2848   6.6272   6.6272   6.6666   6.6666
     6.8541   6.8541   7.1570   7.1570   7.2609   7.2609   7.4961   7.4961
     7.5030   7.5030   7.5601   7.5601   7.5849   7.5849   7.7690   7.7690
     9.5284   9.5284  11.1668  11.1668  11.2427  11.2427  11.2999  11.2999
    11.4034  11.4034  12.4154  12.4154  12.4727  12.4727  12.7578  12.7578
    13.3897  13.3897  13.4388  13.4388  13.5296  13.5296  13.6093  13.6093
    15.3411  15.3411  15.5484  15.5484  15.6158  15.6158  15.6786  15.6786
    16.3484  16.3484  17.8006  17.8006  18.1709

          k = 0.0000-0.4725 0.1667 ( 62246 PWs)   bands (ev):

   -66.1649 -66.1649 -66.1640 -66.1640 -66.1639 -66.1639 -66.1630 -66.1630
   -30.5538 -30.5537 -30.5485 -30.5485 -30.5343 -30.5343 -30.5300 -30.5300
   -30.4771 -30.4771 -30.4743 -30.4743 -30.4629 -30.4629 -30.4553 -30.4553
   -30.4496 -30.4496 -30.4415 -30.4415 -30.4251 -30.4251 -30.4199 -30.4198
   -20.3286 -20.3286 -20.3284 -20.3284 -20.3281 -20.3281 -20.3279 -20.3279
   -20.3079 -20.3079 -20.3076 -20.3076 -20.3073 -20.3073 -20.3070 -20.3070
   -20.3039 -20.3039 -20.3036 -20.3036 -20.3033 -20.3033 -20.3030 -20.3030
   -20.2977 -20.2977 -20.2974 -20.2974 -20.2972 -20.2972 -20.2970 -20.2970
   -20.2954 -20.2954 -20.2952 -20.2952 -20.2938 -20.2938 -20.2931 -20.2931
   -20.2883 -20.2883 -20.2882 -20.2882 -20.2877 -20.2877 -20.2867 -20.2867
   -20.2800 -20.2800 -20.2788 -20.2788 -20.2786 -20.2786 -20.2775 -20.2775
    -9.7769  -9.7769  -9.3440  -9.3439  -9.3357  -9.3357  -9.0523  -9.0523
    -8.3403  -8.3403  -8.3019  -8.3019  -8.2842  -8.2842  -8.2777  -8.2777
    -7.9823  -7.9823  -7.8538  -7.8538  -7.8038  -7.8038  -7.6925  -7.6925
     1.2563   1.2563   1.3331   1.3331   1.4541   1.4541   1.7073   1.7073
     2.4205   2.4205   3.1184   3.1184   3.2033   3.2033   3.2756   3.2757
     3.3340   3.3340   3.4288   3.4288   3.6840   3.6841   3.7309   3.7309
     3.8735   3.8735   4.3342   4.3342   4.7267   4.7267   5.0646   5.0646
     5.2397   5.2397   5.3376   5.3376   5.4894   5.4894   5.5166   5.5166
     5.7126   5.7126   5.7894   5.7894   5.9776   5.9776   6.0685   6.0685
     6.3127   6.3127   6.4010   6.4010   6.6398   6.6398   6.8496   6.8496
     6.9397   6.9397   6.9988   6.9988   7.0861   7.0861   7.4926   7.4927
     7.5112   7.5112   7.5466   7.5466   7.5751   7.5751   7.7736   7.7736
     9.8355   9.8355  11.2754  11.2754  11.3102  11.3102  11.3320  11.3320
    11.4419  11.4419  12.3270  12.3270  12.5153  12.5153  12.8224  12.8224
    13.2743  13.2743  13.3543  13.3543  13.3923  13.3923  13.6278  13.6278
    15.3392  15.3392  15.5960  15.5960  15.7456  15.7456  15.9337  15.9337
    16.4096  16.4096  17.7563  17.7569  17.8364

          k = 0.0000-0.4725 0.3333 ( 62268 PWs)   bands (ev):

   -66.1647 -66.1647 -66.1642 -66.1642 -66.1637 -66.1637 -66.1632 -66.1632
   -30.5372 -30.5372 -30.5335 -30.5335 -30.5311 -30.5311 -30.5304 -30.5304
   -30.4910 -30.4910 -30.4869 -30.4869 -30.4616 -30.4616 -30.4560 -30.4560
   -30.4531 -30.4531 -30.4466 -30.4466 -30.4242 -30.4242 -30.4213 -30.4213
   -20.3285 -20.3285 -20.3283 -20.3283 -20.3282 -20.3282 -20.3280 -20.3280
   -20.3078 -20.3078 -20.3075 -20.3075 -20.3074 -20.3074 -20.3071 -20.3071
   -20.3039 -20.3038 -20.3037 -20.3036 -20.3032 -20.3032 -20.3031 -20.3031
   -20.2977 -20.2977 -20.2974 -20.2974 -20.2973 -20.2973 -20.2972 -20.2971
   -20.2954 -20.2954 -20.2953 -20.2953 -20.2925 -20.2925 -20.2917 -20.2917
   -20.2892 -20.2892 -20.2884 -20.2884 -20.2881 -20.2881 -20.2876 -20.2876
   -20.2797 -20.2797 -20.2789 -20.2789 -20.2785 -20.2785 -20.2778 -20.2778
    -9.6335  -9.6335  -9.3946  -9.3946  -9.0855  -9.0855  -8.9265  -8.9265
    -8.4177  -8.4177  -8.3816  -8.3816  -8.2906  -8.2905  -8.2678  -8.2677
    -8.2108  -8.2107  -8.1196  -8.1196  -7.7814  -7.7814  -7.7160  -7.7160
     1.3415   1.3415   1.3479   1.3479   2.1505   2.1505   2.3145   2.3145
     2.6816   2.6816   3.1545   3.1545   3.2027   3.2027   3.2953   3.2953
     3.3762   3.3762   3.4692   3.4693   3.6457   3.6458   3.7531   3.7531
     3.8076   3.8076   3.9118   3.9118   4.4902   4.4902   4.6218   4.6219
     4.8030   4.8030   4.8813   4.8813   5.1484   5.1484   5.3420   5.3421
     5.5386   5.5386   5.7085   5.7085   6.0873   6.0873   6.1353   6.1353
     6.4476   6.4476   6.5308   6.5308   6.6305   6.6305   6.7398   6.7398
     6.9994   6.9994   7.1649   7.1649   7.1907   7.1907   7.4646   7.4646
     7.5000   7.5000   7.5329   7.5329   7.5606   7.5606   7.7198   7.7198
    10.5105  10.5105  11.2986  11.2986  11.3602  11.3602  11.6620  11.6620
    11.7518  11.7518  11.9615  11.9615  12.6471  12.6471  12.7267  12.7267
    12.8359  12.8359  13.0503  13.0503  13.3989  13.3989  13.5632  13.5632
    15.3815  15.3815  15.5520  15.5521  16.3355  16.3355  16.5828  16.5828
    16.6445  16.6445  17.3126  17.3126  17.6386

          k = 0.0000-0.4725-0.5000 ( 62284 PWs)   bands (ev):

   -66.1645 -66.1645 -66.1645 -66.1644 -66.1635 -66.1634 -66.1634 -66.1634
   -30.5325 -30.5325 -30.5325 -30.5325 -30.5129 -30.5129 -30.5129 -30.5129
   -30.5083 -30.5083 -30.5083 -30.5083 -30.4594 -30.4594 -30.4594 -30.4594
   -30.4508 -30.4507 -30.4507 -30.4507 -30.4228 -30.4228 -30.4228 -30.4228
   -20.3284 -20.3284 -20.3284 -20.3284 -20.3282 -20.3282 -20.3281 -20.3281
   -20.3077 -20.3077 -20.3076 -20.3076 -20.3073 -20.3073 -20.3073 -20.3073
   -20.3038 -20.3038 -20.3037 -20.3037 -20.3032 -20.3032 -20.3032 -20.3031
   -20.2975 -20.2975 -20.2975 -20.2975 -20.2973 -20.2973 -20.2973 -20.2973
   -20.2953 -20.2953 -20.2953 -20.2953 -20.2908 -20.2908 -20.2908 -20.2908
   -20.2900 -20.2900 -20.2899 -20.2899 -20.2879 -20.2879 -20.2879 -20.2879
   -20.2793 -20.2793 -20.2793 -20.2793 -20.2782 -20.2782 -20.2781 -20.2781
    -9.4894  -9.4894  -9.4894  -9.4894  -8.7289  -8.7289  -8.7289  -8.7289
    -8.6763  -8.6763  -8.6763  -8.6763  -8.2792  -8.2792  -8.2792  -8.2792
    -8.2339  -8.2339  -8.2339  -8.2339  -7.7485  -7.7485  -7.7485  -7.7484
     1.3523   1.3523   1.3523   1.3524   2.9395   2.9395   2.9395   2.9395
     3.0577   3.0577   3.0577   3.0577   3.2055   3.2055   3.2055   3.2056
     3.3293   3.3293   3.3293   3.3293   3.5120   3.5120   3.5121   3.5121
     3.6973   3.6973   3.6973   3.6973   4.3724   4.3724   4.3724   4.3724
     4.4916   4.4916   4.4916   4.4916   5.2172   5.2172   5.2172   5.2172
     5.6077   5.6078   5.6078   5.6078   6.1713   6.1713   6.1713   6.1713
     6.4476   6.4476   6.4476   6.4476   6.5892   6.5892   6.5892   6.5892
     7.2908   7.2908   7.2908   7.2908   7.3958   7.3958   7.3958   7.3958
     7.4688   7.4688   7.4688   7.4688   7.5923   7.5923   7.5923   7.5923
    11.1890  11.1890  11.1890  11.1890  11.4312  11.4312  11.4312  11.4312
    12.2100  12.2100  12.2100  12.2100  12.2628  12.2628  12.2628  12.2628
    12.8640  12.8640  12.8640  12.8640  13.4458  13.4458  13.4458  13.4458
    15.4731  15.4731  15.4731  15.4731  16.8552  16.8552  16.8552  16.8552
    17.2498  17.2498  17.2498  17.2499  17.3217

          k = 0.1667 0.0000 0.1667 ( 62234 PWs)   bands (ev):

   -66.1650 -66.1646 -66.1642 -66.1641 -66.1638 -66.1637 -66.1633 -66.1629
   -30.5543 -30.5529 -30.5497 -30.5485 -30.5314 -30.5271 -30.5256 -30.5220
   -30.4932 -30.4915 -30.4874 -30.4799 -30.4709 -30.4673 -30.4560 -30.4514
   -30.4494 -30.4451 -30.4351 -30.4298 -30.4275 -30.4205 -30.4166 -30.4110
   -20.3287 -20.3286 -20.3285 -20.3283 -20.3282 -20.3280 -20.3280 -20.3279
   -20.3082 -20.3078 -20.3077 -20.3076 -20.3074 -20.3073 -20.3071 -20.3068
   -20.3041 -20.3038 -20.3037 -20.3036 -20.3033 -20.3033 -20.3031 -20.3028
   -20.3000 -20.2998 -20.2996 -20.2995 -20.2958 -20.2955 -20.2952 -20.2949
   -20.2948 -20.2945 -20.2945 -20.2941 -20.2937 -20.2934 -20.2931 -20.2930
   -20.2889 -20.2889 -20.2884 -20.2884 -20.2877 -20.2876 -20.2869 -20.2867
   -20.2800 -20.2798 -20.2790 -20.2788 -20.2786 -20.2784 -20.2777 -20.2774
    -9.8688  -9.6330  -9.4764  -9.4132  -9.2892  -9.1846  -9.0223  -9.0018
    -8.8867  -8.7290  -8.7216  -8.7093  -8.0026  -7.9910  -7.9311  -7.9141
    -7.8822  -7.8768  -7.8349  -7.7976  -7.7113  -7.6639  -7.6574  -7.6178
     1.3776   1.3871   1.4503   1.4548   1.5492   1.5729   1.6126   1.8138
     1.8222   1.8367   1.8723   2.0634   2.4707   2.5569   2.7358   2.7551
     2.8637   2.8928   4.0470   4.0954   4.2677   4.2849   4.3890   4.4100
     4.4143   4.4845   4.6652   4.7498   4.8023   4.9423   5.1412   5.2496
     5.2576   5.3108   5.3583   5.5201   5.5734   5.5788   5.6417   5.6707
     5.6778   5.8010   5.8131   5.8817   5.9740   6.0814   6.1167   6.1460
     6.3628   6.4230   6.5237   6.6274   6.6468   6.7543   6.7891   6.7923
     6.7972   6.8421   6.8602   6.8816   6.9088   6.9491   6.9543   7.0498
     7.1366   7.1991   7.7524   7.7556   7.9832   8.0311   8.0849   8.1254
     9.9910  10.0393  10.2504  10.2887  10.3132  10.4133  12.1399  12.2730
    12.3551  12.3703  12.4082  12.4439  12.5502  12.6070  12.6408  12.8699
    13.0084  13.1400  13.2601  13.3216  13.6065  13.6406  13.8930  13.9294
    14.2875  14.4464  14.5728  15.1561  15.2389  15.5279  15.5478  16.2913
    16.3049  16.8802  16.9017  17.0732  17.6447

          k = 0.1667 0.0000 0.3333 ( 62265 PWs)   bands (ev):

   -66.1648 -66.1644 -66.1643 -66.1640 -66.1639 -66.1636 -66.1635 -66.1631
   -30.5370 -30.5365 -30.5326 -30.5326 -30.5303 -30.5277 -30.5243 -30.5230
   -30.4994 -30.4983 -30.4880 -30.4851 -30.4843 -30.4774 -30.4688 -30.4625
   -30.4487 -30.4463 -30.4343 -30.4315 -30.4264 -30.4225 -30.4156 -30.4125
   -20.3286 -20.3284 -20.3284 -20.3283 -20.3282 -20.3282 -20.3281 -20.3280
   -20.3080 -20.3077 -20.3077 -20.3076 -20.3074 -20.3073 -20.3072 -20.3069
   -20.3041 -20.3039 -20.3036 -20.3035 -20.3034 -20.3034 -20.3031 -20.3029
   -20.3000 -20.2998 -20.2997 -20.2996 -20.2958 -20.2956 -20.2952 -20.2949
   -20.2949 -20.2947 -20.2943 -20.2942 -20.2924 -20.2922 -20.2917 -20.2917
   -20.2894 -20.2892 -20.2888 -20.2885 -20.2884 -20.2883 -20.2878 -20.2878
   -20.2797 -20.2795 -20.2790 -20.2787 -20.2787 -20.2785 -20.2780 -20.2777
    -9.7269  -9.4741  -9.4702  -9.2711  -9.2307  -9.0335  -8.9321  -8.9092
    -8.8870  -8.7245  -8.6999  -8.6718  -8.2926  -8.2810  -8.2234  -8.1897
    -7.9249  -7.8903  -7.8631  -7.8254  -7.7026  -7.6747  -7.6512  -7.6270
     1.5409   1.5483   1.5883   1.5950   1.7567   1.7727   1.7989   1.8530
     2.1617   2.2196   2.3203   2.4274   2.7429   2.7658   2.8461   2.8591
     2.9842   3.1030   3.7063   3.8212   3.8855   3.9502   4.1972   4.2411
     4.2726   4.4437   4.5180   4.5929   4.5992   4.7145   4.7254   4.8146
     4.9724   5.0264   5.0958   5.1629   5.2493   5.3396   5.6196   5.6666
     5.6929   5.8092   5.8668   5.9225   5.9520   5.9585   6.0509   6.1242
     6.3812   6.4680   6.5114   6.5771   6.6607   6.6822   6.7221   6.7906
     6.8483   6.8717   6.8823   6.9254   6.9912   7.0407   7.1360   7.1636
     7.2761   7.3501   7.6997   7.7085   7.9325   7.9880   8.0233   8.0336
    10.2136  10.2239  10.6212  10.7154  10.9084  11.0141  11.9455  12.0196
    12.1937  12.3045  12.4655  12.4739  12.5431  12.6015  12.6988  12.7660
    12.7943  13.0329  13.1278  13.2444  13.5437  13.5609  13.6552  13.7036
    14.3899  14.5477  14.7068  15.1462  15.4461  15.7666  15.9904  16.2153
    16.3921  17.1290  17.4043  17.4901  17.5698

          k = 0.1667 0.0000-0.5000 ( 62322 PWs)   bands (ev):

   -66.1646 -66.1646 -66.1642 -66.1642 -66.1637 -66.1637 -66.1633 -66.1633
   -30.5292 -30.5292 -30.5248 -30.5248 -30.5157 -30.5157 -30.5124 -30.5124
   -30.5116 -30.5116 -30.5079 -30.5079 -30.4799 -30.4799 -30.4722 -30.4722
   -30.4476 -30.4476 -30.4330 -30.4330 -30.4246 -30.4246 -30.4142 -30.4141
   -20.3284 -20.3284 -20.3283 -20.3283 -20.3282 -20.3282 -20.3281 -20.3281
   -20.3079 -20.3079 -20.3076 -20.3076 -20.3074 -20.3074 -20.3071 -20.3071
   -20.3040 -20.3040 -20.3035 -20.3035 -20.3035 -20.3035 -20.3030 -20.3030
   -20.2999 -20.2999 -20.2997 -20.2997 -20.2957 -20.2956 -20.2950 -20.2950
   -20.2949 -20.2949 -20.2943 -20.2942 -20.2908 -20.2908 -20.2907 -20.2907
   -20.2900 -20.2900 -20.2900 -20.2899 -20.2885 -20.2885 -20.2882 -20.2881
   -20.2794 -20.2793 -20.2791 -20.2791 -20.2784 -20.2783 -20.2781 -20.2781
    -9.5760  -9.5760  -9.3213  -9.3213  -9.0482  -9.0482  -8.7687  -8.7687
    -8.6644  -8.6644  -8.6361  -8.6361  -8.5769  -8.5769  -8.5029  -8.5028
    -7.8955  -7.8955  -7.8570  -7.8570  -7.6890  -7.6890  -7.6394  -7.6394
     1.5484   1.5484   1.6049   1.6049   1.7839   1.7839   1.8367   1.8367
     2.7808   2.7808   2.9633   2.9633   3.0371   3.0371   3.1147   3.1147
     3.1620   3.1620   3.3350   3.3350   3.4870   3.4870   3.7674   3.7674
     3.8855   3.8855   4.4474   4.4474   4.5592   4.5593   4.8442   4.8442
     4.9395   4.9395   5.0207   5.0207   5.1835   5.1835   5.6933   5.6933
     5.7354   5.7354   5.7799   5.7799   5.9362   5.9362   6.1001   6.1001
     6.3671   6.3671   6.5738   6.5738   6.6010   6.6010   6.8194   6.8194
     6.8365   6.8366   6.8966   6.8966   6.9661   6.9661   7.4860   7.4860
     7.5076   7.5076   7.6677   7.6677   7.7311   7.7311   8.0313   8.0313
    10.2344  10.2344  11.3102  11.3102  11.4102  11.4102  11.6207  11.6207
    11.7759  11.7759  12.4665  12.4665  12.6310  12.6310  12.7828  12.7828
    12.9160  12.9160  13.1612  13.1613  13.2758  13.2758  13.6558  13.6558
    14.4937  14.4937  14.9713  14.9713  15.8621  15.8621  16.0273  16.0273
    16.7964  16.7964  17.8648  17.8648  18.0115

          k = 0.1667 0.1575 0.1667 ( 62255 PWs)   bands (ev):

   -66.1650 -66.1646 -66.1641 -66.1641 -66.1638 -66.1638 -66.1633 -66.1629
   -30.5542 -30.5529 -30.5496 -30.5485 -30.5309 -30.5268 -30.5257 -30.5222
   -30.4903 -30.4891 -30.4842 -30.4767 -30.4713 -30.4678 -30.4558 -30.4512
   -30.4503 -30.4461 -30.4346 -30.4312 -30.4292 -30.4237 -30.4190 -30.4133
   -20.3287 -20.3286 -20.3285 -20.3284 -20.3282 -20.3281 -20.3280 -20.3279
   -20.3081 -20.3078 -20.3077 -20.3075 -20.3074 -20.3073 -20.3071 -20.3068
   -20.3041 -20.3038 -20.3037 -20.3035 -20.3033 -20.3033 -20.3031 -20.3028
   -20.2997 -20.2995 -20.2993 -20.2991 -20.2960 -20.2956 -20.2955 -20.2949
   -20.2949 -20.2948 -20.2945 -20.2943 -20.2937 -20.2935 -20.2931 -20.2931
   -20.2888 -20.2888 -20.2884 -20.2884 -20.2877 -20.2876 -20.2869 -20.2867
   -20.2800 -20.2798 -20.2790 -20.2788 -20.2786 -20.2784 -20.2777 -20.2774
    -9.8458  -9.6434  -9.4536  -9.3853  -9.2956  -9.1922  -9.0207  -9.0030
    -8.8174  -8.6809  -8.6734  -8.6655  -8.0086  -7.9897  -7.9345  -7.9191
    -7.8862  -7.8824  -7.8415  -7.8068  -7.7887  -7.7461  -7.7424  -7.7077
     1.3781   1.3862   1.4549   1.4563   1.5662   1.5785   1.7139   1.8407
     1.9972   2.0347   2.0704   2.2104   2.4782   2.5517   2.8131   2.8266
     2.9380   2.9584   3.9378   4.0001   4.1131   4.1852   4.3386   4.3818
     4.4058   4.4153   4.6110   4.7776   4.7997   4.9288   5.0468   5.1750
     5.2326   5.2723   5.3294   5.3387   5.4377   5.5388   5.5478   5.6173
     5.6786   5.7845   5.8678   5.9002   5.9300   5.9940   6.0788   6.1449
     6.3474   6.3783   6.5184   6.5925   6.6844   6.7011   6.7663   6.7937
     6.8293   6.8356   6.8783   6.9004   6.9484   6.9850   7.0183   7.0621
     7.1535   7.2004   7.7515   7.7559   7.9548   7.9893   8.0354   8.0524
    10.0228  10.0631  10.3900  10.4225  10.4558  10.5389  12.0648  12.2327
    12.3321  12.3356  12.3746  12.3997  12.4572  12.4782  12.6738  12.8738
    13.0085  13.1263  13.2597  13.3118  13.6234  13.6682  13.8032  13.8523
    14.4934  14.7404  14.7909  15.2500  15.5280  15.5422  15.6403  16.2532
    16.2787  16.7877  16.9763  17.0168  17.6016

          k = 0.1667 0.1575 0.3333 ( 62260 PWs)   bands (ev):

   -66.1648 -66.1645 -66.1643 -66.1640 -66.1639 -66.1636 -66.1634 -66.1631
   -30.5369 -30.5364 -30.5325 -30.5324 -30.5298 -30.5272 -30.5246 -30.5232
   -30.4977 -30.4962 -30.4882 -30.4845 -30.4821 -30.4744 -30.4678 -30.4609
   -30.4501 -30.4476 -30.4338 -30.4309 -30.4299 -30.4259 -30.4180 -30.4148
   -20.3285 -20.3285 -20.3284 -20.3283 -20.3283 -20.3282 -20.3281 -20.3280
   -20.3080 -20.3077 -20.3077 -20.3076 -20.3074 -20.3073 -20.3072 -20.3070
   -20.3040 -20.3038 -20.3036 -20.3035 -20.3034 -20.3033 -20.3031 -20.3029
   -20.2997 -20.2995 -20.2994 -20.2992 -20.2960 -20.2957 -20.2955 -20.2951
   -20.2949 -20.2949 -20.2944 -20.2943 -20.2924 -20.2923 -20.2917 -20.2917
   -20.2894 -20.2892 -20.2887 -20.2885 -20.2885 -20.2883 -20.2878 -20.2878
   -20.2797 -20.2795 -20.2789 -20.2787 -20.2787 -20.2785 -20.2780 -20.2777
    -9.7013  -9.4843  -9.4424  -9.2399  -9.2379  -9.0400  -8.9074  -8.8933
    -8.8597  -8.6829  -8.6544  -8.6331  -8.2965  -8.2776  -8.2308  -8.1859
    -7.9279  -7.8971  -7.8684  -7.8327  -7.7835  -7.7551  -7.7413  -7.7171
     1.5630   1.5744   1.5876   1.5949   1.9248   1.9429   2.0127   2.0585
     2.1618   2.2470   2.3207   2.4597   2.7518   2.8120   2.8650   2.9286
     3.0591   3.1677   3.7061   3.8072   3.8448   3.9503   4.0931   4.1800
     4.2884   4.4114   4.4430   4.5137   4.5759   4.6386   4.6893   4.8018
     4.8945   4.9139   5.0049   5.1394   5.1710   5.2050   5.4423   5.5909
     5.6442   5.7208   5.8101   5.8770   5.9170   5.9294   5.9886   6.0150
     6.3412   6.4870   6.5770   6.6642   6.6965   6.7364   6.7567   6.7658
     6.8398   6.8832   6.9290   6.9978   7.0085   7.0723   7.1343   7.1825
     7.2747   7.3450   7.7011   7.7066   7.8920   7.9313   7.9839   7.9925
    10.3669  10.3819  10.6447  10.7294  11.0019  11.0862  11.9450  12.0147
    12.1789  12.2745  12.4457  12.4664  12.4938  12.5120  12.6640  12.6966
    12.7390  12.9964  13.1065  13.2426  13.4494  13.4886  13.6653  13.6858
    14.6266  14.7605  15.0539  15.4746  15.5838  15.7570  16.0084  16.1877
    16.4841  17.0958  17.2353  17.4633  17.5704

          k = 0.1667 0.1575-0.5000 ( 62292 PWs)   bands (ev):

   -66.1646 -66.1646 -66.1642 -66.1642 -66.1637 -66.1637 -66.1633 -66.1633
   -30.5287 -30.5287 -30.5250 -30.5250 -30.5151 -30.5150 -30.5118 -30.5118
   -30.5114 -30.5114 -30.5079 -30.5079 -30.4776 -30.4776 -30.4696 -30.4696
   -30.4489 -30.4489 -30.4325 -30.4325 -30.4281 -30.4281 -30.4165 -30.4165
   -20.3284 -20.3284 -20.3283 -20.3283 -20.3282 -20.3282 -20.3281 -20.3281
   -20.3079 -20.3078 -20.3076 -20.3075 -20.3074 -20.3074 -20.3072 -20.3071
   -20.3040 -20.3039 -20.3035 -20.3035 -20.3034 -20.3034 -20.3030 -20.3030
   -20.2996 -20.2996 -20.2994 -20.2994 -20.2958 -20.2958 -20.2953 -20.2953
   -20.2949 -20.2949 -20.2944 -20.2944 -20.2908 -20.2908 -20.2907 -20.2907
   -20.2900 -20.2900 -20.2900 -20.2899 -20.2885 -20.2885 -20.2882 -20.2882
   -20.2793 -20.2793 -20.2791 -20.2791 -20.2783 -20.2783 -20.2781 -20.2781
    -9.5483  -9.5483  -9.3310  -9.3310  -8.9946  -8.9946  -8.7448  -8.7448
    -8.6671  -8.6671  -8.6373  -8.6373  -8.5596  -8.5596  -8.4863  -8.4863
    -7.9010  -7.9010  -7.8622  -7.8622  -7.7702  -7.7702  -7.7297  -7.7297
     1.5781   1.5781   1.6038   1.6038   1.9733   1.9734   2.0477   2.0477
     2.8377   2.8377   2.9773   2.9773   3.0457   3.0457   3.1218   3.1218
     3.1653   3.1653   3.3604   3.3604   3.4796   3.4796   3.7896   3.7896
     3.9416   3.9417   4.3089   4.3089   4.4679   4.4679   4.7318   4.7318
     4.8732   4.8732   4.9690   4.9690   5.0820   5.0820   5.5397   5.5397
     5.6914   5.6914   5.7299   5.7299   5.8630   5.8630   5.9573   5.9573
     6.4685   6.4685   6.6099   6.6099   6.6992   6.6992   6.8067   6.8067
     6.8356   6.8356   6.9206   6.9206   7.0384   7.0384   7.4885   7.4885
     7.5051   7.5051   7.6451   7.6451   7.6994   7.6994   7.9896   7.9896
    10.4013  10.4014  11.3169  11.3169  11.4105  11.4105  11.6800  11.6800
    11.8234  11.8234  12.4616  12.4616  12.5044  12.5044  12.7442  12.7442
    12.8896  12.8897  13.0596  13.0596  13.2343  13.2343  13.6498  13.6498
    14.7192  14.7192  15.3404  15.3404  15.9406  15.9406  16.0160  16.0160
    16.8349  16.8350  17.7134  17.7134  17.9789

          k = 0.1667 0.3150 0.1667 ( 62249 PWs)   bands (ev):

   -66.1649 -66.1647 -66.1641 -66.1640 -66.1639 -66.1638 -66.1632 -66.1630
   -30.5538 -30.5530 -30.5493 -30.5486 -30.5297 -30.5271 -30.5251 -30.5229
   -30.4832 -30.4827 -30.4757 -30.4729 -30.4697 -30.4675 -30.4561 -30.4547
   -30.4491 -30.4475 -30.4411 -30.4330 -30.4318 -30.4274 -30.4245 -30.4186
   -20.3286 -20.3286 -20.3284 -20.3284 -20.3281 -20.3281 -20.3280 -20.3279
   -20.3080 -20.3078 -20.3077 -20.3075 -20.3074 -20.3072 -20.3072 -20.3069
   -20.3040 -20.3038 -20.3037 -20.3035 -20.3034 -20.3032 -20.3032 -20.3029
   -20.2989 -20.2986 -20.2984 -20.2983 -20.2967 -20.2963 -20.2961 -20.2958
   -20.2950 -20.2948 -20.2947 -20.2945 -20.2937 -20.2936 -20.2932 -20.2931
   -20.2888 -20.2887 -20.2885 -20.2885 -20.2877 -20.2876 -20.2868 -20.2867
   -20.2799 -20.2798 -20.2789 -20.2788 -20.2786 -20.2784 -20.2776 -20.2775
    -9.7894  -9.6747  -9.4020  -9.3221  -9.3151  -9.2161  -9.0165  -9.0065
    -8.6225  -8.5329  -8.5275  -8.5253  -8.0881  -8.0316  -8.0203  -7.9941
    -7.9840  -7.9464  -7.9142  -7.9031  -7.8709  -7.8441  -7.8088  -7.7971
     1.3790   1.3841   1.4561   1.4592   1.5772   1.5797   1.8084   1.8394
     2.4746   2.5203   2.5404   2.6058   2.6516   2.7643   3.0368   3.0666
     3.1454   3.1878   3.6151   3.6710   3.7987   3.8214   4.1407   4.3280
     4.3433   4.3793   4.4163   4.5501   4.6324   4.8435   4.8812   4.9675
     5.0233   5.0814   5.1825   5.1912   5.3511   5.3907   5.4643   5.4682
     5.6709   5.6895   5.7192   5.7569   5.8378   5.8515   6.0911   6.1176
     6.3852   6.4116   6.4827   6.6020   6.6976   6.7255   6.8002   6.8371
     6.8816   6.8959   6.9841   7.0040   7.0848   7.0892   7.1495   7.1743
     7.2563   7.2660   7.7333   7.7532   7.8180   7.8373   7.8445   7.8688
    10.0593  10.0769  10.7854  10.8087  10.8743  10.9225  11.7727  11.9202
    11.9806  12.0123  12.3695  12.3898  12.3951  12.4206  12.7593  12.8772
    13.0725  13.1747  13.2574  13.2912  13.4592  13.5805  13.5979  13.6813
    15.1400  15.3111  15.3999  15.5240  15.5461  15.6727  16.1270  16.1660
    16.3054  16.5928  17.1843  17.3096  17.3471

          k = 0.1667 0.3150 0.3333 ( 62265 PWs)   bands (ev):

   -66.1647 -66.1645 -66.1642 -66.1640 -66.1639 -66.1637 -66.1634 -66.1632
   -30.5366 -30.5362 -30.5323 -30.5322 -30.5284 -30.5262 -30.5254 -30.5239
   -30.4940 -30.4913 -30.4889 -30.4852 -30.4741 -30.4659 -30.4640 -30.4557
   -30.4548 -30.4516 -30.4398 -30.4349 -30.4321 -30.4291 -30.4235 -30.4203
   -20.3285 -20.3285 -20.3283 -20.3283 -20.3282 -20.3282 -20.3281 -20.3280
   -20.3079 -20.3077 -20.3076 -20.3076 -20.3074 -20.3073 -20.3073 -20.3071
   -20.3039 -20.3038 -20.3037 -20.3035 -20.3034 -20.3032 -20.3032 -20.3030
   -20.2988 -20.2986 -20.2986 -20.2984 -20.2966 -20.2963 -20.2963 -20.2960
   -20.2949 -20.2949 -20.2946 -20.2945 -20.2924 -20.2924 -20.2918 -20.2918
   -20.2893 -20.2893 -20.2887 -20.2885 -20.2885 -20.2884 -20.2878 -20.2878
   -20.2797 -20.2796 -20.2789 -20.2788 -20.2787 -20.2786 -20.2779 -20.2778
    -9.6391  -9.5165  -9.3773  -9.2651  -9.1671  -9.0611  -8.9032  -8.8939
    -8.6760  -8.5548  -8.5144  -8.5040  -8.3145  -8.2663  -8.2643  -8.1718
    -8.0339  -8.0153  -7.9887  -7.9562  -7.8954  -7.8803  -7.8334  -7.8206
     1.5768   1.5828   1.5911   1.5961   2.1340   2.1598   2.2469   2.3191
     2.5310   2.6000   2.6466   2.7202   2.7819   2.8502   3.0552   3.1321
     3.2896   3.3721   3.6316   3.6759   3.7619   3.8046   3.8207   3.9076
     4.1193   4.3262   4.3762   4.4079   4.4693   4.4883   4.6191   4.6494
     4.6812   4.8330   4.8783   4.9426   5.0099   5.0899   5.1485   5.2042
     5.3434   5.4049   5.5131   5.7068   5.7224   5.8476   5.9786   6.0008
     6.4640   6.5410   6.6170   6.7267   6.7888   6.8129   6.8833   6.8977
     6.9651   7.0278   7.0551   7.0808   7.1345   7.1760   7.2377   7.2487
     7.2879   7.3443   7.6933   7.7017   7.7503   7.7622   7.8333   7.8427
    10.6059  10.6296  10.8689  10.9204  11.2713  11.3385  11.8704  11.9497
    12.0229  12.0845  12.1071  12.1983  12.5121  12.5848  12.5950  12.6591
    12.7820  12.9686  13.0065  13.2109  13.2403  13.3443  13.5414  13.5649
    15.2476  15.3152  15.7172  15.8381  15.8601  16.0280  16.1571  16.4849
    16.7823  16.7948  16.9781  17.4053  17.6219

          k = 0.1667 0.3150-0.5000 ( 62264 PWs)   bands (ev):

   -66.1645 -66.1645 -66.1643 -66.1643 -66.1636 -66.1636 -66.1634 -66.1634
   -30.5276 -30.5276 -30.5256 -30.5256 -30.5137 -30.5137 -30.5120 -30.5119
   -30.5098 -30.5098 -30.5081 -30.5080 -30.4709 -30.4709 -30.4619 -30.4619
   -30.4535 -30.4535 -30.4377 -30.4377 -30.4307 -30.4307 -30.4221 -30.4221
   -20.3284 -20.3284 -20.3283 -20.3283 -20.3282 -20.3282 -20.3281 -20.3281
   -20.3078 -20.3078 -20.3075 -20.3075 -20.3075 -20.3075 -20.3072 -20.3072
   -20.3039 -20.3038 -20.3036 -20.3036 -20.3033 -20.3033 -20.3031 -20.3031
   -20.2987 -20.2987 -20.2985 -20.2985 -20.2965 -20.2965 -20.2962 -20.2961
   -20.2949 -20.2949 -20.2946 -20.2946 -20.2908 -20.2908 -20.2908 -20.2907
   -20.2900 -20.2900 -20.2900 -20.2900 -20.2884 -20.2884 -20.2883 -20.2882
   -20.2793 -20.2793 -20.2792 -20.2792 -20.2783 -20.2783 -20.2782 -20.2782
    -9.4823  -9.4823  -9.3608  -9.3608  -8.8653  -8.8652  -8.7118  -8.7118
    -8.6702  -8.6702  -8.6432  -8.6432  -8.4721  -8.4721  -8.4175  -8.4175
    -8.0262  -8.0262  -7.9787  -7.9787  -7.8656  -7.8656  -7.8495  -7.8495
     1.5962   1.5962   1.6029   1.6029   2.5115   2.5115   2.6158   2.6158
     2.9492   2.9492   3.0164   3.0164   3.0876   3.0876   3.1428   3.1428
     3.2083   3.2083   3.4298   3.4298   3.4526   3.4526   3.7523   3.7523
     4.0626   4.0626   4.0985   4.0985   4.1522   4.1522   4.3641   4.3641
     4.7883   4.7883   4.8723   4.8723   5.0339   5.0339   5.1138   5.1138
     5.1409   5.1409   5.5875   5.5875   5.7894   5.7894   5.8699   5.8699
     6.5985   6.5985   6.7068   6.7068   6.7565   6.7565   6.8367   6.8367
     7.0647   7.0647   7.1114   7.1114   7.2063   7.2064   7.4943   7.4943
     7.4988   7.4988   7.5623   7.5623   7.6035   7.6035   7.8346   7.8346
    10.8314  10.8314  11.3293  11.3294  11.4168  11.4168  11.8222  11.8222
    11.9798  11.9798  12.1347  12.1347  12.4667  12.4667  12.5512  12.5512
    12.8112  12.8112  12.8774  12.8774  13.2189  13.2189  13.5060  13.5060
    15.2934  15.2934  15.9001  15.9002  16.2135  16.2135  16.3367  16.3367
    16.9664  16.9664  17.3661  17.3661  17.8025

          k = 0.1667-0.4725 0.1667 ( 62220 PWs)   bands (ev):

   -66.1648 -66.1648 -66.1640 -66.1640 -66.1639 -66.1639 -66.1631 -66.1631
   -30.5534 -30.5534 -30.5489 -30.5489 -30.5283 -30.5283 -30.5239 -30.5239
   -30.4768 -30.4767 -30.4747 -30.4747 -30.4650 -30.4649 -30.4549 -30.4549
   -30.4522 -30.4522 -30.4411 -30.4410 -30.4298 -30.4297 -30.4239 -30.4239
   -20.3286 -20.3286 -20.3284 -20.3284 -20.3281 -20.3281 -20.3279 -20.3279
   -20.3079 -20.3079 -20.3076 -20.3076 -20.3073 -20.3073 -20.3070 -20.3070
   -20.3039 -20.3039 -20.3036 -20.3036 -20.3033 -20.3033 -20.3031 -20.3031
   -20.2978 -20.2977 -20.2975 -20.2974 -20.2973 -20.2973 -20.2970 -20.2970
   -20.2949 -20.2949 -20.2947 -20.2947 -20.2937 -20.2937 -20.2932 -20.2932
   -20.2886 -20.2886 -20.2886 -20.2886 -20.2877 -20.2876 -20.2868 -20.2868
   -20.2799 -20.2799 -20.2789 -20.2789 -20.2785 -20.2785 -20.2776 -20.2776
    -9.7258  -9.7258  -9.3513  -9.3511  -9.2593  -9.2593  -9.0114  -9.0114
    -8.3502  -8.3488  -8.3021  -8.3012  -8.2902  -8.2892  -8.2808  -8.2778
    -7.9790  -7.9770  -7.9152  -7.9144  -7.8648  -7.8641  -7.8063  -7.8057
     1.3798   1.3828   1.4569   1.4591   1.5791   1.5803   1.8313   1.8341
     2.5099   2.5125   3.1189   3.1240   3.1865   3.2345   3.2461   3.2862
     3.3913   3.3929   3.4333   3.4558   3.6963   3.7069   3.7469   3.7546
     3.8860   3.8899   4.3348   4.3844   4.3964   4.4140   5.0097   5.0272
     5.1208   5.1316   5.2021   5.2543   5.2789   5.3100   5.4502   5.4502
     5.5155   5.5334   5.6626   5.7105   5.7536   5.7692   6.1122   6.1142
     6.4322   6.4443   6.5299   6.5305   6.6993   6.7245   6.8477   6.8490
     6.8688   6.8904   7.0293   7.0322   7.1252   7.1307   7.4881   7.4933
     7.5000   7.5089   7.5491   7.5660   7.5710   7.5796   7.7653   7.7715
    10.0740  10.0757  11.2751  11.2964  11.3234  11.3510  11.4390  11.4430
    11.5121  11.5147  12.3704  12.3902  12.3959  12.4215  12.8507  12.8553
    13.2272  13.2390  13.2621  13.2630  13.3368  13.3537  13.5541  13.5591
    15.4849  15.4906  15.7208  15.7602  15.8631  15.9048  15.9138  15.9252
    16.4655  16.4663  17.6775  17.6850  17.8535

          k = 0.1667-0.4725 0.3333 ( 62252 PWs)   bands (ev):

   -66.1646 -66.1646 -66.1641 -66.1641 -66.1638 -66.1638 -66.1633 -66.1633
   -30.5363 -30.5363 -30.5321 -30.5321 -30.5269 -30.5268 -30.5249 -30.5248
   -30.4907 -30.4907 -30.4872 -30.4872 -30.4637 -30.4637 -30.4582 -30.4582
   -30.4528 -30.4527 -30.4461 -30.4461 -30.4288 -30.4288 -30.4257 -30.4256
   -20.3285 -20.3285 -20.3283 -20.3283 -20.3282 -20.3282 -20.3280 -20.3280
   -20.3078 -20.3078 -20.3075 -20.3075 -20.3075 -20.3074 -20.3072 -20.3072
   -20.3038 -20.3038 -20.3036 -20.3036 -20.3033 -20.3033 -20.3031 -20.3031
   -20.2977 -20.2977 -20.2975 -20.2974 -20.2974 -20.2974 -20.2972 -20.2971
   -20.2948 -20.2948 -20.2947 -20.2947 -20.2924 -20.2924 -20.2918 -20.2918
   -20.2893 -20.2893 -20.2886 -20.2885 -20.2885 -20.2884 -20.2878 -20.2878
   -20.2796 -20.2796 -20.2788 -20.2788 -20.2786 -20.2786 -20.2779 -20.2779
    -9.5703  -9.5702  -9.3117  -9.3116  -9.1022  -9.1017  -8.8984  -8.8982
    -8.4353  -8.4319  -8.3782  -8.3699  -8.2952  -8.2887  -8.2742  -8.2699
    -8.2073  -8.2037  -8.1264  -8.1244  -7.8950  -7.8943  -7.8316  -7.8316
     1.5800   1.5822   1.5929   1.5965   2.1547   2.1572   2.3078   2.3099
     2.7762   2.7862   3.1520   3.1653   3.2094   3.2238   3.2836   3.3031
     3.3820   3.3903   3.5187   3.5274   3.6811   3.6895   3.7612   3.7923
     3.8224   3.8350   3.9431   3.9523   4.4398   4.4464   4.5625   4.5833
     4.6601   4.7428   4.8342   4.8466   4.9905   5.0058   5.0460   5.1581
     5.2680   5.3378   5.3473   5.4876   5.7362   5.7597   5.9789   5.9992
     6.5229   6.5340   6.6782   6.7032   6.8238   6.8328   6.9104   6.9336
     7.0234   7.0905   7.1604   7.1854   7.2028   7.2071   7.4654   7.4798
     7.4898   7.4910   7.5306   7.5532   7.5588   7.5709   7.7175   7.7249
    10.6466  10.6477  11.3863  11.3926  11.4660  11.4777  11.6669  11.6772
    11.7438  11.7693  12.0077  12.0459  12.5207  12.5853  12.7280  12.7518
    12.8191  12.8547  12.9817  13.0304  13.2507  13.2709  13.4455  13.4774
    15.5927  15.5969  15.7826  15.7862  16.3741  16.3823  16.5609  16.5986
    16.6652  16.6832  17.3584  17.3587  17.5844

          k = 0.1667-0.4725-0.5000 ( 62232 PWs)   bands (ev):

   -66.1644 -66.1644 -66.1644 -66.1644 -66.1635 -66.1635 -66.1635 -66.1635
   -30.5265 -30.5265 -30.5265 -30.5265 -30.5126 -30.5126 -30.5125 -30.5125
   -30.5086 -30.5086 -30.5086 -30.5085 -30.4616 -30.4616 -30.4616 -30.4616
   -30.4502 -30.4502 -30.4502 -30.4502 -30.4274 -30.4274 -30.4274 -30.4274
   -20.3284 -20.3284 -20.3283 -20.3283 -20.3282 -20.3282 -20.3282 -20.3282
   -20.3076 -20.3076 -20.3076 -20.3076 -20.3074 -20.3074 -20.3073 -20.3073
   -20.3037 -20.3037 -20.3037 -20.3037 -20.3032 -20.3032 -20.3032 -20.3032
   -20.2976 -20.2976 -20.2976 -20.2976 -20.2973 -20.2973 -20.2973 -20.2973
   -20.2948 -20.2948 -20.2948 -20.2948 -20.2908 -20.2908 -20.2908 -20.2908
   -20.2900 -20.2900 -20.2900 -20.2900 -20.2884 -20.2884 -20.2883 -20.2883
   -20.2792 -20.2792 -20.2792 -20.2792 -20.2783 -20.2782 -20.2782 -20.2782
    -9.4126  -9.4126  -9.4125  -9.4125  -8.7528  -8.7528  -8.7501  -8.7501
    -8.6572  -8.6572  -8.6537  -8.6537  -8.2792  -8.2792  -8.2751  -8.2750
    -8.2411  -8.2410  -8.2373  -8.2372  -7.8633  -7.8633  -7.8629  -7.8629
     1.6004   1.6004   1.6018   1.6018   2.9417   2.9418   2.9473   2.9473
     3.0518   3.0518   3.0839   3.0839   3.2198   3.2198   3.2626   3.2626
     3.3349   3.3349   3.3720   3.3720   3.5343   3.5343   3.5633   3.5633
     3.7228   3.7228   3.7506   3.7506   4.3704   4.3705   4.3707   4.3707
     4.4716   4.4716   4.4893   4.4894   4.8574   4.8574   4.9853   4.9853
     5.2581   5.2581   5.4043   5.4044   5.7911   5.7911   5.8207   5.8207
     6.6676   6.6676   6.6755   6.6755   6.8199   6.8199   6.8299   6.8299
     7.2783   7.2783   7.3402   7.3402   7.3872   7.3873   7.3962   7.3962
     7.4781   7.4781   7.4964   7.4964   7.5780   7.5781   7.6137   7.6137
    11.2530  11.2530  11.2858  11.2858  11.5083  11.5083  11.5709  11.5709
    12.2118  12.2118  12.2165  12.2165  12.2496  12.2496  12.2798  12.2799
    12.7651  12.7651  12.8346  12.8346  13.2950  13.2950  13.3426  13.3426
    15.7050  15.7050  15.7114  15.7114  16.8942  16.8942  16.9096  16.9096
    17.2366  17.2367  17.2648  17.2648  17.3156

          k = 0.3333 0.0000 0.3333 ( 62316 PWs)   bands (ev):

   -66.1647 -66.1643 -66.1642 -66.1641 -66.1638 -66.1637 -66.1636 -66.1632
   -30.5358 -30.5357 -30.5333 -30.5332 -30.5152 -30.5136 -30.5081 -30.5065
   -30.4999 -30.4962 -30.4891 -30.4871 -30.4851 -30.4737 -30.4736 -30.4634
   -30.4615 -30.4603 -30.4487 -30.4446 -30.4251 -30.4213 -30.4197 -30.4163
   -20.3285 -20.3284 -20.3284 -20.3283 -20.3282 -20.3281 -20.3281 -20.3280
   -20.3080 -20.3078 -20.3077 -20.3075 -20.3075 -20.3073 -20.3072 -20.3070
   -20.3040 -20.3038 -20.3037 -20.3035 -20.3035 -20.3033 -20.3032 -20.3030
   -20.3000 -20.2998 -20.2997 -20.2996 -20.2956 -20.2953 -20.2952 -20.2948
   -20.2936 -20.2936 -20.2931 -20.2930 -20.2923 -20.2922 -20.2918 -20.2918
   -20.2901 -20.2900 -20.2897 -20.2895 -20.2887 -20.2886 -20.2883 -20.2882
   -20.2795 -20.2793 -20.2790 -20.2788 -20.2787 -20.2785 -20.2782 -20.2780
    -9.5862  -9.3292  -9.3156  -9.2893  -9.0781  -8.9888  -8.9814  -8.8106
    -8.7826  -8.6883  -8.6673  -8.6521  -8.3252  -8.2650  -8.2548  -8.2300
    -8.1925  -8.1921  -8.1168  -8.0925  -7.6964  -7.6703  -7.6638  -7.6391
     1.7126   1.7421   1.7493   1.7854   2.0833   2.0895   2.1686   2.2166
     2.2752   2.3149   2.4589   2.5657   2.9737   2.9879   3.0030   3.0462
     3.1458   3.1890   3.7165   3.8075   3.8356   3.9787   3.9993   4.0264
     4.1847   4.1915   4.2534   4.3389   4.3761   4.4075   4.4880   4.5721
     4.7218   4.7700   4.8896   4.9726   4.9853   5.0017   5.1766   5.3743
     5.3954   5.4121   5.5217   5.7171   6.0306   6.0366   6.0510   6.1379
     6.5122   6.5155   6.5341   6.5939   6.6143   6.6151   6.6532   6.6603
     6.9926   7.0668   7.0949   7.1333   7.1465   7.1812   7.2887   7.3180
     7.3522   7.4534   7.6474   7.6530   7.8874   7.9315   7.9871   7.9986
    10.7154  10.8038  10.8710  10.9428  11.1118  11.2729  12.0175  12.0373
    12.1440  12.1971  12.2198  12.2935  12.4672  12.5115  12.7519  12.8016
    12.8044  12.8504  12.9331  13.0784  13.4189  13.4729  13.5448  13.6294
    14.4343  14.6576  14.6643  15.0520  15.8891  16.2693  16.2888  16.7740
    16.7829  17.0881  17.1094  17.6642  17.7196

          k = 0.3333 0.0000-0.5000 ( 62288 PWs)   bands (ev):

   -66.1644 -66.1644 -66.1640 -66.1640 -66.1639 -66.1639 -66.1635 -66.1635
   -30.5171 -30.5170 -30.5138 -30.5138 -30.5127 -30.5127 -30.5114 -30.5114
   -30.5090 -30.5090 -30.5055 -30.5055 -30.4841 -30.4841 -30.4693 -30.4692
   -30.4623 -30.4623 -30.4472 -30.4472 -30.4234 -30.4234 -30.4181 -30.4181
   -20.3284 -20.3284 -20.3283 -20.3283 -20.3283 -20.3283 -20.3282 -20.3281
   -20.3079 -20.3078 -20.3077 -20.3077 -20.3074 -20.3073 -20.3072 -20.3072
   -20.3039 -20.3039 -20.3036 -20.3036 -20.3034 -20.3034 -20.3031 -20.3031
   -20.2999 -20.2999 -20.2998 -20.2998 -20.2954 -20.2954 -20.2951 -20.2950
   -20.2936 -20.2936 -20.2931 -20.2931 -20.2909 -20.2909 -20.2906 -20.2906
   -20.2902 -20.2901 -20.2901 -20.2901 -20.2895 -20.2895 -20.2893 -20.2893
   -20.2792 -20.2792 -20.2789 -20.2789 -20.2786 -20.2786 -20.2784 -20.2784
    -9.4087  -9.4087  -9.1095  -9.1095  -9.1015  -9.1015  -8.7223  -8.7223
    -8.6706  -8.6706  -8.6031  -8.6031  -8.5546  -8.5546  -8.5100  -8.5100
    -8.1688  -8.1688  -8.1561  -8.1561  -7.6836  -7.6836  -7.6517  -7.6517
     1.7325   1.7325   1.7685   1.7685   2.2704   2.2704   2.3041   2.3041
     2.9167   2.9167   3.0115   3.0115   3.0533   3.0533   3.1397   3.1397
     3.2319   3.2319   3.5028   3.5028   3.6811   3.6811   3.8398   3.8398
     3.8497   3.8497   4.0841   4.0841   4.2074   4.2074   4.3341   4.3341
     4.6437   4.6437   4.8796   4.8796   4.9490   4.9490   5.0721   5.0721
     5.2404   5.2404   5.5910   5.5910   6.0623   6.0623   6.1245   6.1245
     6.4773   6.4773   6.5397   6.5397   6.5656   6.5656   6.6403   6.6403
     7.1117   7.1117   7.1859   7.1859   7.2770   7.2770   7.5127   7.5127
     7.5210   7.5211   7.6805   7.6805   7.7371   7.7371   7.9391   7.9391
    10.8075  10.8075  11.5192  11.5192  11.6363  11.6363  11.6719  11.6719
[...]
   -20.2311 -20.2311 -20.2308 -20.2308 -20.2285 -20.2285 -20.2281 -20.2281
   -20.2245 -20.2245 -20.2244 -20.2244 -20.2226 -20.2226 -20.2225 -20.2225
   -20.2223 -20.2223 -20.2221 -20.2221 -20.2190 -20.2190 -20.2188 -20.2188
   -20.2105 -20.2105 -20.2104 -20.2104 -20.2092 -20.2092 -20.2090 -20.2090
    -9.4247  -9.4247  -9.2692  -9.2691  -8.8931  -8.8931  -8.6626  -8.6626
    -8.5310  -8.5310  -8.4885  -8.4885  -8.4221  -8.4220  -8.3593  -8.3593
    -8.0665  -8.0665  -8.0360  -8.0360  -7.8003  -7.8003  -7.7844  -7.7844
     1.6501   1.6501   1.6591   1.6591   2.4037   2.4037   2.5172   2.5172
     3.0456   3.0456   3.1052   3.1052   3.1302   3.1302   3.2756   3.2756
     3.3266   3.3266   3.5470   3.5470   3.6191   3.6191   3.7778   3.7778
     4.0013   4.0013   4.1014   4.1014   4.2987   4.2987   4.4538   4.4538
     4.7795   4.7795   4.8786   4.8786   5.0679   5.0679   5.0950   5.0950
     5.2036   5.2036   5.5695   5.5695   5.8552   5.8552   5.9070   5.9070
     6.6813   6.6814   6.8229   6.8229   6.8552   6.8552   6.8874   6.8874
     7.0676   7.0676   7.1453   7.1453   7.2027   7.2028   7.5233   7.5233
     7.5502   7.5502   7.6591   7.6591   7.6879   7.6879   7.8983   7.8983
    10.8922  10.8922  11.3743  11.3743  11.4477  11.4477  11.7223  11.7223
    12.0516  12.0516  12.2778  12.2778  12.6081  12.6081  12.7192  12.7192
    12.8681  12.8681  13.0040  13.0040  13.2201  13.2201  13.6474  13.6474
    15.4471  15.4471  15.8718  15.8718  16.4307  16.4307  16.5630  16.5630
    16.8280  16.8280  17.4236  17.4237  17.8877

          k = 0.3325 0.4784 0.1656 ( 62064 PWs)   bands (ev):

   -66.0990 -66.0990 -66.0985 -66.0985 -66.0982 -66.0982 -66.0977 -66.0977
   -30.4687 -30.4687 -30.4653 -30.4652 -30.4575 -30.4574 -30.4504 -30.4503
   -30.4491 -30.4491 -30.4377 -30.4377 -30.4189 -30.4189 -30.4113 -30.4113
   -30.3827 -30.3827 -30.3754 -30.3753 -30.3676 -30.3675 -30.3610 -30.3610
   -20.2613 -20.2612 -20.2611 -20.2611 -20.2607 -20.2607 -20.2606 -20.2606
   -20.2406 -20.2406 -20.2404 -20.2404 -20.2401 -20.2401 -20.2398 -20.2398
   -20.2358 -20.2358 -20.2355 -20.2355 -20.2354 -20.2354 -20.2351 -20.2351
   -20.2300 -20.2299 -20.2297 -20.2297 -20.2296 -20.2296 -20.2294 -20.2293
   -20.2247 -20.2246 -20.2244 -20.2244 -20.2242 -20.2242 -20.2241 -20.2241
   -20.2207 -20.2207 -20.2206 -20.2206 -20.2191 -20.2191 -20.2187 -20.2187
   -20.2106 -20.2106 -20.2102 -20.2102 -20.2093 -20.2093 -20.2089 -20.2089
    -9.4644  -9.4643  -9.2404  -9.2401  -8.9497  -8.9497  -8.7458  -8.7458
    -8.4925  -8.4906  -8.4062  -8.4052  -8.3625  -8.3597  -8.3508  -8.3506
    -8.1053  -8.1050  -8.0253  -8.0233  -7.8248  -7.8243  -7.7609  -7.7608
     1.6397   1.6438   1.6558   1.6587   2.3242   2.3258   2.4849   2.4939
     2.9295   2.9400   3.1047   3.1096   3.1885   3.2054   3.2733   3.2749
     3.3928   3.4007   3.4972   3.5503   3.6600   3.6645   3.8291   3.8354
     3.8737   3.9073   3.9742   4.0266   4.3753   4.3997   4.6626   4.6649
     4.7343   4.7479   4.8951   4.9429   4.9773   5.0634   5.0903   5.1186
     5.2054   5.2603   5.4106   5.4806   5.7878   5.8079   6.0852   6.0856
     6.6658   6.7064   6.7206   6.7312   6.8866   6.8903   6.9718   7.0106
     7.1149   7.1615   7.1919   7.2337   7.2452   7.2591   7.4889   7.4978
     7.5501   7.5659   7.5668   7.5970   7.6217   7.6332   7.8030   7.8047
    10.7086  10.7151  11.4085  11.4243  11.4612  11.4639  11.8755  11.8816
    11.9028  11.9061  12.0348  12.0955  12.5419  12.5846  12.7314  12.7410
    12.9139  12.9326  13.1420  13.2037  13.3419  13.3906  13.4137  13.4784
    15.6198  15.6416  15.8568  15.8666  16.2882  16.3036  16.6304  16.6566
    16.9090  16.9195  17.5123  17.5512  17.8853

          k =-0.4988 0.4784 0.1656 ( 62060 PWs)   bands (ev):

   -66.0988 -66.0988 -66.0988 -66.0988 -66.0980 -66.0980 -66.0980 -66.0980
   -30.4669 -30.4669 -30.4666 -30.4666 -30.4531 -30.4531 -30.4518 -30.4518
   -30.4428 -30.4428 -30.4418 -30.4418 -30.4014 -30.4014 -30.4004 -30.4004
   -30.3958 -30.3958 -30.3942 -30.3942 -30.3656 -30.3656 -30.3653 -30.3653
   -20.2612 -20.2612 -20.2612 -20.2612 -20.2607 -20.2607 -20.2607 -20.2607
   -20.2405 -20.2405 -20.2405 -20.2405 -20.2400 -20.2400 -20.2399 -20.2399
   -20.2357 -20.2357 -20.2357 -20.2357 -20.2353 -20.2353 -20.2352 -20.2352
   -20.2299 -20.2299 -20.2297 -20.2297 -20.2296 -20.2296 -20.2294 -20.2294
   -20.2245 -20.2245 -20.2245 -20.2245 -20.2226 -20.2226 -20.2224 -20.2224
   -20.2224 -20.2224 -20.2222 -20.2222 -20.2189 -20.2189 -20.2189 -20.2189
   -20.2104 -20.2104 -20.2104 -20.2104 -20.2091 -20.2091 -20.2091 -20.2091
    -9.3357  -9.3357  -9.3273  -9.3273  -8.6787  -8.6787  -8.6475  -8.6475
    -8.5424  -8.5424  -8.5142  -8.5142  -8.3472  -8.3472  -8.2997  -8.2997
    -8.2826  -8.2825  -8.2405  -8.2404  -7.7933  -7.7933  -7.7931  -7.7931
     1.6533   1.6533   1.6610   1.6610   2.9619   2.9619   3.0696   3.0696
     3.1046   3.1046   3.1227   3.1227   3.2519   3.2519   3.3103   3.3103
     3.4094   3.4094   3.4973   3.4973   3.5718   3.5718   3.6207   3.6207
     3.6577   3.6577   3.9567   3.9567   4.3105   4.3105   4.3747   4.3747
     4.4120   4.4120   4.4977   4.4977   4.9398   4.9398   5.0934   5.0934
     5.2224   5.2224   5.3572   5.3572   5.8562   5.8562   5.8811   5.8811
     6.7516   6.7517   6.8233   6.8233   6.8762   6.8762   6.9190   6.9190
     7.2821   7.2821   7.3178   7.3178   7.3996   7.3996   7.4744   7.4745
     7.5536   7.5536   7.6076   7.6076   7.6503   7.6503   7.6699   7.6699
    11.3423  11.3423  11.4109  11.4109  11.4293  11.4293  11.5291  11.5291
    12.2679  12.2679  12.3202  12.3202  12.3759  12.3759  12.4617  12.4617
    12.8440  12.8440  12.9131  12.9131  13.3510  13.3510  13.4159  13.4159
    15.7475  15.7475  15.7710  15.7710  16.9029  16.9030  17.0483  17.0483
    17.3154  17.3154  17.4181  17.4183  17.4788

          k =-0.4988 0.0000 0.3311 ( 62112 PWs)   bands (ev):

   -66.0988 -66.0988 -66.0984 -66.0984 -66.0983 -66.0983 -66.0979 -66.0979
   -30.4865 -30.4865 -30.4828 -30.4828 -30.4462 -30.4462 -30.4336 -30.4336
   -30.4290 -30.4290 -30.4251 -30.4251 -30.4061 -30.4061 -30.4040 -30.4040
   -30.3984 -30.3984 -30.3827 -30.3826 -30.3799 -30.3799 -30.3713 -30.3713
   -20.2612 -20.2612 -20.2610 -20.2610 -20.2609 -20.2609 -20.2607 -20.2607
   -20.2407 -20.2407 -20.2403 -20.2403 -20.2402 -20.2402 -20.2398 -20.2398
   -20.2358 -20.2358 -20.2356 -20.2356 -20.2355 -20.2355 -20.2352 -20.2352
   -20.2323 -20.2323 -20.2322 -20.2322 -20.2272 -20.2272 -20.2269 -20.2269
   -20.2233 -20.2233 -20.2233 -20.2233 -20.2226 -20.2226 -20.2226 -20.2226
   -20.2221 -20.2221 -20.2220 -20.2220 -20.2201 -20.2201 -20.2199 -20.2199
   -20.2103 -20.2103 -20.2100 -20.2100 -20.2096 -20.2096 -20.2093 -20.2093
    -9.4197  -9.4197  -9.1969  -9.1969  -9.0008  -9.0008  -8.6998  -8.6998
    -8.5458  -8.5458  -8.4704  -8.4704  -8.4161  -8.4161  -8.3869  -8.3869
    -8.0883  -8.0883  -8.0768  -8.0768  -7.7119  -7.7119  -7.6892  -7.6892
     1.5674   1.5674   1.6003   1.6003   2.3319   2.3319   2.3765   2.3765
     2.9812   2.9813   3.0719   3.0719   3.0840   3.0841   3.2671   3.2671
     3.3519   3.3519   3.6314   3.6314   3.7689   3.7689   3.8923   3.8923
     3.9119   3.9119   4.0851   4.0851   4.2735   4.2735   4.4638   4.4638
     4.7326   4.7326   4.9554   4.9554   5.1326   5.1326   5.1409   5.1409
     5.3978   5.3978   5.6055   5.6055   6.0332   6.0332   6.1406   6.1406
     6.4412   6.4412   6.4771   6.4771   6.5666   6.5666   6.6092   6.6092
     7.1809   7.1809   7.2963   7.2963   7.3646   7.3646   7.5289   7.5290
     7.5864   7.5864   7.7207   7.7207   7.7371   7.7371   8.0322   8.0322
    10.9379  10.9379  11.4602  11.4602  11.5278  11.5278  11.7109  11.7109
    11.9359  11.9359  12.3233  12.3233  12.5144  12.5144  12.6993  12.6993
    12.9460  12.9460  13.2869  13.2869  13.3273  13.3273  13.6789  13.6789
    14.8561  14.8561  15.2034  15.2034  16.3508  16.3508  16.6557  16.6557
    16.9726  16.9726  17.5083  17.5083  18.0070

          k =-0.4988-0.1595 0.3311 ( 62086 PWs)   bands (ev):

   -66.0988 -66.0988 -66.0984 -66.0984 -66.0984 -66.0984 -66.0979 -66.0979
   -30.4827 -30.4827 -30.4788 -30.4788 -30.4472 -30.4472 -30.4337 -30.4337
   -30.4318 -30.4318 -30.4266 -30.4266 -30.4060 -30.4060 -30.4041 -30.4041
   -30.3980 -30.3979 -30.3844 -30.3844 -30.3799 -30.3799 -30.3727 -30.3727
   -20.2612 -20.2612 -20.2610 -20.2610 -20.2609 -20.2609 -20.2607 -20.2607
   -20.2406 -20.2406 -20.2403 -20.2403 -20.2402 -20.2402 -20.2399 -20.2399
   -20.2357 -20.2357 -20.2355 -20.2355 -20.2355 -20.2355 -20.2352 -20.2352
   -20.2320 -20.2320 -20.2318 -20.2318 -20.2276 -20.2276 -20.2273 -20.2273
   -20.2233 -20.2233 -20.2233 -20.2233 -20.2226 -20.2226 -20.2226 -20.2226
   -20.2221 -20.2221 -20.2220 -20.2220 -20.2201 -20.2201 -20.2199 -20.2199
   -20.2103 -20.2103 -20.2101 -20.2101 -20.2096 -20.2096 -20.2093 -20.2093
    -9.3700  -9.3700  -9.1287  -9.1287  -9.0118  -9.0118  -8.6749  -8.6749
    -8.5551  -8.5551  -8.4668  -8.4668  -8.4137  -8.4137  -8.3841  -8.3841
    -8.0865  -8.0865  -8.0810  -8.0810  -7.8102  -7.8102  -7.7879  -7.7879
     1.7896   1.7896   1.8294   1.8294   2.3317   2.3317   2.3847   2.3847
     3.0279   3.0279   3.0953   3.0953   3.1124   3.1124   3.2780   3.2780
     3.3578   3.3579   3.6574   3.6574   3.7921   3.7921   3.9023   3.9023
     3.9153   3.9153   4.1274   4.1274   4.2495   4.2495   4.4694   4.4694
     4.6107   4.6107   4.7749   4.7749   5.0523   5.0523   5.0917   5.0917
     5.1474   5.1474   5.3800   5.3800   5.8053   5.8053   5.9117   5.9117
     6.6043   6.6043   6.6215   6.6215   6.6971   6.6971   6.8100   6.8100
     7.1937   7.1937   7.2945   7.2945   7.3631   7.3631   7.5333   7.5333
     7.5819   7.5819   7.7103   7.7103   7.7304   7.7304   7.9795   7.9795
    11.0304  11.0304  11.5025  11.5025  11.5987  11.5987  11.7145  11.7145
    11.9722  11.9722  12.3486  12.3486  12.5087  12.5087  12.7091  12.7091
    12.8107  12.8107  13.1664  13.1664  13.2047  13.2047  13.5672  13.5672
    15.2036  15.2036  15.5646  15.5646  16.4278  16.4278  16.6602  16.6602
    16.9814  16.9814  17.5328  17.5328  17.8867

          k =-0.4988-0.3189 0.3311 ( 62054 PWs)   bands (ev):

   -66.0987 -66.0987 -66.0985 -66.0985 -66.0983 -66.0983 -66.0980 -66.0980
   -30.4727 -30.4727 -30.4680 -30.4680 -30.4512 -30.4512 -30.4406 -30.4406
   -30.4334 -30.4334 -30.4299 -30.4299 -30.4056 -30.4056 -30.4044 -30.4044
   -30.3965 -30.3964 -30.3889 -30.3889 -30.3794 -30.3794 -30.3755 -30.3755
   -20.2611 -20.2611 -20.2610 -20.2610 -20.2608 -20.2608 -20.2608 -20.2608
   -20.2405 -20.2405 -20.2403 -20.2403 -20.2402 -20.2402 -20.2400 -20.2400
   -20.2357 -20.2357 -20.2355 -20.2355 -20.2354 -20.2354 -20.2353 -20.2353
   -20.2311 -20.2311 -20.2309 -20.2309 -20.2285 -20.2285 -20.2282 -20.2282
   -20.2233 -20.2233 -20.2233 -20.2233 -20.2225 -20.2225 -20.2225 -20.2225
   -20.2222 -20.2222 -20.2221 -20.2221 -20.2201 -20.2201 -20.2200 -20.2200
   -20.2102 -20.2102 -20.2101 -20.2101 -20.2095 -20.2095 -20.2094 -20.2094
    -9.2491  -9.2491  -9.0501  -9.0501  -8.9444  -8.9444  -8.6147  -8.6147
    -8.5713  -8.5713  -8.4594  -8.4594  -8.4016  -8.4016  -8.3661  -8.3661
    -8.1135  -8.1135  -8.0826  -8.0826  -8.0487  -8.0487  -8.0018  -8.0018
     2.2470   2.2470   2.3305   2.3305   2.4246   2.4247   2.5486   2.5486
     3.0816   3.0816   3.1192   3.1192   3.2512   3.2512   3.3080   3.3080
     3.4023   3.4023   3.7086   3.7086   3.7651   3.7651   3.8725   3.8725
     3.9689   3.9689   4.1379   4.1379   4.2661   4.2661   4.2778   4.2778
     4.4115   4.4115   4.5546   4.5546   4.7123   4.7123   4.9059   4.9059
     4.9749   4.9749   5.0786   5.0786   5.1215   5.1215   5.3924   5.3924
     6.8939   6.8939   6.9592   6.9592   7.0452   7.0452   7.0723   7.0723
     7.2246   7.2246   7.3031   7.3031   7.3660   7.3660   7.5296   7.5296
     7.5684   7.5684   7.6623   7.6623   7.6874   7.6874   7.8254   7.8254
    11.3096  11.3096  11.5874  11.5874  11.6962  11.6962  11.8143  11.8143
    12.1159  12.1159  12.3969  12.3969  12.4360  12.4360  12.4909  12.4909
    12.7804  12.7804  12.8791  12.8791  12.9007  12.9007  13.2961  13.2961
    15.9916  15.9916  16.4067  16.4067  16.6495  16.6495  16.7220  16.7220
    17.0284  17.0284  17.4857  17.4857  17.6978

          k =-0.4988 0.4784 0.3311 ( 62052 PWs)   bands (ev):

   -66.0986 -66.0986 -66.0986 -66.0986 -66.0982 -66.0982 -66.0981 -66.0981
   -30.4608 -30.4608 -30.4601 -30.4601 -30.4544 -30.4544 -30.4532 -30.4532
   -30.4328 -30.4328 -30.4322 -30.4322 -30.4052 -30.4052 -30.4047 -30.4047
   -30.3942 -30.3942 -30.3926 -30.3926 -30.3783 -30.3783 -30.3777 -30.3777
   -20.2611 -20.2611 -20.2611 -20.2611 -20.2608 -20.2608 -20.2608 -20.2608
   -20.2404 -20.2404 -20.2404 -20.2404 -20.2401 -20.2401 -20.2401 -20.2401
   -20.2356 -20.2356 -20.2356 -20.2356 -20.2353 -20.2353 -20.2353 -20.2353
   -20.2299 -20.2299 -20.2297 -20.2297 -20.2297 -20.2297 -20.2295 -20.2295
   -20.2233 -20.2233 -20.2233 -20.2233 -20.2225 -20.2225 -20.2224 -20.2224
   -20.2223 -20.2223 -20.2222 -20.2222 -20.2200 -20.2200 -20.2200 -20.2200
   -20.2102 -20.2102 -20.2102 -20.2102 -20.2094 -20.2094 -20.2094 -20.2094
    -9.1331  -9.1331  -9.1209  -9.1209  -8.7429  -8.7429  -8.7129  -8.7129
    -8.4894  -8.4894  -8.4605  -8.4605  -8.3404  -8.3404  -8.3092  -8.3092
    -8.2718  -8.2718  -8.2494  -8.2494  -8.0690  -8.0690  -8.0681  -8.0681
     2.3133   2.3133   2.3300   2.3300   2.9934   2.9934   3.0515   3.0515
     3.1333   3.1333   3.1696   3.1696   3.2447   3.2447   3.2964   3.2964
     3.5050   3.5050   3.5601   3.5601   3.6568   3.6568   3.7141   3.7141
     3.8830   3.8830   4.0337   4.0337   4.2918   4.2918   4.3049   4.3049
     4.3675   4.3675   4.4344   4.4344   4.5499   4.5499   4.6566   4.6566
     4.7544   4.7544   4.8863   4.8863   5.0874   5.0874   5.1243   5.1243
     7.0085   7.0085   7.1180   7.1180   7.1886   7.1886   7.2199   7.2199
     7.2902   7.2902   7.3621   7.3621   7.4332   7.4332   7.4698   7.4698
     7.5342   7.5342   7.6069   7.6069   7.6464   7.6464   7.6870   7.6870
    11.5791  11.5791  11.6256  11.6256  11.7490  11.7490  11.8597  11.8597
    12.2618  12.2618  12.3071  12.3071  12.3424  12.3424  12.4792  12.4792
    12.5733  12.5733  12.7077  12.7077  12.9622  12.9622  13.0439  13.0439
    16.4699  16.4699  16.5198  16.5198  17.0559  17.0559  17.1927  17.1927
    17.3089  17.3090  17.4346  17.4353  17.4867

     the Fermi energy is     9.0432 ev

!    total energy              =   -6261.11308567 Ry
     Harris-Foulkes estimate   =   -6261.11308567 Ry
     estimated scf accuracy    <          8.7E-12 Ry

     The total energy is the sum of the following terms:

     one-electron contribution =   -4700.19005082 Ry
     hartree contribution      =    2587.65844058 Ry
     xc contribution           =    -965.66230130 Ry
     ewald contribution        =   -3182.91917413 Ry
     smearing contrib. (-TS)   =      -0.00000000 Ry

     convergence has been achieved in  15 iterations

     Forces acting on atoms (cartesian axes, Ry/au):

     atom    1 type  1   force =     0.00054044   -0.00249158   -0.00103312
     atom    2 type  1   force =    -0.00054044    0.00249158    0.00103312
     atom    3 type  1   force =    -0.00054044    0.00249158   -0.00103312
     atom    4 type  1   force =     0.00054044   -0.00249158    0.00103312
     atom    5 type  1   force =    -0.00054044   -0.00249158    0.00103312
     atom    6 type  1   force =     0.00054044    0.00249158   -0.00103312
     atom    7 type  1   force =     0.00054044    0.00249158    0.00103312
     atom    8 type  1   force =    -0.00054044   -0.00249158   -0.00103312
     atom    9 type  2   force =    -0.00020436    0.00137032    0.00029873
     atom   10 type  2   force =     0.00020436   -0.00137032   -0.00029873
     atom   11 type  2   force =     0.00020436   -0.00137032    0.00029873
     atom   12 type  2   force =    -0.00020436    0.00137032   -0.00029873
     atom   13 type  2   force =     0.00020436    0.00137032   -0.00029873
     atom   14 type  2   force =    -0.00020436   -0.00137032    0.00029873
     atom   15 type  2   force =    -0.00020436   -0.00137032   -0.00029873
     atom   16 type  2   force =     0.00020436    0.00137032    0.00029873
     atom   17 type  2   force =     0.00011439    0.00028639    0.00168583
     atom   18 type  2   force =    -0.00011439   -0.00028639   -0.00168583
     atom   19 type  2   force =    -0.00011439   -0.00028639    0.00168583
     atom   20 type  2   force =     0.00011439    0.00028639   -0.00168583
     atom   21 type  2   force =    -0.00011439    0.00028639   -0.00168583
     atom   22 type  2   force =     0.00011439   -0.00028639    0.00168583
     atom   23 type  2   force =     0.00011439   -0.00028639   -0.00168583
     atom   24 type  2   force =    -0.00011439    0.00028639    0.00168583
     atom   25 type  2   force =    -0.00069312   -0.00079539   -0.00094253
     atom   26 type  2   force =     0.00069312    0.00079539    0.00094253
     atom   27 type  2   force =     0.00069312    0.00079539   -0.00094253
     atom   28 type  2   force =    -0.00069312   -0.00079539    0.00094253
     atom   29 type  2   force =     0.00069312   -0.00079539    0.00094253
     atom   30 type  2   force =    -0.00069312    0.00079539   -0.00094253
     atom   31 type  2   force =    -0.00069312    0.00079539    0.00094253
     atom   32 type  2   force =     0.00069312   -0.00079539   -0.00094253

     Total force =     0.000000     Total SCF correction =     0.000000


     Computing stress (Cartesian axis) and pressure

          total   stress  (Ry/bohr**3)                   (kbar)     P=   -0.00
   0.00000033   0.00000000   0.00000000          0.05      0.00      0.00
   0.00000000  -0.00000168   0.00000000          0.00     -0.25      0.00
   0.00000000   0.00000000   0.00000128          0.00      0.00      0.19


     Writing output data file Landau_29.save
 
     init_run     :    117.86s CPU    121.37s WALL (       2 calls)
     electrons    :  11025.15s CPU  11781.82s WALL (       6 calls)
     update_pot   :    121.51s CPU    121.75s WALL (       4 calls)
     forces       :    223.91s CPU    230.60s WALL (       6 calls)
     stress       :   1612.66s CPU   1632.83s WALL (       6 calls)

     Called by init_run:
     wfcinit      :     87.29s CPU     90.43s WALL (       2 calls)
     potinit      :     14.72s CPU     14.81s WALL (       2 calls)

     Called by electrons:
     c_bands      :   9696.73s CPU  10431.15s WALL (      75 calls)
     sum_band     :   1255.54s CPU   1268.08s WALL (      75 calls)
     v_of_rho     :     11.26s CPU     11.42s WALL (      79 calls)
     mix_rho      :     19.60s CPU     25.71s WALL (      75 calls)

     Called by c_bands:
     init_us_2    :     93.02s CPU     98.12s WALL (     328 calls)
     cegterg      :   8078.32s CPU   8790.32s WALL (     150 calls)

     Called by sum_band:

     Called by *egterg:
     h_psi        :   6187.12s CPU   6404.50s WALL (     591 calls)
     g_psi        :     25.32s CPU     25.37s WALL (     437 calls)
     cdiaghg      :     85.85s CPU    123.64s WALL (     575 calls)

     Called by h_psi:
     h_psi:pot    :   6142.49s CPU   6327.76s WALL (     591 calls)
     h_psi:calbec :    728.92s CPU    788.22s WALL (     591 calls)
     vloc_psi     :   4647.36s CPU   4762.05s WALL (     591 calls)
     add_vuspsi   :    766.19s CPU    777.46s WALL (     591 calls)

     General routines
     calbec       :    848.91s CPU    908.50s WALL (     651 calls)
     fft          :      8.38s CPU      8.38s WALL (     366 calls)
     fftw         :   4606.23s CPU   4667.57s WALL (  195426 calls)
 
     Parallel routines
 
     PWSCF        :     3h38m CPU        3h51m WALL

 
   This run was terminated on:  11:33:33  11Mar2020            

=------------------------------------------------------------------------------=
   JOB DONE.
=------------------------------------------------------------------------------=
