
     Program PWSCF v.6.4.1 starts on 20Nov2019 at 13: 2:45 

     This program is part of the open-source Quantum ESPRESSO suite
     for quantum simulation of materials; please cite
         "P. Giannozzi et al., J. Phys.:Condens. Matter 21 395502 (2009);
         "P. Giannozzi et al., J. Phys.:Condens. Matter 29 465901 (2017);
          URL http://www.quantum-espresso.org", 
     in publications or presentations arising from this work. More details at
     http://www.quantum-espresso.org/quote

     Parallel version (MPI), running on    40 processors

     MPI processes distributed on     3 nodes
     K-points division:     npool     =      40
     Reading input from scf.in

     Current dimensions of program PWSCF are:
     Max number of different atomic species (ntypx) = 10
     Max number of k-points (npk) =  40000
     Max angular momentum in pseudopotentials (lmaxx) =  3

     Subspace diagonalization in iterative solution of the eigenvalue problem:
     a serial algorithm will be used

     Message from routine setup:
     using ibrav=0 with symmetry is DISCOURAGED, use correct ibrav instead
 
     G-vector sticks info
     --------------------
     sticks:   dense  smooth     PW     G-vecs:    dense   smooth      PW
     Sum        3729    3729   1009               249381   249381   35621
 


     bravais-lattice index     =            0
     lattice parameter (alat)  =       9.8846  a.u.
     unit-cell volume          =    1405.0110 (a.u.)^3
     number of atoms/cell      =           16
     number of atomic types    =            2
     number of electrons       =       184.50
     number of Kohn-Sham states=          111
     kinetic-energy cutoff     =     120.0000  Ry
     charge density cutoff     =     480.0000  Ry
     convergence threshold     =      1.0E-08
     mixing beta               =       0.7000
     number of iterations used =            8  plain     mixing
     Exchange-correlation      = SLA PW NOGX NOGC ( 1  4  0  0 0 0)

     celldm(1)=   9.884566  celldm(2)=   0.000000  celldm(3)=   0.000000
     celldm(4)=   0.000000  celldm(5)=   0.000000  celldm(6)=   0.000000

     crystal axes: (cart. coord. in units of alat)
               a(1) = (   1.000000   0.000000   0.000000 )  
               a(2) = (   0.000000   1.000000   0.000000 )  
               a(3) = (   0.000000   0.000000   1.454812 )  

     reciprocal axes: (cart. coord. in units 2 pi/alat)
               b(1) = (  1.000000  0.000000  0.000000 )  
               b(2) = (  0.000000  1.000000  0.000000 )  
               b(3) = (  0.000000  0.000000  0.687374 )  


     PseudoPot. # 1 for W  read from file:
     /cluster/scratch/mnoe/QE/pps/W_ONCV_LDA-4.0.upf
     MD5 check sum: ba0307d5d4cd419d6f1d13dc49d7c13a
     Pseudo is Norm-conserving + core correction, Zval = 28.0
     Generated using ONCVPSP code by D. R. Hamann
     Using radial grid of 1380 points,  8 beta functions with: 
                l(1) =   0
                l(2) =   0
                l(3) =   1
                l(4) =   1
                l(5) =   2
                l(6) =   2
                l(7) =   3
                l(8) =   3

     PseudoPot. # 2 for O  read from file:
     /cluster/scratch/mnoe/QE/pps/O_ONCV_LDA-3.0.upf
     MD5 check sum: b55cdb4f45ae2203d24ad12cf8d61a31
     Pseudo is Norm-conserving + core correction, Zval =  6.0
     Generated using ONCVPSP code by D. R. Hamann
     Using radial grid of  926 points,  5 beta functions with: 
                l(1) =   0
                l(2) =   0
                l(3) =   1
                l(4) =   1
                l(5) =   2

     atomic species   valence    mass     pseudopotential
        W             28.00   183.84000     W ( 1.00)
        O              6.00    15.99940     O ( 1.00)

     16 Sym. Ops., with inversion, found (14 have fractional translation)



   Cartesian axes

     site n.     atom                  positions (alat units)
         1           W   tau(   1) = (   0.2500000   0.2500000   0.2980613  )
         2           W   tau(   2) = (   0.7500000   0.7500000   1.1567507  )
         3           W   tau(   3) = (   0.7500000   0.7500000   0.4293447  )
         4           W   tau(   4) = (   0.2500000   0.2500000   1.0254673  )
         5           O   tau(   5) = (   0.2500000   0.2500000   0.6788354  )
         6           O   tau(   6) = (   0.7500000   0.7500000   0.7759766  )
         7           O   tau(   7) = (   0.7500000   0.7500000   0.0485706  )
         8           O   tau(   8) = (   0.2500000   0.2500000   1.4062414  )
         9           O   tau(   9) = (   0.5178711   0.4821289   0.3637030  )
        10           O   tau(  10) = (   0.4821289   0.5178711   1.0911090  )
        11           O   tau(  11) = (  -0.0178711   1.0178711   0.3637030  )
        12           O   tau(  12) = (   1.0178710  -0.0178711   1.0911090  )
        13           O   tau(  13) = (   1.0178711   0.5178711   0.3637030  )
        14           O   tau(  14) = (  -0.0178711   0.4821289   1.0911090  )
        15           O   tau(  15) = (   0.4821289  -0.0178711   0.3637030  )
        16           O   tau(  16) = (   0.5178711   1.0178710   1.0911090  )

     number of k points=    40  gaussian smearing, width (Ry)=  0.0007
                       cart. coord. in units 2pi/alat
        k(    1) = (   0.0000000   0.0000000   0.0000000), wk =   0.0092593
        k(    2) = (   0.0000000   0.0000000   0.1145623), wk =   0.0185185
        k(    3) = (   0.0000000   0.0000000   0.2291247), wk =   0.0185185
        k(    4) = (   0.0000000   0.0000000  -0.3436870), wk =   0.0092593
        k(    5) = (   0.0000000   0.1666667   0.0000000), wk =   0.0370370
        k(    6) = (   0.0000000   0.1666667   0.1145623), wk =   0.0740741
        k(    7) = (   0.0000000   0.1666667   0.2291247), wk =   0.0740741
        k(    8) = (   0.0000000   0.1666667  -0.3436870), wk =   0.0370370
        k(    9) = (   0.0000000   0.3333333   0.0000000), wk =   0.0370370
        k(   10) = (   0.0000000   0.3333333   0.1145623), wk =   0.0740741
        k(   11) = (   0.0000000   0.3333333   0.2291247), wk =   0.0740741
        k(   12) = (   0.0000000   0.3333333  -0.3436870), wk =   0.0370370
        k(   13) = (   0.0000000  -0.5000000   0.0000000), wk =   0.0185185
        k(   14) = (   0.0000000  -0.5000000   0.1145623), wk =   0.0370370
        k(   15) = (   0.0000000  -0.5000000   0.2291247), wk =   0.0370370
        k(   16) = (   0.0000000  -0.5000000  -0.3436870), wk =   0.0185185
        k(   17) = (   0.1666667   0.1666667   0.0000000), wk =   0.0370370
        k(   18) = (   0.1666667   0.1666667   0.1145623), wk =   0.0740741
        k(   19) = (   0.1666667   0.1666667   0.2291247), wk =   0.0740741
        k(   20) = (   0.1666667   0.1666667  -0.3436870), wk =   0.0370370
        k(   21) = (   0.1666667   0.3333333   0.0000000), wk =   0.0740741
        k(   22) = (   0.1666667   0.3333333   0.1145623), wk =   0.1481481
        k(   23) = (   0.1666667   0.3333333   0.2291247), wk =   0.1481481
        k(   24) = (   0.1666667   0.3333333  -0.3436870), wk =   0.0740741
        k(   25) = (   0.1666667  -0.5000000   0.0000000), wk =   0.0370370
        k(   26) = (   0.1666667  -0.5000000   0.1145623), wk =   0.0740741
        k(   27) = (   0.1666667  -0.5000000   0.2291247), wk =   0.0740741
        k(   28) = (   0.1666667  -0.5000000  -0.3436870), wk =   0.0370370
        k(   29) = (   0.3333333   0.3333333   0.0000000), wk =   0.0370370
        k(   30) = (   0.3333333   0.3333333   0.1145623), wk =   0.0740741
        k(   31) = (   0.3333333   0.3333333   0.2291247), wk =   0.0740741
        k(   32) = (   0.3333333   0.3333333  -0.3436870), wk =   0.0370370
        k(   33) = (   0.3333333  -0.5000000   0.0000000), wk =   0.0370370
        k(   34) = (   0.3333333  -0.5000000   0.1145623), wk =   0.0740741
        k(   35) = (   0.3333333  -0.5000000   0.2291247), wk =   0.0740741
        k(   36) = (   0.3333333  -0.5000000  -0.3436870), wk =   0.0370370
        k(   37) = (  -0.5000000  -0.5000000   0.0000000), wk =   0.0092593
        k(   38) = (  -0.5000000  -0.5000000   0.1145623), wk =   0.0185185
        k(   39) = (  -0.5000000  -0.5000000   0.2291247), wk =   0.0185185
        k(   40) = (  -0.5000000  -0.5000000  -0.3436870), wk =   0.0092593

     Dense  grid:   249381 G-vectors     FFT dimensions: (  72,  72, 108)

     Estimated max dynamical RAM per process >     783.11 MB

     Estimated total dynamical RAM >      30.59 GB

     Initial potential from superposition of free atoms

     starting charge  183.99828, renormalised to  184.50000
     Starting wfcs are  116 randomized atomic wfcs

     total cpu time spent up to now is        6.0 secs

     Self-consistent Calculation

     iteration #  1     ecut=   120.00 Ry     beta= 0.70
     Davidson diagonalization with overlap
     ethr =  1.00E-02,  avg # of iterations =  4.9

     total cpu time spent up to now is       23.9 secs

     total energy              =   -3126.30533566 Ry
     Harris-Foulkes estimate   =   -3132.01846001 Ry
     estimated scf accuracy    <       7.16142733 Ry

     iteration #  2     ecut=   120.00 Ry     beta= 0.70
     Davidson diagonalization with overlap
     ethr =  3.88E-03,  avg # of iterations =  3.4

     total cpu time spent up to now is       41.0 secs

     total energy              =   -3124.69099818 Ry
     Harris-Foulkes estimate   =   -3135.29265524 Ry
     estimated scf accuracy    <      28.34029581 Ry

     iteration #  3     ecut=   120.00 Ry     beta= 0.70
     Davidson diagonalization with overlap
     ethr =  3.88E-03,  avg # of iterations =  3.3

     total cpu time spent up to now is       57.1 secs

     total energy              =   -3130.12172519 Ry
     Harris-Foulkes estimate   =   -3130.25638551 Ry
     estimated scf accuracy    <       0.47895651 Ry

     iteration #  4     ecut=   120.00 Ry     beta= 0.70
     Davidson diagonalization with overlap
     ethr =  2.60E-04,  avg # of iterations =  2.4

     total cpu time spent up to now is       70.5 secs

     total energy              =   -3130.10493829 Ry
     Harris-Foulkes estimate   =   -3130.15101125 Ry
     estimated scf accuracy    <       0.13148240 Ry

     iteration #  5     ecut=   120.00 Ry     beta= 0.70
     Davidson diagonalization with overlap
     ethr =  7.13E-05,  avg # of iterations =  3.9

     total cpu time spent up to now is       84.8 secs

     total energy              =   -3130.11290087 Ry
     Harris-Foulkes estimate   =   -3130.12592461 Ry
     estimated scf accuracy    <       0.02950835 Ry

     iteration #  6     ecut=   120.00 Ry     beta= 0.70
     Davidson diagonalization with overlap
     ethr =  1.60E-05,  avg # of iterations =  4.4

     total cpu time spent up to now is      100.3 secs

     total energy              =   -3130.11896417 Ry
     Harris-Foulkes estimate   =   -3130.12078174 Ry
     estimated scf accuracy    <       0.00475069 Ry

     iteration #  7     ecut=   120.00 Ry     beta= 0.70
     Davidson diagonalization with overlap
     ethr =  2.57E-06,  avg # of iterations =  3.6

     total cpu time spent up to now is      114.6 secs

     total energy              =   -3130.11960678 Ry
     Harris-Foulkes estimate   =   -3130.11965874 Ry
     estimated scf accuracy    <       0.00008068 Ry

     iteration #  8     ecut=   120.00 Ry     beta= 0.70
     Davidson diagonalization with overlap
     ethr =  4.37E-08,  avg # of iterations =  3.4

     total cpu time spent up to now is      132.5 secs

     total energy              =   -3130.11964935 Ry
     Harris-Foulkes estimate   =   -3130.11966361 Ry
     estimated scf accuracy    <       0.00006221 Ry

     iteration #  9     ecut=   120.00 Ry     beta= 0.70
     Davidson diagonalization with overlap
     ethr =  3.37E-08,  avg # of iterations =  1.1

     total cpu time spent up to now is      144.9 secs

     total energy              =   -3130.11964492 Ry
     Harris-Foulkes estimate   =   -3130.11965240 Ry
     estimated scf accuracy    <       0.00001910 Ry

     iteration # 10     ecut=   120.00 Ry     beta= 0.70
     Davidson diagonalization with overlap
     ethr =  1.04E-08,  avg # of iterations =  2.8

     total cpu time spent up to now is      158.2 secs

     total energy              =   -3130.11964833 Ry
     Harris-Foulkes estimate   =   -3130.11964842 Ry
     estimated scf accuracy    <       0.00000019 Ry

     iteration # 11     ecut=   120.00 Ry     beta= 0.70
     Davidson diagonalization with overlap
     ethr =  1.03E-10,  avg # of iterations =  2.5

     total cpu time spent up to now is      174.7 secs

     total energy              =   -3130.11964838 Ry
     Harris-Foulkes estimate   =   -3130.11964841 Ry
     estimated scf accuracy    <       0.00000005 Ry

     iteration # 12     ecut=   120.00 Ry     beta= 0.70
     Davidson diagonalization with overlap
     ethr =  2.77E-11,  avg # of iterations =  2.0

     total cpu time spent up to now is      188.9 secs

     End of self-consistent calculation

          k = 0.0000 0.0000 0.0000 ( 31095 PWs)   bands (ev):

   -66.0156 -66.0151 -66.0143 -66.0137 -30.3944 -30.3913 -30.3529 -30.3529
   -30.3484 -30.3484 -30.3174 -30.3156 -30.2726 -30.2726 -30.2690 -30.2690
   -20.1655 -20.1654 -20.1654 -20.1653 -20.1569 -20.1565 -20.1540 -20.1539
   -20.1535 -20.1533 -20.1505 -20.1505 -20.1501 -20.1501 -20.1495 -20.1492
   -20.1457 -20.1457 -20.1457 -20.1457 -20.1430 -20.1430 -20.1423 -20.1423
   -20.1405 -20.1405 -20.1402 -20.1402  -9.9947  -9.5420  -9.1997  -8.8685
    -8.8433  -8.7586  -7.7091  -7.6618  -7.6618  -7.6391  -7.6391  -7.5591
     1.2122   1.2865   1.2911   1.4000   1.6386   1.6806   2.4962   2.4962
     2.5963   2.7158   4.0279   4.0279   4.9511   4.9511   5.0945   5.6931
     5.6931   5.9968   5.9968   6.0689   6.0729   6.0729   6.1563   6.6795
     6.6795   6.9653   7.2497   7.3113   7.3113   7.3464   7.3464   7.4110
     8.4525   8.4582   8.5011   8.5011   9.1167   9.1290   9.6690   9.6690
    12.5989  12.5989  13.4487  13.4487  13.6028  13.6313  13.6447  14.3424
    14.3424  14.5131  14.5147  14.8152  15.7707  16.4702  17.1732

          k = 0.0000 0.0000 0.1146 ( 31246 PWs)   bands (ev):

   -66.0156 -66.0151 -66.0142 -66.0138 -30.3893 -30.3862 -30.3526 -30.3526
   -30.3487 -30.3487 -30.3226 -30.3207 -30.2723 -30.2723 -30.2693 -30.2693
   -20.1655 -20.1654 -20.1654 -20.1653 -20.1564 -20.1560 -20.1540 -20.1539
   -20.1535 -20.1533 -20.1505 -20.1505 -20.1502 -20.1502 -20.1501 -20.1497
   -20.1457 -20.1457 -20.1457 -20.1457 -20.1430 -20.1430 -20.1424 -20.1424
   -20.1405 -20.1405 -20.1402 -20.1402  -9.9504  -9.5600  -9.1141  -8.8668
    -8.8450  -8.7153  -7.8272  -7.6863  -7.6603  -7.6603  -7.6407  -7.6407
     1.2868   1.2908   1.4466   1.6071   1.6374   1.7857   2.5675   2.5675
     2.6041   2.7075   3.8667   3.8667   4.8520   5.0022   5.0022   5.6842
     5.6842   5.7562   5.7856   5.7856   6.1152   6.3598   6.3598   6.6585
     6.6585   6.9838   7.2003   7.2300   7.3120   7.3120   7.3385   7.3385
     8.4211   8.4212   8.4530   8.4583   9.1178   9.1285   9.9192   9.9192
    12.4270  12.4270  13.4764  13.4764  13.6321  13.6438  13.8483  14.2436
    14.2436  14.5135  14.5149  15.0802  16.1427  16.1991  17.2686

          k = 0.0000 0.0000 0.2291 ( 31270 PWs)   bands (ev):

   -66.0155 -66.0152 -66.0141 -66.0139 -30.3753 -30.3725 -30.3518 -30.3518
   -30.3495 -30.3495 -30.3368 -30.3347 -30.2717 -30.2717 -30.2699 -30.2699
   -20.1655 -20.1654 -20.1654 -20.1653 -20.1551 -20.1547 -20.1539 -20.1539
   -20.1534 -20.1534 -20.1515 -20.1511 -20.1504 -20.1504 -20.1502 -20.1502
   -20.1457 -20.1457 -20.1457 -20.1457 -20.1429 -20.1429 -20.1425 -20.1425
   -20.1405 -20.1405 -20.1403 -20.1403  -9.8395  -9.6162  -8.8710  -8.8622
    -8.8497  -8.5758  -8.1304  -7.9943  -7.6562  -7.6562  -7.6448  -7.6448
     1.2877   1.2900   1.6101   1.6338   2.2140   2.5021   2.6255   2.6852
     2.7754   2.7754   3.4976   3.4976   4.1512   4.7716   5.1679   5.1679
     5.5856   5.5856   5.7657   5.7657   6.1137   6.1137   6.2529   6.8087
     7.0345   7.1479   7.1479   7.1767   7.3140   7.3140   7.3339   7.3339
     8.1563   8.1563   8.4542   8.4575   9.1207   9.1268  10.5299  10.5299
    11.9474  11.9474  13.5746  13.5746  13.6345  13.6413  14.0089  14.0089
    14.3517  14.5146  14.5153  15.5486  15.7964  17.1464  17.2641

          k = 0.0000 0.0000-0.3437 ( 31194 PWs)   bands (ev):

   -66.0153 -66.0153 -66.0140 -66.0140 -30.3561 -30.3561 -30.3536 -30.3536
   -30.3506 -30.3506 -30.3506 -30.3506 -30.2708 -30.2708 -30.2708 -30.2708
   -20.1654 -20.1654 -20.1653 -20.1653 -20.1539 -20.1539 -20.1534 -20.1534
   -20.1533 -20.1533 -20.1529 -20.1529 -20.1503 -20.1503 -20.1503 -20.1503
   -20.1457 -20.1457 -20.1457 -20.1457 -20.1427 -20.1427 -20.1427 -20.1427
   -20.1404 -20.1404 -20.1404 -20.1404  -9.7137  -9.7137  -8.8559  -8.8559
    -8.5149  -8.5149  -8.3269  -8.3269  -7.6505  -7.6505  -7.6505  -7.6505
     1.2889   1.2889   1.6268   1.6268   2.6551   2.6551   3.1005   3.1005
     3.1005   3.1005   3.1753   3.1753   3.5871   3.5871   5.4030   5.4030
     5.4030   5.4030   5.8638   5.8638   5.8638   5.8638   6.4818   6.4818
     7.1050   7.1050   7.3162   7.3162   7.3162   7.3162   7.7159   7.7159
     7.7159   7.7159   8.4559   8.4559   9.1241   9.1241  11.2662  11.2662
    11.2662  11.2662  13.6379  13.6379  13.7587  13.7587  13.7587  13.7587
    14.5153  14.5153  14.9288  14.9288  16.6083  16.6083  17.6524

          k = 0.0000 0.1667 0.0000 ( 31197 PWs)   bands (ev):

   -66.0155 -66.0150 -66.0144 -66.0138 -30.3949 -30.3918 -30.3487 -30.3475
   -30.3431 -30.3425 -30.3166 -30.3162 -30.2780 -30.2772 -30.2744 -30.2742
   -20.1655 -20.1654 -20.1654 -20.1653 -20.1569 -20.1566 -20.1541 -20.1540
   -20.1538 -20.1537 -20.1507 -20.1498 -20.1498 -20.1497 -20.1495 -20.1487
   -20.1459 -20.1459 -20.1459 -20.1458 -20.1429 -20.1429 -20.1422 -20.1422
   -20.1407 -20.1406 -20.1403 -20.1403  -9.9150  -9.4391  -9.2223  -8.8016
    -8.7766  -8.7334  -7.8385  -7.7972  -7.7615  -7.7387  -7.6589  -7.5666
     1.2281   1.3813   1.5275   1.5361   1.8944   1.9244   2.5686   2.5753
     2.7743   2.8867   3.9826   4.0200   4.5940   4.6977   5.0812   5.3945
     5.4313   5.7569   5.8838   6.0899   6.0953   6.2039   6.4950   6.5305
     6.5578   6.6398   6.7177   6.9324   7.1888   7.2098   7.2720   7.3086
     8.3238   8.3426   8.4429   8.4712   9.7412   9.7875   9.9959  10.0878
    12.6500  12.6787  13.1652  13.1950  13.5477  13.6061  13.9141  14.1703
    14.1709  14.8899  14.9130  15.0020  15.7021  16.7987  17.2002

          k = 0.0000 0.1667 0.1146 ( 31212 PWs)   bands (ev):

   -66.0155 -66.0150 -66.0143 -66.0138 -30.3899 -30.3868 -30.3486 -30.3472
   -30.3434 -30.3427 -30.3217 -30.3212 -30.2777 -30.2771 -30.2746 -30.2744
   -20.1655 -20.1654 -20.1654 -20.1653 -20.1564 -20.1561 -20.1541 -20.1540
   -20.1538 -20.1537 -20.1508 -20.1502 -20.1498 -20.1497 -20.1495 -20.1491
   -20.1459 -20.1459 -20.1459 -20.1459 -20.1429 -20.1429 -20.1422 -20.1422
   -20.1407 -20.1406 -20.1404 -20.1404  -9.8679  -9.4573  -9.1371  -8.7999
    -8.7783  -8.6929  -7.8963  -7.7952  -7.7600  -7.7403  -7.7347  -7.6797
     1.4843   1.5281   1.5356   1.6323   1.8930   1.9594   2.6419   2.6432
     2.7836   2.8793   3.8453   3.8843   4.6491   4.7503   4.8346   5.3986
     5.4340   5.5415   5.6384   5.7853   6.2288   6.2883   6.5165   6.5771
     6.5940   6.6466   6.6542   7.0681   7.1267   7.2147   7.2598   7.3191
     8.3184   8.3344   8.3691   8.3968   9.7504   9.7815  10.1916  10.2710
    12.4860  12.5176  13.1863  13.2239  13.5407  13.6103  14.0645  14.0800
    14.1676  14.8906  14.9075  15.2494  16.1290  16.4288  17.2570

          k = 0.0000 0.1667 0.2291 ( 31184 PWs)   bands (ev):

   -66.0154 -66.0151 -66.0142 -66.0139 -30.3763 -30.3731 -30.3493 -30.3464
   -30.3442 -30.3432 -30.3354 -30.3339 -30.2771 -30.2766 -30.2753 -30.2750
   -20.1654 -20.1654 -20.1654 -20.1653 -20.1552 -20.1549 -20.1540 -20.1540
   -20.1538 -20.1537 -20.1516 -20.1515 -20.1497 -20.1497 -20.1496 -20.1496
   -20.1459 -20.1459 -20.1459 -20.1459 -20.1427 -20.1427 -20.1424 -20.1424
   -20.1407 -20.1406 -20.1405 -20.1405  -9.7497  -9.5148  -8.8951  -8.7954
    -8.7829  -8.5612  -8.1612  -8.0006  -7.7895  -7.7626  -7.7559  -7.7445
     1.5297   1.5341   1.8466   1.8882   2.2201   2.4635   2.7855   2.8452
     2.8650   2.8877   3.5062   3.5485   4.1432   4.7633   4.8372   4.9258
     5.3656   5.3769   5.4913   5.4936   5.8435   5.8780   6.6139   6.6281
     6.6622   6.9650   7.1123   7.1286   7.1868   7.2156   7.2899   7.3478
     8.1026   8.1285   8.3372   8.3468   9.7613   9.7754  10.7053  10.7692
    12.0222  12.0618  13.2716  13.3262  13.5111  13.6246  13.8172  13.8721
    14.6754  14.8920  14.8992  15.8378  15.9522  17.1840  17.3083

          k = 0.0000 0.1667-0.3437 ( 31186 PWs)   bands (ev):

   -66.0152 -66.0152 -66.0141 -66.0141 -30.3587 -30.3587 -30.3543 -30.3543
   -30.3453 -30.3453 -30.3427 -30.3427 -30.2762 -30.2762 -30.2758 -30.2758
   -20.1654 -20.1654 -20.1653 -20.1653 -20.1540 -20.1540 -20.1537 -20.1537
   -20.1534 -20.1534 -20.1531 -20.1531 -20.1498 -20.1498 -20.1496 -20.1496
   -20.1459 -20.1459 -20.1458 -20.1458 -20.1425 -20.1425 -20.1425 -20.1425
   -20.1406 -20.1406 -20.1406 -20.1406  -9.6163  -9.6163  -8.7891  -8.7891
    -8.5410  -8.5410  -8.3219  -8.3219  -7.7801  -7.7800  -7.7502  -7.7502
     1.5319   1.5319   1.8783   1.8783   2.8216   2.8216   3.1050   3.1050
     3.1706   3.1706   3.1807   3.1807   3.6185   3.6185   5.1225   5.1225
     5.1863   5.1863   5.5616   5.5616   5.5823   5.5823   6.6320   6.6320
     6.7915   6.7915   7.2033   7.2033   7.3041   7.3041   7.6838   7.6838
     7.7123   7.7124   8.3413   8.3413   9.7692   9.7692  11.3745  11.3745
    11.4255  11.4255  13.4029  13.4029  13.5319  13.5319  13.7083  13.7083
    14.8943  14.8943  15.2376  15.2376  16.7727  16.7727  17.7061

          k = 0.0000 0.3333 0.0000 ( 31180 PWs)   bands (ev):

   -66.0153 -66.0147 -66.0146 -66.0141 -30.3953 -30.3932 -30.3380 -30.3329
   -30.3287 -30.3273 -30.3198 -30.3122 -30.2928 -30.2893 -30.2890 -30.2882
   -20.1655 -20.1654 -20.1654 -20.1653 -20.1570 -20.1568 -20.1543 -20.1543
   -20.1542 -20.1542 -20.1508 -20.1501 -20.1487 -20.1486 -20.1483 -20.1479
   -20.1465 -20.1463 -20.1463 -20.1462 -20.1426 -20.1425 -20.1419 -20.1419
   -20.1411 -20.1411 -20.1407 -20.1407  -9.7077  -9.3021  -9.1464  -8.6424
    -8.6111  -8.5867  -8.2302  -8.1176  -8.0159  -7.9927  -7.6429  -7.5871
     1.2567   1.3387   2.1646   2.2027   2.5202   2.5272   2.7581   2.7946
     3.3133   3.4140   3.7664   3.8015   4.1060   4.2190   4.6638   4.6976
     5.0628   5.2429   5.4868   5.5125   5.6282   6.1543   6.1625   6.3075
     6.3151   6.3813   6.4655   6.8440   7.1817   7.3430   7.4210   7.6661
     8.0311   8.0352   8.2234   8.3378  10.7508  10.7545  10.8730  10.9853
    12.5003  12.5044  12.9276  12.9302  12.9680  12.9955  13.7469  13.8071
    14.5488  15.4892  15.5687  16.1174  16.1207  17.3962  17.4336

          k = 0.0000 0.3333 0.1146 ( 31221 PWs)   bands (ev):

   -66.0152 -66.0148 -66.0146 -66.0141 -30.3904 -30.3882 -30.3390 -30.3326
   -30.3289 -30.3274 -30.3244 -30.3161 -30.2925 -30.2896 -30.2892 -30.2884
   -20.1655 -20.1654 -20.1654 -20.1653 -20.1565 -20.1564 -20.1543 -20.1543
   -20.1542 -20.1542 -20.1510 -20.1506 -20.1487 -20.1485 -20.1483 -20.1481
   -20.1465 -20.1464 -20.1463 -20.1463 -20.1425 -20.1425 -20.1420 -20.1420
   -20.1412 -20.1411 -20.1408 -20.1408  -9.6510  -9.2199  -9.1652  -8.6116
    -8.6095  -8.5883  -8.2558  -8.1125  -8.0144  -7.9942  -7.7485  -7.7015
     1.5200   1.6027   2.1676   2.2006   2.5261   2.5290   2.8322   2.8544
     3.3183   3.4071   3.7000   3.7489   4.1641   4.2745   4.6756   4.7117
     4.8000   5.0613   5.3150   5.4611   5.4844   5.8091   5.8353   6.1126
     6.5611   6.6201   6.8259   6.9471   7.1942   7.3348   7.4323   7.6583
     8.0288   8.0303   8.1631   8.2751  10.7871  10.8108  10.9206  11.0708
    12.5169  12.5314  12.7929  12.8482  12.9275  12.9740  13.6248  13.6945
    14.8679  15.7439  15.9082  16.1172  16.1203  17.0308  17.5163

          k = 0.0000 0.3333 0.2291 ( 31172 PWs)   bands (ev):

   -66.0151 -66.0149 -66.0145 -66.0142 -30.3770 -30.3745 -30.3446 -30.3375
   -30.3319 -30.3297 -30.3277 -30.3238 -30.2918 -30.2899 -30.2898 -30.2889
   -20.1654 -20.1654 -20.1654 -20.1653 -20.1552 -20.1551 -20.1543 -20.1542
   -20.1542 -20.1542 -20.1519 -20.1518 -20.1487 -20.1485 -20.1484 -20.1483
   -20.1465 -20.1464 -20.1463 -20.1463 -20.1424 -20.1423 -20.1420 -20.1420
   -20.1412 -20.1411 -20.1409 -20.1409  -9.5070  -9.2273  -8.9890  -8.6052
    -8.5927  -8.5064  -8.3780  -8.0951  -8.0115  -8.0044  -7.9985  -7.9305
     2.1754   2.1944   2.2248   2.2545   2.5178   2.6016   3.0270   3.0649
     3.3234   3.3864   3.4931   3.5701   4.1300   4.3633   4.4455   4.5889
     4.7386   4.7627   4.9781   5.0669   5.2943   5.4636   5.4902   5.4929
     7.0662   7.1117   7.1350   7.1924   7.2305   7.3156   7.4844   7.6246
     7.9510   7.9777   8.0506   8.1152  10.8207  10.8362  11.2233  11.3781
    12.2629  12.3821  12.7078  12.7263  12.9284  13.0004  13.3361  13.4247
    15.4622  16.1166  16.1187  16.3500  16.5210  16.9218  17.5172

          k = 0.0000 0.3333-0.3437 ( 31134 PWs)   bands (ev):

   -66.0150 -66.0150 -66.0143 -66.0143 -30.3593 -30.3593 -30.3559 -30.3559
   -30.3308 -30.3308 -30.3273 -30.3273 -30.2909 -30.2909 -30.2895 -30.2895
   -20.1654 -20.1654 -20.1654 -20.1654 -20.1543 -20.1543 -20.1542 -20.1542
   -20.1535 -20.1535 -20.1535 -20.1535 -20.1486 -20.1486 -20.1484 -20.1484
   -20.1465 -20.1465 -20.1463 -20.1463 -20.1422 -20.1422 -20.1422 -20.1422
   -20.1411 -20.1411 -20.1410 -20.1410  -9.3449  -9.3448  -8.6659  -8.6659
    -8.5983  -8.5982  -8.2992  -8.2991  -8.0522  -8.0522  -8.0043  -8.0043
     2.1853   2.1853   2.4913   2.4913   3.0722   3.0722   3.2090   3.2090
     3.2783   3.2783   3.3935   3.3935   3.6578   3.6578   4.6586   4.6586
     4.7199   4.7199   4.8974   4.8974   4.9906   4.9907   5.4812   5.4812
     7.1859   7.1860   7.2798   7.2798   7.5225   7.5226   7.6168   7.6168
     7.6965   7.6965   8.0548   8.0548  10.8340  10.8340  11.7240  11.7240
    11.8665  11.8665  12.8068  12.8068  12.9971  12.9971  13.1708  13.1708
    15.9920  15.9920  16.1210  16.1210  17.1649  17.1649  17.6241

          k = 0.0000-0.5000 0.0000 ( 31194 PWs)   bands (ev):

   -66.0149 -66.0149 -66.0144 -66.0144 -30.3946 -30.3946 -30.3266 -30.3266
   -30.3129 -30.3129 -30.3089 -30.3089 -30.3075 -30.3075 -30.3032 -30.3032
   -20.1655 -20.1654 -20.1654 -20.1653 -20.1570 -20.1569 -20.1544 -20.1544
   -20.1544 -20.1544 -20.1506 -20.1505 -20.1478 -20.1478 -20.1474 -20.1474
   -20.1470 -20.1470 -20.1467 -20.1467 -20.1421 -20.1421 -20.1420 -20.1420
   -20.1412 -20.1412 -20.1412 -20.1412  -9.4685  -9.4685  -8.7134  -8.7134
    -8.4420  -8.4420  -8.3285  -8.3285  -8.3041  -8.3040  -7.6152  -7.6152
     1.2937   1.2937   2.8084   2.8084   2.9077   2.9078   3.0941   3.0941
     3.2697   3.2697   3.9871   3.9871   4.0444   4.0445   4.2365   4.2365
     4.3278   4.3278   5.1045   5.1045   5.7854   5.7854   6.2619   6.2619
     6.2665   6.2665   6.5524   6.5524   7.6494   7.6494   7.6711   7.6711
     7.8172   7.8172   8.0705   8.0706  11.6252  11.6252  11.7157  11.7157
    11.9934  11.9934  12.0128  12.0128  13.2717  13.2718  13.3714  13.3714
    15.1127  15.1127  16.4845  16.4845  17.5682  17.5682  17.6672

          k = 0.0000-0.5000 0.1146 ( 31152 PWs)   bands (ev):

   -66.0149 -66.0149 -66.0144 -66.0144 -30.3897 -30.3897 -30.3298 -30.3298
   -30.3126 -30.3126 -30.3091 -30.3091 -30.3077 -30.3077 -30.3049 -30.3049
   -20.1654 -20.1654 -20.1654 -20.1654 -20.1565 -20.1565 -20.1544 -20.1544
   -20.1544 -20.1544 -20.1509 -20.1509 -20.1477 -20.1477 -20.1474 -20.1474
   -20.1471 -20.1471 -20.1468 -20.1468 -20.1420 -20.1420 -20.1420 -20.1419
   -20.1412 -20.1412 -20.1412 -20.1412  -9.3968  -9.3968  -8.7339  -8.7339
    -8.4265  -8.4264  -8.3270  -8.3269  -8.3056  -8.3056  -7.7269  -7.7269
     1.5579   1.5579   2.8353   2.8353   2.9502   2.9502   3.0821   3.0822
     3.2512   3.2512   4.0336   4.0336   4.0837   4.0837   4.2359   4.2359
     4.3278   4.3278   4.8444   4.8444   5.3890   5.3890   5.9325   5.9325
     6.6643   6.6643   6.7598   6.7598   7.6417   7.6417   7.6741   7.6741
     7.7920   7.7920   8.0348   8.0348  11.6731  11.6731  11.7632  11.7632
    12.0076  12.0076  12.0369  12.0369  13.1267  13.1267  13.2351  13.2351
    15.5046  15.5046  16.5713  16.5713  17.4547  17.4547  17.6800

          k = 0.0000-0.5000 0.2291 ( 31160 PWs)   bands (ev):

   -66.0148 -66.0148 -66.0145 -66.0145 -30.3762 -30.3762 -30.3406 -30.3406
   -30.3119 -30.3119 -30.3099 -30.3099 -30.3080 -30.3080 -30.3074 -30.3074
   -20.1654 -20.1654 -20.1654 -20.1654 -20.1553 -20.1553 -20.1544 -20.1544
   -20.1544 -20.1544 -20.1520 -20.1520 -20.1476 -20.1476 -20.1474 -20.1474
   -20.1471 -20.1471 -20.1471 -20.1471 -20.1419 -20.1419 -20.1418 -20.1418
   -20.1414 -20.1414 -20.1414 -20.1414  -9.2053  -9.2053  -8.8090  -8.8090
    -8.3700  -8.3700  -8.3228  -8.3227  -8.3092  -8.3092  -7.9869  -7.9869
     2.2584   2.2584   2.9025   2.9025   3.0422   3.0422   3.0740   3.0740
     3.1875   3.1875   4.1203   4.1203   4.2000   4.2000   4.2003   4.2003
     4.3503   4.3503   4.3554   4.3554   4.8872   4.8872   5.1905   5.1905
     7.1509   7.1509   7.1556   7.1556   7.6114   7.6114   7.6568   7.6568
     7.7336   7.7336   7.9250   7.9250  11.7951  11.7951  11.8478  11.8478
    12.0862  12.0862  12.1665  12.1665  12.7661  12.7661  12.8907  12.8907
    16.3471  16.3471  16.8970  16.8970  17.1991  17.1991  17.6871

          k = 0.0000-0.5000-0.3437 ( 31148 PWs)   bands (ev):

   -66.0147 -66.0147 -66.0147 -66.0147 -30.3580 -30.3580 -30.3579 -30.3579
   -30.3109 -30.3109 -30.3109 -30.3109 -30.3082 -30.3082 -30.3082 -30.3082
   -20.1654 -20.1654 -20.1654 -20.1654 -20.1544 -20.1544 -20.1544 -20.1544
   -20.1536 -20.1536 -20.1536 -20.1536 -20.1475 -20.1474 -20.1474 -20.1474
   -20.1472 -20.1472 -20.1472 -20.1472 -20.1417 -20.1417 -20.1417 -20.1417
   -20.1416 -20.1416 -20.1416 -20.1416  -8.9733  -8.9733  -8.9733  -8.9733
    -8.3176  -8.3176  -8.3176  -8.3176  -8.2316  -8.2315  -8.2315  -8.2315
     2.9675   2.9675   2.9675   2.9675   3.0109   3.0109   3.0109   3.0110
     3.4132   3.4132   3.4132   3.4132   4.2619   4.2620   4.2620   4.2620
     4.4815   4.4815   4.4815   4.4815   4.6007   4.6007   4.6007   4.6007
     7.4632   7.4632   7.4632   7.4632   7.5037   7.5037   7.5037   7.5037
     7.7820   7.7820   7.7820   7.7820  11.8661  11.8661  11.8661  11.8661
    12.3466  12.3466  12.3466  12.3466  12.4920  12.4920  12.4920  12.4920
    16.8699  16.8699  16.8699  16.8699  17.6503  17.6503  17.6503

          k = 0.1667 0.1667 0.0000 ( 31173 PWs)   bands (ev):

   -66.0154 -66.0149 -66.0144 -66.0139 -30.3949 -30.3922 -30.3541 -30.3495
   -30.3348 -30.3268 -30.3180 -30.3143 -30.2919 -30.2897 -30.2715 -30.2680
   -20.1655 -20.1654 -20.1654 -20.1653 -20.1569 -20.1567 -20.1541 -20.1541
   -20.1538 -20.1538 -20.1507 -20.1503 -20.1500 -20.1498 -20.1484 -20.1480
   -20.1465 -20.1464 -20.1456 -20.1456 -20.1431 -20.1425 -20.1424 -20.1418
   -20.1412 -20.1408 -20.1404 -20.1401  -9.8591  -9.3780  -9.2485  -8.7938
    -8.6819  -8.6393  -8.1048  -8.0550  -7.6784  -7.6691  -7.6549  -7.5730
     1.2285   1.3701   1.4218   1.4399   2.4176   2.4241   2.4975   2.7701
     2.9460   3.0486   3.8043   3.9457   4.2167   4.7353   4.9421   5.0691
     5.5120   5.5687   5.8404   6.0338   6.1877   6.2481   6.2969   6.4363
     6.5407   6.6095   6.6107   6.6960   6.9085   7.0534   7.3662   7.5226
     8.1437   8.1951   8.2863   8.5144   9.7004  10.2472  10.2960  10.8302
    12.4309  12.6984  12.9061  13.3765  13.4007  13.4499  13.7869  13.9593
    14.3451  15.0312  15.1805  15.4025  15.6159  17.2712  17.3171

          k = 0.1667 0.1667 0.1146 ( 31180 PWs)   bands (ev):

   -66.0154 -66.0149 -66.0144 -66.0139 -30.3898 -30.3872 -30.3538 -30.3499
   -30.3355 -30.3270 -30.3227 -30.3185 -30.2920 -30.2899 -30.2713 -30.2682
   -20.1655 -20.1654 -20.1654 -20.1653 -20.1565 -20.1562 -20.1541 -20.1541
   -20.1538 -20.1538 -20.1506 -20.1504 -20.1503 -20.1502 -20.1484 -20.1482
   -20.1465 -20.1464 -20.1456 -20.1456 -20.1431 -20.1424 -20.1424 -20.1418
   -20.1412 -20.1408 -20.1404 -20.1401  -9.8104  -9.3955  -9.1644  -8.7730
    -8.6845  -8.6197  -8.1257  -8.0519  -7.7743  -7.6933  -7.6767  -7.6565
     1.3896   1.4212   1.5293   1.6531   2.4281   2.4299   2.5596   2.8316
     2.9583   3.0413   3.7327   3.8497   4.2072   4.7517   4.8153   5.0037
     5.2362   5.5736   5.6498   5.8111   5.9419   6.3457   6.4535   6.5184
     6.5814   6.5938   6.7092   6.7588   6.9130   7.1272   7.2246   7.5205
     8.1473   8.1897   8.2347   8.4246   9.9419  10.2514  10.2988  10.9412
    12.3721  12.6342  12.7512  13.3531  13.4098  13.4759  13.6876  14.1800
    14.2475  15.0189  15.3183  15.5356  16.0374  16.7823  17.4160

          k = 0.1667 0.1667 0.2291 ( 31175 PWs)   bands (ev):

   -66.0153 -66.0150 -66.0143 -66.0140 -30.3761 -30.3735 -30.3529 -30.3507
   -30.3414 -30.3362 -30.3276 -30.3260 -30.2918 -30.2905 -30.2706 -30.2689
   -20.1654 -20.1654 -20.1654 -20.1653 -20.1552 -20.1550 -20.1541 -20.1541
   -20.1538 -20.1538 -20.1516 -20.1514 -20.1505 -20.1503 -20.1484 -20.1484
   -20.1465 -20.1465 -20.1456 -20.1456 -20.1429 -20.1425 -20.1423 -20.1420
   -20.1412 -20.1410 -20.1404 -20.1402  -9.6885  -9.4515  -8.9266  -8.7321
    -8.6922  -8.5282  -8.2572  -8.0419  -8.0108  -7.9372  -7.6726  -7.6608
     1.4130   1.4197   2.2159   2.2800   2.4243   2.5547   2.7615   2.9450
     3.0228   3.0663   3.5004   3.5223   4.1369   4.3799   4.6667   4.8099
     5.0751   5.1794   5.3637   5.5215   5.6420   6.0735   6.5481   6.5922
     6.6079   6.7991   6.8995   6.9733   7.1232   7.1827   7.3173   7.5044
     8.0139   8.1006   8.1896   8.2297  10.2605  10.2683  10.5673  11.2748
    11.9494  12.3300  12.7266  13.2303  13.4226  13.4930  13.5930  14.0132
    14.5783  14.9735  15.4734  16.1893  16.2346  17.0651  17.5401

          k = 0.1667 0.1667-0.3437 ( 31182 PWs)   bands (ev):

   -66.0152 -66.0152 -66.0142 -66.0142 -30.3577 -30.3577 -30.3548 -30.3548
   -30.3518 -30.3518 -30.3279 -30.3279 -30.2913 -30.2913 -30.2698 -30.2698
   -20.1654 -20.1654 -20.1654 -20.1653 -20.1541 -20.1541 -20.1540 -20.1540
   -20.1534 -20.1534 -20.1530 -20.1530 -20.1504 -20.1504 -20.1484 -20.1484
   -20.1465 -20.1465 -20.1456 -20.1456 -20.1427 -20.1427 -20.1421 -20.1421
   -20.1411 -20.1411 -20.1403 -20.1403  -9.5527  -9.5527  -8.7063  -8.7063
    -8.5843  -8.5843  -8.3128  -8.3128  -8.0187  -8.0187  -7.6667  -7.6667
     1.4172   1.4172   2.4043   2.4043   2.9702   2.9702   3.1068   3.1068
     3.1581   3.1581   3.2292   3.2292   3.6274   3.6275   4.6980   4.6980
     4.9613   4.9613   5.3934   5.3934   5.7620   5.7620   6.5864   6.5864
     6.7319   6.7319   6.8875   6.8876   7.4323   7.4323   7.6736   7.6736
     7.6803   7.6803   8.1987   8.1987  10.2694  10.2694  11.2831  11.2831
    11.7814  11.7814  12.9619  12.9619  13.4409  13.4409  13.7657  13.7657
    14.8532  14.8532  15.7632  15.7632  17.0067  17.0067  17.7869

          k = 0.1667 0.3333 0.0000 ( 31166 PWs)   bands (ev):

   -66.0152 -66.0147 -66.0146 -66.0141 -30.3948 -30.3932 -30.3502 -30.3448
   -30.3240 -30.3222 -30.3101 -30.3076 -30.3063 -30.3052 -30.2758 -30.2725
   -20.1655 -20.1654 -20.1654 -20.1653 -20.1569 -20.1568 -20.1543 -20.1542
   -20.1541 -20.1541 -20.1508 -20.1502 -20.1498 -20.1493 -20.1475 -20.1473
   -20.1472 -20.1471 -20.1456 -20.1456 -20.1430 -20.1425 -20.1418 -20.1417
   -20.1413 -20.1413 -20.1404 -20.1402  -9.7055  -9.3382  -9.1925  -8.7409
    -8.5039  -8.4281  -8.4006  -8.3727  -7.8036  -7.7953  -7.6407  -7.5907
     1.2598   1.3390   1.6748   1.6839   2.5488   2.8489   2.9278   3.1591
     3.2641   3.4967   3.5505   3.9266   4.0598   4.1484   4.6481   5.0515
     5.1197   5.2669   5.3919   5.8539   6.0295   6.0306   6.1005   6.1991
     6.3220   6.4042   6.5910   6.8316   6.9738   7.1270   7.1383   7.7905
     7.8167   7.9557   7.9662   8.4616  10.0654  11.1702  11.2228  11.7031
    11.7385  12.7066  12.8834  12.9058  13.1539  13.3182  13.3707  14.1809
    14.2870  15.3434  15.6854  15.7448  16.4672  17.4813  17.6120

          k = 0.1667 0.3333 0.1146 ( 31182 PWs)   bands (ev):

   -66.0152 -66.0147 -66.0146 -66.0141 -30.3898 -30.3883 -30.3500 -30.3451
   -30.3271 -30.3258 -30.3103 -30.3093 -30.3065 -30.3065 -30.2756 -30.2727
   -20.1655 -20.1654 -20.1654 -20.1653 -20.1565 -20.1563 -20.1543 -20.1542
   -20.1541 -20.1541 -20.1509 -20.1506 -20.1499 -20.1495 -20.1475 -20.1473
   -20.1472 -20.1471 -20.1457 -20.1457 -20.1430 -20.1424 -20.1418 -20.1418
   -20.1414 -20.1413 -20.1405 -20.1402  -9.6510  -9.2597  -9.2087  -8.7127
    -8.5195  -8.4326  -8.3944  -8.3643  -7.8186  -7.8018  -7.7361  -7.7034
     1.5107   1.5857   1.6739   1.7213   2.6215   2.8808   2.9679   3.1445
     3.2525   3.4941   3.5467   3.8610   4.1000   4.1103   4.7093   4.7992
     5.0859   5.1123   5.1969   5.6327   5.8526   5.8857   5.8948   6.2863
     6.5280   6.5760   6.7375   6.8647   6.9880   7.1178   7.1712   7.7908
     7.8103   7.9254   7.9338   8.3770  10.2531  11.1726  11.2217  11.7681
    11.8099  12.5377  12.8814  12.8908  13.1225  13.1935  13.2944  14.0769
    14.5488  15.6595  15.7395  15.9131  16.5363  17.2860  17.6430

          k = 0.1667 0.3333 0.2291 ( 31198 PWs)   bands (ev):

   -66.0151 -66.0148 -66.0145 -66.0142 -30.3762 -30.3747 -30.3500 -30.3457
   -30.3384 -30.3372 -30.3112 -30.3108 -30.3077 -30.3071 -30.2750 -30.2733
   -20.1654 -20.1654 -20.1654 -20.1653 -20.1552 -20.1551 -20.1542 -20.1542
   -20.1541 -20.1540 -20.1518 -20.1517 -20.1499 -20.1499 -20.1476 -20.1474
   -20.1472 -20.1472 -20.1457 -20.1457 -20.1428 -20.1424 -20.1418 -20.1417
   -20.1415 -20.1414 -20.1405 -20.1403  -9.5145  -9.2624  -9.0442  -8.6228
    -8.5857  -8.4497  -8.3676  -8.3321  -8.0313  -7.9903  -7.7969  -7.7787
     1.6585   1.6715   2.2382   2.3469   2.8362   2.9718   3.0661   3.1098
     3.2084   3.4502   3.5356   3.5860   4.1707   4.2009   4.2628   4.4478
     4.8818   4.9611   5.0896   5.1721   5.1765   5.7245   5.8651   5.9451
     6.8249   6.9403   6.9680   7.0710   7.0895   7.2039   7.3515   7.7639
     7.7823   7.8287   7.8531   8.1325  10.7448  11.1780  11.2237  11.9379
    12.0249  12.1198  12.7287  12.7911  12.9134  12.9850  13.3593  13.8275
    15.0231  15.5696  16.2840  16.6628  16.8904  16.9297  17.6738

          k = 0.1667 0.3333-0.3437 ( 31198 PWs)   bands (ev):

   -66.0150 -66.0150 -66.0144 -66.0144 -30.3585 -30.3585 -30.3562 -30.3562
   -30.3458 -30.3458 -30.3114 -30.3114 -30.3076 -30.3076 -30.2742 -30.2742
   -20.1654 -20.1654 -20.1654 -20.1654 -20.1543 -20.1543 -20.1541 -20.1541
   -20.1535 -20.1534 -20.1533 -20.1533 -20.1499 -20.1499 -20.1475 -20.1475
   -20.1472 -20.1472 -20.1458 -20.1457 -20.1426 -20.1426 -20.1417 -20.1417
   -20.1415 -20.1415 -20.1404 -20.1404  -9.3661  -9.3660  -8.7702  -8.7699
    -8.5037  -8.5027  -8.2641  -8.2605  -8.2404  -8.2371  -7.7897  -7.7894
     1.6670   1.6677   2.9745   2.9753   3.0454   3.0471   3.1100   3.1306
     3.3111   3.3278   3.4909   3.4977   3.5534   3.5603   4.4810   4.4870
     4.5647   4.5652   5.0102   5.1036   5.3038   5.3924   5.8779   5.8799
     6.9157   6.9319   7.0144   7.0296   7.5497   7.5534   7.5718   7.6029
     7.6246   7.6461   7.8784   7.8881  11.1558  11.1766  11.4270  11.4624
    12.3177  12.3461  12.3928  12.3959  12.8982  12.9536  13.5403  13.5751
    15.3632  15.3825  16.5767  16.5926  17.4458  17.4940  17.6478

          k = 0.1667-0.5000 0.0000 ( 31196 PWs)   bands (ev):

   -66.0149 -66.0149 -66.0144 -66.0144 -30.3943 -30.3943 -30.3379 -30.3379
   -30.3302 -30.3302 -30.3159 -30.3159 -30.2889 -30.2889 -30.2865 -30.2865
   -20.1654 -20.1654 -20.1653 -20.1653 -20.1569 -20.1569 -20.1543 -20.1543
   -20.1542 -20.1542 -20.1506 -20.1506 -20.1489 -20.1489 -20.1482 -20.1482
   -20.1467 -20.1467 -20.1458 -20.1458 -20.1427 -20.1427 -20.1417 -20.1417
   -20.1412 -20.1412 -20.1405 -20.1405  -9.5049  -9.5048  -8.8897  -8.8897
    -8.6129  -8.6129  -8.0933  -8.0933  -8.0854  -8.0854  -7.6153  -7.6153
     1.2988   1.2988   2.2966   2.2966   2.3279   2.3279   2.7638   2.7638
     3.8270   3.8270   4.1310   4.1310   4.3109   4.3110   4.4061   4.4061
     4.8868   4.8868   5.2706   5.2706   5.8003   5.8003   6.0804   6.0804
     6.4429   6.4429   6.7063   6.7063   7.3526   7.3526   7.3816   7.3816
     7.4793   7.4793   8.2857   8.2857  10.8382  10.8382  12.0960  12.0960
    12.1440  12.1440  12.5869  12.5869  12.9317  12.9317  13.7904  13.7904
    14.8667  14.8667  16.5891  16.5891  16.8601  16.8601  17.6544

          k = 0.1667-0.5000 0.1146 ( 31178 PWs)   bands (ev):

   -66.0149 -66.0149 -66.0144 -66.0144 -30.3893 -30.3893 -30.3384 -30.3384
   -30.3304 -30.3304 -30.3200 -30.3200 -30.2889 -30.2889 -30.2867 -30.2867
   -20.1654 -20.1654 -20.1653 -20.1653 -20.1564 -20.1564 -20.1543 -20.1543
   -20.1542 -20.1542 -20.1509 -20.1509 -20.1489 -20.1489 -20.1483 -20.1483
   -20.1466 -20.1466 -20.1458 -20.1458 -20.1427 -20.1427 -20.1418 -20.1418
   -20.1411 -20.1411 -20.1405 -20.1405  -9.4386  -9.4386  -8.9050  -8.9050
    -8.5928  -8.5928  -8.1008  -8.1008  -8.0831  -8.0831  -7.7261  -7.7261
     1.5622   1.5622   2.3031   2.3031   2.3253   2.3253   2.8352   2.8352
     3.7628   3.7628   4.1710   4.1710   4.3177   4.3177   4.3885   4.3885
     4.8960   4.8960   5.0395   5.0395   5.4444   5.4444   6.0653   6.0653
     6.5095   6.5095   6.9102   6.9102   7.3505   7.3505   7.3829   7.3829
     7.4801   7.4801   8.2220   8.2220  10.9517  10.9517  12.0951  12.0951
    12.1414  12.1414  12.6328  12.6328  12.7748  12.7748  13.6686  13.6686
    15.2051  15.2051  16.6750  16.6750  16.8365  16.8365  17.6709

          k = 0.1667-0.5000 0.2291 ( 31198 PWs)   bands (ev):

   -66.0148 -66.0148 -66.0145 -66.0145 -30.3758 -30.3758 -30.3429 -30.3429
   -30.3309 -30.3309 -30.3283 -30.3283 -30.2887 -30.2887 -30.2873 -30.2873
   -20.1654 -20.1654 -20.1654 -20.1654 -20.1552 -20.1552 -20.1543 -20.1543
   -20.1542 -20.1542 -20.1519 -20.1519 -20.1489 -20.1489 -20.1486 -20.1486
   -20.1465 -20.1465 -20.1460 -20.1460 -20.1425 -20.1425 -20.1420 -20.1420
   -20.1410 -20.1410 -20.1407 -20.1407  -9.2681  -9.2681  -8.9595  -8.9595
    -8.5186  -8.5186  -8.1532  -8.1532  -8.0748  -8.0748  -7.9588  -7.9588
     2.1946   2.1946   2.3153   2.3153   2.3931   2.3931   3.0504   3.0504
     3.5391   3.5391   4.2129   4.2129   4.2728   4.2728   4.4248   4.4248
     4.5273   4.5273   4.9301   4.9301   5.0838   5.0838   5.4393   5.4393
     7.0060   7.0060   7.1766   7.1767   7.3316   7.3316   7.4004   7.4004
     7.5010   7.5010   8.0264   8.0264  11.2837  11.2837  12.0832  12.0832
    12.1279  12.1279  12.3825  12.3825  12.7796  12.7796  13.3705  13.3705
    15.8836  15.8836  16.6484  16.6484  17.0404  17.0404  17.5831

          k = 0.1667-0.5000-0.3437 ( 31220 PWs)   bands (ev):

   -66.0147 -66.0147 -66.0147 -66.0147 -30.3579 -30.3579 -30.3578 -30.3578
   -30.3311 -30.3311 -30.3311 -30.3311 -30.2881 -30.2881 -30.2881 -30.2881
   -20.1654 -20.1654 -20.1654 -20.1654 -20.1543 -20.1543 -20.1542 -20.1542
   -20.1535 -20.1535 -20.1535 -20.1535 -20.1488 -20.1488 -20.1488 -20.1488
   -20.1463 -20.1463 -20.1463 -20.1462 -20.1422 -20.1422 -20.1422 -20.1422
   -20.1409 -20.1409 -20.1409 -20.1409  -9.0800  -9.0800  -9.0798  -9.0798
    -8.3532  -8.3532  -8.3525  -8.3525  -8.0549  -8.0549  -8.0544  -8.0544
     2.2995   2.2995   2.3004   2.3004   3.1186   3.1186   3.1245   3.1245
     3.5145   3.5146   3.5233   3.5233   4.2345   4.2345   4.2830   4.2830
     4.8051   4.8051   4.8320   4.8320   5.0277   5.0277   5.0318   5.0318
     7.2520   7.2520   7.2584   7.2584   7.3569   7.3569   7.3685   7.3685
     7.7109   7.7109   7.7236   7.7236  11.7457  11.7457  11.7911  11.7911
    12.1107  12.1107  12.1906  12.1906  13.0216  13.0216  13.0531  13.0531
    16.3586  16.3586  16.4046  16.4046  17.3373  17.3373  17.4269

          k = 0.3333 0.3333 0.0000 ( 31140 PWs)   bands (ev):

   -66.0151 -66.0148 -66.0146 -66.0142 -30.3937 -30.3934 -30.3565 -30.3519
   -30.3388 -30.3313 -30.3184 -30.3140 -30.2879 -30.2854 -30.2694 -30.2659
   -20.1654 -20.1654 -20.1653 -20.1653 -20.1568 -20.1567 -20.1542 -20.1541
   -20.1538 -20.1538 -20.1509 -20.1507 -20.1503 -20.1496 -20.1489 -20.1483
   -20.1465 -20.1464 -20.1453 -20.1452 -20.1432 -20.1428 -20.1421 -20.1418
   -20.1410 -20.1406 -20.1400 -20.1398  -9.6716  -9.4427  -9.2031  -8.8403
    -8.7666  -8.6029  -8.1104  -8.1015  -7.7112  -7.6861  -7.6404  -7.6011
     1.2668   1.3321   1.4273   1.4567   2.2921   2.3196   2.4548   2.7695
     3.8563   3.9628   4.0407   4.1389   4.1951   4.8395   4.9445   5.1038
     5.1841   5.2944   5.4821   5.8526   5.9006   5.9327   6.1267   6.2702
     6.4679   6.5268   6.5394   6.5672   6.6982   6.9249   7.2417   7.3017
     7.3763   7.4779   8.2784   8.5128   9.7444  10.8398  11.8405  11.8893
    12.5693  12.6231  12.7640  12.7698  12.9499  13.3993  13.8027  14.0883
    14.3515  14.9144  15.4123  16.2254  16.9117  17.1029  17.6801

          k = 0.3333 0.3333 0.1146 ( 31189 PWs)   bands (ev):

   -66.0151 -66.0147 -66.0146 -66.0143 -30.3887 -30.3884 -30.3562 -30.3522
   -30.3392 -30.3315 -30.3234 -30.3185 -30.2879 -30.2856 -30.2692 -30.2662
   -20.1654 -20.1654 -20.1654 -20.1653 -20.1564 -20.1563 -20.1541 -20.1541
   -20.1538 -20.1538 -20.1509 -20.1508 -20.1505 -20.1500 -20.1489 -20.1485
   -20.1464 -20.1464 -20.1453 -20.1453 -20.1431 -20.1428 -20.1421 -20.1419
   -20.1409 -20.1406 -20.1401 -20.1399  -9.6187  -9.3749  -9.2170  -8.8536
    -8.7332  -8.5834  -8.1189  -8.0987  -7.7554  -7.7171  -7.7094  -7.6878
     1.3968   1.4269   1.5633   1.6326   2.2988   2.3167   2.5286   2.8439
     3.8376   3.9289   3.9580   3.9727   4.2636   4.8443   4.9898   5.0420
     5.1245   5.1369   5.2069   5.4901   6.0094   6.0576   6.1326   6.2209
     6.3512   6.5086   6.5974   6.6379   6.7994   7.0239   7.2425   7.2810
     7.2928   7.4756   8.2138   8.4196   9.9884  10.9564  11.8419  11.8868
    12.4509  12.6134  12.7062  12.7702  12.8506  13.4281  13.6844  14.2510
    14.3238  15.2475  15.3835  16.3935  16.8693  17.2002  17.7607

          k = 0.3333 0.3333 0.2291 ( 31205 PWs)   bands (ev):

   -66.0150 -66.0147 -66.0146 -66.0144 -30.3749 -30.3748 -30.3553 -30.3531
   -30.3427 -30.3371 -30.3320 -30.3282 -30.2877 -30.2862 -30.2685 -30.2668
   -20.1654 -20.1654 -20.1654 -20.1653 -20.1551 -20.1550 -20.1541 -20.1541
   -20.1539 -20.1538 -20.1517 -20.1513 -20.1508 -20.1507 -20.1489 -20.1488
   -20.1463 -20.1463 -20.1455 -20.1454 -20.1430 -20.1427 -20.1423 -20.1420
   -20.1409 -20.1406 -20.1401 -20.1400  -9.4890  -9.2631  -9.2009  -8.9019
    -8.6183  -8.5087  -8.1756  -8.0896  -8.0331  -7.9639  -7.7050  -7.6924
     1.4189   1.4256   2.1841   2.3081   2.3638   2.3913   2.7446   3.0689
     3.5077   3.6205   3.9054   3.9424   4.4161   4.4616   4.4668   4.8754
     5.0047   5.0926   5.1058   5.2646   5.4501   5.8923   6.1399   6.2131
     6.4118   6.5188   6.6848   6.9604   7.0081   7.1879   7.2524   7.2778
     7.3772   7.4678   8.0131   8.1459  10.5803  11.2933  11.8296  11.8800
    11.9969  12.3280  12.7554  12.7844  12.8032  13.3479  13.5702  14.0106
    14.7610  15.2867  15.9338  16.7335  16.7886  17.4916  17.5997

          k = 0.3333 0.3333-0.3437 ( 31194 PWs)   bands (ev):

   -66.0148 -66.0148 -66.0145 -66.0145 -30.3570 -30.3570 -30.3560 -30.3560
   -30.3542 -30.3542 -30.3320 -30.3320 -30.2870 -30.2870 -30.2677 -30.2677
   -20.1654 -20.1654 -20.1654 -20.1654 -20.1541 -20.1541 -20.1540 -20.1540
   -20.1534 -20.1534 -20.1530 -20.1530 -20.1507 -20.1507 -20.1489 -20.1489
   -20.1462 -20.1462 -20.1455 -20.1455 -20.1427 -20.1427 -20.1423 -20.1423
   -20.1407 -20.1407 -20.1401 -20.1401  -9.3537  -9.3537  -9.0139  -9.0139
    -8.4008  -8.4008  -8.3277  -8.3277  -8.0678  -8.0678  -7.6987  -7.6987
     1.4233   1.4233   2.2922   2.2922   3.0847   3.0847   3.1389   3.1389
     3.3878   3.3878   3.5485   3.5485   3.9234   3.9234   4.7694   4.7694
     4.9756   4.9756   5.1224   5.1224   5.5579   5.5580   6.1590   6.1590
     6.4846   6.4846   6.8231   6.8231   7.2020   7.2020   7.3757   7.3757
     7.6712   7.6712   7.7372   7.7372  11.2913  11.2913  11.7968  11.7968
    11.8744  11.8744  12.7894  12.7894  13.0205  13.0205  13.7527  13.7527
    15.0926  15.0926  16.4591  16.4591  17.1641  17.1641  17.9614

          k = 0.3333-0.5000 0.0000 ( 31166 PWs)   bands (ev):

   -66.0149 -66.0149 -66.0144 -66.0144 -30.3934 -30.3934 -30.3522 -30.3522
   -30.3468 -30.3468 -30.3164 -30.3164 -30.2740 -30.2740 -30.2707 -30.2707
   -20.1654 -20.1654 -20.1653 -20.1653 -20.1567 -20.1567 -20.1540 -20.1540
   -20.1539 -20.1539 -20.1508 -20.1508 -20.1501 -20.1501 -20.1491 -20.1491
   -20.1462 -20.1462 -20.1451 -20.1451 -20.1431 -20.1431 -20.1421 -20.1421
   -20.1404 -20.1404 -20.1399 -20.1399  -9.5758  -9.5758  -9.0868  -9.0868
    -8.7256  -8.7256  -7.8313  -7.8313  -7.8194  -7.8194  -7.6177  -7.6177
     1.3063   1.3063   1.6686   1.6687   1.6819   1.6819   2.5361   2.5361
     4.1689   4.1689   4.5249   4.5249   4.5811   4.5811   4.7394   4.7394
     5.5634   5.5634   5.7033   5.7033   5.8564   5.8564   6.0291   6.0291
     6.6039   6.6039   6.7235   6.7235   6.7500   6.7500   6.9283   6.9283
     7.2096   7.2096   8.4557   8.4557  10.0916  10.0916  12.4201  12.4201
    12.4549  12.4549  12.6969  12.6969  13.1792  13.1792  14.1894  14.1894
    14.3658  14.3658  15.8841  15.8841  16.9001  16.9001  17.7023

          k = 0.3333-0.5000 0.1146 ( 31168 PWs)   bands (ev):

   -66.0149 -66.0149 -66.0144 -66.0144 -30.3884 -30.3884 -30.3520 -30.3520
   -30.3470 -30.3470 -30.3214 -30.3214 -30.2738 -30.2738 -30.2709 -30.2709
   -20.1654 -20.1654 -20.1653 -20.1653 -20.1563 -20.1563 -20.1539 -20.1539
   -20.1539 -20.1539 -20.1509 -20.1509 -20.1501 -20.1501 -20.1495 -20.1495
   -20.1462 -20.1462 -20.1452 -20.1452 -20.1431 -20.1431 -20.1421 -20.1421
   -20.1404 -20.1404 -20.1399 -20.1399  -9.5188  -9.5188  -9.0998  -9.0998
    -8.6954  -8.6954  -7.8365  -7.8365  -7.8287  -7.8287  -7.7224  -7.7224
     1.5389   1.5389   1.6679   1.6679   1.7209   1.7209   2.6119   2.6119
     3.9830   3.9830   4.5293   4.5293   4.5742   4.5742   4.7867   4.7867
     5.2792   5.2792   5.7085   5.7085   5.7369   5.7369   6.2790   6.2790
     6.3535   6.3535   6.7396   6.7396   6.8653   6.8653   6.9598   6.9598
     7.1750   7.1750   8.3694   8.3694  10.2812  10.2812  12.4184  12.4184
    12.4457  12.4457  12.5385  12.5385  13.2148  13.2148  14.0823  14.0823
    14.6322  14.6322  15.8517  15.8517  17.0582  17.0582  17.7709

          k = 0.3333-0.5000 0.2291 ( 31220 PWs)   bands (ev):

   -66.0148 -66.0148 -66.0145 -66.0145 -30.3748 -30.3748 -30.3517 -30.3517
   -30.3476 -30.3476 -30.3349 -30.3349 -30.2732 -30.2732 -30.2715 -30.2715
   -20.1654 -20.1654 -20.1654 -20.1654 -20.1550 -20.1550 -20.1539 -20.1539
   -20.1539 -20.1539 -20.1516 -20.1516 -20.1502 -20.1502 -20.1500 -20.1500
   -20.1460 -20.1460 -20.1454 -20.1454 -20.1429 -20.1429 -20.1423 -20.1423
   -20.1403 -20.1403 -20.1400 -20.1400  -9.3788  -9.3788  -9.1441  -9.1441
    -8.5871  -8.5871  -8.0507  -8.0507  -7.8239  -7.8239  -7.8039  -7.8039
     1.6531   1.6531   1.6658   1.6658   2.3379   2.3379   2.8412   2.8412
     3.5665   3.5665   4.4669   4.4669   4.5412   4.5412   4.5781   4.5781
     4.9674   4.9674   5.5896   5.5896   5.7268   5.7268   5.9238   5.9238
     6.5871   6.5871   6.7251   6.7251   6.9789   6.9789   7.1128   7.1128
     7.2351   7.2351   8.1113   8.1113  10.7800  10.7800  12.0550  12.0550
    12.4329  12.4329  12.4557  12.4557  13.3317  13.3317  13.8235  13.8235
    15.1419  15.1419  15.7443  15.7443  17.4394  17.4394  17.8995

          k = 0.3333-0.5000-0.3437 ( 31204 PWs)   bands (ev):

   -66.0147 -66.0147 -66.0147 -66.0147 -30.3574 -30.3574 -30.3573 -30.3573
   -30.3472 -30.3472 -30.3472 -30.3472 -30.2724 -30.2724 -30.2724 -30.2724
   -20.1654 -20.1654 -20.1654 -20.1654 -20.1539 -20.1539 -20.1539 -20.1539
   -20.1533 -20.1533 -20.1532 -20.1532 -20.1502 -20.1502 -20.1502 -20.1502
   -20.1457 -20.1457 -20.1457 -20.1457 -20.1426 -20.1426 -20.1426 -20.1426
   -20.1402 -20.1402 -20.1402 -20.1402  -9.2354  -9.2354  -9.2353  -9.2353
    -8.3639  -8.3639  -8.3637  -8.3637  -7.8162  -7.8162  -7.8160  -7.8160
     1.6617   1.6617   1.6620   1.6620   3.1080   3.1080   3.1116   3.1116
     3.4330   3.4330   3.4336   3.4337   4.5471   4.5471   4.5694   4.5694
     5.2605   5.2605   5.2828   5.2828   5.7646   5.7646   5.7722   5.7722
     6.6829   6.6829   6.6890   6.6890   7.0519   7.0519   7.0542   7.0542
     7.6994   7.6994   7.7031   7.7031  11.4262  11.4262  11.4296  11.4296
    12.4366  12.4366  12.4503  12.4503  13.5377  13.5377  13.5470  13.5470
    15.5218  15.5218  15.5322  15.5322  17.7028  17.7040  17.7317

          k =-0.5000-0.5000 0.0000 ( 31192 PWs)   bands (ev):

   -66.0149 -66.0149 -66.0144 -66.0144 -30.3928 -30.3928 -30.3577 -30.3577
   -30.3531 -30.3531 -30.3165 -30.3165 -30.2684 -30.2683 -30.2649 -30.2649
   -20.1654 -20.1654 -20.1653 -20.1653 -20.1567 -20.1567 -20.1537 -20.1537
   -20.1536 -20.1536 -20.1512 -20.1512 -20.1507 -20.1507 -20.1493 -20.1493
   -20.1461 -20.1461 -20.1449 -20.1449 -20.1433 -20.1433 -20.1422 -20.1422
   -20.1401 -20.1401 -20.1396 -20.1396  -9.6102  -9.6102  -9.1595  -9.1595
    -8.7580  -8.7580  -7.7276  -7.7276  -7.7014  -7.7014  -7.6252  -7.6252
     1.2972   1.2972   1.4229   1.4229   1.4571   1.4571   2.4460   2.4460
     4.2460   4.2460   4.7825   4.7825   4.8448   4.8448   4.9245   4.9245
     5.6110   5.6110   5.6570   5.6570   6.0516   6.0516   6.2325   6.2325
     6.3965   6.3965   6.5610   6.5610   6.5945   6.5945   6.7055   6.7055
     7.3782   7.3782   8.5097   8.5097   9.7598   9.7598  12.5493  12.5493
    12.5889  12.5889  12.6170  12.6170  13.4070  13.4070  14.1143  14.1143
    14.3564  14.3564  15.4847  15.4847  17.0654  17.0654  17.7933

          k =-0.5000-0.5000 0.1146 ( 31216 PWs)   bands (ev):

   -66.0149 -66.0149 -66.0144 -66.0144 -30.3877 -30.3877 -30.3574 -30.3574
   -30.3534 -30.3534 -30.3216 -30.3216 -30.2681 -30.2681 -30.2651 -30.2651
   -20.1654 -20.1654 -20.1653 -20.1653 -20.1562 -20.1562 -20.1537 -20.1537
   -20.1536 -20.1536 -20.1512 -20.1512 -20.1507 -20.1507 -20.1498 -20.1498
   -20.1460 -20.1460 -20.1450 -20.1450 -20.1432 -20.1432 -20.1423 -20.1423
   -20.1401 -20.1401 -20.1396 -20.1396  -9.5569  -9.5569  -9.1720  -9.1720
    -8.7238  -8.7238  -7.7452  -7.7452  -7.7259  -7.7259  -7.7032  -7.7032
     1.3974   1.3974   1.4225   1.4225   1.6308   1.6308   2.5212   2.5212
     4.0054   4.0054   4.7867   4.7867   4.8397   4.8397   4.9918   4.9918
     5.3111   5.3111   5.7540   5.7540   6.0556   6.0556   6.2646   6.2646
     6.3663   6.3663   6.4690   6.4690   6.6240   6.6240   6.8090   6.8090
     7.2479   7.2479   8.4157   8.4157  10.0034  10.0034  12.4434  12.4434
    12.5550  12.5550  12.5871  12.5871  13.4405  13.4405  14.2545  14.2545
    14.3537  14.3537  15.4552  15.4552  17.2835  17.2835  17.8230

          k =-0.5000-0.5000 0.2291 ( 31184 PWs)   bands (ev):

   -66.0148 -66.0148 -66.0145 -66.0145 -30.3739 -30.3739 -30.3565 -30.3565
   -30.3542 -30.3542 -30.3357 -30.3357 -30.2675 -30.2675 -30.2658 -30.2658
   -20.1654 -20.1654 -20.1653 -20.1653 -20.1549 -20.1549 -20.1537 -20.1537
   -20.1536 -20.1536 -20.1512 -20.1512 -20.1510 -20.1510 -20.1508 -20.1508
   -20.1458 -20.1458 -20.1452 -20.1452 -20.1430 -20.1430 -20.1425 -20.1425
   -20.1400 -20.1400 -20.1398 -20.1398  -9.4281  -9.4281  -9.2138  -9.2138
    -8.6037  -8.6037  -8.0393  -8.0393  -7.7211  -7.7211  -7.7080  -7.7080
     1.4155   1.4155   1.4214   1.4214   2.3585   2.3585   2.7421   2.7421
     3.5423   3.5423   4.4750   4.4750   4.7983   4.7983   4.8325   4.8325
     5.1849   5.1849   5.7341   5.7341   6.0681   6.0681   6.1831   6.1831
     6.3309   6.3309   6.4035   6.4035   6.7092   6.7092   7.0255   7.0255
     7.1966   7.1966   8.1376   8.1376  10.5938  10.5938  11.9696  11.9696
    12.5650  12.5650  12.5819  12.5819  13.5492  13.5492  14.0094  14.0094
    14.8094  14.8094  15.3569  15.3569  17.9052  17.9461  17.9462

          k =-0.5000-0.5000-0.3437 ( 31216 PWs)   bands (ev):

   -66.0147 -66.0147 -66.0147 -66.0147 -30.3554 -30.3554 -30.3554 -30.3554
   -30.3549 -30.3549 -30.3548 -30.3548 -30.2666 -30.2666 -30.2666 -30.2666
   -20.1654 -20.1654 -20.1654 -20.1654 -20.1538 -20.1538 -20.1537 -20.1537
   -20.1530 -20.1530 -20.1530 -20.1530 -20.1509 -20.1509 -20.1509 -20.1509
   -20.1455 -20.1455 -20.1455 -20.1455 -20.1427 -20.1427 -20.1427 -20.1427
   -20.1399 -20.1399 -20.1399 -20.1399  -9.2978  -9.2978  -9.2978  -9.2978
    -8.3657  -8.3656  -8.3656  -8.3656  -7.7146  -7.7146  -7.7146  -7.7146
     1.4194   1.4194   1.4194   1.4194   3.0937   3.0937   3.0937   3.0937
     3.3905   3.3905   3.3905   3.3905   4.8145   4.8145   4.8145   4.8145
     5.4704   5.4704   5.4704   5.4704   6.0953   6.0953   6.0953   6.0953
     6.3722   6.3722   6.3722   6.3722   6.8438   6.8438   6.8438   6.8438
     7.7024   7.7024   7.7025   7.7025  11.3066  11.3066  11.3066  11.3066
    12.5743  12.5743  12.5743  12.5743  13.7455  13.7455  13.7455  13.7455
    15.1577  15.1577  15.1577  15.1577  18.0220  18.0220  18.0220

     the Fermi energy is     9.7737 ev

!    total energy              =   -3130.11964838 Ry
     Harris-Foulkes estimate   =   -3130.11964838 Ry
     estimated scf accuracy    <          2.4E-09 Ry

     The total energy is the sum of the following terms:

     one-electron contribution =   -2371.75325147 Ry
     hartree contribution      =    1305.58293504 Ry
     xc contribution           =    -483.41493856 Ry
     ewald contribution        =   -1580.53435255 Ry
     smearing contrib. (-TS)   =      -0.00004084 Ry

     convergence has been achieved in  12 iterations

     Writing output data file Landau_39.save/
 
     init_run     :      5.14s CPU      5.50s WALL (       1 calls)
     electrons    :    179.45s CPU    182.94s WALL (       1 calls)

     Called by init_run:
     wfcinit      :      4.35s CPU      4.62s WALL (       1 calls)
     potinit      :      0.29s CPU      0.32s WALL (       1 calls)
     hinit0       :      0.40s CPU      0.43s WALL (       1 calls)

     Called by electrons:
     c_bands      :    153.29s CPU    156.43s WALL (      12 calls)
     sum_band     :     22.90s CPU     23.01s WALL (      12 calls)
     v_of_rho     :      0.66s CPU      0.69s WALL (      13 calls)
     mix_rho      :      1.02s CPU      1.16s WALL (      12 calls)

     Called by c_bands:
     init_us_2    :      0.95s CPU      1.05s WALL (      25 calls)
     cegterg      :    122.77s CPU    125.81s WALL (      12 calls)

     Called by sum_band:

     Called by *egterg:
     h_psi        :     99.37s CPU    100.88s WALL (      46 calls)
     g_psi        :      0.19s CPU      0.19s WALL (      33 calls)
     cdiaghg      :      1.25s CPU      1.31s WALL (      45 calls)

     Called by h_psi:
     h_psi:pot    :     99.06s CPU     99.79s WALL (      46 calls)
     h_psi:calbec :     10.32s CPU     10.63s WALL (      46 calls)
     vloc_psi     :     77.77s CPU     78.09s WALL (      46 calls)
     add_vuspsi   :     10.97s CPU     11.07s WALL (      46 calls)

     General routines
     calbec       :     10.32s CPU     10.63s WALL (      46 calls)
     fft          :      0.37s CPU      0.37s WALL (      39 calls)
     ffts         :      0.13s CPU      0.13s WALL (      12 calls)
     fftw         :     80.79s CPU     81.05s WALL (    7920 calls)
 
     Parallel routines
 
     PWSCF        :   3m 5.59s CPU   3m 9.67s WALL

 
   This run was terminated on:  13: 5:55  20Nov2019            

=------------------------------------------------------------------------------=
   JOB DONE.
=------------------------------------------------------------------------------=
