
     Program PWSCF v.6.2 (svn rev. 14038) starts on 17Sep2019 at 12:36: 8 

     This program is part of the open-source Quantum ESPRESSO suite
     for quantum simulation of materials; please cite
         "P. Giannozzi et al., J. Phys.:Condens. Matter 21 395502 (2009);
         "P. Giannozzi et al., J. Phys.:Condens. Matter 29 465901 (2017);
          URL http://www.quantum-espresso.org", 
     in publications or presentations arising from this work. More details at
     http://www.quantum-espresso.org/quote

     Parallel version (MPI), running on    40 processors

     MPI processes distributed on    10 nodes
     K-points division:     npool     =      40
     Reading input from scf.in

     Current dimensions of program PWSCF are:
     Max number of different atomic species (ntypx) = 10
     Max number of k-points (npk) =  40000
     Max angular momentum in pseudopotentials (lmaxx) =  3

     Subspace diagonalization in iterative solution of the eigenvalue problem:
     a serial algorithm will be used

 
     G-vector sticks info
     --------------------
     sticks:   dense  smooth     PW     G-vecs:    dense   smooth      PW
     Sum        7735    7735   2077               497847   497847   69025
 


     bravais-lattice index     =            0
     lattice parameter (alat)  =      13.8404  a.u.
     unit-cell volume          =    2803.5162 (a.u.)^3
     number of atoms/cell      =           32
     number of atomic types    =            2
     number of electrons       =       368.52
     number of Kohn-Sham states=          221
     kinetic-energy cutoff     =     120.0000  Ry
     charge density cutoff     =     480.0000  Ry
     convergence threshold     =      1.0E-08
     mixing beta               =       0.7000
     number of iterations used =            8  plain     mixing
     Exchange-correlation      = SLA PW NOGX NOGC ( 1  4  0  0 0 0)

     celldm(1)=  13.840439  celldm(2)=   0.000000  celldm(3)=   0.000000
     celldm(4)=   0.000000  celldm(5)=   0.000000  celldm(6)=   0.000000

     crystal axes: (cart. coord. in units of alat)
               a(1) = (   1.000000   0.000000   0.000000 )  
               a(2) = (   0.000000   1.057435   0.000000 )  
               a(3) = (   0.000000   0.000000   1.000000 )  

     reciprocal axes: (cart. coord. in units 2 pi/alat)
               b(1) = (  1.000000  0.000000  0.000000 )  
               b(2) = (  0.000000  0.945685  0.000000 )  
               b(3) = (  0.000000  0.000000  1.000000 )  


     PseudoPot. # 1 for W  read from file:
     /cluster/scratch/mnoe/QE/pps/W_ONCV_LDA-4.0.upf
     MD5 check sum: ba0307d5d4cd419d6f1d13dc49d7c13a
     Pseudo is Norm-conserving + core correction, Zval = 28.0
     Generated using ONCVPSP code by D. R. Hamann
     Using radial grid of 1380 points,  8 beta functions with: 
                l(1) =   0
                l(2) =   0
                l(3) =   1
                l(4) =   1
                l(5) =   2
                l(6) =   2
                l(7) =   3
                l(8) =   3

     PseudoPot. # 2 for O  read from file:
     /cluster/scratch/mnoe/QE/pps/O_ONCV_LDA-3.0.upf
     MD5 check sum: ca1549d10c4e927e51167f6fca52ae32
     Pseudo is Norm-conserving + core correction, Zval =  6.0
     Generated using ONCVPSP code by D. R. Hamann
     Using radial grid of  926 points,  5 beta functions with: 
                l(1) =   0
                l(2) =   0
                l(3) =   1
                l(4) =   1
                l(5) =   2

     atomic species   valence    mass     pseudopotential
        W             28.00   183.84000     W ( 1.00)
        O              6.00    15.99940     O ( 1.00)

      8 Sym. Ops. (no inversion) found ( 4 have fractional translation)



   Cartesian axes

     site n.     atom                  positions (alat units)
         1           W   tau(   1) = (   0.2544900   0.2980485   0.2501300  )
         2           W   tau(   2) = (  -0.2501300   0.7593861  -0.7455100  )
         3           W   tau(   3) = (   0.2455100   0.2306688   0.7501300  )
         4           W   tau(   4) = (   0.7501300   0.8267658   0.7544900  )
         5           W   tau(   5) = (   0.7455100   0.2980485   0.7498700  )
         6           W   tau(   6) = (   0.2501300   0.7593861   0.7455100  )
         7           W   tau(   7) = (  -0.2455100   0.2306688  -0.7501300  )
         8           W   tau(   8) = (   0.2498700   0.8267658   0.2455100  )
         9           O   tau(   9) = (   0.2549500   0.0087979   0.2535900  )
        10           O   tau(  10) = (  -0.2535900   1.0486367  -0.7450499  )
        11           O   tau(  11) = (   0.2450499   0.5199194   0.7535900  )
        12           O   tau(  12) = (   0.7535900   0.5375151   0.7549500  )
        13           O   tau(  13) = (   0.7450500   0.0087979   0.7464100  )
        14           O   tau(  14) = (   0.2535900   1.0486367   0.7450500  )
        15           O   tau(  15) = (  -0.2450499   0.5199194  -0.7535900  )
        16           O   tau(  16) = (   0.2464100   0.5375151   0.2450500  )
        17           O   tau(  17) = (   0.4984100   0.2700054   0.6995400  )
        18           O   tau(  18) = (   0.4996700   0.7894595   0.8004600  )
        19           O   tau(  19) = (  -0.9984100   0.2587120   1.1995400  )
        20           O   tau(  20) = (   0.0003300   0.7966923   0.3004600  )
        21           O   tau(  21) = (   0.5015900   0.2700054   0.3004600  )
        22           O   tau(  22) = (   0.5003300   0.7894595   1.1995400  )
        23           O   tau(  23) = (  -0.0015900   0.2587120   0.8004600  )
        24           O   tau(  24) = (  -1.0003300   0.7966923   0.6995400  )
        25           O   tau(  25) = (   0.6995400   0.2607422   2.0003300  )
        26           O   tau(  26) = (   0.3004600   0.7874292   0.4984100  )
        27           O   tau(  27) = (   0.8004600   0.2679751   0.5003300  )
        28           O   tau(  28) = (   0.1995400   0.7987226   1.9984100  )
        29           O   tau(  29) = (   0.3004600   0.2607422   0.9996700  )
        30           O   tau(  30) = (   0.6995400   0.7874292   0.5015900  )
        31           O   tau(  31) = (   0.1995400   0.2679751   0.4996700  )
        32           O   tau(  32) = (   0.8004600   0.7987226   1.0015900  )

     number of k points=    40  gaussian smearing, width (Ry)=  0.0007
                       cart. coord. in units 2pi/alat
        k(    1) = (   0.0000000   0.0000000   0.0000000), wk =   0.0092593
        k(    2) = (   0.0000000   0.0000000   0.1666667), wk =   0.0370370
        k(    3) = (   0.0000000   0.0000000   0.3333333), wk =   0.0370370
        k(    4) = (   0.0000000   0.0000000  -0.5000000), wk =   0.0185185
        k(    5) = (   0.0000000   0.1576142   0.0000000), wk =   0.0185185
        k(    6) = (   0.0000000   0.1576142   0.1666667), wk =   0.0740741
        k(    7) = (   0.0000000   0.1576142   0.3333333), wk =   0.0740741
        k(    8) = (   0.0000000   0.1576142  -0.5000000), wk =   0.0370370
        k(    9) = (   0.0000000   0.3152283   0.0000000), wk =   0.0185185
        k(   10) = (   0.0000000   0.3152283   0.1666667), wk =   0.0740741
        k(   11) = (   0.0000000   0.3152283   0.3333333), wk =   0.0740741
        k(   12) = (   0.0000000   0.3152283  -0.5000000), wk =   0.0370370
        k(   13) = (   0.0000000  -0.4728425   0.0000000), wk =   0.0092593
        k(   14) = (   0.0000000  -0.4728425   0.1666667), wk =   0.0370370
        k(   15) = (   0.0000000  -0.4728425   0.3333333), wk =   0.0370370
        k(   16) = (   0.0000000  -0.4728425  -0.5000000), wk =   0.0185185
        k(   17) = (   0.1666667   0.0000000   0.1666667), wk =   0.0370370
        k(   18) = (   0.1666667   0.0000000   0.3333333), wk =   0.0740741
        k(   19) = (   0.1666667   0.0000000  -0.5000000), wk =   0.0370370
        k(   20) = (   0.1666667   0.1576142   0.1666667), wk =   0.0740741
        k(   21) = (   0.1666667   0.1576142   0.3333333), wk =   0.1481481
        k(   22) = (   0.1666667   0.1576142  -0.5000000), wk =   0.0740741
        k(   23) = (   0.1666667   0.3152283   0.1666667), wk =   0.0740741
        k(   24) = (   0.1666667   0.3152283   0.3333333), wk =   0.1481481
        k(   25) = (   0.1666667   0.3152283  -0.5000000), wk =   0.0740741
        k(   26) = (   0.1666667  -0.4728425   0.1666667), wk =   0.0370370
        k(   27) = (   0.1666667  -0.4728425   0.3333333), wk =   0.0740741
        k(   28) = (   0.1666667  -0.4728425  -0.5000000), wk =   0.0370370
        k(   29) = (   0.3333333   0.0000000   0.3333333), wk =   0.0370370
        k(   30) = (   0.3333333   0.0000000  -0.5000000), wk =   0.0370370
        k(   31) = (   0.3333333   0.1576142   0.3333333), wk =   0.0740741
        k(   32) = (   0.3333333   0.1576142  -0.5000000), wk =   0.0740741
        k(   33) = (   0.3333333   0.3152283   0.3333333), wk =   0.0740741
        k(   34) = (   0.3333333   0.3152283  -0.5000000), wk =   0.0740741
        k(   35) = (   0.3333333  -0.4728425   0.3333333), wk =   0.0370370
        k(   36) = (   0.3333333  -0.4728425  -0.5000000), wk =   0.0370370
        k(   37) = (  -0.5000000   0.0000000  -0.5000000), wk =   0.0092593
        k(   38) = (  -0.5000000   0.1576142  -0.5000000), wk =   0.0185185
        k(   39) = (  -0.5000000   0.3152283  -0.5000000), wk =   0.0185185
        k(   40) = (  -0.5000000  -0.4728425  -0.5000000), wk =   0.0092593

     Dense  grid:   497847 G-vectors     FFT dimensions: ( 100, 108, 100)

     Estimated max dynamical RAM per process >       2.72 GB

     Estimated total dynamical RAM >     108.62 GB

     Initial potential from superposition of free atoms

     starting charge  367.99656, renormalised to  368.52000
     Starting wfc are  232 randomized atomic wfcs

     total cpu time spent up to now is       26.8 secs

     Self-consistent Calculation

     iteration #  1     ecut=   120.00 Ry     beta= 0.70
     Davidson diagonalization with overlap
     ethr =  1.00E-02,  avg # of iterations =  5.1

     total cpu time spent up to now is      114.9 secs

     total energy              =   -6253.51818602 Ry
     Harris-Foulkes estimate   =   -6264.30745683 Ry
     estimated scf accuracy    <      13.60083877 Ry

     iteration #  2     ecut=   120.00 Ry     beta= 0.70
     Davidson diagonalization with overlap
     ethr =  3.69E-03,  avg # of iterations =  3.5

     total cpu time spent up to now is      200.7 secs

     total energy              =   -6250.46472714 Ry
     Harris-Foulkes estimate   =   -6270.36330449 Ry
     estimated scf accuracy    <      53.01943847 Ry

     iteration #  3     ecut=   120.00 Ry     beta= 0.70
     Davidson diagonalization with overlap
     ethr =  3.69E-03,  avg # of iterations =  3.3

     total cpu time spent up to now is      282.3 secs

     total energy              =   -6260.72920791 Ry
     Harris-Foulkes estimate   =   -6261.00327982 Ry
     estimated scf accuracy    <       0.91406039 Ry

     iteration #  4     ecut=   120.00 Ry     beta= 0.70
     Davidson diagonalization with overlap
     ethr =  2.48E-04,  avg # of iterations =  3.2

     total cpu time spent up to now is      350.0 secs

     total energy              =   -6260.72637280 Ry
     Harris-Foulkes estimate   =   -6260.79829646 Ry
     estimated scf accuracy    <       0.22884799 Ry

     iteration #  5     ecut=   120.00 Ry     beta= 0.70
     Davidson diagonalization with overlap
     ethr =  6.21E-05,  avg # of iterations =  4.6

     total cpu time spent up to now is      418.9 secs

     total energy              =   -6260.72727442 Ry
     Harris-Foulkes estimate   =   -6260.75833676 Ry
     estimated scf accuracy    <       0.06878336 Ry

     iteration #  6     ecut=   120.00 Ry     beta= 0.70
     Davidson diagonalization with overlap
     ethr =  1.87E-05,  avg # of iterations =  5.5

     total cpu time spent up to now is      497.4 secs

     total energy              =   -6260.74223592 Ry
     Harris-Foulkes estimate   =   -6260.74479987 Ry
     estimated scf accuracy    <       0.00665554 Ry

     iteration #  7     ecut=   120.00 Ry     beta= 0.70
     Davidson diagonalization with overlap
     ethr =  1.81E-06,  avg # of iterations =  5.1

     total cpu time spent up to now is      569.1 secs

     total energy              =   -6260.74315229 Ry
     Harris-Foulkes estimate   =   -6260.74321948 Ry
     estimated scf accuracy    <       0.00011917 Ry

     iteration #  8     ecut=   120.00 Ry     beta= 0.70
     Davidson diagonalization with overlap
     ethr =  3.23E-08,  avg # of iterations =  3.2

     total cpu time spent up to now is      656.8 secs

     total energy              =   -6260.74321080 Ry
     Harris-Foulkes estimate   =   -6260.74321976 Ry
     estimated scf accuracy    <       0.00004262 Ry

     iteration #  9     ecut=   120.00 Ry     beta= 0.70
     Davidson diagonalization with overlap
     ethr =  1.16E-08,  avg # of iterations =  1.1

     total cpu time spent up to now is      718.3 secs

     total energy              =   -6260.74320585 Ry
     Harris-Foulkes estimate   =   -6260.74321297 Ry
     estimated scf accuracy    <       0.00001815 Ry

     iteration # 10     ecut=   120.00 Ry     beta= 0.70
     Davidson diagonalization with overlap
     ethr =  4.93E-09,  avg # of iterations =  2.1

     total cpu time spent up to now is      784.9 secs

     total energy              =   -6260.74320891 Ry
     Harris-Foulkes estimate   =   -6260.74320906 Ry
     estimated scf accuracy    <       0.00000034 Ry

     iteration # 11     ecut=   120.00 Ry     beta= 0.70
     Davidson diagonalization with overlap
     ethr =  9.13E-11,  avg # of iterations =  3.0

     total cpu time spent up to now is      868.0 secs

     total energy              =   -6260.74320900 Ry
     Harris-Foulkes estimate   =   -6260.74320906 Ry
     estimated scf accuracy    <       0.00000017 Ry

     iteration # 12     ecut=   120.00 Ry     beta= 0.70
     Davidson diagonalization with overlap
     ethr =  4.54E-11,  avg # of iterations =  1.8

     total cpu time spent up to now is      931.1 secs

     total energy              =   -6260.74320898 Ry
     Harris-Foulkes estimate   =   -6260.74320901 Ry
     estimated scf accuracy    <       0.00000006 Ry

     iteration # 13     ecut=   120.00 Ry     beta= 0.70
     Davidson diagonalization with overlap
     ethr =  1.63E-11,  avg # of iterations =  2.2

     total cpu time spent up to now is     1007.7 secs

     End of self-consistent calculation

          k = 0.0000 0.0000 0.0000 ( 62231 PWs)   bands (ev):

   -66.0432 -66.0428 -66.0422 -66.0422 -66.0418 -66.0418 -66.0412 -66.0408
   -30.4813 -30.4778 -30.4778 -30.4744 -30.4224 -30.4189 -30.4188 -30.4156
   -30.3857 -30.3834 -30.3801 -30.3794 -30.3794 -30.3792 -30.3744 -30.3744
   -30.2838 -30.2838 -30.2802 -30.2789 -30.2789 -30.2789 -30.2750 -30.2739
   -20.1939 -20.1936 -20.1936 -20.1934 -20.1929 -20.1928 -20.1928 -20.1928
   -20.1927 -20.1927 -20.1927 -20.1926 -20.1885 -20.1882 -20.1881 -20.1879
   -20.1818 -20.1818 -20.1816 -20.1816 -20.1806 -20.1806 -20.1806 -20.1805
   -20.1791 -20.1790 -20.1789 -20.1789 -20.1780 -20.1780 -20.1778 -20.1777
   -20.1682 -20.1681 -20.1678 -20.1678 -20.1676 -20.1676 -20.1673 -20.1672
   -20.1446 -20.1446 -20.1444 -20.1444 -20.1432 -20.1432 -20.1430 -20.1430
   -20.1384 -20.1384 -20.1382 -20.1382 -20.1370 -20.1370 -20.1367 -20.1367
    -9.9134  -9.6240  -9.4744  -9.4744  -9.1882  -9.1882  -9.0617  -8.9976
    -8.9854  -8.8528  -8.8194  -8.8194  -7.8447  -7.7829  -7.7829  -7.7333
    -7.7310  -7.7301  -7.7077  -7.7031  -7.5767  -7.5767  -7.5536  -7.5536
     1.2669   1.2670   1.3382   1.3382   1.3609   1.3609   1.4109   1.6587
     1.6587   1.6600   1.7049   1.9055   2.4392   2.5147   2.5976   2.6027
     2.7517   2.7517   4.1731   4.1731   4.3998   4.4002   4.8435   4.8579
     4.9038   4.9038   4.9301   4.9301   5.0634   5.0634   5.0985   5.4517
     5.4519   5.5485   5.5485   5.5638   5.5638   5.6121   5.6121   5.8381
     5.8381   5.9123   5.9130   5.9559   5.9801   6.0714   6.0751   6.1657
     6.1658   6.2797   6.2803   6.5999   6.5999   6.8257   6.8257   6.8588
     6.8598   6.9055   7.0421   7.0438   7.1127   7.1127   7.4350   7.4350
     7.4821   7.4821   7.8232   7.8375   8.0960   8.0960   8.1580   8.1660
     9.3542   9.3599  10.0529  10.0549  10.0900  10.0900  12.3142  12.3142
    12.3475  12.3475  12.3988  12.3988  12.5547  12.5647  12.9219  12.9476
    13.2834  13.3083  13.4600  13.4600  13.8223  14.1885  14.1885  14.2105
    14.2360  14.4427  14.4427  14.8847  15.5112  15.5231  15.5234  16.1281
    16.1281  16.8621  17.0990  17.0990  17.4580

          k = 0.0000 0.0000 0.1667 ( 62224 PWs)   bands (ev):

   -66.0432 -66.0427 -66.0423 -66.0421 -66.0419 -66.0417 -66.0413 -66.0409
   -30.4811 -30.4781 -30.4777 -30.4747 -30.4223 -30.4191 -30.4188 -30.4159
   -30.3845 -30.3797 -30.3794 -30.3775 -30.3747 -30.3729 -30.3725 -30.3676
   -30.2906 -30.2863 -30.2857 -30.2836 -30.2814 -30.2795 -30.2786 -30.2747
   -20.1939 -20.1936 -20.1936 -20.1934 -20.1929 -20.1928 -20.1928 -20.1928
   -20.1927 -20.1927 -20.1927 -20.1926 -20.1885 -20.1882 -20.1882 -20.1879
   -20.1818 -20.1816 -20.1816 -20.1814 -20.1807 -20.1805 -20.1805 -20.1803
   -20.1792 -20.1791 -20.1790 -20.1789 -20.1782 -20.1780 -20.1779 -20.1777
   -20.1682 -20.1680 -20.1678 -20.1678 -20.1677 -20.1676 -20.1673 -20.1673
   -20.1445 -20.1444 -20.1442 -20.1441 -20.1433 -20.1431 -20.1428 -20.1426
   -20.1388 -20.1386 -20.1383 -20.1381 -20.1374 -20.1372 -20.1370 -20.1368
    -9.8670  -9.5701  -9.4914  -9.4153  -9.2030  -9.0986  -9.0702  -8.9592
    -8.9436  -8.8398  -8.8241  -8.7868  -7.8611  -7.8392  -7.8343  -7.7866
    -7.7758  -7.7335  -7.7209  -7.7052  -7.6959  -7.6858  -7.5866  -7.5634
     1.3388   1.3406   1.3569   1.3674   1.4763   1.5136   1.6172   1.6517
     1.6526   1.7419   1.8766   2.0303   2.5260   2.6062   2.6097   2.6892
     2.7430   2.8411   4.1089   4.1740   4.3880   4.4141   4.4205   4.5293
     4.6969   4.8156   4.8446   4.9678   4.9772   5.0512   5.0797   5.3328
     5.3845   5.4391   5.5357   5.5584   5.5744   5.6257   5.6447   5.6770
     5.7717   5.7833   5.8249   5.9577   5.9961   6.1269   6.1528   6.1626
     6.3049   6.4473   6.5201   6.5876   6.6901   6.7182   6.7955   6.8507
     6.8614   6.8908   7.0018   7.0353   7.0503   7.1210   7.2145   7.2221
     7.2532   7.3180   7.8438   7.8462   8.0553   8.1106   8.1195   8.1634
     9.6958   9.7299  10.0563  10.0875  10.3134  10.3692  12.2491  12.2912
    12.3232  12.3690  12.4035  12.4344  12.5625  12.6573  12.9519  12.9700
    13.1141  13.2837  13.3508  13.4604  13.9331  14.0758  14.0932  14.1869
    14.2267  14.4365  14.5472  14.9952  15.4887  15.5417  15.5706  16.0998
    16.4344  16.8216  17.0316  17.2864  17.5081

          k = 0.0000 0.0000 0.3333 ( 62228 PWs)   bands (ev):

   -66.0430 -66.0426 -66.0425 -66.0421 -66.0419 -66.0415 -66.0414 -66.0410
   -30.4807 -30.4788 -30.4772 -30.4755 -30.4218 -30.4199 -30.4185 -30.4166
   -30.3834 -30.3807 -30.3784 -30.3757 -30.3592 -30.3545 -30.3541 -30.3493
   -30.3091 -30.3045 -30.3041 -30.2995 -30.2827 -30.2805 -30.2778 -30.2756
   -20.1938 -20.1937 -20.1936 -20.1935 -20.1929 -20.1928 -20.1928 -20.1928
   -20.1927 -20.1927 -20.1927 -20.1926 -20.1884 -20.1883 -20.1881 -20.1880
   -20.1817 -20.1816 -20.1812 -20.1809 -20.1807 -20.1803 -20.1801 -20.1799
   -20.1796 -20.1795 -20.1792 -20.1788 -20.1786 -20.1783 -20.1779 -20.1778
   -20.1681 -20.1680 -20.1679 -20.1677 -20.1676 -20.1675 -20.1674 -20.1673
   -20.1443 -20.1441 -20.1435 -20.1433 -20.1431 -20.1430 -20.1417 -20.1415
   -20.1400 -20.1398 -20.1386 -20.1384 -20.1380 -20.1378 -20.1373 -20.1371
    -9.7543  -9.5436  -9.4453  -9.2795  -9.2479  -9.0992  -8.8871  -8.8432
    -8.8370  -8.7968  -8.7473  -8.6615  -8.1566  -8.1468  -8.0473  -8.0266
    -7.8205  -7.7967  -7.7673  -7.7428  -7.6910  -7.6666  -7.6140  -7.5904
     1.3467   1.3572   1.3845   1.4111   1.5946   1.5996   1.6350   1.6401
     2.3057   2.3385   2.5131   2.5913   2.6355   2.7345   2.7772   2.8741
     2.9318   3.0799   3.8024   3.8628   3.8987   3.9948   4.2082   4.3131
     4.3434   4.5483   4.5914   4.8123   4.8352   4.8628   4.9946   5.0212
     5.2054   5.2346   5.2543   5.3696   5.4948   5.5187   5.6405   5.6841
     5.7229   5.7685   5.7991   6.0180   6.0227   6.2081   6.2850   6.3143
     6.3604   6.4122   6.5526   6.5539   6.6073   6.6180   6.7018   6.7715
     6.8443   6.8793   6.8902   7.0322   7.0636   7.0740   7.1164   7.1586
     7.3531   7.3833   7.7879   7.8085   7.9307   7.9844   8.1458   8.1647
    10.0579  10.0802  10.4111  10.4856  10.9214  11.0384  11.8799  11.9276
    12.1235  12.5154  12.5279  12.5569  12.5881  12.6490  12.7444  12.9222
    12.9575  13.1553  13.2248  13.4680  13.7391  13.7553  14.1448  14.1825
    14.2768  14.4163  14.8530  15.2868  15.3773  15.6808  15.9402  16.0140
    16.2732  17.2676  17.4140  17.5679  17.6507

          k = 0.0000 0.0000-0.5000 ( 62240 PWs)   bands (ev):

   -66.0427 -66.0427 -66.0423 -66.0423 -66.0417 -66.0417 -66.0413 -66.0413
   -30.4798 -30.4798 -30.4764 -30.4764 -30.4209 -30.4209 -30.4176 -30.4176
   -30.3821 -30.3821 -30.3770 -30.3770 -30.3342 -30.3342 -30.3295 -30.3295
   -30.3292 -30.3292 -30.3244 -30.3244 -30.2816 -30.2816 -30.2767 -30.2767
   -20.1938 -20.1938 -20.1935 -20.1935 -20.1928 -20.1928 -20.1928 -20.1927
   -20.1927 -20.1927 -20.1926 -20.1926 -20.1884 -20.1884 -20.1881 -20.1881
   -20.1817 -20.1817 -20.1809 -20.1809 -20.1803 -20.1802 -20.1800 -20.1800
   -20.1796 -20.1796 -20.1792 -20.1792 -20.1786 -20.1786 -20.1779 -20.1779
   -20.1680 -20.1680 -20.1678 -20.1678 -20.1675 -20.1675 -20.1674 -20.1674
   -20.1439 -20.1439 -20.1437 -20.1437 -20.1416 -20.1416 -20.1414 -20.1414
   -20.1402 -20.1402 -20.1400 -20.1400 -20.1377 -20.1377 -20.1374 -20.1374
    -9.6334  -9.6334  -9.3268  -9.3268  -9.1622  -9.1622  -8.8560  -8.8560
    -8.5161  -8.5161  -8.4916  -8.4916  -8.4650  -8.4650  -8.3930  -8.3930
    -7.8100  -7.8100  -7.7553  -7.7553  -7.6521  -7.6521  -7.6281  -7.6281
     1.3536   1.3536   1.4046   1.4046   1.6180   1.6180   1.6276   1.6276
     2.6688   2.6688   3.0127   3.0127   3.1588   3.1588   3.1818   3.1818
     3.3210   3.3210   3.3887   3.3887   3.5151   3.5151   3.8146   3.8146
     3.9246   3.9246   4.4785   4.4785   4.7648   4.7648   4.9337   4.9337
     5.2704   5.2704   5.3768   5.3768   5.3879   5.3879   5.6839   5.6839
     5.7603   5.7603   5.9501   5.9501   6.2125   6.2125   6.2844   6.2844
     6.3724   6.3724   6.4891   6.4891   6.5019   6.5019   6.5620   6.5620
     6.8137   6.8137   6.8471   6.8471   7.0956   7.0956   7.5219   7.5219
     7.5855   7.5855   7.7149   7.7149   7.7361   7.7361   8.1620   8.1620
    10.0692  10.0692  11.2026  11.2026  11.2758  11.2758  11.6070  11.6070
    11.8321  11.8321  12.6000  12.6000  12.7315  12.7315  12.8440  12.8440
    12.9811  12.9811  13.3186  13.3186  13.5205  13.5205  14.1751  14.1751
    14.3720  14.3720  15.1680  15.1680  15.7228  15.7228  15.8695  15.8695
    16.6842  16.6842  17.8236  17.8237  18.1618

          k = 0.0000 0.1576 0.0000 ( 62219 PWs)   bands (ev):

   -66.0432 -66.0428 -66.0422 -66.0422 -66.0418 -66.0418 -66.0412 -66.0408
   -30.4773 -30.4738 -30.4738 -30.4705 -30.4262 -30.4228 -30.4228 -30.4195
   -30.3855 -30.3835 -30.3803 -30.3793 -30.3793 -30.3793 -30.3745 -30.3745
   -30.2838 -30.2837 -30.2800 -30.2790 -30.2790 -30.2789 -30.2750 -30.2740
   -20.1935 -20.1933 -20.1933 -20.1930 -20.1929 -20.1928 -20.1928 -20.1928
   -20.1927 -20.1927 -20.1927 -20.1926 -20.1888 -20.1885 -20.1885 -20.1882
   -20.1817 -20.1817 -20.1815 -20.1815 -20.1807 -20.1807 -20.1806 -20.1806
   -20.1790 -20.1789 -20.1789 -20.1789 -20.1781 -20.1781 -20.1778 -20.1778
   -20.1682 -20.1681 -20.1678 -20.1678 -20.1677 -20.1676 -20.1673 -20.1672
   -20.1446 -20.1446 -20.1444 -20.1444 -20.1432 -20.1432 -20.1430 -20.1430
   -20.1384 -20.1384 -20.1382 -20.1382 -20.1370 -20.1370 -20.1367 -20.1367
    -9.8839  -9.6356  -9.4367  -9.4367  -9.1958  -9.1958  -8.9968  -8.9880
    -8.9862  -8.8071  -8.7822  -8.7822  -7.9385  -7.8822  -7.8822  -7.8366
    -7.7329  -7.7294  -7.7094  -7.7049  -7.5756  -7.5756  -7.5549  -7.5549
     1.2669   1.2669   1.3483   1.3483   1.3613   1.3613   1.5475   1.7041
     1.8380   1.8895   1.8895   2.0713   2.4441   2.5094   2.6692   2.6748
     2.8196   2.8196   4.0407   4.0407   4.1288   4.1289   4.8109   4.9047
     4.9047   4.9193   4.9220   4.9220   4.9513   5.0087   5.0087   5.3082
     5.3082   5.4950   5.4950   5.6250   5.6558   5.6612   5.6612   5.6709
     5.8370   5.8381   5.8983   5.8983   5.9953   6.0785   6.0808   6.1695
     6.1710   6.2752   6.2764   6.6220   6.6220   6.8532   6.8618   6.8618
     6.8933   6.8999   6.9184   7.0341   7.0341   7.0364   7.4429   7.4429
     7.4820   7.4820   7.8280   7.8368   8.0546   8.0546   8.0783   8.0839
     9.3546   9.3600  10.2512  10.2516  10.2585  10.2585  12.2153  12.2153
    12.3416  12.3416  12.3947  12.3947  12.4004  12.4089  12.9252  12.9472
    13.3188  13.3406  13.4656  13.4656  14.0539  14.1131  14.1145  14.1145
    14.2303  14.7027  14.7028  15.0560  15.5114  15.5214  15.9242  16.0938
    16.0938  16.5434  17.2315  17.2315  17.5153

          k = 0.0000 0.1576 0.1667 ( 62221 PWs)   bands (ev):

   -66.0431 -66.0428 -66.0422 -66.0421 -66.0419 -66.0418 -66.0412 -66.0409
   -30.4772 -30.4741 -30.4737 -30.4708 -30.4261 -30.4231 -30.4228 -30.4198
   -30.3843 -30.3796 -30.3795 -30.3775 -30.3749 -30.3730 -30.3724 -30.3677
   -30.2905 -30.2862 -30.2858 -30.2835 -30.2815 -30.2794 -30.2787 -30.2748
   -20.1935 -20.1933 -20.1933 -20.1930 -20.1929 -20.1928 -20.1928 -20.1928
   -20.1927 -20.1927 -20.1927 -20.1926 -20.1888 -20.1886 -20.1885 -20.1883
   -20.1817 -20.1816 -20.1815 -20.1813 -20.1807 -20.1806 -20.1805 -20.1804
   -20.1791 -20.1791 -20.1790 -20.1789 -20.1782 -20.1780 -20.1780 -20.1778
   -20.1682 -20.1681 -20.1678 -20.1677 -20.1677 -20.1676 -20.1673 -20.1673
   -20.1445 -20.1444 -20.1442 -20.1441 -20.1433 -20.1431 -20.1428 -20.1426
   -20.1388 -20.1386 -20.1383 -20.1381 -20.1374 -20.1372 -20.1370 -20.1368
    -9.8363  -9.5818  -9.4539  -9.3730  -9.2109  -9.1064  -8.9966  -8.9575
    -8.9445  -8.7963  -8.7868  -8.7543  -7.9386  -7.8954  -7.8811  -7.8504
    -7.8435  -7.8229  -7.7201  -7.7046  -7.6974  -7.6844  -7.5855  -7.5647
     1.3498   1.3531   1.3576   1.3678   1.5768   1.6169   1.6412   1.8474
     1.8746   1.8852   1.9129   2.1368   2.5320   2.6006   2.6812   2.7630
     2.8115   2.9088   4.0080   4.0566   4.1199   4.1645   4.4481   4.5269
     4.7296   4.7461   4.8264   4.9217   4.9577   4.9744   5.0177   5.2638
     5.2909   5.3307   5.3475   5.5196   5.6134   5.6211   5.6597   5.7061
     5.7581   5.7832   5.8357   5.8698   5.9047   6.1407   6.1575   6.1844
     6.2486   6.4365   6.4966   6.6105   6.7355   6.7939   6.8170   6.8394
     6.8799   6.9089   6.9839   6.9967   7.0397   7.0550   7.2146   7.2218
     7.2685   7.3176   7.8455   7.8465   8.0160   8.0441   8.0557   8.0827
     9.7017   9.7292  10.2524  10.2594  10.4796  10.5076  12.1931  12.2645
    12.2925  12.3052  12.3789  12.3968  12.4091  12.5364  12.9534  12.9754
    13.1472  13.3136  13.3588  13.4638  13.9608  13.9892  14.0957  14.1125
    14.3224  14.6971  14.8411  15.1524  15.5411  15.5704  15.8897  16.0664
    16.3980  16.6981  16.9465  17.3988  17.5821

          k = 0.0000 0.1576 0.3333 ( 62254 PWs)   bands (ev):

   -66.0429 -66.0426 -66.0424 -66.0421 -66.0419 -66.0416 -66.0414 -66.0411
   -30.4767 -30.4749 -30.4733 -30.4715 -30.4257 -30.4238 -30.4224 -30.4206
   -30.3833 -30.3806 -30.3785 -30.3759 -30.3591 -30.3546 -30.3541 -30.3494
   -30.3090 -30.3045 -30.3042 -30.2996 -30.2827 -30.2804 -30.2779 -30.2757
   -20.1935 -20.1934 -20.1932 -20.1931 -20.1929 -20.1928 -20.1928 -20.1927
   -20.1927 -20.1927 -20.1927 -20.1926 -20.1888 -20.1886 -20.1885 -20.1884
   -20.1817 -20.1816 -20.1812 -20.1808 -20.1807 -20.1804 -20.1801 -20.1799
   -20.1796 -20.1795 -20.1792 -20.1788 -20.1787 -20.1783 -20.1780 -20.1779
   -20.1681 -20.1680 -20.1679 -20.1677 -20.1676 -20.1675 -20.1674 -20.1673
   -20.1443 -20.1441 -20.1435 -20.1433 -20.1431 -20.1430 -20.1417 -20.1415
   -20.1400 -20.1398 -20.1386 -20.1384 -20.1380 -20.1378 -20.1373 -20.1371
    -9.7208  -9.5066  -9.4565  -9.2564  -9.2233  -9.0261  -8.8665  -8.8511
    -8.7999  -8.7981  -8.7258  -8.6428  -8.1606  -8.1477  -8.0654  -8.0255
    -7.9093  -7.8904  -7.8652  -7.8373  -7.6900  -7.6681  -7.6129  -7.5918
     1.3663   1.3849   1.3891   1.4115   1.7745   1.7995   1.8793   1.8836
     2.3043   2.3498   2.5162   2.6087   2.7065   2.7873   2.7939   2.8725
     3.0071   3.1407   3.8014   3.8591   3.8931   3.9429   4.1366   4.1716
     4.2664   4.3841   4.6091   4.7565   4.8072   4.8480   4.8552   4.8975
     5.0554   5.1778   5.1966   5.2313   5.3971   5.4574   5.5308   5.6318
     5.7125   5.7525   5.8019   5.8484   5.9995   6.1756   6.2454   6.2893
     6.3780   6.5677   6.5921   6.6151   6.6750   6.6910   6.7361   6.8350
     6.8399   6.8557   6.9552   6.9923   7.0339   7.0637   7.0995   7.1473
     7.3461   7.3774   7.7912   7.8064   7.8970   7.9261   8.0743   8.0852
    10.2498  10.2572  10.4207  10.4870  11.0360  11.1281  11.8816  11.9252
    12.0883  12.4184  12.4870  12.5374  12.5623  12.6091  12.6969  12.8138
    12.9472  13.1554  13.2440  13.4627  13.6440  13.6665  14.1001  14.1086
    14.5353  14.6785  15.1958  15.4173  15.6705  15.7796  15.9564  15.9836
    16.3999  17.1574  17.2237  17.4649  17.8062

          k = 0.0000 0.1576-0.5000 ( 62196 PWs)   bands (ev):

   -66.0427 -66.0427 -66.0423 -66.0423 -66.0417 -66.0417 -66.0413 -66.0413
   -30.4759 -30.4759 -30.4725 -30.4725 -30.4248 -30.4248 -30.4216 -30.4216
   -30.3820 -30.3820 -30.3772 -30.3772 -30.3341 -30.3341 -30.3295 -30.3295
   -30.3293 -30.3292 -30.3245 -30.3245 -30.2815 -30.2815 -30.2768 -30.2768
   -20.1934 -20.1934 -20.1932 -20.1932 -20.1928 -20.1928 -20.1928 -20.1927
   -20.1927 -20.1927 -20.1926 -20.1926 -20.1887 -20.1887 -20.1885 -20.1885
   -20.1816 -20.1816 -20.1809 -20.1809 -20.1802 -20.1802 -20.1800 -20.1800
   -20.1795 -20.1795 -20.1793 -20.1793 -20.1786 -20.1786 -20.1779 -20.1779
   -20.1679 -20.1679 -20.1678 -20.1678 -20.1675 -20.1675 -20.1674 -20.1674
   -20.1439 -20.1439 -20.1437 -20.1437 -20.1416 -20.1416 -20.1414 -20.1414
   -20.1402 -20.1402 -20.1400 -20.1400 -20.1377 -20.1377 -20.1374 -20.1374
    -9.5976  -9.5976  -9.3366  -9.3366  -9.0930  -9.0930  -8.8206  -8.8206
    -8.5195  -8.5194  -8.4874  -8.4874  -8.4742  -8.4742  -8.3873  -8.3872
    -7.9034  -7.9034  -7.8539  -7.8539  -7.6510  -7.6510  -7.6295  -7.6295
     1.3819   1.3819   1.4050   1.4050   1.7991   1.7991   1.8873   1.8873
     2.7370   2.7370   3.0298   3.0298   3.1512   3.1512   3.2277   3.2277
     3.3269   3.3269   3.3866   3.3866   3.5037   3.5037   3.8135   3.8135
     3.9730   3.9730   4.2813   4.2813   4.6743   4.6743   4.7693   4.7693
     5.0975   5.0975   5.3448   5.3448   5.3557   5.3558   5.5186   5.5186
     5.7190   5.7190   5.8265   5.8265   6.2123   6.2123   6.3549   6.3549
     6.3890   6.3890   6.5088   6.5088   6.5523   6.5523   6.6843   6.6843
     6.8736   6.8736   6.8754   6.8754   7.0147   7.0147   7.5309   7.5309
     7.5792   7.5792   7.6893   7.6893   7.7070   7.7070   8.0848   8.0848
    10.2564  10.2564  11.2085  11.2085  11.2732  11.2732  11.6714  11.6714
    11.8924  11.8924  12.4742  12.4742  12.7070  12.7070  12.8481  12.8481
    12.9238  12.9238  13.2208  13.2208  13.4883  13.4883  14.1039  14.1039
    14.6387  14.6387  15.5349  15.5349  15.8422  15.8422  15.8699  15.8699
    16.7230  16.7230  17.6294  17.6294  18.1467

          k = 0.0000 0.3152 0.0000 ( 62163 PWs)   bands (ev):

   -66.0431 -66.0429 -66.0421 -66.0421 -66.0419 -66.0419 -66.0411 -66.0409
   -30.4665 -30.4631 -30.4630 -30.4598 -30.4369 -30.4336 -30.4335 -30.4304
   -30.3849 -30.3837 -30.3805 -30.3798 -30.3790 -30.3790 -30.3749 -30.3749
   -30.2836 -30.2835 -30.2797 -30.2792 -30.2792 -30.2790 -30.2750 -30.2744
   -20.1929 -20.1928 -20.1928 -20.1928 -20.1927 -20.1927 -20.1926 -20.1926
   -20.1925 -20.1923 -20.1922 -20.1920 -20.1898 -20.1895 -20.1895 -20.1893
   -20.1816 -20.1815 -20.1813 -20.1813 -20.1808 -20.1808 -20.1808 -20.1808
   -20.1788 -20.1788 -20.1788 -20.1788 -20.1782 -20.1782 -20.1780 -20.1780
   -20.1682 -20.1681 -20.1678 -20.1678 -20.1677 -20.1676 -20.1673 -20.1673
   -20.1446 -20.1446 -20.1444 -20.1444 -20.1432 -20.1432 -20.1430 -20.1430
   -20.1384 -20.1384 -20.1382 -20.1382 -20.1370 -20.1370 -20.1367 -20.1367
    -9.8119  -9.6715  -9.3510  -9.3510  -9.2210  -9.2210  -8.9945  -8.9884
    -8.7799  -8.6650  -8.6557  -8.6557  -8.1788  -8.1320  -8.1319  -8.1071
    -7.7291  -7.7254  -7.7134  -7.7095  -7.5725  -7.5725  -7.5583  -7.5583
     1.2668   1.2669   1.3545   1.3545   1.3623   1.3623   1.6649   1.7010
     2.3961   2.4575   2.4952   2.5455   2.5455   2.7146   2.8800   2.8886
     3.0185   3.0185   3.6565   3.6588   3.7022   3.7022   4.1645   4.4887
     4.4887   4.7643   4.9102   4.9103   4.9359   4.9359   5.0652   5.0652
     5.0874   5.0902   5.4020   5.4020   5.6094   5.6106   5.7161   5.7161
     5.8749   5.8749   5.9260   5.9279   6.0750   6.0769   6.1062   6.1853
     6.1892   6.2532   6.2542   6.5517   6.6832   6.6832   6.8970   6.8970
     6.9444   7.0131   7.1052   7.1062   7.1270   7.1270   7.4527   7.4527
     7.4838   7.4838   7.8239   7.8292   7.8497   7.8504   7.8809   7.8809
     9.3558   9.3592  10.7089  10.7089  10.7510  10.7543  11.8453  11.8453
    11.9753  11.9821  12.3638  12.3638  12.3921  12.3921  12.9327  12.9451
    13.4305  13.4452  13.5253  13.5253  13.8753  13.8811  13.9053  13.9053
    14.7930  15.2724  15.2724  15.5123  15.5177  15.6708  15.9726  15.9777
    15.9777  16.9183  17.2660  17.6871  17.6871

          k = 0.0000 0.3152 0.1667 ( 62217 PWs)   bands (ev):

   -66.0431 -66.0428 -66.0422 -66.0420 -66.0420 -66.0418 -66.0412 -66.0410
   -30.4664 -30.4633 -30.4630 -30.4601 -30.4368 -30.4338 -30.4335 -30.4306
   -30.3840 -30.3799 -30.3794 -30.3773 -30.3752 -30.3733 -30.3723 -30.3681
   -30.2903 -30.2860 -30.2860 -30.2833 -30.2817 -30.2792 -30.2789 -30.2750
   -20.1929 -20.1928 -20.1928 -20.1928 -20.1927 -20.1927 -20.1927 -20.1926
   -20.1925 -20.1923 -20.1922 -20.1920 -20.1898 -20.1896 -20.1895 -20.1893
   -20.1815 -20.1814 -20.1813 -20.1811 -20.1808 -20.1808 -20.1807 -20.1806
   -20.1790 -20.1789 -20.1788 -20.1788 -20.1784 -20.1782 -20.1782 -20.1780
   -20.1681 -20.1681 -20.1678 -20.1677 -20.1677 -20.1676 -20.1673 -20.1673
   -20.1445 -20.1444 -20.1442 -20.1441 -20.1433 -20.1431 -20.1428 -20.1426
   -20.1388 -20.1386 -20.1383 -20.1381 -20.1374 -20.1372 -20.1370 -20.1368
    -9.7616  -9.6179  -9.3682  -9.2758  -9.2366  -9.1324  -8.9541  -8.9469
    -8.7882  -8.6604  -8.6583  -8.6391  -8.1789  -8.1397  -8.1286  -8.1131
    -7.8478  -7.8322  -7.7169  -7.7018  -7.7012  -7.6872  -7.5824  -7.5682
     1.3529   1.3580   1.3608   1.3688   1.6060   1.6172   1.8240   1.8722
     2.3984   2.5217   2.5438   2.5493   2.5859   2.7039   2.8925   2.9871
     3.0120   3.1151   3.6591   3.6907   3.7040   3.7448   4.1565   4.4442
     4.4804   4.5037   4.5599   4.7671   4.7944   4.9034   4.9575   4.9766
     5.0653   5.1009   5.1989   5.3262   5.4440   5.4948   5.6167   5.6459
     5.7049   5.8113   5.8137   5.8551   6.0684   6.1381   6.1591   6.1820
     6.2829   6.4488   6.4688   6.6119   6.6724   6.8796   6.9133   6.9562
     6.9926   7.0064   7.0937   7.0981   7.1136   7.1326   7.2174   7.2230
     7.3007   7.3240   7.8145   7.8283   7.8415   7.8538   7.8673   7.8700
     9.7118   9.7260  10.7136  10.7521  10.8937  10.9199  11.8436  11.9417
    11.9813  12.0550  12.2749  12.2981  12.4147  12.4510  12.9611  12.9818
    13.2576  13.3934  13.4346  13.5208  13.7288  13.7754  13.8776  13.9018
    14.9312  15.2637  15.4720  15.5403  15.5730  15.7381  15.9518  16.1354
    16.2728  16.8811  17.3263  17.3568  17.7991

          k = 0.0000 0.3152 0.3333 ( 62245 PWs)   bands (ev):

   -66.0429 -66.0427 -66.0424 -66.0422 -66.0418 -66.0416 -66.0413 -66.0411
   -30.4659 -30.4641 -30.4626 -30.4608 -30.4364 -30.4346 -30.4332 -30.4314
   -30.3831 -30.3804 -30.3789 -30.3762 -30.3589 -30.3548 -30.3540 -30.3497
   -30.3088 -30.3045 -30.3042 -30.2998 -30.2825 -30.2802 -30.2781 -30.2759
   -20.1929 -20.1928 -20.1928 -20.1928 -20.1927 -20.1927 -20.1927 -20.1926
   -20.1925 -20.1924 -20.1922 -20.1921 -20.1898 -20.1897 -20.1895 -20.1894
   -20.1815 -20.1814 -20.1811 -20.1808 -20.1807 -20.1805 -20.1802 -20.1801
   -20.1794 -20.1793 -20.1791 -20.1788 -20.1787 -20.1784 -20.1782 -20.1781
   -20.1680 -20.1680 -20.1679 -20.1677 -20.1676 -20.1675 -20.1674 -20.1673
   -20.1443 -20.1441 -20.1435 -20.1433 -20.1431 -20.1430 -20.1417 -20.1415
   -20.1400 -20.1398 -20.1386 -20.1384 -20.1380 -20.1378 -20.1373 -20.1371
    -9.6402  -9.4917  -9.4210  -9.2842  -9.0849  -8.8814  -8.8321  -8.8180
    -8.8031  -8.6753  -8.6259  -8.5687  -8.2201  -8.2139  -8.1444  -8.1310
    -8.1201  -8.0729  -8.0195  -7.9768  -7.6867  -7.6718  -7.6097  -7.5953
     1.3767   1.3859   1.4027   1.4125   2.2204   2.2982   2.3301   2.4200
     2.5114   2.5430   2.5518   2.7752   2.8235   2.8465   2.9155   2.9982
     3.2347   3.3284   3.6443   3.6619   3.7593   3.7900   3.8819   3.8938
     4.1345   4.3240   4.4169   4.4433   4.5199   4.5972   4.6584   4.8260
     4.8400   4.8563   5.0153   5.0846   5.2105   5.2346   5.2423   5.3992
     5.4059   5.6197   5.6642   5.8144   6.1664   6.2296   6.2527   6.2978
     6.4568   6.6319   6.6690   6.7026   6.7406   6.8349   6.8550   6.8750
     6.9390   6.9887   7.0542   7.0788   7.0954   7.1638   7.1830   7.2068
     7.3168   7.3630   7.7421   7.7591   7.7948   7.7980   7.8521   7.8693
    10.4400  10.4646  10.7295  10.7514  11.3450  11.3980  11.8257  11.8920
    11.9189  12.0123  12.2385  12.2738  12.5786  12.6507  12.6830  12.7494
    12.9037  13.1697  13.2245  13.4329  13.5147  13.5332  13.8798  13.8958
    15.1133  15.2363  15.6196  15.8745  15.9425  15.9892  16.0427  16.6488
    16.7524  16.8109  17.0693  17.5542  17.6499

          k = 0.0000 0.3152-0.5000 ( 62282 PWs)   bands (ev):

   -66.0426 -66.0426 -66.0424 -66.0424 -66.0416 -66.0416 -66.0414 -66.0414
   -30.4651 -30.4651 -30.4618 -30.4618 -30.4356 -30.4356 -30.4324 -30.4324
   -30.3817 -30.3817 -30.3775 -30.3775 -30.3339 -30.3339 -30.3296 -30.3296
   -30.3291 -30.3291 -30.3247 -30.3247 -30.2814 -30.2814 -30.2770 -30.2770
   -20.1928 -20.1928 -20.1928 -20.1928 -20.1927 -20.1927 -20.1927 -20.1927
   -20.1924 -20.1924 -20.1922 -20.1922 -20.1898 -20.1898 -20.1895 -20.1895
   -20.1814 -20.1814 -20.1809 -20.1809 -20.1801 -20.1800 -20.1800 -20.1799
   -20.1796 -20.1796 -20.1794 -20.1794 -20.1786 -20.1786 -20.1781 -20.1781
   -20.1679 -20.1679 -20.1679 -20.1678 -20.1675 -20.1675 -20.1674 -20.1674
   -20.1439 -20.1439 -20.1437 -20.1437 -20.1416 -20.1416 -20.1414 -20.1414
   -20.1402 -20.1402 -20.1400 -20.1400 -20.1377 -20.1377 -20.1374 -20.1374
    -9.5129  -9.5129  -9.3681  -9.3681  -8.9030  -8.9030  -8.7117  -8.7117
    -8.5334  -8.5334  -8.5180  -8.5180  -8.4646  -8.4646  -8.3648  -8.3648
    -8.1315  -8.1315  -8.0902  -8.0902  -7.6477  -7.6477  -7.6331  -7.6331
     1.3958   1.3958   1.4060   1.4060   2.3986   2.3986   2.5375   2.5375
     2.9342   2.9342   3.0783   3.0783   3.1263   3.1263   3.3142   3.3142
     3.3594   3.3594   3.3889   3.3889   3.4595   3.4595   3.6659   3.6659
     4.0993   4.0993   4.1240   4.1240   4.1676   4.1676   4.3892   4.3892
     4.8321   4.8321   4.9384   4.9384   5.1464   5.1464   5.3249   5.3249
     5.4698   5.4698   5.7395   5.7395   6.3262   6.3262   6.3885   6.3885
     6.5006   6.5006   6.5510   6.5510   6.5828   6.5828   6.7934   6.7934
     7.0616   7.0616   7.0791   7.0791   7.1146   7.1146   7.5348   7.5348
     7.5597   7.5597   7.5927   7.5927   7.6253   7.6253   7.8606   7.8606
    10.7343  10.7343  11.2229  11.2229  11.2664  11.2664  11.7444  11.7444
    12.0760  12.0760  12.2044  12.2044  12.5907  12.5907  12.7018  12.7018
    12.8693  12.8693  13.0234  13.0234  13.5073  13.5073  13.8878  13.8878
    15.1886  15.1886  15.7540  15.7540  16.3032  16.3032  16.4805  16.4805
    16.8820  16.8820  17.2568  17.2568  17.9644

          k = 0.0000-0.4728 0.0000 ( 62132 PWs)   bands (ev):

   -66.0430 -66.0430 -66.0420 -66.0420 -66.0420 -66.0420 -66.0410 -66.0410
   -30.4517 -30.4517 -30.4486 -30.4486 -30.4480 -30.4480 -30.4451 -30.4451
   -30.3842 -30.3842 -30.3803 -30.3803 -30.3789 -30.3789 -30.3751 -30.3751
   -30.2835 -30.2834 -30.2793 -30.2793 -30.2793 -30.2793 -30.2748 -30.2748
   -20.1929 -20.1929 -20.1927 -20.1927 -20.1927 -20.1927 -20.1926 -20.1926
   -20.1912 -20.1912 -20.1909 -20.1909 -20.1909 -20.1909 -20.1907 -20.1906
   -20.1814 -20.1814 -20.1812 -20.1812 -20.1810 -20.1810 -20.1809 -20.1809
   -20.1787 -20.1787 -20.1786 -20.1786 -20.1784 -20.1784 -20.1782 -20.1782
   -20.1682 -20.1681 -20.1678 -20.1678 -20.1677 -20.1677 -20.1673 -20.1673
   -20.1446 -20.1446 -20.1444 -20.1444 -20.1432 -20.1432 -20.1430 -20.1430
   -20.1384 -20.1384 -20.1382 -20.1382 -20.1370 -20.1370 -20.1367 -20.1367
    -9.7326  -9.7326  -9.2762  -9.2762  -9.2658  -9.2658  -8.9915  -8.9915
    -8.4823  -8.4823  -8.4245  -8.4245  -8.4236  -8.4236  -8.4226  -8.4226
    -7.7242  -7.7242  -7.7146  -7.7146  -7.5701  -7.5700  -7.5608  -7.5608
     1.2668   1.2668   1.3556   1.3556   1.3627   1.3627   1.6925   1.6925
     2.4762   2.4762   3.1828   3.1828   3.2242   3.2242   3.2898   3.2898
     3.2964   3.2964   3.3301   3.3301   3.4841   3.4841   3.5133   3.5133
     3.6962   3.6962   4.9199   4.9199   4.9209   4.9209   5.2324   5.2324
     5.2372   5.2372   5.3360   5.3360   5.3376   5.3376   5.7769   5.7769
     5.7801   5.7801   6.0299   6.0299   6.0476   6.0476   6.2074   6.2074
     6.2185   6.2185   6.3035   6.3035   6.7694   6.7694   6.7852   6.7852
     6.9797   6.9797   7.4331   7.4331   7.4420   7.4420   7.4782   7.4782
     7.4863   7.4863   7.5718   7.5718   7.5727   7.5727   7.8343   7.8343
     9.3575   9.3575  11.2893  11.2893  11.3000  11.3000  11.3762  11.3762
    11.3886  11.3886  12.3729  12.3729  12.3904  12.3904  12.9402  12.9402
    13.6221  13.6221  13.6339  13.6339  13.6792  13.6792  13.6807  13.6807
    15.3761  15.3762  15.5146  15.5147  15.7231  15.7231  15.7366  15.7366
    16.5643  16.5643  17.9658  18.1402  18.1403

          k = 0.0000-0.4728 0.1667 ( 62208 PWs)   bands (ev):

   -66.0430 -66.0429 -66.0421 -66.0421 -66.0419 -66.0419 -66.0411 -66.0411
   -30.4516 -30.4515 -30.4489 -30.4485 -30.4483 -30.4480 -30.4454 -30.4454
   -30.3839 -30.3802 -30.3793 -30.3772 -30.3754 -30.3735 -30.3722 -30.3682
   -30.2902 -30.2861 -30.2859 -30.2832 -30.2818 -30.2791 -30.2790 -30.2751
   -20.1929 -20.1928 -20.1928 -20.1927 -20.1927 -20.1927 -20.1926 -20.1926
   -20.1912 -20.1912 -20.1910 -20.1909 -20.1909 -20.1909 -20.1907 -20.1907
   -20.1814 -20.1812 -20.1812 -20.1810 -20.1809 -20.1809 -20.1808 -20.1807
   -20.1788 -20.1788 -20.1787 -20.1787 -20.1785 -20.1784 -20.1783 -20.1782
   -20.1681 -20.1681 -20.1678 -20.1677 -20.1677 -20.1676 -20.1673 -20.1673
   -20.1445 -20.1444 -20.1442 -20.1441 -20.1433 -20.1431 -20.1428 -20.1426
   -20.1388 -20.1386 -20.1383 -20.1381 -20.1374 -20.1372 -20.1370 -20.1368
    -9.6806  -9.6794  -9.2926  -9.2825  -9.1912  -9.1811  -8.9508  -8.9498
    -8.4881  -8.4880  -8.4307  -8.4297  -8.4215  -8.4214  -8.4173  -8.4165
    -7.8451  -7.8356  -7.7144  -7.7040  -7.6996  -7.6894  -7.5799  -7.5707
     1.3532   1.3583   1.3620   1.3693   1.6103   1.6174   1.8593   1.8639
     2.5663   2.5664   3.1850   3.1960   3.2299   3.2399   3.2774   3.2888
     3.3034   3.3230   3.3406   3.3715   3.4808   3.5110   3.5405   3.5619
     3.7242   3.7249   4.5059   4.5073   4.9362   4.9541   5.0019   5.0214
     5.1543   5.1550   5.2152   5.2180   5.3484   5.3510   5.5152   5.5212
     5.7504   5.7524   5.8155   5.8183   6.1393   6.1577   6.1662   6.1695
     6.4211   6.4269   6.4484   6.4720   6.7578   6.7737   6.9396   6.9544
     7.0371   7.0397   7.2096   7.2184   7.2527   7.2675   7.4650   7.4723
     7.4872   7.4931   7.5245   7.5309   7.5488   7.5529   7.8491   7.8494
     9.7186   9.7219  11.2942  11.3046  11.3688  11.3778  11.4232  11.4302
    11.4988  11.5107  12.2800  12.2957  12.4249  12.4416  12.9756  12.9760
    13.4465  13.4506  13.5416  13.5506  13.6322  13.6430  13.6752  13.6770
    15.4402  15.4530  15.6313  15.6423  15.7041  15.7186  15.9915  16.0028
    16.6262  16.6268  17.8868  17.8918  18.1004

          k = 0.0000-0.4728 0.3333 ( 62244 PWs)   bands (ev):

   -66.0428 -66.0428 -66.0423 -66.0422 -66.0418 -66.0417 -66.0412 -66.0412
   -30.4513 -30.4510 -30.4496 -30.4491 -30.4480 -30.4477 -30.4462 -30.4461
   -30.3829 -30.3802 -30.3791 -30.3764 -30.3588 -30.3550 -30.3539 -30.3498
   -30.3087 -30.3046 -30.3041 -30.2999 -30.2824 -30.2801 -30.2782 -30.2760
   -20.1928 -20.1928 -20.1928 -20.1928 -20.1927 -20.1927 -20.1927 -20.1927
   -20.1912 -20.1912 -20.1910 -20.1910 -20.1909 -20.1909 -20.1908 -20.1908
   -20.1813 -20.1812 -20.1811 -20.1809 -20.1806 -20.1805 -20.1804 -20.1802
   -20.1793 -20.1792 -20.1791 -20.1789 -20.1786 -20.1785 -20.1783 -20.1782
   -20.1680 -20.1680 -20.1678 -20.1677 -20.1676 -20.1675 -20.1674 -20.1674
   -20.1443 -20.1441 -20.1435 -20.1433 -20.1431 -20.1430 -20.1417 -20.1415
   -20.1400 -20.1398 -20.1386 -20.1384 -20.1380 -20.1378 -20.1373 -20.1371
    -9.5567  -9.5522  -9.3429  -9.3333  -8.9567  -8.9475  -8.8141  -8.8106
    -8.5210  -8.5203  -8.4548  -8.4541  -8.4125  -8.4124  -8.3905  -8.3889
    -8.1352  -8.1264  -8.0128  -8.0041  -7.6840  -7.6747  -7.6072  -7.5979
     1.3785   1.3864   1.4047   1.4131   2.2852   2.2916   2.4904   2.4966
     2.8275   2.8278   3.1878   3.2152   3.2431   3.2573   3.2587   3.2909
     3.3027   3.3042   3.4197   3.4483   3.4691   3.5028   3.7059   3.7119
     3.7884   3.7906   3.8778   3.8815   4.5086   4.5089   4.6774   4.6805
     4.8069   4.8161   4.8878   4.8964   5.2525   5.2600   5.2756   5.2758
     5.3982   5.4040   5.6794   5.6802   6.2273   6.2291   6.2815   6.3067
     6.5588   6.5660   6.7005   6.7375   6.7391   6.7527   6.8852   6.9022
     7.0348   7.0471   7.2061   7.2115   7.2167   7.2186   7.4449   7.4551
     7.4839   7.4912   7.5075   7.5149   7.5234   7.5285   7.8051   7.8054
    10.4537  10.4603  11.3088  11.3185  11.3505  11.3606  11.8017  11.8086
    11.8428  11.8530  11.9045  11.9165  12.5970  12.6107  12.7891  12.7916
    12.9791  12.9832  13.2584  13.2663  13.6432  13.6444  13.6678  13.6708
    15.4694  15.4835  15.6459  15.6597  16.2258  16.2363  16.6995  16.7070
    16.8414  16.8444  17.3786  17.3791  17.9292

          k = 0.0000-0.4728-0.5000 ( 62236 PWs)   bands (ev):

   -66.0425 -66.0425 -66.0425 -66.0425 -66.0415 -66.0415 -66.0415 -66.0415
   -30.4505 -30.4505 -30.4501 -30.4501 -30.4472 -30.4472 -30.4470 -30.4470
   -30.3816 -30.3816 -30.3777 -30.3777 -30.3338 -30.3338 -30.3298 -30.3298
   -30.3290 -30.3290 -30.3249 -30.3249 -30.2812 -30.2812 -30.2771 -30.2771
   -20.1928 -20.1928 -20.1928 -20.1928 -20.1927 -20.1927 -20.1927 -20.1927
   -20.1911 -20.1911 -20.1911 -20.1911 -20.1908 -20.1908 -20.1908 -20.1908
   -20.1813 -20.1813 -20.1810 -20.1810 -20.1799 -20.1799 -20.1798 -20.1798
   -20.1797 -20.1797 -20.1795 -20.1795 -20.1785 -20.1785 -20.1783 -20.1783
   -20.1679 -20.1679 -20.1679 -20.1679 -20.1675 -20.1675 -20.1674 -20.1674
   -20.1439 -20.1439 -20.1437 -20.1437 -20.1416 -20.1416 -20.1414 -20.1414
   -20.1402 -20.1402 -20.1400 -20.1400 -20.1377 -20.1377 -20.1374 -20.1374
    -9.4310  -9.4310  -9.4231  -9.4231  -8.6673  -8.6673  -8.6595  -8.6595
    -8.5829  -8.5829  -8.5772  -8.5772  -8.3716  -8.3716  -8.3609  -8.3609
    -8.2981  -8.2981  -8.2876  -8.2875  -7.6451  -7.6451  -7.6359  -7.6358
     1.3980   1.3980   1.4065   1.4065   3.0288   3.0288   3.0592   3.0592
     3.1801   3.1801   3.1857   3.1857   3.2429   3.2429   3.2527   3.2527
     3.3298   3.3298   3.3436   3.3437   3.4750   3.4750   3.5061   3.5061
     3.6091   3.6092   3.6929   3.6929   4.3241   4.3241   4.3406   4.3406
     4.4304   4.4304   4.4590   4.4591   5.2489   5.2489   5.2590   5.2591
     5.5345   5.5346   5.5467   5.5467   6.3755   6.3755   6.3812   6.3812
     6.5477   6.5477   6.5585   6.5585   6.6699   6.6699   6.6889   6.6889
     7.3040   7.3040   7.3166   7.3166   7.3666   7.3666   7.4223   7.4223
     7.4738   7.4738   7.5039   7.5039   7.6114   7.6114   7.6169   7.6169
    11.2187  11.2187  11.2265  11.2265  11.3528  11.3528  11.3599  11.3599
    12.3136  12.3136  12.3469  12.3469  12.3571  12.3571  12.3903  12.3903
    12.9055  12.9055  12.9160  12.9160  13.6530  13.6530  13.6608  13.6608
    15.5551  15.5551  15.5697  15.5697  16.8565  16.8565  16.8784  16.8785
    17.3565  17.3565  17.3776  17.3776  17.4957

          k = 0.1667 0.0000 0.1667 ( 62210 PWs)   bands (ev):

   -66.0431 -66.0427 -66.0422 -66.0422 -66.0418 -66.0418 -66.0413 -66.0409
   -30.4810 -30.4780 -30.4780 -30.4750 -30.4222 -30.4191 -30.4191 -30.4161
   -30.3785 -30.3765 -30.3733 -30.3731 -30.3724 -30.3720 -30.3679 -30.3679
   -30.2903 -30.2903 -30.2874 -30.2864 -30.2852 -30.2849 -30.2820 -30.2809
   -20.1939 -20.1936 -20.1936 -20.1934 -20.1929 -20.1928 -20.1928 -20.1928
   -20.1927 -20.1927 -20.1927 -20.1926 -20.1885 -20.1882 -20.1882 -20.1879
   -20.1816 -20.1816 -20.1814 -20.1814 -20.1805 -20.1805 -20.1804 -20.1803
   -20.1792 -20.1792 -20.1790 -20.1790 -20.1782 -20.1781 -20.1779 -20.1779
   -20.1681 -20.1680 -20.1678 -20.1678 -20.1676 -20.1676 -20.1674 -20.1673
   -20.1442 -20.1442 -20.1440 -20.1439 -20.1429 -20.1429 -20.1427 -20.1427
   -20.1387 -20.1387 -20.1385 -20.1385 -20.1375 -20.1375 -20.1373 -20.1372
    -9.8185  -9.5112  -9.4322  -9.4320  -9.1138  -9.1135  -9.0792  -8.9194
    -8.9068  -8.8304  -8.7920  -8.7918  -7.8622  -7.8415  -7.8298  -7.8294
    -7.8233  -7.7790  -7.7778  -7.7371  -7.7350  -7.7194  -7.6921  -7.6724
     1.4671   1.5072   1.5083   1.5261   1.5274   1.6239   1.6243   1.6440
     1.7434   1.7434   1.9618   2.1092   2.6149   2.6954   2.7001   2.7032
     2.8173   2.8515   4.1084   4.1152   4.3594   4.3602   4.5130   4.5141
     4.5914   4.5946   4.7149   4.7260   4.7774   4.8466   5.0625   5.2773
     5.3216   5.3544   5.4046   5.5055   5.5095   5.6583   5.6592   5.7127
     5.7139   5.7503   5.7911   5.7955   5.8082   6.0076   6.3545   6.4627
     6.4881   6.5372   6.5691   6.6617   6.7068   6.7084   6.7130   6.7389
     6.7842   6.8883   6.8897   6.9060   6.9293   7.0168   7.0206   7.1402
     7.3495   7.4130   7.8452   7.8465   8.0531   8.1010   8.1172   8.1250
     9.9211   9.9924  10.3140  10.3144  10.3313  10.4232  12.3016  12.3016
    12.3277  12.3314  12.3692  12.4086  12.6443  12.6541  12.9864  12.9876
    13.0840  13.1424  13.2527  13.4130  13.9905  14.0346  14.0647  14.1092
    14.1575  14.5385  14.5388  15.1142  15.4552  15.6217  15.6367  16.3992
    16.4013  16.9871  16.9898  17.1715  17.5566

          k = 0.1667 0.0000 0.3333 ( 62233 PWs)   bands (ev):

   -66.0429 -66.0425 -66.0424 -66.0420 -66.0420 -66.0416 -66.0415 -66.0411
   -30.4806 -30.4787 -30.4775 -30.4757 -30.4217 -30.4199 -30.4188 -30.4169
   -30.3766 -30.3740 -30.3716 -30.3690 -30.3588 -30.3547 -30.3540 -30.3496
   -30.3087 -30.3049 -30.3039 -30.2998 -30.2895 -30.2872 -30.2845 -30.2823
   -20.1938 -20.1937 -20.1936 -20.1935 -20.1929 -20.1928 -20.1928 -20.1928
   -20.1927 -20.1927 -20.1927 -20.1926 -20.1884 -20.1883 -20.1882 -20.1880
   -20.1816 -20.1814 -20.1812 -20.1809 -20.1806 -20.1802 -20.1801 -20.1798
   -20.1797 -20.1795 -20.1793 -20.1789 -20.1786 -20.1783 -20.1781 -20.1779
   -20.1680 -20.1679 -20.1678 -20.1677 -20.1677 -20.1675 -20.1674 -20.1673
   -20.1439 -20.1437 -20.1432 -20.1431 -20.1429 -20.1429 -20.1418 -20.1416
   -20.1399 -20.1397 -20.1387 -20.1385 -20.1385 -20.1382 -20.1378 -20.1375
    -9.7007  -9.4841  -9.3729  -9.2949  -9.1596  -9.1093  -8.8601  -8.8486
    -8.8054  -8.7736  -8.7412  -8.6690  -8.1457  -8.1357  -8.0637  -8.0394
    -7.8257  -7.8099  -7.8064  -7.7776  -7.7705  -7.7470  -7.7350  -7.7151
     1.4769   1.4964   1.5892   1.6263   1.6419   1.6623   1.7232   1.7501
     2.3129   2.3460   2.4955   2.5779   2.7220   2.8113   2.8865   2.9383
     2.9898   3.0879   3.8460   3.8770   3.9670   3.9696   4.1971   4.3228
     4.3450   4.5305   4.5582   4.5842   4.6564   4.7779   4.8062   4.9619
     5.0137   5.0923   5.1313   5.2427   5.3229   5.4031   5.5645   5.6980
     5.7026   5.7681   5.8033   5.8196   5.8481   6.0190   6.1964   6.2495
     6.4459   6.4770   6.5089   6.5965   6.6242   6.6783   6.6809   6.7055
     6.8296   6.8968   6.9070   6.9278   7.1589   7.1859   7.2016   7.2793
     7.3645   7.4086   7.7970   7.8123   7.9489   7.9870   8.1135   8.1238
    10.3087  10.3206  10.5651  10.6247  10.9306  11.0580  11.9348  11.9775
    12.1735  12.4517  12.4730  12.5656  12.5941  12.6502  12.8002  12.9035
    12.9452  13.0642  13.1285  13.3434  13.7160  13.7309  14.0477  14.0729
    14.3159  14.5104  14.8389  15.3476  15.4256  15.8709  16.0334  16.3029
    16.4139  17.2386  17.4371  17.5281  17.6164

          k = 0.1667 0.0000-0.5000 ( 62286 PWs)   bands (ev):

   -66.0426 -66.0426 -66.0422 -66.0422 -66.0418 -66.0418 -66.0414 -66.0414
   -30.4797 -30.4797 -30.4767 -30.4767 -30.4209 -30.4209 -30.4179 -30.4179
   -30.3753 -30.3753 -30.3703 -30.3703 -30.3338 -30.3338 -30.3298 -30.3298
   -30.3289 -30.3289 -30.3247 -30.3247 -30.2884 -30.2884 -30.2834 -30.2834
   -20.1938 -20.1938 -20.1936 -20.1936 -20.1928 -20.1928 -20.1927 -20.1927
   -20.1927 -20.1927 -20.1926 -20.1926 -20.1884 -20.1884 -20.1881 -20.1881
   -20.1815 -20.1815 -20.1808 -20.1808 -20.1803 -20.1803 -20.1799 -20.1799
   -20.1796 -20.1796 -20.1792 -20.1792 -20.1787 -20.1787 -20.1780 -20.1780
   -20.1679 -20.1679 -20.1678 -20.1678 -20.1675 -20.1675 -20.1674 -20.1674
   -20.1435 -20.1435 -20.1433 -20.1433 -20.1415 -20.1415 -20.1413 -20.1413
   -20.1403 -20.1403 -20.1401 -20.1401 -20.1381 -20.1381 -20.1379 -20.1379
    -9.5755  -9.5755  -9.2428  -9.2427  -9.1746  -9.1746  -8.8242  -8.8242
    -8.5144  -8.5144  -8.5060  -8.5060  -8.4524  -8.4523  -8.3954  -8.3954
    -7.8132  -7.8132  -7.7738  -7.7738  -7.7581  -7.7581  -7.7500  -7.7500
     1.4848   1.4848   1.6084   1.6084   1.6627   1.6627   1.7559   1.7559
     2.7491   2.7491   3.0273   3.0273   3.1166   3.1166   3.2389   3.2389
     3.3468   3.3468   3.4576   3.4576   3.5663   3.5664   3.8333   3.8333
     3.9176   3.9176   4.4439   4.4439   4.5703   4.5703   4.9096   4.9096
     5.0710   5.0710   5.0861   5.0861   5.2841   5.2841   5.6366   5.6366
     5.8063   5.8063   5.8292   5.8292   5.9351   5.9351   5.9860   5.9860
     6.3775   6.3776   6.4614   6.4614   6.6778   6.6778   6.7578   6.7578
     6.8450   6.8450   7.0018   7.0018   7.0618   7.0619   7.5653   7.5653
     7.6108   7.6108   7.7279   7.7279   7.7433   7.7433   8.1233   8.1233
    10.3271  10.3271  11.2784  11.2784  11.3520  11.3520  11.6305  11.6305
    11.8446  11.8446  12.6631  12.6631  12.6895  12.6895  12.7450  12.7450
    12.9614  12.9614  13.2966  13.2966  13.4114  13.4114  14.0574  14.0574
    14.4488  14.4488  15.1452  15.1452  15.8674  15.8674  16.1316  16.1316
    16.7867  16.7867  17.8433  17.8433  17.8829

          k = 0.1667 0.1576 0.1667 ( 62217 PWs)   bands (ev):

   -66.0431 -66.0427 -66.0422 -66.0422 -66.0418 -66.0418 -66.0413 -66.0410
   -30.4771 -30.4740 -30.4740 -30.4711 -30.4261 -30.4231 -30.4230 -30.4201
   -30.3783 -30.3766 -30.3733 -30.3730 -30.3725 -30.3722 -30.3681 -30.3680
   -30.2902 -30.2902 -30.2872 -30.2864 -30.2853 -30.2849 -30.2820 -30.2810
   -20.1935 -20.1933 -20.1933 -20.1931 -20.1929 -20.1928 -20.1928 -20.1928
   -20.1927 -20.1927 -20.1927 -20.1926 -20.1888 -20.1886 -20.1886 -20.1883
   -20.1816 -20.1815 -20.1813 -20.1813 -20.1806 -20.1805 -20.1804 -20.1803
   -20.1792 -20.1792 -20.1790 -20.1790 -20.1782 -20.1782 -20.1780 -20.1779
   -20.1681 -20.1680 -20.1678 -20.1678 -20.1676 -20.1676 -20.1674 -20.1673
   -20.1442 -20.1442 -20.1440 -20.1439 -20.1429 -20.1429 -20.1427 -20.1427
   -20.1387 -20.1387 -20.1385 -20.1385 -20.1375 -20.1375 -20.1373 -20.1372
    -9.7863  -9.5230  -9.3901  -9.3900  -9.1218  -9.1215  -9.0056  -8.9186
    -8.9076  -8.7875  -8.7592  -8.7591  -7.9398  -7.8929  -7.8929  -7.8514
    -7.8400  -7.8397  -7.8149  -7.8118  -7.7349  -7.7154  -7.6911  -7.6739
     1.5258   1.5259   1.5802   1.5803   1.6237   1.6239   1.6592   1.8469
     1.9095   1.9099   1.9611   2.1903   2.6228   2.6971   2.7686   2.7744
     2.8891   2.9150   4.0113   4.0360   4.1462   4.1487   4.5037   4.5045
     4.5939   4.5970   4.7169   4.7234   4.7611   4.7952   4.8504   5.2300
     5.2468   5.2768   5.2854   5.3905   5.4007   5.6128   5.6163   5.6496
     5.7685   5.7753   5.7825   5.8107   5.8117   5.8668   6.3723   6.3961
     6.4177   6.5320   6.5631   6.6815   6.7098   6.7556   6.7994   6.8073
     6.8196   6.8548   6.9074   6.9127   6.9859   6.9972   7.0081   7.1459
     7.3537   7.4111   7.8456   7.8470   8.0007   8.0431   8.0476   8.0488
     9.9382   9.9904  10.4662  10.4799  10.4882  10.5549  12.2506  12.2867
    12.3103  12.3107  12.3255  12.3344  12.5072  12.5151  12.9761  13.0007
    13.1231  13.1659  13.2582  13.4172  13.9421  13.9521  13.9659  14.0266
    14.4255  14.8339  14.8347  15.2565  15.6226  15.6354  15.8575  16.3651
    16.3663  16.8226  17.0925  17.0933  17.6325

          k = 0.1667 0.1576 0.3333 ( 62235 PWs)   bands (ev):

   -66.0429 -66.0425 -66.0424 -66.0420 -66.0420 -66.0416 -66.0415 -66.0411
   -30.4766 -30.4748 -30.4736 -30.4718 -30.4256 -30.4238 -30.4227 -30.4209
   -30.3765 -30.3739 -30.3717 -30.3692 -30.3587 -30.3546 -30.3541 -30.3497
   -30.3087 -30.3048 -30.3040 -30.2999 -30.2894 -30.2871 -30.2846 -30.2824
   -20.1935 -20.1934 -20.1933 -20.1931 -20.1929 -20.1928 -20.1928 -20.1928
   -20.1927 -20.1927 -20.1927 -20.1926 -20.1888 -20.1887 -20.1886 -20.1884
   -20.1815 -20.1814 -20.1811 -20.1808 -20.1806 -20.1803 -20.1801 -20.1799
   -20.1796 -20.1794 -20.1793 -20.1789 -20.1787 -20.1784 -20.1782 -20.1780
   -20.1680 -20.1679 -20.1678 -20.1677 -20.1677 -20.1676 -20.1674 -20.1674
   -20.1439 -20.1437 -20.1432 -20.1431 -20.1429 -20.1429 -20.1418 -20.1416
   -20.1399 -20.1397 -20.1387 -20.1385 -20.1385 -20.1382 -20.1378 -20.1375
    -9.6649  -9.4430  -9.3844  -9.2393  -9.1683  -9.0364  -8.8682  -8.8289
    -8.7750  -8.7720  -8.7211  -8.6498  -8.1496  -8.1369  -8.0825  -8.0379
    -7.9074  -7.8921  -7.8709  -7.8424  -7.8109  -7.7874  -7.7355  -7.7151
     1.5884   1.6058   1.6418   1.6622   1.7946   1.7998   1.8796   1.9087
     2.3116   2.3571   2.4976   2.5929   2.7944   2.8699   2.9080   2.9865
     3.0134   3.1437   3.8431   3.8751   3.9266   3.9597   4.1376   4.2043
     4.2779   4.3952   4.5721   4.6076   4.6853   4.7306   4.7677   4.7943
     4.9285   4.9591   5.0015   5.1743   5.2408   5.2788   5.3391   5.6166
     5.6606   5.6742   5.7631   5.8165   5.8317   5.8431   6.2014   6.2498
     6.4039   6.5379   6.5604   6.6543   6.7113   6.7224   6.7539   6.7934
     6.8818   6.9007   6.9313   6.9656   7.1540   7.1782   7.1978   7.2835
     7.3553   7.4030   7.7983   7.8093   7.9034   7.9289   8.0470   8.0499
    10.4329  10.4816  10.5919  10.6377  11.0445  11.1450  11.9359  11.9741
    12.1478  12.4311  12.4756  12.4970  12.5233  12.6156  12.7366  12.7855
    12.9395  13.0880  13.1170  13.3424  13.6123  13.6351  13.9583  13.9853
    14.6396  14.8111  15.1850  15.5331  15.7573  15.8659  16.0426  16.2721
    16.5210  17.1981  17.2184  17.4948  17.5692

          k = 0.1667 0.1576-0.5000 ( 62276 PWs)   bands (ev):

   -66.0426 -66.0426 -66.0423 -66.0423 -66.0417 -66.0417 -66.0414 -66.0414
   -30.4758 -30.4758 -30.4728 -30.4728 -30.4248 -30.4248 -30.4219 -30.4219
   -30.3752 -30.3752 -30.3704 -30.3704 -30.3337 -30.3337 -30.3297 -30.3297
   -30.3291 -30.3291 -30.3248 -30.3248 -30.2883 -30.2883 -30.2835 -30.2835
   -20.1934 -20.1934 -20.1932 -20.1932 -20.1928 -20.1928 -20.1927 -20.1927
   -20.1927 -20.1927 -20.1926 -20.1926 -20.1887 -20.1887 -20.1885 -20.1885
   -20.1814 -20.1814 -20.1808 -20.1808 -20.1802 -20.1802 -20.1799 -20.1799
   -20.1796 -20.1796 -20.1793 -20.1793 -20.1787 -20.1787 -20.1781 -20.1781
   -20.1679 -20.1679 -20.1678 -20.1678 -20.1675 -20.1675 -20.1674 -20.1674
   -20.1435 -20.1435 -20.1433 -20.1433 -20.1415 -20.1415 -20.1413 -20.1413
   -20.1403 -20.1403 -20.1401 -20.1401 -20.1381 -20.1381 -20.1379 -20.1379
    -9.5363  -9.5363  -9.2528  -9.2528  -9.1058  -9.1058  -8.7920  -8.7920
    -8.5171  -8.5171  -8.5089  -8.5089  -8.4547  -8.4547  -8.3901  -8.3901
    -7.9024  -7.9023  -7.8602  -7.8602  -7.7730  -7.7730  -7.7513  -7.7513
     1.5992   1.5992   1.6626   1.6626   1.8087   1.8087   1.9083   1.9083
     2.8171   2.8171   3.0461   3.0461   3.1304   3.1304   3.2585   3.2586
     3.3497   3.3497   3.4622   3.4622   3.5569   3.5569   3.8345   3.8345
     3.9660   3.9660   4.2882   4.2882   4.5843   4.5843   4.6873   4.6874
     4.9597   4.9597   5.0548   5.0548   5.1415   5.1415   5.4555   5.4555
     5.7047   5.7047   5.7784   5.7784   5.8780   5.8780   5.9352   5.9352
     6.5013   6.5013   6.6272   6.6272   6.6711   6.6711   6.8057   6.8057
     6.9212   6.9212   6.9655   6.9655   7.0836   7.0836   7.5649   7.5649
     7.6048   7.6048   7.6981   7.6982   7.7138   7.7138   8.0513   8.0513
    10.4838  10.4838  11.2851  11.2851  11.3505  11.3505  11.6967  11.6967
    11.9044  11.9044  12.5393  12.5393  12.6697  12.6697  12.7332  12.7332
    12.9415  12.9415  13.1929  13.1929  13.3538  13.3538  13.9675  13.9675
    14.7597  14.7597  15.5188  15.5188  15.9872  15.9873  16.1109  16.1109
    16.8162  16.8162  17.6477  17.6477  17.9158

          k = 0.1667 0.3152 0.1667 ( 62218 PWs)   bands (ev):

   -66.0430 -66.0428 -66.0421 -66.0421 -66.0419 -66.0419 -66.0412 -66.0410
   -30.4663 -30.4633 -30.4633 -30.4603 -30.4368 -30.4338 -30.4338 -30.4309
   -30.3778 -30.3767 -30.3733 -30.3727 -30.3726 -30.3725 -30.3684 -30.3683
   -30.2900 -30.2900 -30.2870 -30.2866 -30.2853 -30.2851 -30.2820 -30.2814
   -20.1929 -20.1928 -20.1928 -20.1928 -20.1927 -20.1927 -20.1927 -20.1926
   -20.1925 -20.1923 -20.1923 -20.1921 -20.1898 -20.1896 -20.1896 -20.1893
   -20.1814 -20.1813 -20.1812 -20.1811 -20.1807 -20.1807 -20.1806 -20.1805
   -20.1790 -20.1790 -20.1789 -20.1789 -20.1784 -20.1784 -20.1782 -20.1781
   -20.1681 -20.1680 -20.1678 -20.1678 -20.1676 -20.1676 -20.1673 -20.1673
   -20.1442 -20.1442 -20.1440 -20.1439 -20.1429 -20.1429 -20.1427 -20.1427
   -20.1387 -20.1387 -20.1385 -20.1385 -20.1375 -20.1375 -20.1373 -20.1373
    -9.7082  -9.5596  -9.2933  -9.2931  -9.1484  -9.1482  -8.9163  -8.9101
    -8.7968  -8.6521  -8.6439  -8.6438  -8.1806  -8.1361  -8.1361  -8.1186
    -7.8389  -7.8360  -7.8232  -7.8198  -7.7313  -7.7199  -7.6877  -7.6777
     1.5257   1.5258   1.6123   1.6124   1.6241   1.6243   1.8958   1.9569
     2.4001   2.5231   2.5237   2.6402   2.6562   2.7165   2.9910   2.9989
     3.1055   3.1120   3.6988   3.7001   3.7127   3.7621   4.1493   4.4671
     4.4673   4.5310   4.5333   4.6230   4.6239   4.7581   4.7689   4.8565
     4.9122   4.9158   5.1463   5.1703   5.3983   5.4328   5.4410   5.4480
     5.6458   5.6670   5.7926   5.7930   5.8417   5.8430   6.4236   6.4341
     6.4557   6.5256   6.5482   6.6586   6.7830   6.7956   6.8988   6.9017
     6.9539   6.9555   7.0104   7.0416   7.1109   7.1131   7.1231   7.1782
     7.3732   7.4112   7.8146   7.8150   7.8251   7.8428   7.8520   7.8767
     9.9621   9.9851  10.8666  10.9121  10.9212  10.9416  11.9170  11.9634
    12.0499  12.0566  12.3233  12.3246  12.3634  12.3636  12.9750  13.0113
    13.2456  13.2620  13.3173  13.4647  13.7124  13.7183  13.7312  13.8193
    15.0831  15.4659  15.4691  15.6271  15.6319  15.8045  16.2430  16.2449
    16.2597  16.8459  17.3849  17.4373  17.4438

          k = 0.1667 0.3152 0.3333 ( 62237 PWs)   bands (ev):

   -66.0428 -66.0426 -66.0423 -66.0421 -66.0419 -66.0417 -66.0414 -66.0412
   -30.4658 -30.4640 -30.4629 -30.4611 -30.4363 -30.4346 -30.4334 -30.4317
   -30.3763 -30.3736 -30.3721 -30.3695 -30.3585 -30.3545 -30.3543 -30.3500
   -30.3085 -30.3046 -30.3042 -30.3001 -30.2892 -30.2869 -30.2848 -30.2826
   -20.1929 -20.1928 -20.1928 -20.1928 -20.1927 -20.1927 -20.1927 -20.1927
   -20.1925 -20.1924 -20.1923 -20.1921 -20.1898 -20.1897 -20.1896 -20.1894
   -20.1813 -20.1812 -20.1810 -20.1807 -20.1806 -20.1804 -20.1802 -20.1801
   -20.1794 -20.1793 -20.1791 -20.1789 -20.1788 -20.1785 -20.1783 -20.1782
   -20.1680 -20.1679 -20.1678 -20.1677 -20.1676 -20.1676 -20.1674 -20.1674
   -20.1439 -20.1437 -20.1432 -20.1431 -20.1429 -20.1429 -20.1418 -20.1416
   -20.1399 -20.1397 -20.1387 -20.1385 -20.1385 -20.1382 -20.1378 -20.1375
    -9.5785  -9.4209  -9.3471  -9.1972  -9.1024  -8.8986  -8.8314  -8.7996
    -8.7772  -8.6580  -8.6214  -8.5744  -8.2290  -8.2085  -8.1387  -8.1300
    -8.1222  -8.0674  -8.0312  -7.9842  -7.8081  -7.7932  -7.7326  -7.7185
     1.6289   1.6418   1.6512   1.6628   2.2257   2.3053   2.3212   2.4151
     2.4940   2.5280   2.5489   2.7468   2.9163   2.9821   3.0140   3.0969
     3.2381   3.3263   3.6784   3.6872   3.7578   3.7898   3.9301   4.0055
     4.1295   4.3293   4.4190   4.4383   4.5106   4.5831   4.6337   4.6770
     4.7549   4.8044   4.8593   4.8889   4.9619   5.0286   5.1709   5.1771
     5.3463   5.3663   5.4739   5.6209   5.8220   5.8533   6.2334   6.2520
     6.5697   6.6519   6.6568   6.7652   6.8437   6.8720   6.9454   6.9831
     7.0315   7.0547   7.0731   7.0946   7.1819   7.1988   7.2189   7.3067
     7.3301   7.3888   7.7449   7.7477   7.7930   7.8044   7.8303   7.8626
    10.5605  10.6016  10.9142  10.9232  11.3574  11.4120  11.9103  11.9418
    11.9547  12.1198  12.2404  12.2635  12.4871  12.5843  12.6978  12.7591
    12.9015  13.1025  13.1729  13.3842  13.3934  13.4216  13.7251  13.7688
    15.3055  15.4436  15.8279  15.9850  16.0143  16.0919  16.1656  16.7068
    16.7240  16.8619  17.0717  17.5881  17.6704

          k = 0.1667 0.3152-0.5000 ( 62230 PWs)   bands (ev):

   -66.0425 -66.0425 -66.0423 -66.0423 -66.0417 -66.0417 -66.0415 -66.0415
   -30.4650 -30.4650 -30.4621 -30.4621 -30.4355 -30.4355 -30.4327 -30.4327
   -30.3750 -30.3750 -30.3708 -30.3708 -30.3335 -30.3335 -30.3295 -30.3295
   -30.3293 -30.3293 -30.3250 -30.3250 -30.2881 -30.2881 -30.2837 -30.2837
   -20.1928 -20.1928 -20.1928 -20.1928 -20.1927 -20.1927 -20.1927 -20.1927
   -20.1924 -20.1924 -20.1922 -20.1922 -20.1898 -20.1898 -20.1895 -20.1895
   -20.1812 -20.1812 -20.1808 -20.1808 -20.1800 -20.1800 -20.1799 -20.1799
   -20.1796 -20.1796 -20.1794 -20.1794 -20.1788 -20.1788 -20.1783 -20.1783
   -20.1679 -20.1679 -20.1678 -20.1678 -20.1675 -20.1675 -20.1675 -20.1675
   -20.1435 -20.1435 -20.1433 -20.1433 -20.1415 -20.1415 -20.1413 -20.1413
   -20.1403 -20.1403 -20.1401 -20.1401 -20.1381 -20.1381 -20.1379 -20.1379
    -9.4430  -9.4430  -9.2858  -9.2858  -8.9175  -8.9175  -8.6911  -8.6911
    -8.5434  -8.5434  -8.5213  -8.5213  -8.4494  -8.4494  -8.3689  -8.3689
    -8.1285  -8.1285  -8.0953  -8.0953  -7.7702  -7.7702  -7.7556  -7.7556
     1.6487   1.6488   1.6628   1.6628   2.4010   2.4010   2.5184   2.5185
     3.0057   3.0057   3.1065   3.1065   3.1317   3.1317   3.3196   3.3196
     3.3580   3.3580   3.4826   3.4826   3.5177   3.5177   3.7137   3.7137
     4.0996   4.0996   4.1250   4.1250   4.1624   4.1624   4.3977   4.3977
     4.7603   4.7603   4.8261   4.8261   5.0102   5.0102   5.0707   5.0707
     5.1770   5.1770   5.5389   5.5389   5.9315   5.9315   5.9413   5.9413
     6.7013   6.7013   6.8093   6.8093   6.8667   6.8667   6.9036   6.9036
     7.0406   7.0406   7.0897   7.0897   7.1970   7.1970   7.5437   7.5437
     7.5775   7.5775   7.6066   7.6066   7.6406   7.6406   7.8420   7.8420
    10.8969  10.8969  11.3004  11.3004  11.3484  11.3484  11.8076  11.8076
    12.0868  12.0868  12.2415  12.2415  12.5760  12.5760  12.6628  12.6628
    12.8368  12.8368  12.9776  12.9776  13.3442  13.3442  13.7417  13.7417
    15.3957  15.3957  16.0217  16.0217  16.3681  16.3681  16.4733  16.4733
    16.9416  16.9416  17.2956  17.2956  17.8741

          k = 0.1667-0.4728 0.1667 ( 62188 PWs)   bands (ev):

   -66.0429 -66.0429 -66.0420 -66.0420 -66.0420 -66.0420 -66.0411 -66.0411
   -30.4515 -30.4515 -30.4488 -30.4488 -30.4483 -30.4483 -30.4457 -30.4457
   -30.3772 -30.3772 -30.3731 -30.3731 -30.3725 -30.3725 -30.3685 -30.3685
   -30.2899 -30.2899 -30.2868 -30.2868 -30.2853 -30.2853 -30.2818 -30.2818
   -20.1928 -20.1928 -20.1927 -20.1927 -20.1927 -20.1927 -20.1927 -20.1926
   -20.1912 -20.1912 -20.1910 -20.1910 -20.1909 -20.1909 -20.1907 -20.1907
   -20.1812 -20.1812 -20.1810 -20.1810 -20.1808 -20.1808 -20.1807 -20.1807
   -20.1789 -20.1789 -20.1788 -20.1788 -20.1785 -20.1785 -20.1783 -20.1783
   -20.1681 -20.1681 -20.1678 -20.1677 -20.1677 -20.1676 -20.1673 -20.1673
   -20.1442 -20.1441 -20.1440 -20.1439 -20.1429 -20.1429 -20.1427 -20.1427
   -20.1387 -20.1387 -20.1385 -20.1385 -20.1375 -20.1375 -20.1373 -20.1373
    -9.6234  -9.6234  -9.2080  -9.2080  -9.1981  -9.1980  -8.9131  -8.9131
    -8.4951  -8.4951  -8.4242  -8.4242  -8.4224  -8.4224  -8.4185  -8.4185
    -7.8346  -7.8346  -7.8249  -7.8249  -7.7257  -7.7257  -7.6828  -7.6828
     1.5257   1.5257   1.6169   1.6169   1.6244   1.6244   1.9445   1.9445
     2.6599   2.6599   3.1984   3.1984   3.2435   3.2435   3.2812   3.2813
     3.3138   3.3138   3.3999   3.3999   3.5377   3.5377   3.5603   3.5603
     3.7456   3.7456   4.5438   4.5438   4.5951   4.5951   4.9524   4.9524
     5.0242   5.0242   5.1325   5.1325   5.1838   5.1839   5.4666   5.4666
     5.5029   5.5029   5.7973   5.7973   5.8297   5.8297   6.4836   6.4836
     6.5195   6.5195   6.5622   6.5622   6.7902   6.7902   6.9302   6.9302
     6.9500   6.9500   7.1079   7.1079   7.3249   7.3249   7.4688   7.4689
     7.4829   7.4829   7.5056   7.5056   7.5699   7.5699   7.8497   7.8497
     9.9766   9.9766  11.4012  11.4012  11.4544  11.4544  11.4928  11.4928
    11.5063  11.5063  12.3276  12.3277  12.3539  12.3539  12.9970  12.9970
    13.4448  13.4448  13.4579  13.4579  13.4833  13.4833  13.6097  13.6097
    15.6245  15.6245  15.6761  15.6761  15.9706  15.9706  15.9876  15.9876
    16.6826  16.6826  17.8945  17.8947  17.9206

          k = 0.1667-0.4728 0.3333 ( 62220 PWs)   bands (ev):

   -66.0427 -66.0427 -66.0422 -66.0422 -66.0418 -66.0418 -66.0413 -66.0413
   -30.4512 -30.4510 -30.4495 -30.4491 -30.4483 -30.4480 -30.4464 -30.4464
   -30.3762 -30.3735 -30.3723 -30.3697 -30.3584 -30.3546 -30.3543 -30.3501
   -30.3083 -30.3045 -30.3043 -30.3002 -30.2891 -30.2868 -30.2849 -30.2827
   -20.1928 -20.1928 -20.1928 -20.1928 -20.1927 -20.1927 -20.1927 -20.1927
   -20.1912 -20.1912 -20.1910 -20.1910 -20.1909 -20.1909 -20.1908 -20.1908
   -20.1812 -20.1810 -20.1809 -20.1808 -20.1805 -20.1804 -20.1804 -20.1802
   -20.1793 -20.1792 -20.1792 -20.1789 -20.1788 -20.1786 -20.1785 -20.1784
   -20.1680 -20.1680 -20.1678 -20.1677 -20.1676 -20.1676 -20.1674 -20.1674
   -20.1439 -20.1437 -20.1432 -20.1431 -20.1429 -20.1429 -20.1418 -20.1416
   -20.1399 -20.1397 -20.1387 -20.1385 -20.1385 -20.1382 -20.1378 -20.1375
    -9.4887  -9.4853  -9.2597  -9.2505  -8.9747  -8.9657  -8.7876  -8.7850
    -8.5318  -8.5307  -8.4467  -8.4447  -8.4100  -8.4090  -8.3955  -8.3940
    -8.1250  -8.1161  -8.0235  -8.0151  -7.8055  -7.7963  -7.7302  -7.7211
     1.6343   1.6419   1.6553   1.6632   2.2925   2.2991   2.4744   2.4806
     2.9293   2.9343   3.1992   3.2186   3.2513   3.2583   3.2647   3.2841
     3.3084   3.3332   3.4572   3.4940   3.5235   3.5566   3.6919   3.7034
     3.7904   3.8038   3.9335   4.0020   4.4787   4.5283   4.6516   4.6544
     4.7053   4.7538   4.7994   4.8241   5.0073   5.0382   5.0477   5.0918
     5.1744   5.2286   5.3731   5.4435   5.8263   5.8420   6.2468   6.2496
     6.6534   6.6627   6.7211   6.7384   6.8848   6.8968   7.0529   7.1144
     7.1362   7.1665   7.1940   7.2250   7.2351   7.2386   7.4417   7.4606
     7.4698   7.4881   7.4950   7.5138   7.5248   7.5576   7.8089   7.8119
    10.5874  10.5930  11.4297  11.4465  11.4692  11.4812  11.8083  11.8203
    11.8296  11.8481  11.9521  12.0044  12.4892  12.5448  12.7850  12.8098
    12.9782  13.0082  13.1645  13.2453  13.4594  13.4871  13.5143  13.5698
    15.6975  15.7230  15.9091  15.9309  16.2618  16.2936  16.6725  16.7042
    16.8757  16.8800  17.3997  17.4478  17.8450

          k = 0.1667-0.4728-0.5000 ( 62192 PWs)   bands (ev):

   -66.0424 -66.0424 -66.0424 -66.0424 -66.0416 -66.0416 -66.0416 -66.0416
   -30.4504 -30.4504 -30.4501 -30.4501 -30.4475 -30.4475 -30.4473 -30.4473
   -30.3748 -30.3748 -30.3709 -30.3709 -30.3334 -30.3334 -30.3295 -30.3295
   -30.3294 -30.3294 -30.3252 -30.3252 -30.2880 -30.2880 -30.2838 -30.2838
   -20.1928 -20.1928 -20.1928 -20.1928 -20.1927 -20.1927 -20.1927 -20.1927
   -20.1911 -20.1911 -20.1911 -20.1911 -20.1909 -20.1909 -20.1909 -20.1909
   -20.1811 -20.1811 -20.1808 -20.1808 -20.1799 -20.1799 -20.1798 -20.1798
   -20.1797 -20.1797 -20.1795 -20.1795 -20.1787 -20.1787 -20.1784 -20.1784
   -20.1679 -20.1679 -20.1678 -20.1678 -20.1675 -20.1675 -20.1675 -20.1675
   -20.1435 -20.1435 -20.1433 -20.1433 -20.1415 -20.1415 -20.1413 -20.1413
   -20.1403 -20.1403 -20.1401 -20.1401 -20.1381 -20.1381 -20.1379 -20.1379
    -9.3526  -9.3526  -9.3452  -9.3452  -8.6877  -8.6876  -8.6796  -8.6796
    -8.5648  -8.5648  -8.5572  -8.5572  -8.3693  -8.3692  -8.3579  -8.3579
    -8.3006  -8.3005  -8.2900  -8.2899  -7.7677  -7.7677  -7.7584  -7.7584
     1.6546   1.6546   1.6631   1.6631   3.0318   3.0318   3.0619   3.0619
     3.1671   3.1671   3.1909   3.1909   3.2428   3.2428   3.3069   3.3069
     3.3273   3.3273   3.4352   3.4352   3.5244   3.5244   3.5595   3.5595
     3.6426   3.6426   3.7232   3.7232   4.3259   4.3259   4.3418   4.3418
     4.4232   4.4232   4.4519   4.4519   4.9100   4.9100   5.0881   5.0881
     5.1711   5.1712   5.3290   5.3291   5.9352   5.9352   5.9443   5.9443
     6.7812   6.7812   6.8158   6.8158   6.9074   6.9074   6.9436   6.9436
     7.2921   7.2921   7.3282   7.3282   7.3772   7.3772   7.4224   7.4224
     7.4695   7.4695   7.5155   7.5155   7.6214   7.6215   7.6457   7.6457
    11.2724  11.2724  11.3057  11.3057  11.4581  11.4581  11.5209  11.5209
    12.3089  12.3089  12.3458  12.3458  12.3671  12.3671  12.3991  12.3991
    12.8110  12.8110  12.8811  12.8811  13.4760  13.4760  13.5226  13.5226
    15.8101  15.8102  15.8362  15.8363  16.9113  16.9113  16.9352  16.9352
    17.3637  17.3637  17.3916  17.3917  17.4812

          k = 0.3333 0.0000 0.3333 ( 62272 PWs)   bands (ev):

   -66.0427 -66.0423 -66.0422 -66.0422 -66.0418 -66.0418 -66.0417 -66.0413
   -30.4801 -30.4783 -30.4783 -30.4765 -30.4213 -30.4195 -30.4195 -30.4177
   -30.3591 -30.3577 -30.3557 -30.3553 -30.3536 -30.3527 -30.3503 -30.3502
   -30.3081 -30.3079 -30.3065 -30.3056 -30.3027 -30.3023 -30.3011 -30.3000
   -20.1938 -20.1937 -20.1937 -20.1935 -20.1928 -20.1928 -20.1928 -20.1928
   -20.1927 -20.1927 -20.1927 -20.1926 -20.1884 -20.1883 -20.1883 -20.1881
   -20.1811 -20.1811 -20.1810 -20.1809 -20.1803 -20.1802 -20.1799 -20.1798
   -20.1797 -20.1797 -20.1793 -20.1792 -20.1786 -20.1785 -20.1784 -20.1783
   -20.1679 -20.1678 -20.1677 -20.1677 -20.1676 -20.1676 -20.1675 -20.1674
   -20.1428 -20.1428 -20.1426 -20.1426 -20.1421 -20.1421 -20.1419 -20.1418
   -20.1397 -20.1397 -20.1395 -20.1395 -20.1390 -20.1389 -20.1387 -20.1387
    -9.5708  -9.3444  -9.3440  -9.1904  -9.1434  -8.9103  -8.9091  -8.7455
    -8.6997  -8.6887  -8.6879  -8.6833  -8.1764  -8.1236  -8.1200  -8.1117
    -8.1066  -8.0997  -7.9922  -7.9730  -7.8046  -7.7803  -7.7803  -7.7556
     1.5267   1.5674   1.5676   1.6072   2.2235   2.2320   2.3291   2.3325
     2.3643   2.3664   2.5660   2.6684   2.9512   2.9573   2.9965   3.0516
     3.2685   3.3022   3.8245   3.8327   3.9480   3.9494   4.1639   4.1688
     4.1786   4.1845   4.2818   4.3585   4.4672   4.4787   4.5347   4.5739
     4.8955   4.9271   4.9606   4.9896   5.0884   5.0953   5.2073   5.4403
     5.4425   5.5610   5.5661   5.6490   5.8787   5.8900   5.8902   6.0540
     6.4653   6.4677   6.4889   6.4898   6.5463   6.5820   6.5871   6.6407
     7.0144   7.2139   7.2198   7.2546   7.2578   7.3660   7.3937   7.3991
     7.4609   7.5233   7.7603   7.7711   7.9197   7.9906   7.9982   8.0411
    10.7900  10.9209  10.9433  10.9486  11.0359  11.2638  12.1023  12.1056
    12.1515  12.1549  12.2382  12.3375  12.5855  12.5890  12.7908  12.8597
    12.8756  12.8843  13.0293  13.1058  13.6268  13.6987  13.6993  13.7994
    14.5168  14.7906  14.7919  15.2517  15.7973  16.3765  16.4282  16.7411
    16.7531  17.2277  17.2390  17.7871  17.7983

          k = 0.3333 0.0000-0.5000 ( 62264 PWs)   bands (ev):

   -66.0425 -66.0425 -66.0421 -66.0421 -66.0419 -66.0419 -66.0415 -66.0415
   -30.4793 -30.4793 -30.4775 -30.4775 -30.4205 -30.4205 -30.4187 -30.4187
   -30.3569 -30.3569 -30.3520 -30.3520 -30.3329 -30.3329 -30.3307 -30.3307
   -30.3281 -30.3281 -30.3256 -30.3256 -30.3067 -30.3067 -30.3017 -30.3017
   -20.1938 -20.1938 -20.1936 -20.1936 -20.1928 -20.1928 -20.1928 -20.1928
   -20.1927 -20.1927 -20.1927 -20.1927 -20.1884 -20.1884 -20.1882 -20.1882
   -20.1810 -20.1810 -20.1806 -20.1806 -20.1803 -20.1803 -20.1799 -20.1799
   -20.1796 -20.1796 -20.1792 -20.1792 -20.1789 -20.1789 -20.1785 -20.1785
   -20.1678 -20.1678 -20.1677 -20.1677 -20.1676 -20.1676 -20.1675 -20.1675
   -20.1425 -20.1425 -20.1423 -20.1423 -20.1412 -20.1412 -20.1411 -20.1411
   -20.1406 -20.1406 -20.1403 -20.1403 -20.1393 -20.1393 -20.1391 -20.1391
    -9.4363  -9.4363  -9.2160  -9.2160  -9.0107  -9.0107  -8.7131  -8.7131
    -8.5627  -8.5627  -8.4951  -8.4951  -8.4286  -8.4286  -8.3959  -8.3959
    -8.0732  -8.0732  -8.0624  -8.0624  -7.7931  -7.7931  -7.7682  -7.7682
     1.5462   1.5462   1.5878   1.5878   2.3490   2.3490   2.3746   2.3746
     2.9496   2.9496   3.0583   3.0583   3.0954   3.0954   3.2674   3.2674
     3.3806   3.3806   3.6346   3.6346   3.7772   3.7772   3.9069   3.9069
     3.9115   3.9115   4.0816   4.0816   4.2406   4.2406   4.4122   4.4122
     4.7497   4.7497   4.9424   4.9424   5.0996   5.0996   5.1644   5.1644
     5.2937   5.2937   5.5341   5.5341   5.9115   5.9115   6.0096   6.0096
     6.4206   6.4206   6.4331   6.4331   6.4778   6.4778   6.6024   6.6024
     7.1921   7.1921   7.3532   7.3532   7.4395   7.4395   7.5923   7.5923
     7.6252   7.6252   7.7297   7.7297   7.7698   7.7698   8.0075   8.0075
    10.9370  10.9370  11.4971  11.4971  11.5866  11.5866  11.6819  11.6819
    11.9168  11.9168  12.3097  12.3097  12.4551  12.4551  12.7011  12.7011
    12.8955  12.8955  13.2517  13.2517  13.2929  13.2929  13.7120  13.7120
    14.6929  14.6929  15.0705  15.0705  16.2624  16.2624  16.7825  16.7825
    17.1507  17.1507  17.4947  17.4947  17.9087

          k = 0.3333 0.1576 0.3333 ( 62247 PWs)   bands (ev):

   -66.0427 -66.0423 -66.0422 -66.0422 -66.0418 -66.0418 -66.0417 -66.0413
   -30.4762 -30.4744 -30.4744 -30.4726 -30.4252 -30.4234 -30.4234 -30.4216
   -30.3590 -30.3577 -30.3556 -30.3553 -30.3537 -30.3529 -30.3505 -30.3504
   -30.3080 -30.3078 -30.3064 -30.3056 -30.3028 -30.3024 -30.3011 -30.3001
   -20.1935 -20.1933 -20.1933 -20.1932 -20.1928 -20.1928 -20.1928 -20.1928
   -20.1927 -20.1927 -20.1927 -20.1926 -20.1888 -20.1886 -20.1886 -20.1885
   -20.1811 -20.1810 -20.1809 -20.1808 -20.1803 -20.1802 -20.1799 -20.1798
   -20.1797 -20.1796 -20.1793 -20.1793 -20.1787 -20.1786 -20.1785 -20.1784
   -20.1679 -20.1678 -20.1677 -20.1677 -20.1676 -20.1676 -20.1675 -20.1674
   -20.1428 -20.1428 -20.1426 -20.1426 -20.1421 -20.1421 -20.1419 -20.1418
   -20.1397 -20.1397 -20.1395 -20.1395 -20.1390 -20.1389 -20.1387 -20.1387
    -9.5285  -9.2908  -9.2903  -9.2026  -9.0715  -8.9198  -8.9186  -8.7129
    -8.6985  -8.6850  -8.6676  -8.6667  -8.1958  -8.1233  -8.1215  -8.1162
    -8.1062  -8.1019  -7.9913  -7.9743  -7.8964  -7.8723  -7.8723  -7.8460
     1.7538   1.7904   1.7906   1.8333   2.2240   2.2316   2.3284   2.3315
     2.3750   2.3763   2.5683   2.6785   3.0233   3.0299   3.0720   3.0986
[...]
    11.0396  11.0396  11.5151  11.5151  11.5974  11.5974  11.7417  11.7417
    11.9667  11.9667  12.3306  12.3306  12.4501  12.4501  12.7025  12.7025
    12.7831  12.7831  13.1347  13.1347  13.1774  13.1774  13.6084  13.6084
    15.0576  15.0576  15.4522  15.4522  16.3492  16.3492  16.7852  16.7852
    17.1513  17.1513  17.4980  17.4981  17.7723

          k = 0.3333 0.3152 0.3333 ( 62227 PWs)   bands (ev):

   -66.0426 -66.0424 -66.0421 -66.0421 -66.0419 -66.0419 -66.0416 -66.0414
   -30.4654 -30.4636 -30.4636 -30.4619 -30.4359 -30.4342 -30.4342 -30.4324
   -30.3586 -30.3578 -30.3554 -30.3552 -30.3538 -30.3532 -30.3507 -30.3507
   -30.3077 -30.3076 -30.3062 -30.3058 -30.3029 -30.3026 -30.3011 -30.3005
   -20.1928 -20.1928 -20.1928 -20.1928 -20.1927 -20.1927 -20.1927 -20.1927
   -20.1925 -20.1923 -20.1923 -20.1922 -20.1898 -20.1897 -20.1896 -20.1895
   -20.1809 -20.1809 -20.1807 -20.1806 -20.1803 -20.1802 -20.1801 -20.1800
   -20.1795 -20.1795 -20.1793 -20.1793 -20.1789 -20.1787 -20.1787 -20.1786
   -20.1679 -20.1679 -20.1677 -20.1677 -20.1676 -20.1676 -20.1675 -20.1674
   -20.1428 -20.1428 -20.1426 -20.1426 -20.1421 -20.1421 -20.1418 -20.1418
   -20.1397 -20.1397 -20.1395 -20.1395 -20.1390 -20.1389 -20.1387 -20.1387
    -9.4255  -9.2423  -9.1587  -9.1580  -8.9532  -8.9519  -8.8698  -8.6963
    -8.6863  -8.6024  -8.5892  -8.5884  -8.3073  -8.1855  -8.1848  -8.1307
    -8.1117  -8.1008  -8.1004  -8.0507  -8.0495  -8.0137  -7.9860  -7.9775
     2.2202   2.2257   2.2430   2.2462   2.3156   2.3258   2.3279   2.4152
     2.5526   2.5563   2.5704   2.7820   3.1898   3.2387   3.2455   3.2936
     3.3068   3.3601   3.6752   3.7233   3.7408   3.8055   4.0952   4.1075
     4.1222   4.1994   4.1996   4.3112   4.3594   4.4038   4.4082   4.5090
     4.5473   4.5708   4.5777   4.6550   4.7664   4.8849   4.9115   4.9336
     4.9546   4.9564   5.1574   5.2815   5.3204   5.3256   5.5841   5.5848
     6.8327   6.8381   6.8426   6.9065   6.9717   7.0266   7.0337   7.0650
     7.1097   7.1912   7.1984   7.2688   7.2712   7.3340   7.3783   7.3784
     7.4654   7.4772   7.6893   7.7393   7.7645   7.7666   7.7780   7.8406
    10.9314  10.9995  11.3277  11.3648  11.3721  11.5367  12.0747  12.0790
    12.1228  12.1420  12.1442  12.2760  12.4144  12.4207  12.6394  12.7168
    12.7841  12.7875  12.8288  13.1162  13.2689  13.3265  13.3274  13.4814
    15.7226  15.9536  15.9558  16.2332  16.3936  16.4131  16.6241  16.8819
    16.8863  16.9346  17.2077  17.2168  17.7075

          k = 0.3333 0.3152-0.5000 ( 62228 PWs)   bands (ev):

   -66.0424 -66.0424 -66.0422 -66.0422 -66.0418 -66.0418 -66.0416 -66.0416
   -30.4646 -30.4646 -30.4628 -30.4628 -30.4352 -30.4351 -30.4334 -30.4334
   -30.3566 -30.3566 -30.3524 -30.3524 -30.3326 -30.3326 -30.3304 -30.3304
   -30.3285 -30.3285 -30.3259 -30.3259 -30.3064 -30.3064 -30.3020 -30.3020
   -20.1928 -20.1928 -20.1928 -20.1928 -20.1927 -20.1927 -20.1927 -20.1927
   -20.1924 -20.1924 -20.1923 -20.1923 -20.1897 -20.1897 -20.1896 -20.1896
   -20.1808 -20.1808 -20.1804 -20.1804 -20.1801 -20.1801 -20.1798 -20.1798
   -20.1797 -20.1797 -20.1794 -20.1794 -20.1791 -20.1791 -20.1787 -20.1787
   -20.1678 -20.1678 -20.1677 -20.1677 -20.1676 -20.1676 -20.1675 -20.1675
   -20.1425 -20.1425 -20.1423 -20.1423 -20.1412 -20.1412 -20.1411 -20.1411
   -20.1406 -20.1406 -20.1403 -20.1403 -20.1393 -20.1393 -20.1391 -20.1391
    -9.2652  -9.2652  -9.0607  -9.0607  -8.9676  -8.9676  -8.6312  -8.6312
    -8.5916  -8.5916  -8.4877  -8.4877  -8.4225  -8.4225  -8.3775  -8.3775
    -8.1382  -8.1382  -8.1148  -8.1147  -8.0627  -8.0627  -8.0251  -8.0251
     2.2616   2.2616   2.3432   2.3432   2.4110   2.4110   2.5414   2.5414
     3.0823   3.0823   3.1360   3.1360   3.2271   3.2271   3.3161   3.3162
     3.4001   3.4001   3.6382   3.6383   3.7507   3.7507   3.8446   3.8446
     4.0819   4.0819   4.1262   4.1262   4.1673   4.1673   4.2782   4.2782
     4.3632   4.3632   4.4963   4.4963   4.6524   4.6524   4.8712   4.8712
     4.9941   4.9941   5.0475   5.0475   5.1175   5.1175   5.3183   5.3183
     6.8717   6.8717   6.9275   6.9275   6.9906   6.9906   7.0556   7.0556
     7.1998   7.1998   7.3226   7.3226   7.4361   7.4361   7.5331   7.5331
     7.5791   7.5791   7.6442   7.6442   7.6700   7.6700   7.7933   7.7933
    11.3102  11.3102  11.5439  11.5439  11.6303  11.6303  11.9098  11.9098
    12.1297  12.1297  12.3640  12.3640  12.4102  12.4102  12.4376  12.4376
    12.7626  12.7626  12.8577  12.8577  12.9504  12.9504  13.3565  13.3565
    15.8982  15.8982  16.3892  16.3892  16.6174  16.6174  16.7614  16.7614
    17.1685  17.1685  17.3626  17.3626  17.6516

          k = 0.3333-0.4728 0.3333 ( 62240 PWs)   bands (ev):

   -66.0425 -66.0425 -66.0420 -66.0420 -66.0420 -66.0420 -66.0415 -66.0415
   -30.4507 -30.4507 -30.4491 -30.4490 -30.4488 -30.4488 -30.4472 -30.4472
   -30.3581 -30.3581 -30.3552 -30.3552 -30.3536 -30.3536 -30.3508 -30.3508
   -30.3075 -30.3075 -30.3060 -30.3060 -30.3028 -30.3028 -30.3009 -30.3009
   -20.1928 -20.1928 -20.1928 -20.1928 -20.1928 -20.1927 -20.1927 -20.1927
   -20.1912 -20.1911 -20.1910 -20.1910 -20.1910 -20.1910 -20.1909 -20.1909
   -20.1807 -20.1807 -20.1806 -20.1806 -20.1804 -20.1803 -20.1801 -20.1801
   -20.1794 -20.1794 -20.1792 -20.1792 -20.1789 -20.1789 -20.1788 -20.1788
   -20.1679 -20.1679 -20.1677 -20.1677 -20.1676 -20.1676 -20.1675 -20.1674
   -20.1428 -20.1428 -20.1426 -20.1426 -20.1421 -20.1421 -20.1419 -20.1418
   -20.1397 -20.1397 -20.1395 -20.1395 -20.1389 -20.1389 -20.1387 -20.1387
    -9.3173  -9.3173  -9.0317  -9.0317  -9.0237  -9.0237  -8.6959  -8.6959
    -8.5749  -8.5749  -8.4153  -8.4153  -8.4124  -8.4124  -8.3970  -8.3970
    -8.0996  -8.0996  -8.0888  -8.0888  -8.0825  -8.0825  -7.9821  -7.9821
     2.2268   2.2268   2.3118   2.3118   2.3194   2.3194   2.5437   2.5437
     3.1671   3.1671   3.2234   3.2234   3.2608   3.2608   3.2809   3.2809
     3.3774   3.3775   3.5733   3.5733   3.6523   3.6523   3.6955   3.6956
     3.8190   3.8190   4.1178   4.1178   4.2474   4.2474   4.4454   4.4454
     4.5546   4.5546   4.6630   4.6631   4.7452   4.7452   4.7930   4.7930
     4.8979   4.8979   5.0181   5.0181   5.0364   5.0364   5.5797   5.5797
     6.9479   6.9479   7.0675   7.0676   7.1051   7.1052   7.1752   7.1752
     7.2588   7.2588   7.2880   7.2880   7.3062   7.3062   7.4308   7.4308
     7.4702   7.4703   7.5348   7.5348   7.5819   7.5819   7.7790   7.7790
    10.9809  10.9809  11.7345  11.7345  11.7773  11.7773  11.8218  11.8218
    11.9199  11.9199  12.1351  12.1351  12.2498  12.2498  12.6652  12.6652
    12.9620  12.9620  13.0009  13.0009  13.0520  13.0520  13.2663  13.2663
    16.3752  16.3753  16.4281  16.4281  16.6174  16.6174  16.6667  16.6667
    17.0000  17.0000  17.4876  17.4876  17.5720

          k = 0.3333-0.4728-0.5000 ( 62176 PWs)   bands (ev):

   -66.0423 -66.0423 -66.0423 -66.0423 -66.0418 -66.0418 -66.0417 -66.0417
   -30.4500 -30.4500 -30.4498 -30.4498 -30.4482 -30.4482 -30.4481 -30.4481
   -30.3565 -30.3565 -30.3525 -30.3525 -30.3325 -30.3325 -30.3303 -30.3303
   -30.3286 -30.3286 -30.3260 -30.3260 -30.3063 -30.3063 -30.3021 -30.3021
   -20.1928 -20.1928 -20.1928 -20.1928 -20.1927 -20.1927 -20.1927 -20.1927
   -20.1911 -20.1911 -20.1911 -20.1911 -20.1910 -20.1910 -20.1909 -20.1909
   -20.1806 -20.1806 -20.1804 -20.1804 -20.1799 -20.1799 -20.1798 -20.1798
   -20.1798 -20.1797 -20.1795 -20.1795 -20.1791 -20.1791 -20.1789 -20.1789
   -20.1678 -20.1678 -20.1677 -20.1677 -20.1676 -20.1676 -20.1675 -20.1675
   -20.1425 -20.1425 -20.1423 -20.1423 -20.1412 -20.1412 -20.1411 -20.1411
   -20.1406 -20.1406 -20.1403 -20.1403 -20.1393 -20.1393 -20.1391 -20.1391
    -9.1430  -9.1430  -9.1374  -9.1374  -8.7513  -8.7513  -8.7443  -8.7443
    -8.5043  -8.5043  -8.4975  -8.4975  -8.3628  -8.3627  -8.3530  -8.3530
    -8.3051  -8.3051  -8.2960  -8.2960  -8.0598  -8.0598  -8.0513  -8.0513
     2.3313   2.3313   2.3396   2.3396   3.0387   3.0387   3.0584   3.0584
     3.1620   3.1620   3.1754   3.1754   3.2953   3.2953   3.3245   3.3245
     3.4161   3.4161   3.4503   3.4503   3.6777   3.6777   3.6963   3.6963
     3.8245   3.8245   3.8741   3.8741   4.2871   4.2872   4.3151   4.3151
     4.3694   4.3695   4.4245   4.4246   4.4937   4.4937   4.6132   4.6132
     4.6846   4.6847   4.8430   4.8430   5.1253   5.1253   5.1391   5.1391
     7.0484   7.0484   7.0855   7.0855   7.2185   7.2186   7.2281   7.2281
     7.2956   7.2956   7.3396   7.3397   7.3616   7.3616   7.4267   7.4267
     7.5139   7.5139   7.5769   7.5769   7.6504   7.6504   7.6702   7.6702
    11.5001  11.5001  11.5345  11.5345  11.8122  11.8122  11.8875  11.8875
    12.2477  12.2477  12.2927  12.2927  12.3879  12.3879  12.4068  12.4068
    12.5681  12.5681  12.6710  12.6710  13.0418  13.0418  13.1204  13.1205
    16.5189  16.5189  16.5722  16.5722  17.0758  17.0758  17.0877  17.0877
    17.3534  17.3535  17.4157  17.4161  17.4494

          k =-0.5000 0.0000-0.5000 ( 62308 PWs)   bands (ev):

   -66.0422 -66.0422 -66.0422 -66.0422 -66.0418 -66.0418 -66.0418 -66.0418
   -30.4785 -30.4785 -30.4785 -30.4785 -30.4197 -30.4196 -30.4196 -30.4196
   -30.3333 -30.3333 -30.3331 -30.3331 -30.3317 -30.3317 -30.3311 -30.3310
   -30.3274 -30.3274 -30.3266 -30.3266 -30.3259 -30.3259 -30.3255 -30.3255
   -20.1937 -20.1937 -20.1937 -20.1937 -20.1928 -20.1928 -20.1928 -20.1928
   -20.1927 -20.1927 -20.1927 -20.1927 -20.1883 -20.1883 -20.1883 -20.1883
   -20.1806 -20.1806 -20.1805 -20.1805 -20.1804 -20.1804 -20.1802 -20.1802
   -20.1793 -20.1793 -20.1791 -20.1791 -20.1790 -20.1790 -20.1789 -20.1789
   -20.1677 -20.1677 -20.1677 -20.1677 -20.1676 -20.1676 -20.1676 -20.1676
   -20.1411 -20.1411 -20.1410 -20.1410 -20.1410 -20.1410 -20.1410 -20.1410
   -20.1406 -20.1406 -20.1406 -20.1406 -20.1406 -20.1406 -20.1406 -20.1405
    -9.3004  -9.3004  -9.2998  -9.2998  -8.7227  -8.7227  -8.7191  -8.7191
    -8.5375  -8.5375  -8.5326  -8.5325  -8.3546  -8.3546  -8.3506  -8.3506
    -8.3329  -8.3329  -8.3277  -8.3276  -7.7811  -7.7811  -7.7811  -7.7811
     1.5669   1.5669   1.5672   1.5672   2.9803   2.9803   2.9824   2.9824
     3.1355   3.1355   3.1380   3.1380   3.1828   3.1828   3.1900   3.1900
     3.3915   3.3915   3.3927   3.3927   3.8251   3.8251   3.8483   3.8483
     3.8770   3.8770   3.9033   3.9033   4.2583   4.2583   4.2607   4.2607
     4.3539   4.3539   4.3592   4.3592   4.9417   4.9417   4.9440   4.9440
     5.3911   5.3911   5.3936   5.3936   5.9963   5.9963   5.9965   5.9965
     6.4044   6.4044   6.4057   6.4057   6.4547   6.4547   6.4580   6.4580
     7.5060   7.5060   7.5087   7.5087   7.5630   7.5630   7.5694   7.5694
     7.6614   7.6615   7.6634   7.6634   7.8482   7.8482   7.8553   7.8553
    11.6056  11.6056  11.6158  11.6158  11.6828  11.6828  11.6907  11.6907
    12.0323  12.0323  12.0356  12.0356  12.2355  12.2355  12.2372  12.2372
    13.1698  13.1698  13.1757  13.1757  13.3379  13.3379  13.3432  13.3432
    14.9253  14.9253  14.9260  14.9260  16.7186  16.7186  16.7260  16.7261
    17.8036  17.8036  17.8048  17.8048  17.9558

          k =-0.5000 0.1576-0.5000 ( 62228 PWs)   bands (ev):

   -66.0422 -66.0422 -66.0422 -66.0422 -66.0418 -66.0418 -66.0418 -66.0418
   -30.4745 -30.4745 -30.4745 -30.4745 -30.4236 -30.4236 -30.4236 -30.4236
   -30.3331 -30.3331 -30.3329 -30.3329 -30.3317 -30.3317 -30.3312 -30.3311
   -30.3274 -30.3274 -30.3267 -30.3267 -30.3261 -30.3260 -30.3257 -30.3257
   -20.1934 -20.1934 -20.1934 -20.1933 -20.1928 -20.1928 -20.1928 -20.1928
   -20.1927 -20.1927 -20.1927 -20.1927 -20.1887 -20.1887 -20.1887 -20.1887
   -20.1805 -20.1805 -20.1804 -20.1804 -20.1803 -20.1803 -20.1801 -20.1801
   -20.1793 -20.1793 -20.1791 -20.1791 -20.1791 -20.1791 -20.1790 -20.1790
   -20.1677 -20.1677 -20.1677 -20.1677 -20.1676 -20.1676 -20.1676 -20.1676
   -20.1411 -20.1410 -20.1410 -20.1410 -20.1410 -20.1410 -20.1410 -20.1410
   -20.1406 -20.1406 -20.1406 -20.1406 -20.1406 -20.1406 -20.1406 -20.1405
    -9.2393  -9.2392  -9.2386  -9.2386  -8.7357  -8.7357  -8.7323  -8.7323
    -8.5240  -8.5240  -8.5190  -8.5190  -8.3539  -8.3539  -8.3501  -8.3501
    -8.3336  -8.3336  -8.3282  -8.3281  -7.8748  -7.8748  -7.8747  -7.8747
     1.7973   1.7973   1.7976   1.7976   2.9987   2.9987   3.0013   3.0014
     3.1495   3.1495   3.1520   3.1520   3.1992   3.1992   3.2073   3.2073
     3.3823   3.3823   3.3837   3.3837   3.8654   3.8654   3.8860   3.8860
     3.9228   3.9228   3.9465   3.9465   4.2450   4.2450   4.2472   4.2472
     4.3549   4.3549   4.3603   4.3603   4.7235   4.7235   4.7255   4.7255
     5.1549   5.1549   5.1566   5.1566   5.7336   5.7336   5.7339   5.7339
     6.5944   6.5944   6.5982   6.5982   6.6378   6.6378   6.6402   6.6402
     7.4925   7.4925   7.4950   7.4950   7.5533   7.5533   7.5601   7.5601
     7.6485   7.6485   7.6494   7.6494   7.8151   7.8151   7.8204   7.8204
    11.6581  11.6581  11.6668  11.6668  11.7426  11.7426  11.7495  11.7495
    12.0372  12.0372  12.0403  12.0403  12.2590  12.2590  12.2605  12.2605
    13.0444  13.0444  13.0498  13.0498  13.2213  13.2213  13.2260  13.2260
    15.3087  15.3087  15.3094  15.3094  16.7844  16.7844  16.7914  16.7914
    17.7090  17.7090  17.7138  17.7138  17.9578

          k =-0.5000 0.3152-0.5000 ( 62224 PWs)   bands (ev):

   -66.0421 -66.0421 -66.0421 -66.0421 -66.0419 -66.0419 -66.0419 -66.0419
   -30.4638 -30.4638 -30.4638 -30.4638 -30.4344 -30.4344 -30.4344 -30.4343
   -30.3326 -30.3326 -30.3325 -30.3325 -30.3318 -30.3318 -30.3315 -30.3315
   -30.3272 -30.3271 -30.3268 -30.3267 -30.3264 -30.3264 -30.3262 -30.3261
   -20.1928 -20.1928 -20.1928 -20.1928 -20.1928 -20.1927 -20.1927 -20.1927
   -20.1924 -20.1924 -20.1923 -20.1923 -20.1897 -20.1897 -20.1897 -20.1897
   -20.1803 -20.1803 -20.1802 -20.1802 -20.1802 -20.1802 -20.1800 -20.1800
   -20.1795 -20.1795 -20.1793 -20.1793 -20.1793 -20.1793 -20.1792 -20.1792
   -20.1677 -20.1677 -20.1677 -20.1677 -20.1676 -20.1676 -20.1676 -20.1676
   -20.1410 -20.1410 -20.1410 -20.1410 -20.1410 -20.1410 -20.1410 -20.1410
   -20.1406 -20.1406 -20.1406 -20.1406 -20.1406 -20.1406 -20.1406 -20.1406
    -9.0792  -9.0792  -9.0782  -9.0782  -8.7840  -8.7840  -8.7811  -8.7811
    -8.4741  -8.4741  -8.4688  -8.4687  -8.3530  -8.3530  -8.3501  -8.3501
    -8.3341  -8.3341  -8.3281  -8.3281  -8.0996  -8.0996  -8.0991  -8.0991
     2.4125   2.4125   2.4128   2.4128   3.0406   3.0406   3.0447   3.0447
     3.1434   3.1434   3.1441   3.1441   3.2819   3.2819   3.2913   3.2913
     3.3461   3.3461   3.3500   3.3500   3.9911   3.9911   4.0174   4.0174
     4.0178   4.0178   4.0348   4.0349   4.1091   4.1091   4.1214   4.1214
     4.3618   4.3618   4.3716   4.3716   4.3914   4.3914   4.3931   4.3931
     4.7496   4.7496   4.7496   4.7496   5.0530   5.0530   5.0539   5.0539
     6.9273   6.9274   6.9329   6.9329   7.0286   7.0286   7.0333   7.0333
     7.4231   7.4231   7.4246   7.4246   7.5122   7.5122   7.5186   7.5186
     7.6289   7.6289   7.6289   7.6289   7.7230   7.7230   7.7260   7.7260
    11.7847  11.7847  11.7881  11.7881  11.8715  11.8715  11.8744  11.8744
    12.0922  12.0922  12.0941  12.0941  12.3531  12.3531  12.3542  12.3542
    12.7310  12.7310  12.7354  12.7354  12.9283  12.9283  12.9314  12.9315
    16.2509  16.2510  16.2515  16.2516  16.9693  16.9693  16.9743  16.9743
    17.4793  17.4793  17.4885  17.4885  17.9454

          k =-0.5000-0.4728-0.5000 ( 62224 PWs)   bands (ev):

   -66.0420 -66.0420 -66.0420 -66.0420 -66.0420 -66.0420 -66.0420 -66.0420
   -30.4492 -30.4492 -30.4491 -30.4491 -30.4491 -30.4491 -30.4490 -30.4490
   -30.3321 -30.3321 -30.3321 -30.3321 -30.3321 -30.3321 -30.3319 -30.3319
   -30.3267 -30.3267 -30.3267 -30.3267 -30.3267 -30.3267 -30.3267 -30.3266
   -20.1928 -20.1928 -20.1928 -20.1928 -20.1928 -20.1928 -20.1927 -20.1927
   -20.1911 -20.1910 -20.1910 -20.1910 -20.1910 -20.1910 -20.1910 -20.1910
   -20.1801 -20.1801 -20.1801 -20.1801 -20.1801 -20.1801 -20.1801 -20.1801
   -20.1794 -20.1794 -20.1794 -20.1794 -20.1794 -20.1794 -20.1794 -20.1794
   -20.1677 -20.1677 -20.1677 -20.1677 -20.1676 -20.1676 -20.1676 -20.1676
   -20.1410 -20.1410 -20.1410 -20.1410 -20.1410 -20.1410 -20.1410 -20.1410
   -20.1406 -20.1406 -20.1406 -20.1406 -20.1406 -20.1406 -20.1406 -20.1406
    -8.9019  -8.9019  -8.8959  -8.8959  -8.8959  -8.8959  -8.8936  -8.8936
    -8.3814  -8.3814  -8.3704  -8.3704  -8.3704  -8.3704  -8.3672  -8.3672
    -8.3063  -8.3063  -8.3063  -8.3063  -8.3038  -8.3038  -8.2970  -8.2970
     3.0367   3.0367   3.0424   3.0424   3.0424   3.0424   3.0505   3.0506
     3.1910   3.1910   3.1980   3.1981   3.1981   3.1981   3.2085   3.2085
     3.4489   3.4489   3.4896   3.4896   3.4897   3.4897   3.5200   3.5200
     4.1899   4.1899   4.1977   4.1977   4.1977   4.1977   4.1993   4.1993
     4.4079   4.4079   4.4079   4.4079   4.4150   4.4151   4.4164   4.4164
     4.4923   4.4923   4.5064   4.5064   4.5064   4.5064   4.5091   4.5092
     7.1797   7.1798   7.2230   7.2230   7.2230   7.2230   7.2732   7.2732
     7.3572   7.3572   7.3643   7.3643   7.3643   7.3643   7.3682   7.3682
     7.6338   7.6338   7.6434   7.6434   7.6434   7.6434   7.6561   7.6561
    11.8831  11.8831  11.8854  11.8854  11.8854  11.8854  11.8896  11.8896
    12.3040  12.3040  12.3415  12.3415  12.3415  12.3415  12.3870  12.3870
    12.5842  12.5842  12.6045  12.6045  12.6045  12.6045  12.6190  12.6190
    17.1565  17.1565  17.1771  17.1772  17.1772  17.1772  17.1967  17.1968
    17.4044  17.4044  17.4044  17.4044  17.4094

     the Fermi energy is     9.7347 ev

!    total energy              =   -6260.74320899 Ry
     Harris-Foulkes estimate   =   -6260.74320900 Ry
     estimated scf accuracy    <          1.2E-09 Ry

     The total energy is the sum of the following terms:

     one-electron contribution =   -4720.46480918 Ry
     hartree contribution      =    2598.63530499 Ry
     xc contribution           =    -966.24476776 Ry
     ewald contribution        =   -3172.66891010 Ry
     smearing contrib. (-TS)   =      -0.00002695 Ry

     convergence has been achieved in  13 iterations

     Writing output data file Landau_5.save
 
     init_run     :     19.16s CPU     20.14s WALL (       1 calls)
     electrons    :    966.31s CPU    981.40s WALL (       1 calls)

     Called by init_run:
     wfcinit      :     17.17s CPU     18.01s WALL (       1 calls)
     potinit      :      0.77s CPU      0.80s WALL (       1 calls)

     Called by electrons:
     c_bands      :    839.29s CPU    852.76s WALL (      13 calls)
     sum_band     :    117.39s CPU    117.97s WALL (      13 calls)
     v_of_rho     :      1.71s CPU      1.75s WALL (      14 calls)
     mix_rho      :      2.58s CPU      3.06s WALL (      13 calls)

     Called by c_bands:
     init_us_2    :      5.54s CPU      6.04s WALL (      27 calls)
     cegterg      :    551.10s CPU    564.37s WALL (      13 calls)

     Called by sum_band:

     Called by *egterg:
     h_psi        :    430.22s CPU    432.10s WALL (      53 calls)
     g_psi        :      1.86s CPU      1.86s WALL (      39 calls)
     cdiaghg      :      6.24s CPU      6.25s WALL (      52 calls)

     Called by h_psi:
     h_psi:pot    :    427.27s CPU    428.98s WALL (      53 calls)
     h_psi:calbec :     52.52s CPU     53.74s WALL (      53 calls)
     vloc_psi     :    319.67s CPU    320.03s WALL (      53 calls)
     add_vuspsi   :     55.08s CPU     55.21s WALL (      53 calls)

     General routines
     calbec       :     52.52s CPU     53.74s WALL (      53 calls)
     fft          :      1.05s CPU      1.07s WALL (      56 calls)
     fftw         :    328.27s CPU    328.41s WALL (   16937 calls)
 
     Parallel routines
 
     PWSCF        : 16m32.60s CPU    16m52.55s WALL

 
   This run was terminated on:  12:53: 1  17Sep2019            

=------------------------------------------------------------------------------=
   JOB DONE.
=------------------------------------------------------------------------------=
