
     Program PWSCF v.6.4.1 starts on 21Nov2019 at 23:27:49 

     This program is part of the open-source Quantum ESPRESSO suite
     for quantum simulation of materials; please cite
         "P. Giannozzi et al., J. Phys.:Condens. Matter 21 395502 (2009);
         "P. Giannozzi et al., J. Phys.:Condens. Matter 29 465901 (2017);
          URL http://www.quantum-espresso.org", 
     in publications or presentations arising from this work. More details at
     http://www.quantum-espresso.org/quote

     Parallel version (MPI), running on    40 processors

     MPI processes distributed on     4 nodes
     K-points division:     npool     =      40
     Reading input from scf.in

     Current dimensions of program PWSCF are:
     Max number of different atomic species (ntypx) = 10
     Max number of k-points (npk) =  40000
     Max angular momentum in pseudopotentials (lmaxx) =  3

     Subspace diagonalization in iterative solution of the eigenvalue problem:
     a serial algorithm will be used

     Message from routine setup:
     using ibrav=0 with symmetry is DISCOURAGED, use correct ibrav instead
 
     G-vector sticks info
     --------------------
     sticks:   dense  smooth     PW     G-vecs:    dense   smooth      PW
     Sum        7757    7757   2083               501653   501653   69581
 


     bravais-lattice index     =            0
     lattice parameter (alat)  =      13.9083  a.u.
     unit-cell volume          =    2823.6409 (a.u.)^3
     number of atoms/cell      =           32
     number of atomic types    =            2
     number of electrons       =       368.10
     number of Kohn-Sham states=          221
     kinetic-energy cutoff     =     120.0000  Ry
     charge density cutoff     =     480.0000  Ry
     convergence threshold     =      1.0E-08
     mixing beta               =       0.7000
     number of iterations used =            8  plain     mixing
     Exchange-correlation      = SLA PW NOGX NOGC ( 1  4  0  0 0 0)

     celldm(1)=  13.908294  celldm(2)=   0.000000  celldm(3)=   0.000000
     celldm(4)=   0.000000  celldm(5)=   0.000000  celldm(6)=   0.000000

     crystal axes: (cart. coord. in units of alat)
               a(1) = (   1.000000   0.000000   0.000000 )  
               a(2) = (   0.000000   1.049416   0.000000 )  
               a(3) = (   0.000000   0.000000   1.000093 )  

     reciprocal axes: (cart. coord. in units 2 pi/alat)
               b(1) = (  1.000000  0.000000  0.000000 )  
               b(2) = (  0.000000  0.952911  0.000000 )  
               b(3) = (  0.000000  0.000000  0.999907 )  


     PseudoPot. # 1 for W  read from file:
     /cluster/scratch/mnoe/QE/pps/W_ONCV_LDA-4.0.upf
     MD5 check sum: ba0307d5d4cd419d6f1d13dc49d7c13a
     Pseudo is Norm-conserving + core correction, Zval = 28.0
     Generated using ONCVPSP code by D. R. Hamann
     Using radial grid of 1380 points,  8 beta functions with: 
                l(1) =   0
                l(2) =   0
                l(3) =   1
                l(4) =   1
                l(5) =   2
                l(6) =   2
                l(7) =   3
                l(8) =   3

     PseudoPot. # 2 for O  read from file:
     /cluster/scratch/mnoe/QE/pps/O_ONCV_LDA-3.0.upf
     MD5 check sum: b55cdb4f45ae2203d24ad12cf8d61a31
     Pseudo is Norm-conserving + core correction, Zval =  6.0
     Generated using ONCVPSP code by D. R. Hamann
     Using radial grid of  926 points,  5 beta functions with: 
                l(1) =   0
                l(2) =   0
                l(3) =   1
                l(4) =   1
                l(5) =   2

     atomic species   valence    mass     pseudopotential
        W             28.00   183.84000     W ( 1.00)
        O              6.00    15.99940     O ( 1.00)

      8 Sym. Ops., with inversion, found ( 6 have fractional translation)



   Cartesian axes

     site n.     atom                  positions (alat units)
         1           W   tau(   1) = (   0.2476900   0.2975703   0.0021802  )
         2           W   tau(   2) = (   0.7523100   0.7518456   0.9979124  )
         3           W   tau(   3) = (   0.2523100   0.2271377   0.5022265  )
         4           W   tau(   4) = (   0.7476900   0.8222781   0.4978661  )
         5           W   tau(   5) = (   0.7523100   0.2975703   0.4978661  )
         6           W   tau(   6) = (   0.2476900   0.7518456   0.5022265  )
         7           W   tau(   7) = (   0.7476900   0.2271377   0.9979124  )
         8           W   tau(   8) = (   0.2523100   0.8222781   0.0021802  )
         9           O   tau(   9) = (   0.2457300   0.0121029   0.0006801  )
        10           O   tau(  10) = (   0.7542700   1.0373129   0.9994126  )
        11           O   tau(  11) = (   0.2542700   0.5126050   0.5007264  )
        12           O   tau(  12) = (   0.7457300   0.5368108   0.4993663  )
        13           O   tau(  13) = (   0.7542700   0.0121029   0.4993663  )
        14           O   tau(  14) = (   0.2457300   1.0373129   0.5007264  )
        15           O   tau(  15) = (   0.7457300   0.5126050   0.9994126  )
        16           O   tau(  16) = (   0.2542700   0.5368108   0.0006801  )
        17           O   tau(  17) = (   0.5006300   0.2577575   0.4583590  )
        18           O   tau(  18) = (   0.4993700   0.7916583   0.5417337  )
        19           O   tau(  19) = (   0.9993700   0.2669504   0.9584053  )
        20           O   tau(  20) = (   0.0006300   0.7824654   0.0416874  )
        21           O   tau(  21) = (   0.4993700   0.2577575   0.0416874  )
        22           O   tau(  22) = (   0.5006300   0.7916583   0.9584053  )
        23           O   tau(  23) = (   0.0006300   0.2669504   0.5417337  )
        24           O   tau(  24) = (   0.9993700   0.7824654   0.4583590  )
        25           O   tau(  25) = (   0.7083165   0.2613465   0.7491094  )
        26           O   tau(  26) = (   0.2916835   0.7880693   0.2509832  )
        27           O   tau(  27) = (   0.7916835   0.2633614   0.2490631  )
        28           O   tau(  28) = (   0.2083165   0.7860544   0.7510296  )
        29           O   tau(  29) = (   0.2916835   0.2613465   0.7510296  )
        30           O   tau(  30) = (   0.7083165   0.7880693   0.2490631  )
        31           O   tau(  31) = (   0.2083165   0.2633614   0.2509832  )
        32           O   tau(  32) = (   0.7916835   0.7860544   0.7491094  )

     number of k points=    64  gaussian smearing, width (Ry)=  0.0007
                       cart. coord. in units 2pi/alat
        k(    1) = (   0.0000000   0.0000000   0.0000000), wk =   0.0092593
        k(    2) = (   0.0000000   0.0000000   0.1666512), wk =   0.0185185
        k(    3) = (   0.0000000   0.0000000   0.3333025), wk =   0.0185185
        k(    4) = (   0.0000000   0.0000000  -0.4999537), wk =   0.0092593
        k(    5) = (   0.0000000   0.1588185   0.0000000), wk =   0.0185185
        k(    6) = (   0.0000000   0.1588185   0.1666512), wk =   0.0370370
        k(    7) = (   0.0000000   0.1588185   0.3333025), wk =   0.0370370
        k(    8) = (   0.0000000   0.1588185  -0.4999537), wk =   0.0185185
        k(    9) = (   0.0000000   0.3176370   0.0000000), wk =   0.0185185
        k(   10) = (   0.0000000   0.3176370   0.1666512), wk =   0.0370370
        k(   11) = (   0.0000000   0.3176370   0.3333025), wk =   0.0370370
        k(   12) = (   0.0000000   0.3176370  -0.4999537), wk =   0.0185185
        k(   13) = (   0.0000000  -0.4764556   0.0000000), wk =   0.0092593
        k(   14) = (   0.0000000  -0.4764556   0.1666512), wk =   0.0185185
        k(   15) = (   0.0000000  -0.4764556   0.3333025), wk =   0.0185185
        k(   16) = (   0.0000000  -0.4764556  -0.4999537), wk =   0.0092593
        k(   17) = (   0.1666667   0.0000000   0.0000000), wk =   0.0185185
        k(   18) = (   0.1666667   0.0000000   0.1666512), wk =   0.0370370
        k(   19) = (   0.1666667   0.0000000   0.3333025), wk =   0.0370370
        k(   20) = (   0.1666667   0.0000000  -0.4999537), wk =   0.0185185
        k(   21) = (   0.1666667   0.1588185   0.0000000), wk =   0.0370370
        k(   22) = (   0.1666667   0.1588185   0.1666512), wk =   0.0740741
        k(   23) = (   0.1666667   0.1588185   0.3333025), wk =   0.0740741
        k(   24) = (   0.1666667   0.1588185  -0.4999537), wk =   0.0370370
        k(   25) = (   0.1666667   0.3176370   0.0000000), wk =   0.0370370
        k(   26) = (   0.1666667   0.3176370   0.1666512), wk =   0.0740741
        k(   27) = (   0.1666667   0.3176370   0.3333025), wk =   0.0740741
        k(   28) = (   0.1666667   0.3176370  -0.4999537), wk =   0.0370370
        k(   29) = (   0.1666667  -0.4764556   0.0000000), wk =   0.0185185
        k(   30) = (   0.1666667  -0.4764556   0.1666512), wk =   0.0370370
        k(   31) = (   0.1666667  -0.4764556   0.3333025), wk =   0.0370370
        k(   32) = (   0.1666667  -0.4764556  -0.4999537), wk =   0.0185185
        k(   33) = (   0.3333333   0.0000000   0.0000000), wk =   0.0185185
        k(   34) = (   0.3333333   0.0000000   0.1666512), wk =   0.0370370
        k(   35) = (   0.3333333   0.0000000   0.3333025), wk =   0.0370370
        k(   36) = (   0.3333333   0.0000000  -0.4999537), wk =   0.0185185
        k(   37) = (   0.3333333   0.1588185   0.0000000), wk =   0.0370370
        k(   38) = (   0.3333333   0.1588185   0.1666512), wk =   0.0740741
        k(   39) = (   0.3333333   0.1588185   0.3333025), wk =   0.0740741
        k(   40) = (   0.3333333   0.1588185  -0.4999537), wk =   0.0370370
        k(   41) = (   0.3333333   0.3176370   0.0000000), wk =   0.0370370
        k(   42) = (   0.3333333   0.3176370   0.1666512), wk =   0.0740741
        k(   43) = (   0.3333333   0.3176370   0.3333025), wk =   0.0740741
        k(   44) = (   0.3333333   0.3176370  -0.4999537), wk =   0.0370370
        k(   45) = (   0.3333333  -0.4764556   0.0000000), wk =   0.0185185
        k(   46) = (   0.3333333  -0.4764556   0.1666512), wk =   0.0370370
        k(   47) = (   0.3333333  -0.4764556   0.3333025), wk =   0.0370370
        k(   48) = (   0.3333333  -0.4764556  -0.4999537), wk =   0.0185185
        k(   49) = (  -0.5000000   0.0000000   0.0000000), wk =   0.0092593
        k(   50) = (  -0.5000000   0.0000000   0.1666512), wk =   0.0185185
        k(   51) = (  -0.5000000   0.0000000   0.3333025), wk =   0.0185185
        k(   52) = (  -0.5000000   0.0000000  -0.4999537), wk =   0.0092593
        k(   53) = (  -0.5000000   0.1588185   0.0000000), wk =   0.0185185
        k(   54) = (  -0.5000000   0.1588185   0.1666512), wk =   0.0370370
        k(   55) = (  -0.5000000   0.1588185   0.3333025), wk =   0.0370370
        k(   56) = (  -0.5000000   0.1588185  -0.4999537), wk =   0.0185185
        k(   57) = (  -0.5000000   0.3176370   0.0000000), wk =   0.0185185
        k(   58) = (  -0.5000000   0.3176370   0.1666512), wk =   0.0370370
        k(   59) = (  -0.5000000   0.3176370   0.3333025), wk =   0.0370370
        k(   60) = (  -0.5000000   0.3176370  -0.4999537), wk =   0.0185185
        k(   61) = (  -0.5000000  -0.4764556   0.0000000), wk =   0.0092593
        k(   62) = (  -0.5000000  -0.4764556   0.1666512), wk =   0.0185185
        k(   63) = (  -0.5000000  -0.4764556   0.3333025), wk =   0.0185185
        k(   64) = (  -0.5000000  -0.4764556  -0.4999537), wk =   0.0092593

     Dense  grid:   501653 G-vectors     FFT dimensions: ( 100, 108, 100)

     Estimated max dynamical RAM per process >       3.15 GB

     Estimated total dynamical RAM >     125.89 GB

     Initial potential from superposition of free atoms

     starting charge  367.99656, renormalised to  368.10000
     Starting wfcs are  232 randomized atomic wfcs

     total cpu time spent up to now is       49.6 secs

     Self-consistent Calculation

     iteration #  1     ecut=   120.00 Ry     beta= 0.70
     Davidson diagonalization with overlap
     ethr =  1.00E-02,  avg # of iterations =  5.0

     total cpu time spent up to now is      224.0 secs

     total energy              =   -6253.86875777 Ry
     Harris-Foulkes estimate   =   -6264.54650157 Ry
     estimated scf accuracy    <      13.50825204 Ry

     iteration #  2     ecut=   120.00 Ry     beta= 0.70
     Davidson diagonalization with overlap
     ethr =  3.67E-03,  avg # of iterations =  3.5

     total cpu time spent up to now is      391.7 secs

     total energy              =   -6250.70971675 Ry
     Harris-Foulkes estimate   =   -6270.77601653 Ry
     estimated scf accuracy    <      53.88863630 Ry

     iteration #  3     ecut=   120.00 Ry     beta= 0.70
     Davidson diagonalization with overlap
     ethr =  3.67E-03,  avg # of iterations =  3.4

     total cpu time spent up to now is      545.8 secs

     total energy              =   -6261.02261379 Ry
     Harris-Foulkes estimate   =   -6261.30454821 Ry
     estimated scf accuracy    <       0.93094423 Ry

     iteration #  4     ecut=   120.00 Ry     beta= 0.70
     Davidson diagonalization with overlap
     ethr =  2.53E-04,  avg # of iterations =  2.9

     total cpu time spent up to now is      671.0 secs

     total energy              =   -6261.01977115 Ry
     Harris-Foulkes estimate   =   -6261.09166438 Ry
     estimated scf accuracy    <       0.22383172 Ry

     iteration #  5     ecut=   120.00 Ry     beta= 0.70
     Davidson diagonalization with overlap
     ethr =  6.08E-05,  avg # of iterations =  5.0

     total cpu time spent up to now is      806.2 secs

     total energy              =   -6261.02371935 Ry
     Harris-Foulkes estimate   =   -6261.05361414 Ry
     estimated scf accuracy    <       0.06759708 Ry

     iteration #  6     ecut=   120.00 Ry     beta= 0.70
     Davidson diagonalization with overlap
     ethr =  1.84E-05,  avg # of iterations =  5.3

     total cpu time spent up to now is      947.3 secs

     total energy              =   -6261.03799349 Ry
     Harris-Foulkes estimate   =   -6261.04062431 Ry
     estimated scf accuracy    <       0.00676984 Ry

     iteration #  7     ecut=   120.00 Ry     beta= 0.70
     Davidson diagonalization with overlap
     ethr =  1.84E-06,  avg # of iterations =  6.1

     total cpu time spent up to now is     1087.2 secs

     total energy              =   -6261.03897336 Ry
     Harris-Foulkes estimate   =   -6261.03902354 Ry
     estimated scf accuracy    <       0.00008953 Ry

     iteration #  8     ecut=   120.00 Ry     beta= 0.70
     Davidson diagonalization with overlap
     ethr =  2.43E-08,  avg # of iterations =  3.5

     total cpu time spent up to now is     1258.8 secs

     total energy              =   -6261.03902144 Ry
     Harris-Foulkes estimate   =   -6261.03902832 Ry
     estimated scf accuracy    <       0.00003703 Ry

     iteration #  9     ecut=   120.00 Ry     beta= 0.70
     Davidson diagonalization with overlap
     ethr =  1.01E-08,  avg # of iterations =  2.0

     total cpu time spent up to now is     1373.0 secs

     total energy              =   -6261.03901649 Ry
     Harris-Foulkes estimate   =   -6261.03902332 Ry
     estimated scf accuracy    <       0.00001955 Ry

     iteration # 10     ecut=   120.00 Ry     beta= 0.70
     Davidson diagonalization with overlap
     ethr =  5.31E-09,  avg # of iterations =  2.0

     total cpu time spent up to now is     1491.1 secs

     total energy              =   -6261.03901867 Ry
     Harris-Foulkes estimate   =   -6261.03901912 Ry
     estimated scf accuracy    <       0.00000103 Ry

     iteration # 11     ecut=   120.00 Ry     beta= 0.70
     Davidson diagonalization with overlap
     ethr =  2.80E-10,  avg # of iterations =  3.0

     total cpu time spent up to now is     1641.8 secs

     total energy              =   -6261.03901893 Ry
     Harris-Foulkes estimate   =   -6261.03901900 Ry
     estimated scf accuracy    <       0.00000024 Ry

     iteration # 12     ecut=   120.00 Ry     beta= 0.70
     Davidson diagonalization with overlap
     ethr =  6.47E-11,  avg # of iterations =  2.1

     total cpu time spent up to now is     1762.0 secs

     total energy              =   -6261.03901890 Ry
     Harris-Foulkes estimate   =   -6261.03901894 Ry
     estimated scf accuracy    <       0.00000008 Ry

     iteration # 13     ecut=   120.00 Ry     beta= 0.70
     Davidson diagonalization with overlap
     ethr =  2.08E-11,  avg # of iterations =  2.6

     total cpu time spent up to now is     1905.6 secs

     End of self-consistent calculation

          k = 0.0000 0.0000 0.0000 ( 62719 PWs)   bands (ev):

   -66.2626 -66.2622 -66.2617 -66.2617 -66.2613 -66.2613 -66.2608 -66.2604
   -30.6537 -30.6506 -30.6505 -30.6475 -30.6066 -30.6057 -30.6039 -30.6024
   -30.6016 -30.6007 -30.5992 -30.5975 -30.5894 -30.5886 -30.5874 -30.5869
   -30.5104 -30.5103 -30.5077 -30.5074 -30.5063 -30.5061 -30.5034 -30.5031
   -20.4219 -20.4218 -20.4218 -20.4218 -20.4217 -20.4217 -20.4217 -20.4216
   -20.4054 -20.4052 -20.4051 -20.4050 -20.3998 -20.3996 -20.3995 -20.3995
   -20.3993 -20.3992 -20.3992 -20.3989 -20.3988 -20.3986 -20.3984 -20.3984
   -20.3980 -20.3978 -20.3976 -20.3976 -20.3973 -20.3970 -20.3969 -20.3966
   -20.3922 -20.3920 -20.3916 -20.3915 -20.3915 -20.3913 -20.3911 -20.3908
   -20.3902 -20.3900 -20.3899 -20.3899 -20.3898 -20.3898 -20.3897 -20.3896
   -20.3840 -20.3839 -20.3835 -20.3834 -20.3834 -20.3833 -20.3829 -20.3828
   -10.0451  -9.7450  -9.6311  -9.6311  -9.3456  -9.3446  -9.2004  -9.1247
    -9.1095  -8.9710  -8.9542  -8.9540  -7.9388  -7.8784  -7.8775  -7.8621
    -7.8607  -7.8359  -7.8355  -7.8259  -7.7466  -7.7461  -7.7243  -7.7242
     1.0670   1.0672   1.1613   1.1625   1.1827   1.1849   1.2293   1.4810
     1.4824   1.4847   1.4877   1.6832   2.3490   2.4323   2.4656   2.4665
     2.5857   2.5872   4.0450   4.0474   4.2576   4.2618   4.6826   4.6835
     4.7181   4.7181   4.7324   4.7394   4.8841   4.8842   4.9778   5.3785
     5.3814   5.4409   5.4541   5.4631   5.4649   5.4789   5.4901   5.7264
     5.7301   5.7876   5.7877   5.8612   5.8868   5.9835   5.9856   6.0322
     6.0333   6.2097   6.2140   6.4525   6.4531   6.6716   6.6754   6.7004
     6.7026   6.7875   6.9676   6.9692   7.0133   7.0145   7.2318   7.2343
     7.2654   7.2675   7.8872   7.8975   8.0243   8.0289   8.0814   8.0861
     9.0752   9.0778   9.8388   9.8400   9.8471   9.8479  12.2122  12.2221
    12.2471  12.2622  12.2779  12.2813  12.4055  12.4087  12.9504  12.9719
    13.1724  13.1882  13.2961  13.3008  13.6337  14.0327  14.0869  14.0871
    14.0988  14.1719  14.2238  14.7616  15.0841  15.0936  15.4150  15.8003
    15.8031  16.6439  16.9445  16.9479  17.3300

          k = 0.0000 0.0000 0.1667 ( 62701 PWs)   bands (ev):

   -66.2626 -66.2621 -66.2618 -66.2617 -66.2614 -66.2613 -66.2609 -66.2605
   -30.6537 -30.6509 -30.6506 -30.6478 -30.6054 -30.6038 -30.6013 -30.6010
   -30.5995 -30.5971 -30.5959 -30.5910 -30.5878 -30.5877 -30.5873 -30.5869
   -30.5167 -30.5140 -30.5125 -30.5100 -30.5097 -30.5071 -30.5063 -30.5035
   -20.4219 -20.4218 -20.4218 -20.4218 -20.4217 -20.4217 -20.4217 -20.4217
   -20.4054 -20.4052 -20.4052 -20.4050 -20.3998 -20.3996 -20.3995 -20.3995
   -20.3993 -20.3992 -20.3992 -20.3989 -20.3987 -20.3986 -20.3985 -20.3983
   -20.3981 -20.3979 -20.3976 -20.3976 -20.3974 -20.3971 -20.3968 -20.3967
   -20.3920 -20.3920 -20.3917 -20.3915 -20.3914 -20.3911 -20.3911 -20.3908
   -20.3903 -20.3901 -20.3900 -20.3899 -20.3896 -20.3895 -20.3893 -20.3892
   -20.3844 -20.3840 -20.3838 -20.3838 -20.3835 -20.3835 -20.3832 -20.3829
   -10.0000  -9.6926  -9.6463  -9.5710  -9.3567  -9.2568  -9.2091  -9.0874
    -9.0689  -8.9584  -8.9577  -8.9237  -7.9823  -7.9694  -7.9417  -7.8820
    -7.8750  -7.8714  -7.8521  -7.8499  -7.8293  -7.8285  -7.7536  -7.7317
     1.1431   1.1567   1.1634   1.1893   1.2954   1.3383   1.4421   1.4753
     1.4797   1.5644   1.6593   1.8067   2.4329   2.4727   2.5212   2.5542
     2.5785   2.6749   3.9951   4.0390   4.2402   4.2613   4.2692   4.3571
     4.5463   4.6323   4.7301   4.7660   4.7760   4.8731   4.9637   5.2143
     5.2955   5.3619   5.4357   5.4523   5.4910   5.4965   5.5163   5.5552
     5.6087   5.6871   5.7289   5.8172   5.8973   5.9885   6.0449   6.0831
     6.2228   6.3743   6.4330   6.4439   6.5351   6.5648   6.6536   6.6965
     6.7446   6.7698   6.8978   6.9087   6.9563   7.0038   7.0164   7.0221
     7.0624   7.1229   7.8735   7.8739   7.9883   8.0404   8.0411   8.0823
     9.4331   9.4589   9.8390   9.8469  10.1206  10.1349  12.1151  12.1568
    12.2316  12.2732  12.3026  12.3266  12.4104  12.5018  12.9014  12.9700
    12.9907  13.1829  13.2261  13.2965  13.7663  13.9390  13.9559  14.0310
    14.0991  14.2195  14.3253  14.8671  15.1402  15.1712  15.3802  15.7786
    16.1419  16.6835  16.8185  17.1299  17.3782

          k = 0.0000 0.0000 0.3333 ( 62664 PWs)   bands (ev):

   -66.2624 -66.2620 -66.2620 -66.2615 -66.2615 -66.2611 -66.2611 -66.2607
   -30.6534 -30.6517 -30.6503 -30.6486 -30.6045 -30.6029 -30.6019 -30.6004
   -30.5930 -30.5920 -30.5887 -30.5882 -30.5784 -30.5782 -30.5746 -30.5737
   -30.5338 -30.5313 -30.5294 -30.5269 -30.5093 -30.5071 -30.5064 -30.5042
   -20.4218 -20.4218 -20.4218 -20.4218 -20.4217 -20.4217 -20.4217 -20.4217
   -20.4054 -20.4052 -20.4052 -20.4051 -20.3998 -20.3996 -20.3996 -20.3994
   -20.3992 -20.3991 -20.3990 -20.3989 -20.3986 -20.3984 -20.3984 -20.3983
   -20.3981 -20.3981 -20.3978 -20.3976 -20.3976 -20.3973 -20.3968 -20.3967
   -20.3920 -20.3918 -20.3917 -20.3912 -20.3912 -20.3911 -20.3909 -20.3906
   -20.3905 -20.3904 -20.3902 -20.3901 -20.3885 -20.3883 -20.3882 -20.3880
   -20.3855 -20.3850 -20.3850 -20.3846 -20.3839 -20.3835 -20.3834 -20.3831
    -9.8915  -9.6935  -9.5728  -9.4307  -9.3940  -9.2394  -9.0148  -9.0039
    -8.9679  -8.9242  -8.8701  -8.8062  -8.2814  -8.2805  -8.2127  -8.1919
    -7.9159  -7.8918  -7.8621  -7.8382  -7.8309  -7.8078  -7.7741  -7.7518
     1.1660   1.1681   1.2008   1.2129   1.4096   1.4246   1.4606   1.4624
     2.1378   2.1652   2.3080   2.3713   2.4928   2.5685   2.6749   2.7810
     2.7912   2.9068   3.6665   3.7610   3.7671   3.8342   4.0677   4.1143
     4.1829   4.3563   4.4781   4.7016   4.7039   4.7302   4.8751   4.9159
     5.0264   5.0642   5.1085   5.2777   5.3754   5.3758   5.5706   5.5734
     5.6453   5.6503   5.7232   5.8758   5.9208   6.0357   6.2098   6.2148
     6.2323   6.2470   6.4007   6.4121   6.4412   6.4685   6.5315   6.6697
     6.6915   6.7097   6.7391   6.8952   6.9511   6.9893   7.0192   7.0410
     7.2337   7.2679   7.7408   7.7728   7.8665   7.8976   8.0698   8.0837
     9.8396   9.8411  10.1735  10.2304  10.7617  10.8294  11.6948  11.7340
    12.0530  12.4115  12.4135  12.4233  12.4468  12.5521  12.5918  12.7636
    12.9090  13.0569  13.1216  13.3032  13.5919  13.6100  13.9629  14.0255
    14.1274  14.2058  14.6985  15.1488  15.2667  15.3396  15.6399  15.7010
    16.1452  17.0453  17.2051  17.3811  17.6967

          k = 0.0000 0.0000-0.5000 ( 62696 PWs)   bands (ev):

   -66.2622 -66.2622 -66.2618 -66.2618 -66.2613 -66.2613 -66.2609 -66.2609
   -30.6527 -30.6527 -30.6496 -30.6496 -30.6032 -30.6032 -30.6017 -30.6017
   -30.5902 -30.5902 -30.5897 -30.5897 -30.5568 -30.5568 -30.5548 -30.5548
   -30.5524 -30.5524 -30.5502 -30.5502 -30.5082 -30.5082 -30.5053 -30.5053
   -20.4218 -20.4218 -20.4218 -20.4217 -20.4217 -20.4217 -20.4217 -20.4217
   -20.4053 -20.4053 -20.4051 -20.4051 -20.3997 -20.3997 -20.3995 -20.3995
   -20.3990 -20.3990 -20.3989 -20.3989 -20.3986 -20.3986 -20.3983 -20.3983
   -20.3981 -20.3981 -20.3978 -20.3978 -20.3975 -20.3975 -20.3968 -20.3968
   -20.3919 -20.3919 -20.3914 -20.3914 -20.3909 -20.3909 -20.3907 -20.3907
   -20.3906 -20.3906 -20.3904 -20.3904 -20.3870 -20.3870 -20.3866 -20.3866
   -20.3866 -20.3866 -20.3863 -20.3863 -20.3837 -20.3837 -20.3832 -20.3832
    -9.7769  -9.7769  -9.4632  -9.4632  -9.3063  -9.3063  -8.9841  -8.9841
    -8.6445  -8.6445  -8.6289  -8.6289  -8.6191  -8.6191  -8.5494  -8.5494
    -7.9048  -7.9048  -7.8503  -7.8503  -7.8024  -7.8024  -7.7796  -7.7796
     1.1687   1.1687   1.2132   1.2132   1.4434   1.4434   1.4451   1.4451
     2.5184   2.5184   2.8564   2.8565   2.9973   2.9973   3.0249   3.0249
     3.1751   3.1751   3.2386   3.2386   3.3069   3.3069   3.6884   3.6885
     3.8115   3.8116   4.2976   4.2976   4.6676   4.6676   4.8430   4.8430
     5.1594   5.1594   5.2047   5.2047   5.2306   5.2306   5.6152   5.6152
     5.6728   5.6728   5.8348   5.8348   6.0484   6.0484   6.1332   6.1332
     6.1911   6.1911   6.3447   6.3447   6.3571   6.3571   6.4499   6.4499
     6.6923   6.6923   6.7236   6.7236   7.0057   7.0057   7.4272   7.4272
     7.4973   7.4973   7.6253   7.6253   7.6380   7.6380   8.0820   8.0820
     9.8405   9.8405  10.9880  10.9880  11.0442  11.0443  11.4934  11.4934
    11.6519  11.6519  12.4465  12.4465  12.6537  12.6537  12.7327  12.7327
    12.8906  12.8906  13.1610  13.1610  13.3524  13.3524  14.0135  14.0135
    14.1779  14.1779  15.0472  15.0472  15.5573  15.5573  15.5938  15.5938
    16.4508  16.4508  17.6770  17.6770  17.9297

          k = 0.0000 0.1588 0.0000 ( 62687 PWs)   bands (ev):

   -66.2626 -66.2622 -66.2617 -66.2617 -66.2613 -66.2613 -66.2608 -66.2605
   -30.6497 -30.6466 -30.6465 -30.6435 -30.6068 -30.6054 -30.6044 -30.6026
   -30.6017 -30.6004 -30.6001 -30.5977 -30.5930 -30.5924 -30.5910 -30.5908
   -30.5103 -30.5101 -30.5079 -30.5076 -30.5061 -30.5059 -30.5036 -30.5033
   -20.4219 -20.4218 -20.4218 -20.4218 -20.4217 -20.4217 -20.4217 -20.4217
   -20.4050 -20.4048 -20.4048 -20.4046 -20.4002 -20.3999 -20.3998 -20.3996
   -20.3996 -20.3992 -20.3992 -20.3989 -20.3988 -20.3986 -20.3985 -20.3984
   -20.3979 -20.3978 -20.3976 -20.3976 -20.3974 -20.3971 -20.3969 -20.3967
   -20.3921 -20.3920 -20.3916 -20.3915 -20.3915 -20.3913 -20.3911 -20.3909
   -20.3902 -20.3900 -20.3899 -20.3899 -20.3898 -20.3898 -20.3897 -20.3896
   -20.3840 -20.3839 -20.3835 -20.3834 -20.3834 -20.3833 -20.3829 -20.3828
   -10.0144  -9.7570  -9.5937  -9.5935  -9.3534  -9.3525  -9.1249  -9.1237
    -9.1105  -8.9247  -8.9149  -8.9148  -8.0363  -7.9812  -7.9805  -7.9360
    -7.8604  -7.8601  -7.8377  -7.8374  -7.7452  -7.7449  -7.7258  -7.7258
     1.0670   1.0671   1.1721   1.1737   1.1827   1.1849   1.3561   1.4841
     1.6626   1.7168   1.7179   1.8730   2.3544   2.4266   2.5376   2.5387
     2.6541   2.6558   3.9018   3.9047   3.9938   3.9973   4.6842   4.6864
     4.7086   4.7117   4.7134   4.8012   4.8202   4.8601   4.8606   5.1779
     5.1799   5.3734   5.3734   5.5316   5.5354   5.5366   5.5809   5.5861
     5.7208   5.7225   5.8150   5.8172   5.9010   5.9788   5.9793   6.0374
     6.0386   6.1866   6.1928   6.4753   6.4772   6.7034   6.7059   6.7449
     6.7481   6.7883   6.8003   6.9249   6.9259   6.9567   7.2374   7.2395
     7.2650   7.2668   7.8904   7.8970   7.9750   7.9786   7.9994   8.0026
     9.0754   9.0779  10.0246  10.0249  10.0524  10.0526  12.1117  12.1164
    12.2350  12.2364  12.2487  12.2515  12.2771  12.2787  12.9543  12.9721
    13.2062  13.2193  13.3090  13.3133  13.9145  13.9801  13.9892  13.9958
    14.0419  14.4408  14.4538  14.9397  15.0844  15.0925  15.7674  15.7699
    15.8204  16.3442  17.0943  17.0977  17.3642

          k = 0.0000 0.1588 0.1667 ( 62674 PWs)   bands (ev):

   -66.2625 -66.2622 -66.2618 -66.2616 -66.2614 -66.2613 -66.2609 -66.2605
   -30.6497 -30.6469 -30.6465 -30.6438 -30.6051 -30.6048 -30.6016 -30.6007
   -30.6005 -30.5981 -30.5961 -30.5914 -30.5912 -30.5912 -30.5909 -30.5895
   -30.5166 -30.5142 -30.5123 -30.5099 -30.5098 -30.5073 -30.5061 -30.5037
   -20.4218 -20.4218 -20.4218 -20.4218 -20.4217 -20.4217 -20.4217 -20.4217
   -20.4050 -20.4048 -20.4048 -20.4046 -20.4002 -20.3999 -20.3999 -20.3996
   -20.3995 -20.3992 -20.3991 -20.3989 -20.3988 -20.3986 -20.3985 -20.3984
   -20.3980 -20.3979 -20.3976 -20.3976 -20.3974 -20.3971 -20.3969 -20.3967
   -20.3920 -20.3920 -20.3916 -20.3915 -20.3914 -20.3911 -20.3911 -20.3908
   -20.3903 -20.3901 -20.3900 -20.3899 -20.3895 -20.3894 -20.3893 -20.3892
   -20.3843 -20.3839 -20.3839 -20.3838 -20.3835 -20.3835 -20.3832 -20.3830
    -9.9682  -9.7046  -9.6087  -9.5291  -9.3647  -9.2647  -9.1337  -9.0855
    -9.0700  -8.9185  -8.9142  -8.8889  -8.0386  -8.0030  -7.9807  -7.9805
    -7.9451  -7.9426  -7.8735  -7.8520  -7.8494  -7.8302  -7.7524  -7.7332
     1.1521   1.1567   1.1768   1.1893   1.4030   1.4419   1.4593   1.6585
     1.6741   1.7123   1.7398   1.9286   2.4396   2.5144   2.5448   2.6281
     2.6477   2.7429   3.8802   3.9132   3.9820   4.0239   4.2888   4.3542
     4.5883   4.6040   4.6935   4.7548   4.7651   4.8207   4.8652   5.1419
     5.1748   5.2111   5.2185   5.3965   5.4734   5.4934   5.5437   5.6063
     5.6423   5.6927   5.7565   5.7609   5.7988   5.9864   6.0713   6.0913
     6.1248   6.3689   6.3920   6.4675   6.5850   6.6655   6.6699   6.7353
     6.7480   6.7775   6.8742   6.8913   6.9186   6.9317   7.0041   7.0124
     7.0758   7.1253   7.8743   7.8748   7.9398   7.9634   7.9787   8.0006
     9.4375   9.4577  10.0279  10.0517  10.2819  10.2938  12.0941  12.1338
    12.1545  12.1932  12.2537  12.2630  12.2873  12.3900  12.9102  12.9929
    13.0062  13.2123  13.2338  13.3076  13.8382  13.8640  13.9597  13.9789
    14.1268  14.4485  14.6196  15.0320  15.1396  15.1733  15.7458  15.7859
    16.1067  16.5037  16.8224  17.2578  17.4300

          k = 0.0000 0.1588 0.3333 ( 62693 PWs)   bands (ev):

   -66.2624 -66.2620 -66.2619 -66.2616 -66.2615 -66.2611 -66.2610 -66.2607
   -30.6494 -30.6477 -30.6463 -30.6446 -30.6042 -30.6038 -30.6017 -30.6014
   -30.5960 -30.5950 -30.5923 -30.5921 -30.5790 -30.5786 -30.5750 -30.5738
   -30.5337 -30.5315 -30.5293 -30.5270 -30.5091 -30.5069 -30.5066 -30.5044
   -20.4218 -20.4218 -20.4218 -20.4218 -20.4217 -20.4217 -20.4217 -20.4217
   -20.4050 -20.4049 -20.4048 -20.4047 -20.4001 -20.4000 -20.3999 -20.3997
   -20.3992 -20.3991 -20.3989 -20.3989 -20.3986 -20.3985 -20.3985 -20.3982
   -20.3982 -20.3981 -20.3978 -20.3976 -20.3975 -20.3973 -20.3969 -20.3967
   -20.3919 -20.3917 -20.3917 -20.3912 -20.3912 -20.3911 -20.3909 -20.3907
   -20.3905 -20.3904 -20.3902 -20.3902 -20.3885 -20.3883 -20.3882 -20.3880
   -20.3855 -20.3850 -20.3850 -20.3846 -20.3838 -20.3835 -20.3834 -20.3831
    -9.8569  -9.6562  -9.5843  -9.4028  -9.3748  -9.1646  -9.0122  -8.9948
    -8.9292  -8.9260  -8.8466  -8.7853  -8.2881  -8.2784  -8.2279  -8.1897
    -8.0091  -7.9892  -7.9636  -7.9390  -7.8301  -7.8094  -7.7730  -7.7534
     1.1850   1.1952   1.2007   1.2128   1.6023   1.6300   1.7087   1.7115
     2.1363   2.1771   2.3089   2.3902   2.5638   2.6325   2.6864   2.7772
     2.8657   2.9663   3.6652   3.7558   3.7567   3.7788   3.9846   3.9894
     4.1284   4.2152   4.4941   4.6457   4.6733   4.7398   4.7413   4.7842
     4.9251   5.0013   5.0122   5.0634   5.2678   5.3216   5.3843   5.5416
     5.6098   5.6701   5.7402   5.7828   5.8440   6.0239   6.0825   6.2095
     6.2612   6.4247   6.4315   6.4414   6.5121   6.5760   6.5952   6.6719
     6.6829   6.7496   6.7919   6.8902   6.9253   6.9416   6.9924   7.0288
     7.2266   7.2622   7.7443   7.7697   7.8266   7.8382   7.9951   8.0028
    10.0281  10.0441  10.1803  10.2341  10.8767  10.9261  11.6961  11.7318
    12.0085  12.2624  12.3863  12.4382  12.4415  12.4722  12.5436  12.6571
    12.8973  13.0640  13.1392  13.3068  13.4938  13.5205  13.9716  13.9770
    14.3185  14.4326  15.0429  15.2939  15.3290  15.6609  15.6701  15.6758
    16.2834  16.9831  17.0025  17.2629  17.6599

          k = 0.0000 0.1588-0.5000 ( 62652 PWs)   bands (ev):

   -66.2622 -66.2622 -66.2618 -66.2618 -66.2613 -66.2613 -66.2609 -66.2609
   -30.6486 -30.6486 -30.6456 -30.6455 -30.6029 -30.6029 -30.6026 -30.6026
   -30.5938 -30.5938 -30.5933 -30.5933 -30.5568 -30.5568 -30.5550 -30.5550
   -30.5523 -30.5523 -30.5504 -30.5504 -30.5080 -30.5080 -30.5055 -30.5055
   -20.4218 -20.4218 -20.4217 -20.4217 -20.4217 -20.4217 -20.4217 -20.4217
   -20.4049 -20.4049 -20.4048 -20.4048 -20.4001 -20.4001 -20.3999 -20.3999
   -20.3990 -20.3990 -20.3989 -20.3989 -20.3985 -20.3985 -20.3983 -20.3983
   -20.3981 -20.3981 -20.3979 -20.3979 -20.3974 -20.3974 -20.3968 -20.3968
   -20.3918 -20.3918 -20.3914 -20.3914 -20.3909 -20.3909 -20.3907 -20.3907
   -20.3905 -20.3905 -20.3904 -20.3904 -20.3870 -20.3870 -20.3866 -20.3866
   -20.3866 -20.3866 -20.3863 -20.3863 -20.3837 -20.3837 -20.3832 -20.3832
    -9.7402  -9.7402  -9.4732  -9.4732  -9.2363  -9.2363  -8.9482  -8.9482
    -8.6485  -8.6485  -8.6382  -8.6381  -8.6136  -8.6136  -8.5425  -8.5425
    -8.0015  -8.0015  -7.9528  -7.9528  -7.8014  -7.8014  -7.7813  -7.7813
     1.1942   1.1942   1.2131   1.2131   1.6284   1.6284   1.7151   1.7152
     2.5871   2.5871   2.8768   2.8768   3.0161   3.0162   3.0398   3.0398
     3.1803   3.1803   3.2339   3.2339   3.2964   3.2964   3.6906   3.6906
     3.8603   3.8604   4.1146   4.1146   4.5780   4.5780   4.6790   4.6790
     4.9663   4.9663   5.1860   5.1860   5.1867   5.1868   5.3990   5.3990
     5.6145   5.6145   5.7637   5.7637   6.0386   6.0386   6.1951   6.1951
     6.2113   6.2113   6.3814   6.3814   6.4356   6.4356   6.5541   6.5541
     6.7166   6.7166   6.7865   6.7865   6.9124   6.9124   7.4391   7.4391
     7.4910   7.4910   7.5956   7.5956   7.6089   7.6089   8.0028   8.0028
    10.0396  10.0396  10.9920  10.9920  11.0423  11.0423  11.5599  11.5599
    11.7150  11.7150  12.3064  12.3064  12.6268  12.6268  12.7433  12.7433
    12.8204  12.8204  13.0641  13.0641  13.3292  13.3292  13.9741  13.9741
    14.3995  14.3995  15.4210  15.4210  15.5329  15.5329  15.7483  15.7483
    16.4977  16.4977  17.4728  17.4728  18.0197

          k = 0.0000 0.3176 0.0000 ( 62699 PWs)   bands (ev):

   -66.2625 -66.2623 -66.2616 -66.2616 -66.2614 -66.2614 -66.2607 -66.2605
   -30.6386 -30.6355 -30.6354 -30.6325 -30.6106 -30.6065 -30.6058 -30.6050
   -30.6048 -30.6031 -30.6022 -30.5999 -30.5997 -30.5989 -30.5983 -30.5964
   -30.5098 -30.5096 -30.5084 -30.5082 -30.5056 -30.5054 -30.5041 -30.5038
   -20.4218 -20.4218 -20.4218 -20.4218 -20.4217 -20.4217 -20.4217 -20.4217
   -20.4040 -20.4038 -20.4037 -20.4036 -20.4011 -20.4009 -20.4009 -20.4007
   -20.3995 -20.3992 -20.3991 -20.3990 -20.3987 -20.3987 -20.3987 -20.3985
   -20.3978 -20.3978 -20.3975 -20.3975 -20.3974 -20.3971 -20.3970 -20.3968
   -20.3921 -20.3920 -20.3915 -20.3914 -20.3914 -20.3914 -20.3912 -20.3910
   -20.3901 -20.3900 -20.3899 -20.3899 -20.3898 -20.3898 -20.3898 -20.3897
   -20.3839 -20.3838 -20.3836 -20.3835 -20.3833 -20.3832 -20.3830 -20.3829
    -9.9395  -9.7940  -9.5086  -9.5082  -9.3790  -9.3782  -9.1209  -9.1133
    -8.9114  -8.7821  -8.7820  -8.7800  -8.2864  -8.2396  -8.2391  -8.2138
    -7.8557  -7.8556  -7.8425  -7.8424  -7.7412  -7.7411  -7.7300  -7.7300
     1.0670   1.0671   1.1795   1.1814   1.1825   1.1846   1.4524   1.4815
     2.2393   2.3693   2.3864   2.3882   2.4110   2.5483   2.7496   2.7521
     2.8540   2.8572   3.5252   3.5290   3.5500   3.5537   4.0407   4.3576
     4.3600   4.6399   4.6908   4.6939   4.7183   4.7216   4.9407   4.9424
     4.9743   4.9762   5.2808   5.2817   5.5145   5.5153   5.5781   5.5795
     5.7748   5.7751   5.8299   5.8308   5.9664   5.9676   6.0147   6.0543
     6.0551   6.1323   6.1406   6.4678   6.5410   6.5432   6.7725   6.7745
     6.8343   6.9236   6.9848   6.9858   6.9896   6.9903   7.2451   7.2461
     7.2676   7.2685   7.7562   7.7578   7.7814   7.7832   7.8940   7.8965
     9.0760   9.0775  10.5095  10.5122  10.5677  10.5692  11.7125  11.7179
    11.8168  11.8193  12.2543  12.2568  12.2738  12.2755  12.9622  12.9714
    13.3145  13.3219  13.3815  13.3856  13.7553  13.7563  13.7730  13.7789
    14.5901  14.9888  14.9916  15.0855  15.0900  15.5513  15.6559  15.6577
    15.7822  16.8278  17.1066  17.5960  17.5992

          k = 0.0000 0.3176 0.1667 ( 62695 PWs)   bands (ev):

   -66.2625 -66.2622 -66.2617 -66.2616 -66.2615 -66.2614 -66.2608 -66.2606
   -30.6386 -30.6358 -30.6355 -30.6328 -30.6104 -30.6069 -30.6065 -30.6044
   -30.6026 -30.6014 -30.6000 -30.5968 -30.5966 -30.5962 -30.5923 -30.5917
   -30.5161 -30.5147 -30.5118 -30.5104 -30.5093 -30.5079 -30.5056 -30.5042
   -20.4218 -20.4218 -20.4218 -20.4218 -20.4217 -20.4217 -20.4217 -20.4217
   -20.4040 -20.4038 -20.4038 -20.4036 -20.4012 -20.4009 -20.4009 -20.4007
   -20.3994 -20.3991 -20.3990 -20.3989 -20.3987 -20.3987 -20.3986 -20.3985
   -20.3979 -20.3978 -20.3976 -20.3976 -20.3974 -20.3971 -20.3970 -20.3968
   -20.3920 -20.3920 -20.3915 -20.3914 -20.3914 -20.3912 -20.3911 -20.3909
   -20.3902 -20.3901 -20.3900 -20.3899 -20.3895 -20.3894 -20.3894 -20.3893
   -20.3842 -20.3840 -20.3839 -20.3837 -20.3836 -20.3835 -20.3832 -20.3831
    -9.8906  -9.7418  -9.5231  -9.4331  -9.3911  -9.2912  -9.0816  -9.0730
    -8.9201  -8.7864  -8.7736  -8.7669  -8.2885  -8.2480  -8.2362  -8.2196
    -7.9761  -7.9623  -7.8694  -7.8576  -7.8468  -7.8348  -7.7486  -7.7374
     1.1555   1.1566   1.1855   1.1890   1.4325   1.4411   1.6162   1.6554
     2.2416   2.3649   2.3881   2.4553   2.4987   2.5362   2.7556   2.8482
     2.8529   2.9514   3.5277   3.5470   3.5661   3.5889   4.0338   4.3049
     4.3117   4.3727   4.3955   4.6424   4.6731   4.7473   4.7746   4.7747
     4.9428   4.9849   5.0809   5.2033   5.3241   5.3619   5.5195   5.5211
     5.5892   5.6359   5.6810   5.7579   5.9377   5.9971   6.0500   6.0821
     6.1818   6.3498   6.3798   6.5255   6.5326   6.7602   6.7810   6.8428
     6.8793   6.8895   6.9488   6.9778   6.9817   6.9928   7.0129   7.0223
     7.1110   7.1415   7.7326   7.7537   7.7583   7.7678   7.8769   7.8797
     9.4450   9.4550  10.5178  10.5677  10.6981  10.7411  11.7174  11.8091
    11.8192  11.8982  12.1374  12.1520  12.3079  12.3333  12.9375  12.9910
    13.1226  13.2844  13.3102  13.3781  13.5977  13.6483  13.7543  13.7706
    14.7196  14.9830  15.1361  15.1831  15.2332  15.6226  15.6352  15.9454
    15.9863  16.7900  17.1770  17.2548  17.5753

          k = 0.0000 0.3176 0.3333 ( 62689 PWs)   bands (ev):

   -66.2623 -66.2621 -66.2619 -66.2616 -66.2614 -66.2612 -66.2610 -66.2608
   -30.6384 -30.6366 -30.6353 -30.6336 -30.6098 -30.6076 -30.6058 -30.6035
   -30.6034 -30.6009 -30.6002 -30.5976 -30.5797 -30.5791 -30.5752 -30.5743
   -30.5333 -30.5320 -30.5288 -30.5275 -30.5085 -30.5071 -30.5064 -30.5050
   -20.4218 -20.4218 -20.4218 -20.4218 -20.4217 -20.4217 -20.4217 -20.4217
   -20.4040 -20.4038 -20.4038 -20.4037 -20.4012 -20.4010 -20.4009 -20.4008
   -20.3991 -20.3990 -20.3988 -20.3987 -20.3986 -20.3986 -20.3986 -20.3984
   -20.3981 -20.3981 -20.3979 -20.3977 -20.3974 -20.3972 -20.3970 -20.3969
   -20.3919 -20.3917 -20.3916 -20.3913 -20.3912 -20.3911 -20.3908 -20.3907
   -20.3905 -20.3904 -20.3902 -20.3902 -20.3885 -20.3883 -20.3882 -20.3880
   -20.3854 -20.3851 -20.3849 -20.3847 -20.3837 -20.3835 -20.3834 -20.3832
    -9.7736  -9.6205  -9.5697  -9.4313  -9.2390  -9.0419  -8.9626  -8.9517
    -8.9315  -8.8004  -8.7423  -8.7030  -8.3495  -8.3402  -8.2718  -8.2378
    -8.2293  -8.1842  -8.1829  -8.1200  -7.8260  -7.8140  -7.7691  -7.7577
     1.1961   1.2004   1.2080   1.2124   2.0558   2.1315   2.1529   2.2570
     2.3054   2.3814   2.3917   2.5976   2.7135   2.7459   2.7724   2.8440
     3.0910   3.1544   3.5069   3.5260   3.5897   3.6377   3.7370   3.7501
     4.0159   4.2031   4.2843   4.3054   4.3783   4.4842   4.5474   4.6721
     4.7087   4.7541   4.8887   4.9617   5.0159   5.0764   5.1087   5.2575
     5.2604   5.4658   5.5675   5.7162   6.0115   6.0541   6.1485   6.2165
     6.3435   6.4920   6.5105   6.5166   6.5871   6.7081   6.7252   6.7279
     6.7942   6.9035   6.9368   6.9571   6.9596   7.0401   7.0806   7.0991
     7.2013   7.2435   7.6524   7.6596   7.7242   7.7648   7.7688   7.8082
    10.1941  10.2110  10.5361  10.5620  11.1906  11.2145  11.6833  11.7246
    11.7256  11.8445  12.1037  12.1377  12.4719  12.5267  12.5545  12.6079
    12.8415  13.0867  13.0931  13.2924  13.3738  13.3956  13.7556  13.7676
    14.8456  14.9565  15.2867  15.5662  15.7552  15.8199  15.8626  16.4666
    16.6572  16.7093  16.8522  17.4176  17.4809

          k = 0.0000 0.3176-0.5000 ( 62672 PWs)   bands (ev):

   -66.2621 -66.2621 -66.2619 -66.2619 -66.2612 -66.2612 -66.2610 -66.2610
   -30.6376 -30.6376 -30.6346 -30.6346 -30.6088 -30.6088 -30.6046 -30.6046
   -30.6022 -30.6022 -30.5989 -30.5989 -30.5566 -30.5566 -30.5555 -30.5555
   -30.5521 -30.5521 -30.5509 -30.5509 -30.5075 -30.5075 -30.5060 -30.5060
   -20.4218 -20.4218 -20.4218 -20.4218 -20.4217 -20.4217 -20.4217 -20.4217
   -20.4039 -20.4039 -20.4037 -20.4037 -20.4011 -20.4011 -20.4009 -20.4009
   -20.3989 -20.3989 -20.3988 -20.3988 -20.3984 -20.3984 -20.3984 -20.3984
   -20.3983 -20.3983 -20.3980 -20.3980 -20.3973 -20.3973 -20.3969 -20.3969
   -20.3918 -20.3918 -20.3915 -20.3915 -20.3909 -20.3909 -20.3908 -20.3908
   -20.3905 -20.3905 -20.3905 -20.3905 -20.3869 -20.3869 -20.3867 -20.3867
   -20.3866 -20.3866 -20.3864 -20.3864 -20.3836 -20.3836 -20.3833 -20.3833
    -9.6536  -9.6536  -9.5055  -9.5055  -9.0454  -9.0454  -8.8382  -8.8382
    -8.6803  -8.6802  -8.6616  -8.6616  -8.5886  -8.5886  -8.5153  -8.5153
    -8.2378  -8.2378  -8.2009  -8.2009  -7.7974  -7.7974  -7.7856  -7.7856
     1.2077   1.2077   1.2127   1.2127   2.2443   2.2443   2.3790   2.3790
     2.7854   2.7854   2.9344   2.9344   2.9879   2.9880   3.1447   3.1447
     3.1968   3.1968   3.2145   3.2145   3.2627   3.2627   3.5240   3.5240
     3.9815   3.9815   4.0194   4.0194   4.0321   4.0322   4.2695   4.2695
     4.7270   4.7270   4.8343   4.8343   5.0175   5.0175   5.1523   5.1523
     5.2867   5.2867   5.6394   5.6394   6.1514   6.1514   6.2003   6.2003
     6.3671   6.3671   6.4352   6.4352   6.4596   6.4596   6.6927   6.6927
     6.9259   6.9259   6.9594   6.9594   7.0217   7.0217   7.4385   7.4385
     7.4702   7.4702   7.4905   7.4905   7.5323   7.5323   7.7750   7.7750
    10.5413  10.5413  11.0019  11.0019  11.0382  11.0382  11.6338  11.6338
    11.9075  11.9075  12.0221  12.0221  12.4886  12.4886  12.5690  12.5690
    12.7645  12.7645  12.8824  12.8824  13.3688  13.3688  13.7617  13.7617
    14.9097  14.9097  15.4479  15.4479  16.2014  16.2014  16.3593  16.3593
    16.6962  16.6962  17.0857  17.0857  17.8576

          k = 0.0000-0.4765 0.0000 ( 62770 PWs)   bands (ev):

   -66.2624 -66.2624 -66.2615 -66.2615 -66.2615 -66.2615 -66.2606 -66.2606
   -30.6237 -30.6237 -30.6206 -30.6206 -30.6203 -30.6202 -30.6174 -30.6173
   -30.6045 -30.6045 -30.6028 -30.6028 -30.5990 -30.5990 -30.5985 -30.5985
   -30.5091 -30.5091 -30.5089 -30.5089 -30.5051 -30.5050 -30.5044 -30.5044
   -20.4218 -20.4218 -20.4218 -20.4217 -20.4217 -20.4217 -20.4217 -20.4217
   -20.4026 -20.4025 -20.4023 -20.4023 -20.4023 -20.4023 -20.4021 -20.4021
   -20.3993 -20.3993 -20.3989 -20.3989 -20.3989 -20.3989 -20.3986 -20.3986
   -20.3977 -20.3976 -20.3976 -20.3976 -20.3972 -20.3972 -20.3970 -20.3970
   -20.3921 -20.3920 -20.3914 -20.3914 -20.3914 -20.3913 -20.3912 -20.3912
   -20.3901 -20.3901 -20.3899 -20.3899 -20.3898 -20.3898 -20.3898 -20.3898
   -20.3838 -20.3838 -20.3837 -20.3837 -20.3832 -20.3832 -20.3830 -20.3830
    -9.8572  -9.8572  -9.4292  -9.4292  -9.4285  -9.4285  -9.1171  -9.1171
    -8.6041  -8.6041  -8.5417  -8.5416  -8.5413  -8.5413  -8.5334  -8.5334
    -7.8497  -7.8497  -7.8485  -7.8485  -7.7356  -7.7356  -7.7356  -7.7356
     1.0670   1.0670   1.1818   1.1819   1.1839   1.1839   1.4745   1.4745
     2.3900   2.3900   3.0655   3.0655   3.0892   3.0892   3.1416   3.1416
     3.1600   3.1600   3.1625   3.1625   3.3474   3.3474   3.3510   3.3510
     3.5492   3.5492   4.7018   4.7018   4.7048   4.7048   5.1179   5.1179
     5.1223   5.1223   5.2315   5.2315   5.2334   5.2335   5.6488   5.6488
     5.6503   5.6503   5.9341   5.9341   5.9355   5.9355   6.0829   6.0829
     6.0884   6.0884   6.2084   6.2084   6.6422   6.6422   6.6443   6.6443
     6.8798   6.8798   7.2407   7.2407   7.2421   7.2421   7.3862   7.3862
     7.3870   7.3871   7.4368   7.4368   7.4373   7.4373   7.8952   7.8952
     9.0768   9.0768  11.1298  11.1298  11.1344  11.1344  11.2089  11.2089
    11.2145  11.2145  12.2670  12.2670  12.2691  12.2691  12.9684  12.9684
    13.5023  13.5024  13.5103  13.5103  13.5443  13.5443  13.5486  13.5486
    15.0874  15.0874  15.1845  15.1845  15.4201  15.4201  15.4215  15.4215
    16.4217  16.4217  17.8148  17.8148  18.0645

          k = 0.0000-0.4765 0.1667 ( 62678 PWs)   bands (ev):

   -66.2624 -66.2623 -66.2616 -66.2616 -66.2615 -66.2615 -66.2607 -66.2607
   -30.6238 -30.6238 -30.6209 -30.6209 -30.6206 -30.6205 -30.6177 -30.6177
   -30.6032 -30.6032 -30.5989 -30.5988 -30.5971 -30.5971 -30.5923 -30.5923
   -30.5154 -30.5154 -30.5111 -30.5111 -30.5086 -30.5086 -30.5049 -30.5049
   -20.4218 -20.4218 -20.4218 -20.4217 -20.4217 -20.4217 -20.4217 -20.4217
   -20.4026 -20.4026 -20.4024 -20.4024 -20.4024 -20.4023 -20.4022 -20.4022
   -20.3992 -20.3992 -20.3988 -20.3988 -20.3988 -20.3988 -20.3986 -20.3986
   -20.3978 -20.3977 -20.3977 -20.3977 -20.3972 -20.3972 -20.3970 -20.3970
   -20.3920 -20.3920 -20.3914 -20.3914 -20.3914 -20.3914 -20.3911 -20.3910
   -20.3902 -20.3902 -20.3900 -20.3900 -20.3894 -20.3894 -20.3894 -20.3893
   -20.3841 -20.3841 -20.3837 -20.3837 -20.3836 -20.3836 -20.3832 -20.3832
    -9.8060  -9.8060  -9.4425  -9.4424  -9.3448  -9.3448  -9.0771  -9.0771
    -8.6110  -8.6110  -8.5475  -8.5475  -8.5350  -8.5350  -8.5321  -8.5321
    -7.9697  -7.9697  -7.8637  -7.8637  -7.8410  -7.8410  -7.7430  -7.7430
     1.1563   1.1563   1.1882   1.1882   1.4390   1.4390   1.6467   1.6467
     2.4774   2.4774   3.0735   3.0736   3.0952   3.0952   3.1388   3.1388
     3.1591   3.1591   3.2004   3.2004   3.3477   3.3477   3.4023   3.4024
     3.5755   3.5755   4.3332   4.3332   4.7590   4.7590   4.8825   4.8825
     5.0302   5.0302   5.1040   5.1040   5.2456   5.2457   5.3906   5.3906
     5.6215   5.6215   5.6459   5.6459   5.9960   5.9960   6.0794   6.0794
     6.3304   6.3304   6.3663   6.3663   6.6335   6.6336   6.8213   6.8213
     6.9242   6.9242   7.0086   7.0086   7.0707   7.0707   7.3734   7.3734
     7.3930   7.3931   7.4118   7.4118   7.4266   7.4266   7.8776   7.8776
     9.4509   9.4509  11.1391  11.1391  11.2071  11.2071  11.2610  11.2610
    11.3333  11.3333  12.1455  12.1455  12.3216  12.3216  12.9725  12.9725
    13.3203  13.3203  13.4174  13.4174  13.5166  13.5166  13.5423  13.5423
    15.1055  15.1055  15.3861  15.3861  15.4053  15.4053  15.7240  15.7240
    16.4896  16.4896  17.7619  17.7619  17.8548

          k = 0.0000-0.4765 0.3333 ( 62652 PWs)   bands (ev):

   -66.2622 -66.2622 -66.2618 -66.2617 -66.2613 -66.2613 -66.2609 -66.2609
   -30.6235 -30.6235 -30.6217 -30.6217 -30.6204 -30.6204 -30.6185 -30.6185
   -30.6023 -30.6023 -30.5998 -30.5998 -30.5796 -30.5796 -30.5749 -30.5749
   -30.5326 -30.5326 -30.5282 -30.5282 -30.5078 -30.5078 -30.5057 -30.5057
   -20.4218 -20.4218 -20.4218 -20.4218 -20.4217 -20.4217 -20.4217 -20.4217
   -20.4026 -20.4026 -20.4024 -20.4024 -20.4024 -20.4024 -20.4022 -20.4022
   -20.3990 -20.3990 -20.3987 -20.3987 -20.3987 -20.3987 -20.3985 -20.3985
   -20.3980 -20.3980 -20.3979 -20.3979 -20.3972 -20.3972 -20.3971 -20.3971
   -20.3918 -20.3918 -20.3915 -20.3915 -20.3912 -20.3912 -20.3908 -20.3908
   -20.3905 -20.3905 -20.3902 -20.3902 -20.3884 -20.3884 -20.3881 -20.3881
   -20.3853 -20.3853 -20.3848 -20.3848 -20.3836 -20.3836 -20.3833 -20.3833
    -9.6851  -9.6851  -9.4860  -9.4860  -9.1108  -9.1108  -8.9417  -8.9417
    -8.6492  -8.6492  -8.5734  -8.5734  -8.5232  -8.5232  -8.5108  -8.5108
    -8.2572  -8.2572  -8.1687  -8.1686  -7.8200  -7.8200  -7.7634  -7.7634
     1.1993   1.1993   1.2113   1.2113   2.1203   2.1203   2.2860   2.2860
     2.7307   2.7307   3.0786   3.0786   3.1101   3.1101   3.1294   3.1294
     3.1492   3.1493   3.2743   3.2743   3.3373   3.3373   3.5530   3.5530
     3.6278   3.6278   3.7368   3.7369   4.4092   4.4092   4.5453   4.5453
     4.7086   4.7086   4.7477   4.7477   5.0500   5.0500   5.1484   5.1484
     5.2828   5.2828   5.5403   5.5403   6.0530   6.0530   6.2083   6.2083
     6.4470   6.4470   6.5392   6.5392   6.6073   6.6073   6.7340   6.7340
     6.9265   6.9265   7.0995   7.0995   7.1226   7.1226   7.3501   7.3501
     7.3766   7.3766   7.4024   7.4024   7.4168   7.4168   7.7739   7.7739
    10.2061  10.2061  11.1533  11.1533  11.1896  11.1896  11.6435  11.6435
    11.6830  11.6830  11.7232  11.7232  12.4922  12.4922  12.7035  12.7035
    12.8392  12.8392  13.1471  13.1471  13.5186  13.5186  13.5385  13.5385
    15.1636  15.1636  15.3514  15.3514  16.0199  16.0199  16.5034  16.5034
    16.7255  16.7255  17.2422  17.2422  17.8429

          k = 0.0000-0.4765-0.5000 ( 62668 PWs)   bands (ev):

   -66.2620 -66.2620 -66.2620 -66.2620 -66.2611 -66.2611 -66.2611 -66.2611
   -30.6227 -30.6227 -30.6227 -30.6227 -30.6195 -30.6195 -30.6195 -30.6195
   -30.6010 -30.6010 -30.6010 -30.6010 -30.5561 -30.5561 -30.5561 -30.5561
   -30.5515 -30.5515 -30.5515 -30.5515 -30.5068 -30.5068 -30.5067 -30.5067
   -20.4218 -20.4218 -20.4218 -20.4218 -20.4217 -20.4217 -20.4217 -20.4217
   -20.4025 -20.4025 -20.4025 -20.4025 -20.4023 -20.4023 -20.4023 -20.4023
   -20.3988 -20.3988 -20.3988 -20.3988 -20.3984 -20.3984 -20.3984 -20.3984
   -20.3982 -20.3982 -20.3982 -20.3982 -20.3971 -20.3971 -20.3971 -20.3971
   -20.3916 -20.3916 -20.3916 -20.3916 -20.3908 -20.3908 -20.3908 -20.3908
   -20.3905 -20.3905 -20.3905 -20.3905 -20.3868 -20.3868 -20.3868 -20.3868
   -20.3865 -20.3865 -20.3865 -20.3865 -20.3835 -20.3835 -20.3835 -20.3835
    -9.5658  -9.5658  -9.5658  -9.5658  -8.8123  -8.8123  -8.8122  -8.8122
    -8.7094  -8.7093  -8.7093  -8.7093  -8.4805  -8.4805  -8.4804  -8.4804
    -8.4279  -8.4278  -8.4278  -8.4278  -7.7916  -7.7916  -7.7916  -7.7916
     1.2114   1.2114   1.2115   1.2115   2.8994   2.8994   2.8994   2.8994
     3.0289   3.0289   3.0289   3.0289   3.1079   3.1079   3.1079   3.1079
     3.1856   3.1856   3.1856   3.1856   3.3251   3.3251   3.3251   3.3251
     3.4809   3.4809   3.4809   3.4809   4.2288   4.2288   4.2288   4.2288
     4.3320   4.3320   4.3320   4.3320   5.1046   5.1046   5.1046   5.1046
     5.3938   5.3939   5.3939   5.3939   6.1934   6.1934   6.1934   6.1934
     6.4294   6.4294   6.4294   6.4294   6.5643   6.5643   6.5643   6.5643
     7.2224   7.2224   7.2224   7.2224   7.2859   7.2859   7.2859   7.2859
     7.3620   7.3620   7.3620   7.3620   7.5404   7.5404   7.5404   7.5404
    11.0010  11.0011  11.0011  11.0011  11.1896  11.1896  11.1896  11.1896
    12.1904  12.1904  12.1904  12.1904  12.2208  12.2208  12.2208  12.2208
    12.7960  12.7960  12.7960  12.7960  13.5285  13.5285  13.5285  13.5285
    15.2636  15.2636  15.2636  15.2636  16.6977  16.6977  16.6977  16.6977
    17.2666  17.2666  17.2666  17.2666  17.3755

          k = 0.1667 0.0000 0.0000 ( 62699 PWs)   bands (ev):

   -66.2626 -66.2621 -66.2618 -66.2617 -66.2614 -66.2613 -66.2609 -66.2605
   -30.6537 -30.6508 -30.6506 -30.6478 -30.6063 -30.6021 -30.6019 -30.6007
   -30.5992 -30.5978 -30.5947 -30.5934 -30.5889 -30.5873 -30.5871 -30.5853
   -30.5166 -30.5138 -30.5123 -30.5102 -30.5096 -30.5074 -30.5064 -30.5037
   -20.4219 -20.4218 -20.4218 -20.4218 -20.4217 -20.4217 -20.4217 -20.4216
   -20.4054 -20.4052 -20.4052 -20.4050 -20.3999 -20.3996 -20.3996 -20.3995
   -20.3993 -20.3992 -20.3991 -20.3988 -20.3988 -20.3985 -20.3984 -20.3984
   -20.3980 -20.3977 -20.3977 -20.3977 -20.3973 -20.3970 -20.3969 -20.3967
   -20.3922 -20.3920 -20.3915 -20.3915 -20.3915 -20.3914 -20.3907 -20.3906
   -20.3903 -20.3901 -20.3899 -20.3898 -20.3897 -20.3895 -20.3894 -20.3892
   -20.3844 -20.3839 -20.3839 -20.3838 -20.3834 -20.3834 -20.3833 -20.3829
   -10.0001  -9.6927  -9.6463  -9.5710  -9.3576  -9.2559  -9.2092  -9.0875
    -9.0688  -8.9583  -8.9579  -8.9235  -7.9849  -7.9671  -7.9398  -7.8823
    -7.8811  -7.8633  -7.8530  -7.8514  -7.8293  -7.8284  -7.7542  -7.7315
     1.1424   1.1555   1.1623   1.1872   1.2952   1.3385   1.4440   1.4740
     1.4797   1.5662   1.6606   1.8075   2.4326   2.4739   2.5208   2.5535
     2.5799   2.6737   3.9938   4.0407   4.2372   4.2596   4.2729   4.3571
     4.5439   4.6304   4.7380   4.7645   4.7761   4.8705   4.9601   5.2169
     5.3016   5.3603   5.4356   5.4509   5.4909   5.4929   5.5202   5.5548
     5.6079   5.6907   5.7265   5.8170   5.9017   5.9859   6.0455   6.0822
     6.2264   6.3747   6.4271   6.4420   6.5393   6.5663   6.6505   6.6942
     6.7348   6.7804   6.8900   6.9156   6.9585   7.0060   7.0169   7.0191
     7.0628   7.1212   7.8736   7.8737   7.9845   8.0369   8.0449   8.0868
     9.4329   9.4603   9.8403   9.8461  10.1207  10.1335  12.1203  12.1573
    12.2227  12.2664  12.3040  12.3342  12.4075  12.5045  12.9067  12.9206
    13.0563  13.1570  13.2297  13.3010  13.7587  13.9398  13.9617  14.0841
    14.0865  14.1664  14.3381  14.8674  15.1402  15.1697  15.3800  15.7759
    16.1442  16.6809  16.8181  17.1335  17.3775

          k = 0.1667 0.0000 0.1667 ( 62666 PWs)   bands (ev):

   -66.2625 -66.2621 -66.2617 -66.2617 -66.2613 -66.2613 -66.2610 -66.2605
   -30.6537 -30.6509 -30.6508 -30.6481 -30.6016 -30.6005 -30.5996 -30.5961
   -30.5957 -30.5947 -30.5936 -30.5913 -30.5876 -30.5874 -30.5858 -30.5856
   -30.5165 -30.5163 -30.5138 -30.5135 -30.5128 -30.5125 -30.5100 -30.5097
   -20.4219 -20.4218 -20.4218 -20.4218 -20.4217 -20.4217 -20.4217 -20.4217
   -20.4054 -20.4052 -20.4052 -20.4050 -20.3999 -20.3996 -20.3996 -20.3995
   -20.3993 -20.3992 -20.3991 -20.3988 -20.3987 -20.3984 -20.3984 -20.3983
   -20.3981 -20.3978 -20.3977 -20.3977 -20.3974 -20.3971 -20.3969 -20.3967
   -20.3921 -20.3920 -20.3916 -20.3915 -20.3914 -20.3913 -20.3905 -20.3905
   -20.3904 -20.3902 -20.3896 -20.3895 -20.3895 -20.3893 -20.3893 -20.3890
   -20.3845 -20.3843 -20.3839 -20.3839 -20.3838 -20.3837 -20.3834 -20.3833
    -9.9529  -9.6350  -9.5862  -9.5862  -9.2690  -9.2681  -9.2183  -9.0489
    -9.0334  -8.9492  -8.9275  -8.9273  -7.9811  -7.9756  -7.9594  -7.9590
    -7.9482  -7.9040  -7.8755  -7.8745  -7.8684  -7.8586  -7.8392  -7.8325
     1.2909   1.3262   1.3273   1.3329   1.3345   1.4468   1.4487   1.4714
     1.5641   1.5660   1.7484   1.8882   2.5155   2.5597   2.5608   2.6131
     2.6535   2.6860   3.9828   3.9987   4.1957   4.1959   4.3796   4.3799
     4.4239   4.4244   4.5692   4.5704   4.5888   4.6633   4.9471   5.1637
     5.2256   5.2404   5.3176   5.4127   5.4175   5.5265   5.5277   5.6008
     5.6009   5.6231   5.6239   5.6785   5.7225   5.9094   6.2522   6.3768
     6.3886   6.4424   6.4696   6.5211   6.5468   6.5492   6.5589   6.5762
     6.5895   6.7455   6.7478   6.7880   6.8207   6.9140   6.9143   7.0150
     7.1529   7.2083   7.8533   7.8572   7.9878   8.0246   8.0380   8.0420
     9.6733   9.7282  10.0907  10.1217  10.1218  10.1868  12.1683  12.1721
    12.1959  12.1961  12.2790  12.3193  12.4918  12.4947  12.9138  12.9278
    12.9650  13.0614  13.0783  13.2891  13.8500  13.9064  13.9352  13.9798
    13.9803  14.3178  14.3307  14.9837  15.2547  15.2660  15.3464  16.1140
    16.1163  16.8430  16.8446  16.9607  17.4243

          k = 0.1667 0.0000 0.3333 ( 62698 PWs)   bands (ev):

   -66.2623 -66.2619 -66.2619 -66.2616 -66.2615 -66.2612 -66.2611 -66.2607
   -30.6534 -30.6517 -30.6506 -30.6489 -30.5999 -30.5996 -30.5950 -30.5943
   -30.5929 -30.5897 -30.5886 -30.5865 -30.5781 -30.5780 -30.5747 -30.5740
   -30.5336 -30.5310 -30.5297 -30.5272 -30.5155 -30.5134 -30.5126 -30.5105
   -20.4218 -20.4218 -20.4218 -20.4218 -20.4217 -20.4217 -20.4217 -20.4217
   -20.4054 -20.4053 -20.4052 -20.4051 -20.3998 -20.3997 -20.3996 -20.3994
   -20.3992 -20.3990 -20.3989 -20.3988 -20.3986 -20.3984 -20.3983 -20.3983
   -20.3981 -20.3980 -20.3978 -20.3976 -20.3976 -20.3973 -20.3969 -20.3968
   -20.3920 -20.3919 -20.3916 -20.3915 -20.3912 -20.3912 -20.3906 -20.3905
   -20.3902 -20.3902 -20.3897 -20.3897 -20.3885 -20.3883 -20.3882 -20.3879
   -20.3855 -20.3850 -20.3850 -20.3846 -20.3843 -20.3839 -20.3838 -20.3835
    -9.8390  -9.6339  -9.5012  -9.4452  -9.3064  -9.2496  -9.0168  -8.9767
    -8.9375  -8.9026  -8.8658  -8.8113  -8.2734  -8.2729  -8.2275  -8.2019
    -7.9554  -7.9418  -7.9171  -7.9007  -7.8768  -7.8704  -7.8653  -7.8414
     1.2995   1.3205   1.4146   1.4532   1.4608   1.4659   1.5275   1.5673
     2.1429   2.1703   2.3000   2.3680   2.5779   2.6465   2.7657   2.7953
     2.8851   2.9209   3.7089   3.7739   3.8160   3.8321   4.0535   4.1520
     4.1547   4.3339   4.4436   4.4733   4.5134   4.6174   4.6671   4.7786
     4.9039   4.9894   5.0398   5.1071   5.2279   5.2962   5.4823   5.5647
     5.6336   5.6377   5.6693   5.7379   5.7403   5.9176   6.0082   6.0570
     6.3202   6.3402   6.3740   6.4664   6.5020   6.5397   6.5450   6.5724
     6.6978   6.7966   6.8045   6.8051   7.0198   7.0599   7.0747   7.1073
     7.2397   7.2925   7.7465   7.7656   7.8757   7.8996   8.0330   8.0402
    10.0917  10.1181  10.3305  10.3738  10.7676  10.8448  11.7529  11.7882
    12.1002  12.3277  12.3438  12.4245  12.4928  12.5051  12.6428  12.7425
    12.8660  12.9594  12.9867  13.1807  13.5714  13.5856  13.9114  13.9338
    14.1350  14.3064  14.6853  15.2369  15.2852  15.5742  15.7538  16.0305
    16.2815  17.0210  17.2826  17.3253  17.4260

          k = 0.1667 0.0000-0.5000 ( 62672 PWs)   bands (ev):

   -66.2621 -66.2621 -66.2617 -66.2617 -66.2613 -66.2613 -66.2609 -66.2609
   -30.6527 -30.6527 -30.6499 -30.6499 -30.5994 -30.5994 -30.5949 -30.5949
   -30.5901 -30.5901 -30.5877 -30.5877 -30.5565 -30.5565 -30.5545 -30.5545
   -30.5527 -30.5527 -30.5505 -30.5505 -30.5145 -30.5145 -30.5116 -30.5116
   -20.4218 -20.4218 -20.4218 -20.4218 -20.4217 -20.4217 -20.4217 -20.4217
   -20.4053 -20.4053 -20.4052 -20.4052 -20.3998 -20.3998 -20.3995 -20.3995
   -20.3990 -20.3990 -20.3988 -20.3988 -20.3986 -20.3986 -20.3982 -20.3982
   -20.3980 -20.3980 -20.3978 -20.3978 -20.3975 -20.3975 -20.3968 -20.3968
   -20.3919 -20.3919 -20.3915 -20.3915 -20.3910 -20.3910 -20.3908 -20.3908
   -20.3901 -20.3901 -20.3898 -20.3898 -20.3870 -20.3870 -20.3867 -20.3867
   -20.3866 -20.3866 -20.3863 -20.3863 -20.3841 -20.3841 -20.3837 -20.3836
    -9.7194  -9.7194  -9.3797  -9.3797  -9.3186  -9.3186  -8.9526  -8.9526
    -8.6525  -8.6525  -8.6375  -8.6375  -8.6020  -8.6020  -8.5522  -8.5522
    -7.9310  -7.9310  -7.9187  -7.9187  -7.8828  -7.8828  -7.8535  -7.8535
     1.3082   1.3082   1.4346   1.4346   1.4736   1.4736   1.5657   1.5657
     2.5985   2.5985   2.8645   2.8645   2.9545   2.9545   3.0684   3.0684
     3.1805   3.1805   3.3256   3.3256   3.3788   3.3789   3.7023   3.7023
     3.8048   3.8048   4.2615   4.2615   4.4500   4.4500   4.8079   4.8079
     4.9310   4.9310   4.9652   4.9652   5.1647   5.1647   5.5700   5.5700
     5.6718   5.6718   5.7107   5.7107   5.7639   5.7639   5.8820   5.8820
     6.2385   6.2385   6.3175   6.3176   6.5348   6.5348   6.6288   6.6288
     6.7263   6.7263   6.8761   6.8761   6.9345   6.9345   7.4695   7.4695
     7.5123   7.5123   7.6321   7.6321   7.6431   7.6431   8.0403   8.0403
    10.1153  10.1153  11.0690  11.0690  11.1240  11.1240  11.5123  11.5123
    11.6609  11.6609  12.5143  12.5143  12.5858  12.5858  12.6192  12.6192
    12.8517  12.8517  13.1370  13.1370  13.2387  13.2387  13.9212  13.9212
    14.2532  14.2532  15.0248  15.0248  15.7324  15.7324  15.8627  15.8627
    16.5680  16.5680  17.6916  17.6931  17.7304

          k = 0.1667 0.1588 0.0000 ( 62672 PWs)   bands (ev):

   -66.2625 -66.2622 -66.2618 -66.2616 -66.2614 -66.2613 -66.2609 -66.2605
   -30.6497 -30.6468 -30.6466 -30.6438 -30.6063 -30.6024 -30.6020 -30.6012
   -30.6006 -30.5980 -30.5947 -30.5946 -30.5928 -30.5914 -30.5896 -30.5877
   -30.5164 -30.5140 -30.5121 -30.5100 -30.5097 -30.5076 -30.5062 -30.5039
   -20.4219 -20.4218 -20.4218 -20.4218 -20.4217 -20.4217 -20.4217 -20.4217
   -20.4050 -20.4048 -20.4048 -20.4046 -20.4002 -20.3999 -20.3999 -20.3996
   -20.3996 -20.3992 -20.3991 -20.3989 -20.3987 -20.3986 -20.3985 -20.3984
   -20.3980 -20.3977 -20.3977 -20.3976 -20.3973 -20.3971 -20.3970 -20.3968
   -20.3922 -20.3920 -20.3915 -20.3915 -20.3915 -20.3914 -20.3907 -20.3907
   -20.3903 -20.3901 -20.3899 -20.3898 -20.3897 -20.3895 -20.3894 -20.3892
   -20.3844 -20.3840 -20.3839 -20.3838 -20.3834 -20.3834 -20.3833 -20.3829
    -9.9682  -9.7047  -9.6089  -9.5290  -9.3656  -9.2639  -9.1337  -9.0856
    -9.0699  -8.9186  -8.9140  -8.8887  -8.0392  -8.0031  -7.9807  -7.9789
    -7.9452  -7.9428  -7.8730  -7.8515  -7.8504  -7.8302  -7.7527  -7.7332
     1.1512   1.1555   1.1753   1.1872   1.4039   1.4434   1.4598   1.6596
     1.6743   1.7114   1.7411   1.9289   2.4394   2.5145   2.5458   2.6271
     2.6494   2.7415   3.8778   3.9149   3.9801   4.0269   4.2880   4.3544
     4.5893   4.5901   4.7260   4.7515   4.7589   4.8078   4.8643   5.1427
     5.1886   5.1980   5.2214   5.3972   5.4736   5.4918   5.5407   5.6111
     5.6392   5.6961   5.7565   5.7600   5.8010   5.9862   6.0771   6.0802
     6.1313   6.3725   6.3846   6.4664   6.5857   6.6601   6.6730   6.7333
     6.7454   6.7812   6.8715   6.8949   6.9171   6.9345   7.0061   7.0142
     7.0746   7.1238   7.8743   7.8747   7.9369   7.9606   7.9823   8.0036
     9.4375   9.4586  10.0276  10.0503  10.2847  10.2918  12.0968  12.1260
    12.1569  12.1962  12.2513  12.2633  12.2866  12.3908  12.9129  12.9461
    13.0668  13.1882  13.2411  13.3118  13.8278  13.8556  13.9869  13.9944
    14.1104  14.4364  14.6234  15.0324  15.1400  15.1715  15.7418  15.7872
    16.1087  16.5032  16.8203  17.2606  17.4302

          k = 0.1667 0.1588 0.1667 ( 62699 PWs)   bands (ev):

   -66.2625 -66.2621 -66.2617 -66.2617 -66.2613 -66.2613 -66.2609 -66.2606
   -30.6497 -30.6469 -30.6468 -30.6441 -30.6028 -30.6011 -30.6006 -30.5963
   -30.5960 -30.5947 -30.5946 -30.5917 -30.5915 -30.5905 -30.5882 -30.5880
   -30.5164 -30.5161 -30.5140 -30.5137 -30.5126 -30.5123 -30.5102 -30.5098
   -20.4218 -20.4218 -20.4218 -20.4218 -20.4217 -20.4217 -20.4217 -20.4217
   -20.4050 -20.4048 -20.4048 -20.4046 -20.4002 -20.4000 -20.3999 -20.3997
   -20.3995 -20.3991 -20.3990 -20.3988 -20.3987 -20.3985 -20.3984 -20.3984
   -20.3980 -20.3978 -20.3977 -20.3976 -20.3974 -20.3972 -20.3970 -20.3968
   -20.3921 -20.3920 -20.3916 -20.3915 -20.3914 -20.3913 -20.3905 -20.3905
   -20.3904 -20.3902 -20.3896 -20.3896 -20.3895 -20.3893 -20.3892 -20.3890
   -20.3844 -20.3843 -20.3840 -20.3839 -20.3838 -20.3838 -20.3834 -20.3833
    -9.9195  -9.6471  -9.5444  -9.5443  -9.2772  -9.2763  -9.1429  -9.0478
    -9.0344  -8.9056  -8.8926  -8.8924  -8.0442  -8.0006  -8.0003  -7.9727
    -7.9712  -7.9555  -7.9382  -7.9374  -7.9001  -7.8693  -7.8595  -7.8411
     1.3272   1.3275   1.4049   1.4059   1.4466   1.4481   1.4822   1.6756
     1.7354   1.7371   1.7480   1.9796   2.5252   2.6059   2.6337   2.6343
     2.7261   2.7488   3.8744   3.9051   3.9998   4.0011   4.3567   4.3586
     4.4249   4.4263   4.5589   4.5982   4.6096   4.6445   4.7164   5.1262
     5.1389   5.1508   5.1612   5.2653   5.2715   5.4830   5.4839   5.5399
     5.6142   5.6172   5.7084   5.7138   5.7163   5.7922   6.2654   6.2846
     6.2898   6.4399   6.4628   6.5368   6.5447   6.5736   6.6228   6.6755
     6.6777   6.7562   6.7734   6.7743   6.8736   6.8866   6.8890   7.0209
     7.1546   7.2089   7.8536   7.8557   7.9281   7.9618   7.9644   7.9664
     9.6862   9.7256  10.2479  10.2895  10.2927  10.3325  12.1526  12.1733
    12.1767  12.1836  12.1849  12.2069  12.3514  12.3535  12.9088  12.9564
    13.0020  13.0666  13.0927  13.2977  13.8136  13.8270  13.8348  13.8944
    14.2309  14.6134  14.6181  15.1351  15.2557  15.2653  15.7528  16.0800
    16.0819  16.6314  16.9594  16.9613  17.4634

          k = 0.1667 0.1588 0.3333 ( 62702 PWs)   bands (ev):

   -66.2623 -66.2619 -66.2619 -66.2615 -66.2615 -66.2612 -66.2611 -66.2607
   -30.6494 -30.6477 -30.6466 -30.6449 -30.6014 -30.6008 -30.5961 -30.5951
   -30.5950 -30.5926 -30.5914 -30.5888 -30.5787 -30.5783 -30.5752 -30.5742
   -30.5334 -30.5312 -30.5296 -30.5273 -30.5153 -30.5132 -30.5128 -30.5107
   -20.4218 -20.4218 -20.4218 -20.4218 -20.4217 -20.4217 -20.4217 -20.4217
   -20.4050 -20.4049 -20.4048 -20.4047 -20.4002 -20.4000 -20.4000 -20.3998
   -20.3992 -20.3990 -20.3989 -20.3988 -20.3986 -20.3984 -20.3983 -20.3983
   -20.3982 -20.3980 -20.3978 -20.3976 -20.3976 -20.3973 -20.3969 -20.3968
   -20.3919 -20.3919 -20.3916 -20.3915 -20.3912 -20.3912 -20.3906 -20.3905
   -20.3902 -20.3902 -20.3897 -20.3897 -20.3885 -20.3882 -20.3882 -20.3879
   -20.3855 -20.3850 -20.3850 -20.3847 -20.3842 -20.3839 -20.3838 -20.3835
    -9.8020  -9.5925  -9.5130  -9.3898  -9.3154  -9.1751  -9.0255  -8.9584
    -8.9044  -8.9025  -8.8430  -8.7900  -8.2801  -8.2708  -8.2436  -8.1996
    -8.0084  -7.9970  -7.9705  -7.9505  -7.9462  -7.9218  -7.8945  -7.8726
     1.4108   1.4187   1.4604   1.4656   1.6200   1.6300   1.7064   1.7337
     2.1415   2.1820   2.3004   2.3853   2.6502   2.7116   2.7872   2.8688
     2.8812   2.9726   3.7019   3.7519   3.7834   3.8238   3.9720   4.0428
     4.1319   4.2205   4.4606   4.4939   4.5524   4.5900   4.6296   4.6682
     4.7827   4.8282   4.8575   5.0518   5.1088   5.1485   5.2267   5.5249
     5.5356   5.5715   5.6374   5.6903   5.7459   5.7687   6.0091   6.0566
     6.2546   6.4183   6.4409   6.5291   6.5840   6.5940   6.6271   6.6556
     6.7419   6.7997   6.8203   6.8557   7.0102   7.0538   7.0659   7.1174
     7.2320   7.2866   7.7450   7.7617   7.8281   7.8399   7.9634   7.9657
    10.2209  10.2834  10.3505  10.3956  10.8818  10.9399  11.7535  11.7854
    12.0673  12.3091  12.3401  12.3487  12.4142  12.4714  12.5783  12.6203
    12.8630  12.9708  12.9872  13.1882  13.4644  13.4886  13.8276  13.8486
    14.4466  14.5977  15.0327  15.4063  15.5677  15.6488  15.7676  15.9991
    16.3978  16.9815  17.0437  17.3410  17.3794

          k = 0.1667 0.1588-0.5000 ( 62678 PWs)   bands (ev):

   -66.2621 -66.2621 -66.2617 -66.2617 -66.2613 -66.2613 -66.2610 -66.2610
   -30.6486 -30.6486 -30.6458 -30.6458 -30.6009 -30.6009 -30.5952 -30.5952
   -30.5940 -30.5940 -30.5900 -30.5900 -30.5565 -30.5565 -30.5547 -30.5547
   -30.5526 -30.5526 -30.5507 -30.5507 -30.5143 -30.5143 -30.5118 -30.5118
   -20.4218 -20.4218 -20.4218 -20.4218 -20.4217 -20.4217 -20.4217 -20.4217
   -20.4050 -20.4050 -20.4048 -20.4048 -20.4001 -20.4001 -20.3999 -20.3999
   -20.3989 -20.3989 -20.3988 -20.3988 -20.3986 -20.3986 -20.3982 -20.3982
   -20.3981 -20.3981 -20.3979 -20.3979 -20.3975 -20.3975 -20.3969 -20.3969
   -20.3919 -20.3919 -20.3915 -20.3915 -20.3910 -20.3910 -20.3908 -20.3908
   -20.3901 -20.3901 -20.3898 -20.3898 -20.3870 -20.3870 -20.3866 -20.3866
   -20.3866 -20.3866 -20.3863 -20.3863 -20.3841 -20.3841 -20.3837 -20.3837
    -9.6793  -9.6793  -9.3901  -9.3900  -9.2489  -9.2489  -8.9198  -8.9198
    -8.6599  -8.6599  -8.6403  -8.6403  -8.5994  -8.5993  -8.5457  -8.5456
    -8.0033  -8.0033  -7.9616  -7.9616  -7.9227  -7.9227  -7.8977  -7.8977
     1.4173   1.4173   1.4732   1.4732   1.6382   1.6382   1.7314   1.7314
     2.6671   2.6671   2.8858   2.8859   2.9765   2.9765   3.0760   3.0760
     3.1802   3.1802   3.3276   3.3276   3.3722   3.3722   3.7063   3.7063
     3.8536   3.8536   4.1158   4.1158   4.4778   4.4778   4.5888   4.5889
     4.8432   4.8432   4.9041   4.9041   4.9895   4.9895   5.3545   5.3545
     5.6024   5.6024   5.6515   5.6515   5.7551   5.7551   5.7701   5.7701
     6.3657   6.3657   6.5100   6.5100   6.5316   6.5316   6.6709   6.6709
     6.7951   6.7951   6.8354   6.8354   6.9623   6.9623   7.4685   7.4685
     7.5061   7.5061   7.6019   7.6019   7.6128   7.6128   7.9667   7.9667
    10.2792  10.2792  11.0730  11.0730  11.1233  11.1233  11.5798  11.5798
    11.7240  11.7240  12.3733  12.3733  12.5673  12.5673  12.6152  12.6152
    12.8253  12.8253  13.0313  13.0313  13.1842  13.1842  13.8344  13.8344
    14.5526  14.5526  15.4041  15.4041  15.8358  15.8358  15.8666  15.8666
    16.6040  16.6040  17.4937  17.4938  17.7604

          k = 0.1667 0.3176 0.0000 ( 62697 PWs)   bands (ev):

   -66.2625 -66.2622 -66.2617 -66.2616 -66.2615 -66.2614 -66.2608 -66.2606
   -30.6386 -30.6357 -30.6356 -30.6328 -30.6102 -30.6069 -30.6062 -30.6039
   -30.6030 -30.6025 -30.5992 -30.5986 -30.5970 -30.5954 -30.5923 -30.5906
   -30.5159 -30.5145 -30.5116 -30.5102 -30.5095 -30.5081 -30.5057 -30.5044
   -20.4218 -20.4218 -20.4218 -20.4217 -20.4217 -20.4217 -20.4217 -20.4217
   -20.4040 -20.4038 -20.4038 -20.4036 -20.4012 -20.4009 -20.4009 -20.4007
   -20.3995 -20.3991 -20.3991 -20.3989 -20.3987 -20.3986 -20.3986 -20.3984
   -20.3978 -20.3977 -20.3976 -20.3975 -20.3975 -20.3972 -20.3971 -20.3969
   -20.3922 -20.3921 -20.3915 -20.3914 -20.3914 -20.3914 -20.3908 -20.3907
   -20.3902 -20.3902 -20.3899 -20.3898 -20.3897 -20.3896 -20.3894 -20.3893
   -20.3843 -20.3841 -20.3838 -20.3837 -20.3835 -20.3835 -20.3833 -20.3830
    -9.8907  -9.7419  -9.5235  -9.4328  -9.3919  -9.2904  -9.0816  -9.0729
    -8.9201  -8.7863  -8.7736  -8.7669  -8.2885  -8.2476  -8.2366  -8.2196
    -7.9757  -7.9620  -7.8694  -7.8573  -7.8471  -7.8348  -7.7486  -7.7374
     1.1544   1.1554   1.1837   1.1870   1.4340   1.4428   1.6172   1.6566
     2.2416   2.3648   2.3881   2.4553   2.4986   2.5354   2.7582   2.8469
     2.8553   2.9486   3.5231   3.5425   3.5724   3.5919   4.0340   4.3024
     4.3126   4.3737   4.3981   4.6410   4.6724   4.7432   4.7747   4.7761
     4.9438   4.9826   5.0825   5.2053   5.3237   5.3630   5.5186   5.5212
     5.5899   5.6360   5.6807   5.7579   5.9393   5.9971   6.0486   6.0848
     6.1817   6.3430   6.3804   6.5231   6.5365   6.7621   6.7786   6.8418
     6.8801   6.8889   6.9510   6.9706   6.9828   7.0014   7.0159   7.0196
     7.1107   7.1400   7.7309   7.7522   7.7599   7.7701   7.8770   7.8797
     9.4451   9.4554  10.5150  10.5650  10.7018  10.7416  11.7121  11.8093
    11.8219  11.9003  12.1387  12.1532  12.3057  12.3321  12.9376  12.9800
    13.1405  13.2710  13.3174  13.3820  13.5976  13.6428  13.7555  13.7764
    14.7200  14.9808  15.1326  15.1807  15.2370  15.6220  15.6338  15.9448
    15.9874  16.7900  17.1757  17.2549  17.7043

          k = 0.1667 0.3176 0.1667 ( 62681 PWs)   bands (ev):

   -66.2624 -66.2622 -66.2616 -66.2616 -66.2614 -66.2614 -66.2609 -66.2607
   -30.6387 -30.6359 -30.6358 -30.6331 -30.6101 -30.6072 -30.6068 -30.6028
   -30.5974 -30.5971 -30.5961 -30.5952 -30.5934 -30.5920 -30.5915 -30.5909
   -30.5158 -30.5156 -30.5145 -30.5142 -30.5121 -30.5119 -30.5106 -30.5104
   -20.4218 -20.4218 -20.4218 -20.4218 -20.4217 -20.4217 -20.4217 -20.4217
   -20.4040 -20.4038 -20.4038 -20.4036 -20.4012 -20.4010 -20.4010 -20.4007
   -20.3993 -20.3990 -20.3990 -20.3988 -20.3986 -20.3986 -20.3985 -20.3984
   -20.3979 -20.3978 -20.3977 -20.3975 -20.3975 -20.3972 -20.3971 -20.3969
   -20.3921 -20.3920 -20.3915 -20.3915 -20.3914 -20.3914 -20.3905 -20.3905
   -20.3903 -20.3902 -20.3896 -20.3896 -20.3895 -20.3894 -20.3892 -20.3891
   -20.3843 -20.3842 -20.3841 -20.3839 -20.3838 -20.3837 -20.3835 -20.3834
    -9.8385  -9.6848  -9.4483  -9.4480  -9.3043  -9.3035  -9.0450  -9.0374
    -8.9292  -8.7710  -8.7709  -8.7675  -8.2925  -8.2448  -8.2444  -8.2246
    -7.9686  -7.9684  -7.9545  -7.9544  -7.8962  -7.8821  -7.8559  -7.8451
     1.3272   1.3274   1.4369   1.4383   1.4458   1.4475   1.6928   1.7439
     2.2434   2.3655   2.3670   2.5130   2.5449   2.5983   2.8555   2.8578
     2.9400   2.9500   3.5569   3.5617   3.5695   3.6090   4.0278   4.3324
     4.3345   4.3730   4.3748   4.4500   4.4536   4.6340   4.6451   4.7321
     4.7783   4.7806   5.0341   5.0601   5.2678   5.2967   5.3272   5.3280
     5.5456   5.5705   5.6220   5.6229   5.6970   5.6977   6.3160   6.3236
     6.3559   6.4310   6.4465   6.5306   6.5792   6.6295   6.7673   6.7709
     6.8406   6.8425   6.8992   6.9166   6.9835   6.9998   7.0012   7.0449
     7.1751   7.2187   7.7267   7.7345   7.7349   7.7600   7.8582   7.8651
     9.7036   9.7207  10.6732  10.7286  10.7417  10.7496  11.7879  11.8336
    11.8955  11.8970  12.1860  12.1872  12.2179  12.2187  12.9250  12.9886
    13.1209  13.1356  13.1682  13.3458  13.5828  13.5920  13.5959  13.6875
    14.8851  15.2181  15.2260  15.2623  15.2658  15.6910  15.9623  15.9641
    16.0705  16.7543  17.2387  17.3314  17.3319

          k = 0.1667 0.3176 0.3333 ( 62668 PWs)   bands (ev):

   -66.2622 -66.2620 -66.2618 -66.2616 -66.2615 -66.2613 -66.2610 -66.2608
   -30.6384 -30.6367 -30.6356 -30.6339 -30.6096 -30.6078 -30.6060 -30.6037
   -30.5962 -30.5949 -30.5936 -30.5918 -30.5794 -30.5788 -30.5755 -30.5746
   -30.5330 -30.5317 -30.5292 -30.5278 -30.5148 -30.5134 -30.5127 -30.5112
   -20.4218 -20.4218 -20.4218 -20.4218 -20.4217 -20.4217 -20.4217 -20.4217
   -20.4040 -20.4039 -20.4038 -20.4037 -20.4012 -20.4010 -20.4010 -20.4008
   -20.3991 -20.3989 -20.3988 -20.3987 -20.3986 -20.3985 -20.3984 -20.3984
   -20.3981 -20.3980 -20.3979 -20.3978 -20.3975 -20.3973 -20.3971 -20.3970
   -20.3919 -20.3919 -20.3916 -20.3915 -20.3912 -20.3912 -20.3906 -20.3905
   -20.3902 -20.3902 -20.3897 -20.3897 -20.3885 -20.3883 -20.3882 -20.3880
   -20.3854 -20.3851 -20.3849 -20.3847 -20.3842 -20.3839 -20.3838 -20.3836
    -9.7129  -9.5506  -9.4960  -9.3449  -9.2547  -9.0560  -8.9652  -8.9307
    -8.9080  -8.7839  -8.7381  -8.7071  -8.3635  -8.3336  -8.2648  -8.2374
    -8.2349  -8.1923  -8.1809  -8.1247  -7.9472  -7.9341  -7.8912  -7.8794
     1.4495   1.4571   1.4596   1.4649   2.0599   2.1365   2.1449   2.2547
     2.2971   2.3679   2.3872   2.5719   2.8049   2.8613   2.8733   2.9393
     3.0912   3.1531   3.5342   3.5459   3.5963   3.6261   3.7990   3.8623
     4.0116   4.2069   4.2823   4.3065   4.3683   4.4810   4.5070   4.5467
     4.5911   4.6884   4.7221   4.7723   4.8239   4.8531   5.0452   5.0615
     5.2211   5.2316   5.3597   5.5207   5.6510   5.7072   6.0394   6.0572
     6.4393   6.5483   6.5524   6.6738   6.7212   6.7413   6.8430   6.8599
     6.8874   6.9359   6.9533   6.9805   7.0248   7.0710   7.1034   7.1708
     7.2109   7.2663   7.6477   7.6559   7.7110   7.7414   7.7646   7.7985
    10.3240  10.3525  10.7228  10.7369  11.1981  11.2264  11.7474  11.7641
    11.8063  11.9474  12.1065  12.1260  12.3511  12.4329  12.5653  12.6158
    12.8211  12.9794  13.0506  13.2366  13.2461  13.2758  13.5948  13.6318
    15.0732  15.2015  15.5389  15.8139  15.8312  15.8867  15.9219  16.5275
    16.6284  16.7405  16.8720  17.4516  17.5394

          k = 0.1667 0.3176-0.5000 ( 62674 PWs)   bands (ev):

   -66.2620 -66.2620 -66.2618 -66.2618 -66.2612 -66.2612 -66.2610 -66.2610
   -30.6377 -30.6377 -30.6349 -30.6349 -30.6087 -30.6087 -30.6049 -30.6049
   -30.5952 -30.5952 -30.5930 -30.5930 -30.5563 -30.5563 -30.5552 -30.5552
   -30.5524 -30.5524 -30.5512 -30.5512 -30.5138 -30.5138 -30.5123 -30.5123
   -20.4218 -20.4218 -20.4218 -20.4218 -20.4217 -20.4217 -20.4217 -20.4217
   -20.4039 -20.4039 -20.4038 -20.4038 -20.4011 -20.4011 -20.4009 -20.4009
   -20.3988 -20.3988 -20.3987 -20.3987 -20.3984 -20.3984 -20.3983 -20.3983
   -20.3982 -20.3982 -20.3980 -20.3980 -20.3974 -20.3974 -20.3970 -20.3970
   -20.3918 -20.3918 -20.3916 -20.3916 -20.3909 -20.3909 -20.3909 -20.3909
   -20.3900 -20.3900 -20.3899 -20.3899 -20.3869 -20.3869 -20.3867 -20.3867
   -20.3866 -20.3866 -20.3864 -20.3864 -20.3840 -20.3840 -20.3838 -20.3838
    -9.5842  -9.5842  -9.4238  -9.4238  -9.0595  -9.0594  -8.8178  -8.8177
    -8.6970  -8.6970  -8.6518  -8.6518  -8.5803  -8.5803  -8.5190  -8.5190
    -8.2356  -8.2356  -8.2061  -8.2061  -7.9193  -7.9193  -7.9068  -7.9068
     1.4619   1.4619   1.4723   1.4723   2.2465   2.2465   2.3599   2.3599
     2.8585   2.8585   2.9517   2.9517   2.9865   2.9865   3.1311   3.1311
     3.1764   3.1764   3.3246   3.3246   3.3552   3.3552   3.5660   3.5660
     3.9852   3.9852   4.0195   4.0195   4.0247   4.0247   4.2779   4.2779
     4.6428   4.6428   4.7150   4.7150   4.8972   4.8972   4.9185   4.9185
     5.0132   5.0132   5.4296   5.4296   5.7568   5.7568   5.7729   5.7729
     6.5792   6.5792   6.7026   6.7026   6.7405   6.7405   6.7708   6.7708
     6.9109   6.9109   6.9646   6.9646   7.0907   7.0907   7.4405   7.4405
     7.4762   7.4762   7.5069   7.5069   7.5439   7.5439   7.7546   7.7546
    10.7091  10.7091  11.0824  11.0824  11.1250  11.1250  11.6946  11.6946
    11.9161  11.9161  12.0582  12.0582  12.4663  12.4663  12.5346  12.5346
    12.6978  12.6978  12.8198  12.8198  13.1959  13.1959  13.6082  13.6082
    15.1541  15.1541  15.7558  15.7558  16.2665  16.2665  16.3518  16.3518
    16.7605  16.7605  17.1296  17.1296  17.7450

          k = 0.1667-0.4765 0.0000 ( 62682 PWs)   bands (ev):

   -66.2624 -66.2623 -66.2616 -66.2616 -66.2615 -66.2615 -66.2607 -66.2607
   -30.6237 -30.6237 -30.6208 -30.6208 -30.6206 -30.6205 -30.6177 -30.6176
   -30.6037 -30.6037 -30.5993 -30.5993 -30.5967 -30.5967 -30.5920 -30.5920
   -30.5152 -30.5152 -30.5109 -30.5109 -30.5088 -30.5088 -30.5051 -30.5051
   -20.4218 -20.4218 -20.4218 -20.4218 -20.4217 -20.4217 -20.4217 -20.4217
   -20.4026 -20.4026 -20.4024 -20.4024 -20.4024 -20.4023 -20.4022 -20.4022
   -20.3993 -20.3993 -20.3989 -20.3989 -20.3988 -20.3987 -20.3985 -20.3985
   -20.3977 -20.3977 -20.3976 -20.3976 -20.3973 -20.3973 -20.3970 -20.3970
   -20.3921 -20.3921 -20.3915 -20.3915 -20.3914 -20.3914 -20.3908 -20.3908
   -20.3902 -20.3902 -20.3899 -20.3898 -20.3896 -20.3896 -20.3893 -20.3893
   -20.3842 -20.3842 -20.3836 -20.3836 -20.3836 -20.3836 -20.3831 -20.3831
    -9.8061  -9.8061  -9.4431  -9.4431  -9.3442  -9.3442  -9.0771  -9.0771
    -8.6111  -8.6111  -8.5474  -8.5474  -8.5353  -8.5353  -8.5319  -8.5319
    -7.9694  -7.9694  -7.8637  -7.8637  -7.8410  -7.8410  -7.7431  -7.7431
     1.1551   1.1551   1.1862   1.1862   1.4406   1.4406   1.6478   1.6478
     2.4773   2.4773   3.0693   3.0693   3.0969   3.0969   3.1416   3.1416
     3.1594   3.1594   3.2007   3.2007   3.3457   3.3457   3.4041   3.4041
     3.5752   3.5752   4.3343   4.3343   4.7515   4.7516   4.8885   4.8885
     5.0304   5.0304   5.1037   5.1037   5.2455   5.2455   5.3916   5.3916
     5.6210   5.6210   5.6458   5.6458   5.9961   5.9961   6.0804   6.0804
     6.3314   6.3314   6.3627   6.3627   6.6351   6.6351   6.8205   6.8205
     6.9247   6.9247   7.0103   7.0103   7.0695   7.0695   7.3728   7.3728
     7.3934   7.3934   7.4113   7.4113   7.4279   7.4279   7.8777   7.8777
     9.4511   9.4511  11.1348  11.1348  11.2021  11.2021  11.2660  11.2660
    11.3368  11.3368  12.1469  12.1470  12.3197  12.3197  12.9706  12.9706
    13.3214  13.3214  13.4246  13.4246  13.5086  13.5086  13.5463  13.5463
    15.1069  15.1069  15.3842  15.3842  15.4034  15.4034  15.7244  15.7244
    16.4895  16.4895  17.7615  17.7616  18.0280

          k = 0.1667-0.4765 0.1667 ( 62690 PWs)   bands (ev):

   -66.2623 -66.2623 -66.2615 -66.2615 -66.2615 -66.2615 -66.2608 -66.2607
   -30.6239 -30.6238 -30.6211 -30.6211 -30.6209 -30.6208 -30.6180 -30.6180
   -30.5974 -30.5974 -30.5961 -30.5961 -30.5928 -30.5928 -30.5920 -30.5920
   -30.5152 -30.5152 -30.5149 -30.5149 -30.5116 -30.5116 -30.5109 -30.5109
   -20.4218 -20.4218 -20.4218 -20.4217 -20.4217 -20.4217 -20.4217 -20.4217
   -20.4026 -20.4026 -20.4024 -20.4024 -20.4024 -20.4024 -20.4022 -20.4022
   -20.3992 -20.3992 -20.3988 -20.3988 -20.3987 -20.3987 -20.3985 -20.3985
   -20.3978 -20.3977 -20.3977 -20.3977 -20.3973 -20.3973 -20.3971 -20.3971
   -20.3920 -20.3920 -20.3914 -20.3914 -20.3914 -20.3914 -20.3905 -20.3905
   -20.3903 -20.3903 -20.3896 -20.3896 -20.3895 -20.3895 -20.3892 -20.3891
   -20.3842 -20.3842 -20.3840 -20.3840 -20.3837 -20.3837 -20.3835 -20.3835
    -9.7507  -9.7507  -9.3591  -9.3589  -9.3585  -9.3584  -9.0412  -9.0412
    -8.6192  -8.6192  -8.5412  -8.5409  -8.5408  -8.5406  -8.5300  -8.5300
    -7.9627  -7.9624  -7.9615  -7.9613  -7.8899  -7.8898  -7.8505  -7.8505
     1.3272   1.3273   1.4433   1.4438   1.4451   1.4455   1.7331   1.7332
     2.5668   2.5669   3.0777   3.0796   3.0981   3.1035   3.1383   3.1392
     3.1618   3.1623   3.2394   3.2416   3.3972   3.3995   3.4014   3.4047
     3.5954   3.5957   4.3787   4.3808   4.4200   4.4224   4.8430   4.8452
     4.9120   4.9130   5.0165   5.0187   5.0576   5.0597   5.3423   5.3428
[...]
    11.8587  11.8587  11.8587  11.8587  12.0419  12.0419  12.0419  12.0420
    12.8994  12.8994  12.8994  12.8994  13.0616  13.0616  13.0616  13.0616
    15.1902  15.1902  15.1902  15.1902  16.6512  16.6512  16.6512  16.6512
    17.5695  17.5695  17.5695  17.5695  17.7671

          k =-0.5000 0.3176 0.0000 ( 62668 PWs)   bands (ev):

   -66.2621 -66.2621 -66.2619 -66.2619 -66.2612 -66.2612 -66.2610 -66.2610
   -30.6375 -30.6375 -30.6346 -30.6346 -30.6082 -30.6082 -30.6046 -30.6046
   -30.6014 -30.6014 -30.6008 -30.6008 -30.5565 -30.5565 -30.5552 -30.5552
   -30.5519 -30.5519 -30.5506 -30.5506 -30.5076 -30.5076 -30.5063 -30.5062
   -20.4218 -20.4218 -20.4218 -20.4218 -20.4217 -20.4217 -20.4217 -20.4217
   -20.4039 -20.4039 -20.4037 -20.4037 -20.4011 -20.4011 -20.4009 -20.4009
   -20.3993 -20.3993 -20.3989 -20.3989 -20.3982 -20.3982 -20.3980 -20.3980
   -20.3979 -20.3979 -20.3978 -20.3978 -20.3973 -20.3973 -20.3973 -20.3973
   -20.3919 -20.3919 -20.3919 -20.3919 -20.3909 -20.3909 -20.3908 -20.3908
   -20.3902 -20.3902 -20.3901 -20.3901 -20.3871 -20.3871 -20.3869 -20.3869
   -20.3865 -20.3865 -20.3864 -20.3864 -20.3835 -20.3835 -20.3833 -20.3833
    -9.6539  -9.6539  -9.5062  -9.5062  -9.0455  -9.0455  -8.8385  -8.8385
    -8.6795  -8.6795  -8.6614  -8.6614  -8.5880  -8.5880  -8.5150  -8.5150
    -8.2374  -8.2374  -8.2009  -8.2009  -7.7975  -7.7975  -7.7858  -7.7858
     1.2059   1.2059   1.2107   1.2107   2.2438   2.2438   2.3787   2.3787
     2.7888   2.7888   2.9318   2.9318   2.9865   2.9865   3.1488   3.1488
     3.1804   3.1804   3.2385   3.2385   3.2549   3.2549   3.5231   3.5231
     3.9800   3.9800   4.0065   4.0065   4.0476   4.0476   4.2723   4.2724
     4.7262   4.7262   4.8305   4.8305   5.0175   5.0175   5.1535   5.1535
     5.2870   5.2870   5.6397   5.6397   6.1517   6.1517   6.1998   6.1998
     6.3680   6.3680   6.4382   6.4382   6.4574   6.4574   6.6938   6.6938
     6.9241   6.9241   6.9596   6.9596   7.0206   7.0206   7.4376   7.4376
     7.4655   7.4655   7.4968   7.4968   7.5333   7.5333   7.7761   7.7761
    10.5398  10.5398  11.0027  11.0027  11.0374  11.0374  11.6262  11.6262
    11.9077  11.9077  12.0234  12.0234  12.4888  12.4888  12.5734  12.5734
    12.7641  12.7641  12.8853  12.8853  13.3706  13.3706  13.7665  13.7665
    14.9077  14.9077  15.4455  15.4455  16.2013  16.2013  16.3584  16.3584
    16.6916  16.6916  17.0857  17.0857  17.8559

          k =-0.5000 0.3176 0.1667 ( 62674 PWs)   bands (ev):

   -66.2620 -66.2620 -66.2618 -66.2618 -66.2612 -66.2612 -66.2610 -66.2610
   -30.6376 -30.6376 -30.6349 -30.6349 -30.6084 -30.6084 -30.6049 -30.6049
   -30.5948 -30.5948 -30.5942 -30.5942 -30.5562 -30.5562 -30.5549 -30.5549
   -30.5522 -30.5522 -30.5509 -30.5509 -30.5139 -30.5139 -30.5125 -30.5125
   -20.4218 -20.4218 -20.4218 -20.4218 -20.4217 -20.4217 -20.4217 -20.4217
   -20.4039 -20.4039 -20.4038 -20.4038 -20.4012 -20.4012 -20.4009 -20.4009
   -20.3992 -20.3992 -20.3988 -20.3988 -20.3982 -20.3982 -20.3981 -20.3981
   -20.3980 -20.3980 -20.3978 -20.3978 -20.3974 -20.3974 -20.3974 -20.3974
   -20.3919 -20.3919 -20.3918 -20.3918 -20.3910 -20.3910 -20.3909 -20.3909
   -20.3898 -20.3898 -20.3897 -20.3897 -20.3870 -20.3870 -20.3869 -20.3869
   -20.3866 -20.3866 -20.3864 -20.3864 -20.3840 -20.3840 -20.3837 -20.3837
    -9.5845  -9.5845  -9.4244  -9.4244  -9.0596  -9.0596  -8.8181  -8.8181
    -8.6964  -8.6964  -8.6514  -8.6514  -8.5798  -8.5798  -8.5187  -8.5187
    -8.2353  -8.2353  -8.2061  -8.2061  -7.9195  -7.9195  -7.9070  -7.9070
     1.4603   1.4603   1.4705   1.4706   2.2462   2.2462   2.3599   2.3599
     2.8615   2.8615   2.9504   2.9505   2.9842   2.9842   3.1320   3.1320
     3.1767   3.1767   3.3286   3.3286   3.3537   3.3537   3.5651   3.5651
     3.9831   3.9831   4.0045   4.0045   4.0432   4.0432   4.2802   4.2802
     4.6418   4.6418   4.7126   4.7126   4.8967   4.8967   4.9196   4.9196
     5.0137   5.0137   5.4298   5.4298   5.7563   5.7563   5.7728   5.7728
     6.5798   6.5798   6.7044   6.7044   6.7415   6.7415   6.7712   6.7712
     6.9088   6.9088   6.9646   6.9646   7.0897   7.0897   7.4396   7.4396
     7.4732   7.4732   7.5110   7.5110   7.5446   7.5446   7.7554   7.7554
    10.7085  10.7085  11.0827  11.0827  11.1239  11.1239  11.6875  11.6875
    11.9164  11.9164  12.0595  12.0595  12.4661  12.4661  12.5391  12.5391
    12.6985  12.6985  12.8225  12.8225  13.1963  13.1963  13.6108  13.6108
    15.1537  15.1537  15.7540  15.7540  16.2662  16.2662  16.3514  16.3514
    16.7564  16.7564  17.1297  17.1297  17.7432

          k =-0.5000 0.3176 0.3333 ( 62684 PWs)   bands (ev):

   -66.2619 -66.2618 -66.2616 -66.2616 -66.2614 -66.2614 -66.2612 -66.2612
   -30.6374 -30.6374 -30.6357 -30.6357 -30.6079 -30.6079 -30.6057 -30.6057
   -30.5777 -30.5777 -30.5768 -30.5768 -30.5554 -30.5554 -30.5541 -30.5541
   -30.5530 -30.5530 -30.5518 -30.5518 -30.5310 -30.5310 -30.5297 -30.5297
   -20.4218 -20.4218 -20.4217 -20.4217 -20.4217 -20.4217 -20.4217 -20.4217
   -20.4039 -20.4039 -20.4038 -20.4038 -20.4012 -20.4012 -20.4010 -20.4010
   -20.3989 -20.3989 -20.3986 -20.3986 -20.3983 -20.3983 -20.3981 -20.3981
   -20.3980 -20.3980 -20.3977 -20.3977 -20.3975 -20.3975 -20.3975 -20.3975
   -20.3917 -20.3917 -20.3917 -20.3917 -20.3912 -20.3912 -20.3911 -20.3911
   -20.3887 -20.3887 -20.3885 -20.3885 -20.3870 -20.3870 -20.3869 -20.3869
   -20.3866 -20.3866 -20.3864 -20.3864 -20.3851 -20.3851 -20.3848 -20.3848
    -9.4073  -9.4073  -9.2004  -9.2004  -9.1089  -9.1089  -8.7663  -8.7663
    -8.7295  -8.7295  -8.6171  -8.6171  -8.5612  -8.5611  -8.5277  -8.5277
    -8.2703  -8.2703  -8.2232  -8.2232  -8.2102  -8.2102  -8.1543  -8.1543
     2.0873   2.0873   2.1600   2.1600   2.2540   2.2540   2.3727   2.3727
     2.9268   2.9268   2.9806   2.9806   3.0576   3.0576   3.1232   3.1232
     3.2040   3.2040   3.4958   3.4958   3.6089   3.6089   3.6800   3.6800
     3.9712   3.9712   4.0066   4.0066   4.0409   4.0409   4.1643   4.1643
     4.2350   4.2350   4.3716   4.3716   4.5228   4.5228   4.7587   4.7587
     4.8543   4.8543   4.9092   4.9092   4.9427   4.9427   5.1979   5.1979
     6.7721   6.7721   6.8214   6.8214   6.8733   6.8733   6.9353   6.9353
     7.0860   7.0860   7.1705   7.1705   7.3060   7.3060   7.4241   7.4241
     7.4604   7.4604   7.5426   7.5426   7.5603   7.5603   7.6977   7.6977
    11.1388  11.1388  11.3360  11.3360  11.4208  11.4208  11.7789  11.7789
    11.9493  11.9493  12.2076  12.2076  12.2532  12.2532  12.2879  12.2879
    12.6085  12.6085  12.6931  12.6931  12.7709  12.7709  13.2038  13.2038
    15.7358  15.7358  16.2801  16.2801  16.4920  16.4920  16.5797  16.5797
    17.0039  17.0039  17.2122  17.2122  17.4671

          k =-0.5000 0.3176-0.5000 ( 62696 PWs)   bands (ev):

   -66.2616 -66.2616 -66.2616 -66.2616 -66.2614 -66.2614 -66.2614 -66.2614
   -30.6366 -30.6366 -30.6366 -30.6366 -30.6068 -30.6068 -30.6068 -30.6068
   -30.5558 -30.5558 -30.5558 -30.5558 -30.5545 -30.5545 -30.5545 -30.5545
   -30.5528 -30.5528 -30.5527 -30.5527 -30.5517 -30.5517 -30.5517 -30.5517
   -20.4218 -20.4218 -20.4218 -20.4218 -20.4217 -20.4217 -20.4217 -20.4217
   -20.4039 -20.4039 -20.4039 -20.4039 -20.4011 -20.4011 -20.4011 -20.4011
   -20.3986 -20.3986 -20.3986 -20.3986 -20.3983 -20.3983 -20.3983 -20.3983
   -20.3979 -20.3979 -20.3979 -20.3979 -20.3976 -20.3976 -20.3976 -20.3976
   -20.3915 -20.3915 -20.3915 -20.3915 -20.3914 -20.3914 -20.3914 -20.3914
   -20.3874 -20.3874 -20.3874 -20.3874 -20.3872 -20.3872 -20.3872 -20.3872
   -20.3863 -20.3863 -20.3863 -20.3863 -20.3861 -20.3861 -20.3861 -20.3861
    -9.2203  -9.2203  -9.2203  -9.2202  -8.9230  -8.9230  -8.9230  -8.9230
    -8.5917  -8.5917  -8.5917  -8.5917  -8.5026  -8.5026  -8.5026  -8.5026
    -8.4859  -8.4859  -8.4859  -8.4859  -8.2071  -8.2071  -8.2071  -8.2071
     2.2584   2.2584   2.2584   2.2584   2.8712   2.8713   2.8713   2.8713
     2.9682   2.9682   2.9682   2.9682   3.1013   3.1013   3.1013   3.1014
     3.1608   3.1608   3.1608   3.1608   3.8920   3.8920   3.8920   3.8920
     3.9235   3.9235   3.9235   3.9235   3.9928   3.9928   3.9928   3.9928
     4.1971   4.1971   4.1971   4.1971   4.2288   4.2288   4.2288   4.2288
     4.6363   4.6363   4.6363   4.6363   4.9441   4.9441   4.9441   4.9441
     6.8333   6.8333   6.8333   6.8333   6.9066   6.9066   6.9066   6.9066
     7.3252   7.3252   7.3252   7.3252   7.3795   7.3795   7.3795   7.3795
     7.4980   7.4980   7.4980   7.4980   7.6167   7.6167   7.6167   7.6167
    11.6379  11.6379  11.6379  11.6379  11.6842  11.6842  11.6842  11.6842
    11.9320  11.9320  11.9320  11.9320  12.1487  12.1487  12.1487  12.1487
    12.5804  12.5804  12.5804  12.5804  12.7595  12.7595  12.7595  12.7595
    16.1364  16.1364  16.1364  16.1364  16.8425  16.8425  16.8425  16.8425
    17.3425  17.3425  17.3425  17.3425  17.7635

          k =-0.5000-0.4765 0.0000 ( 62668 PWs)   bands (ev):

   -66.2620 -66.2620 -66.2620 -66.2620 -66.2611 -66.2611 -66.2611 -66.2611
   -30.6225 -30.6225 -30.6223 -30.6223 -30.6197 -30.6197 -30.6195 -30.6195
   -30.6015 -30.6015 -30.6015 -30.6015 -30.5560 -30.5560 -30.5558 -30.5558
   -30.5514 -30.5514 -30.5512 -30.5512 -30.5069 -30.5069 -30.5069 -30.5069
   -20.4218 -20.4218 -20.4218 -20.4218 -20.4217 -20.4217 -20.4217 -20.4217
   -20.4025 -20.4025 -20.4025 -20.4025 -20.4023 -20.4023 -20.4023 -20.4023
   -20.3991 -20.3991 -20.3991 -20.3991 -20.3981 -20.3981 -20.3980 -20.3980
   -20.3979 -20.3979 -20.3979 -20.3979 -20.3974 -20.3974 -20.3974 -20.3974
   -20.3919 -20.3919 -20.3919 -20.3919 -20.3909 -20.3909 -20.3908 -20.3908
   -20.3902 -20.3902 -20.3902 -20.3902 -20.3870 -20.3870 -20.3870 -20.3870
   -20.3865 -20.3865 -20.3865 -20.3865 -20.3834 -20.3834 -20.3834 -20.3834
    -9.5670  -9.5670  -9.5657  -9.5657  -8.8156  -8.8155  -8.8088  -8.8088
    -8.7117  -8.7117  -8.7065  -8.7065  -8.4854  -8.4853  -8.4748  -8.4748
    -8.4327  -8.4327  -8.4226  -8.4226  -7.7917  -7.7917  -7.7916  -7.7916
     1.2089   1.2089   1.2102   1.2102   2.8838   2.8838   2.9139   2.9139
     3.0287   3.0287   3.0425   3.0425   3.0875   3.0875   3.0972   3.0972
     3.1994   3.1994   3.2027   3.2027   3.3031   3.3031   3.3398   3.3398
     3.4391   3.4391   3.5237   3.5237   4.2195   4.2195   4.2367   4.2367
     4.3168   4.3168   4.3444   4.3444   5.0996   5.0996   5.1100   5.1100
     5.3872   5.3872   5.4005   5.4005   6.1914   6.1914   6.1943   6.1943
     6.4303   6.4303   6.4318   6.4318   6.5577   6.5577   6.5713   6.5713
     7.2134   7.2134   7.2282   7.2282   7.2579   7.2579   7.3141   7.3141
     7.3469   7.3469   7.3811   7.3811   7.5397   7.5397   7.5407   7.5407
    11.0007  11.0007  11.0072  11.0072  11.1783  11.1783  11.1867  11.1867
    12.1692  12.1692  12.2044  12.2044  12.2135  12.2135  12.2403  12.2403
    12.7964  12.7964  12.7979  12.7979  13.5275  13.5275  13.5353  13.5353
    15.2613  15.2613  15.2635  15.2635  16.6826  16.6826  16.7103  16.7104
    17.2526  17.2526  17.2755  17.2756  17.3659

          k =-0.5000-0.4765 0.1667 ( 62652 PWs)   bands (ev):

   -66.2619 -66.2619 -66.2619 -66.2619 -66.2611 -66.2611 -66.2611 -66.2611
   -30.6227 -30.6227 -30.6226 -30.6226 -30.6200 -30.6200 -30.6198 -30.6198
   -30.5948 -30.5948 -30.5948 -30.5948 -30.5557 -30.5557 -30.5554 -30.5554
   -30.5517 -30.5517 -30.5515 -30.5515 -30.5132 -30.5132 -30.5132 -30.5132
   -20.4218 -20.4218 -20.4218 -20.4218 -20.4217 -20.4217 -20.4217 -20.4217
   -20.4026 -20.4026 -20.4025 -20.4025 -20.4024 -20.4024 -20.4023 -20.4023
   -20.3990 -20.3990 -20.3990 -20.3990 -20.3981 -20.3981 -20.3981 -20.3981
   -20.3979 -20.3979 -20.3979 -20.3979 -20.3974 -20.3974 -20.3974 -20.3974
   -20.3918 -20.3918 -20.3918 -20.3918 -20.3909 -20.3909 -20.3909 -20.3909
   -20.3898 -20.3898 -20.3897 -20.3897 -20.3870 -20.3870 -20.3870 -20.3870
   -20.3865 -20.3865 -20.3865 -20.3865 -20.3838 -20.3838 -20.3838 -20.3838
    -9.4895  -9.4895  -9.4879  -9.4879  -8.8330  -8.8330  -8.8262  -8.8262
    -8.6961  -8.6961  -8.6899  -8.6899  -8.4831  -8.4831  -8.4720  -8.4720
    -8.4353  -8.4353  -8.4251  -8.4251  -7.9137  -7.9137  -7.9134  -7.9134
     1.4671   1.4671   1.4691   1.4691   2.8852   2.8852   2.9137   2.9137
     3.0108   3.0108   3.0241   3.0241   3.1029   3.1030   3.1505   3.1505
     3.1972   3.1972   3.2835   3.2835   3.3635   3.3635   3.3973   3.3973
     3.4749   3.4749   3.5555   3.5555   4.2213   4.2213   4.2384   4.2385
     4.3096   4.3096   4.3373   4.3374   4.7737   4.7737   4.9311   4.9311
     5.0468   5.0469   5.1905   5.1905   5.7577   5.7577   5.7672   5.7672
     6.6664   6.6664   6.7042   6.7042   6.7691   6.7691   6.8077   6.8077
     7.2047   7.2047   7.2245   7.2245   7.2700   7.2700   7.3158   7.3158
     7.3440   7.3441   7.3942   7.3942   7.5378   7.5378   7.5622   7.5622
    11.0627  11.0627  11.0885  11.0885  11.2895  11.2895  11.3402  11.3402
    12.1628  12.1628  12.2051  12.2051  12.2194  12.2194  12.2462  12.2462
    12.6716  12.6716  12.7426  12.7426  13.3410  13.3410  13.3869  13.3869
    15.5504  15.5504  15.5710  15.5710  16.7447  16.7448  16.7735  16.7735
    17.2602  17.2602  17.2900  17.2901  17.3517

          k =-0.5000-0.4765 0.3333 ( 62648 PWs)   bands (ev):

   -66.2618 -66.2618 -66.2617 -66.2617 -66.2613 -66.2613 -66.2613 -66.2613
   -30.6226 -30.6226 -30.6224 -30.6224 -30.6208 -30.6208 -30.6206 -30.6206
   -30.5774 -30.5774 -30.5774 -30.5774 -30.5549 -30.5549 -30.5546 -30.5546
   -30.5526 -30.5526 -30.5524 -30.5524 -30.5304 -30.5304 -30.5304 -30.5304
   -20.4218 -20.4218 -20.4218 -20.4218 -20.4217 -20.4217 -20.4217 -20.4217
   -20.4026 -20.4026 -20.4025 -20.4025 -20.4024 -20.4024 -20.4024 -20.4024
   -20.3987 -20.3987 -20.3987 -20.3987 -20.3982 -20.3982 -20.3982 -20.3982
   -20.3978 -20.3978 -20.3978 -20.3978 -20.3976 -20.3976 -20.3976 -20.3976
   -20.3917 -20.3917 -20.3917 -20.3917 -20.3911 -20.3911 -20.3911 -20.3911
   -20.3886 -20.3886 -20.3886 -20.3886 -20.3870 -20.3870 -20.3869 -20.3869
   -20.3866 -20.3866 -20.3865 -20.3865 -20.3850 -20.3850 -20.3850 -20.3850
    -9.2821  -9.2821  -9.2797  -9.2797  -8.8932  -8.8932  -8.8869  -8.8869
    -8.6407  -8.6407  -8.6346  -8.6346  -8.4770  -8.4770  -8.4675  -8.4675
    -8.4401  -8.4401  -8.4319  -8.4319  -8.2040  -8.2040  -8.2030  -8.2030
     2.1487   2.1487   2.1524   2.1524   2.8895   2.8895   2.9073   2.9073
     2.9970   2.9970   3.0034   3.0034   3.1466   3.1466   3.1716   3.1716
     3.2630   3.2631   3.2895   3.2895   3.5212   3.5212   3.5349   3.5349
     3.6656   3.6656   3.7096   3.7096   4.1886   4.1886   4.2097   4.2097
     4.2546   4.2546   4.3066   4.3066   4.3737   4.3737   4.4751   4.4751
     4.5717   4.5717   4.7135   4.7136   4.9485   4.9485   4.9615   4.9615
     6.9504   6.9504   6.9856   6.9856   7.0864   7.0864   7.0948   7.0948
     7.1960   7.1960   7.2256   7.2256   7.2497   7.2497   7.3028   7.3028
     7.3994   7.3994   7.4508   7.4508   7.5472   7.5472   7.5688   7.5688
    11.3034  11.3034  11.3333  11.3333  11.6460  11.6460  11.7111  11.7111
    12.0948  12.0948  12.1537  12.1537  12.2293  12.2293  12.2483  12.2483
    12.3917  12.3917  12.4994  12.4994  12.8820  12.8820  12.9564  12.9564
    16.3278  16.3278  16.3780  16.3780  16.9284  16.9285  16.9454  16.9454
    17.2384  17.2388  17.3176  17.3176  17.3287

          k =-0.5000-0.4765-0.5000 ( 62640 PWs)   bands (ev):

   -66.2615 -66.2615 -66.2615 -66.2615 -66.2615 -66.2615 -66.2615 -66.2615
   -30.6218 -30.6218 -30.6218 -30.6218 -30.6216 -30.6216 -30.6216 -30.6216
   -30.5555 -30.5555 -30.5554 -30.5554 -30.5546 -30.5546 -30.5546 -30.5546
   -30.5528 -30.5528 -30.5528 -30.5528 -30.5520 -30.5520 -30.5520 -30.5520
   -20.4218 -20.4218 -20.4218 -20.4217 -20.4217 -20.4217 -20.4217 -20.4217
   -20.4025 -20.4025 -20.4025 -20.4025 -20.4025 -20.4025 -20.4025 -20.4025
   -20.3984 -20.3984 -20.3984 -20.3984 -20.3984 -20.3984 -20.3984 -20.3984
   -20.3978 -20.3978 -20.3977 -20.3977 -20.3977 -20.3977 -20.3977 -20.3977
   -20.3914 -20.3914 -20.3914 -20.3914 -20.3914 -20.3914 -20.3914 -20.3914
   -20.3874 -20.3873 -20.3873 -20.3873 -20.3873 -20.3873 -20.3873 -20.3873
   -20.3863 -20.3863 -20.3863 -20.3863 -20.3862 -20.3862 -20.3862 -20.3862
    -9.0400  -9.0400  -9.0400  -9.0400  -9.0355  -9.0355  -9.0355  -9.0355
    -8.5089  -8.5089  -8.5089  -8.5089  -8.5045  -8.5045  -8.5045  -8.5045
    -8.4401  -8.4401  -8.4401  -8.4401  -8.4338  -8.4338  -8.4338  -8.4338
     2.8832   2.8832   2.8833   2.8833   2.8964   2.8964   2.8964   2.8964
     2.9999   2.9999   2.9999   2.9999   3.0179   3.0179   3.0179   3.0179
     3.3213   3.3213   3.3213   3.3213   3.3571   3.3571   3.3571   3.3571
     4.0576   4.0576   4.0576   4.0576   4.0684   4.0684   4.0684   4.0684
     4.2761   4.2761   4.2762   4.2762   4.2803   4.2803   4.2803   4.2803
     4.3692   4.3692   4.3692   4.3692   4.3795   4.3795   4.3796   4.3796
     7.1050   7.1050   7.1050   7.1050   7.1500   7.1500   7.1501   7.1501
     7.2376   7.2376   7.2376   7.2376   7.2425   7.2425   7.2425   7.2425
     7.5160   7.5160   7.5160   7.5160   7.5278   7.5278   7.5278   7.5278
    11.7080  11.7080  11.7080  11.7080  11.7118  11.7118  11.7118  11.7118
    12.1682  12.1682  12.1682  12.1682  12.2107  12.2107  12.2107  12.2107
    12.4076  12.4076  12.4076  12.4076  12.4275  12.4275  12.4275  12.4275
    17.0134  17.0135  17.0135  17.0135  17.0364  17.0364  17.0364  17.0364
    17.3141  17.3141  17.3142  17.3143  17.3245

     the Fermi energy is     9.0859 ev

!    total energy              =   -6261.03901891 Ry
     Harris-Foulkes estimate   =   -6261.03901892 Ry
     estimated scf accuracy    <          1.2E-09 Ry

     The total energy is the sum of the following terms:

     one-electron contribution =   -4749.12557660 Ry
     hartree contribution      =    2610.12849364 Ry
     xc contribution           =    -965.78907302 Ry
     ewald contribution        =   -3156.25285289 Ry
     smearing contrib. (-TS)   =      -0.00001004 Ry

     convergence has been achieved in  13 iterations

     Writing output data file Landau_5.save/
 
     init_run     :     45.50s CPU     47.82s WALL (       1 calls)
     electrons    :   1823.08s CPU   1856.48s WALL (       1 calls)

     Called by init_run:
     wfcinit      :     42.51s CPU     44.66s WALL (       1 calls)
     potinit      :      1.24s CPU      1.28s WALL (       1 calls)
     hinit0       :      1.49s CPU      1.55s WALL (       1 calls)

     Called by electrons:
     c_bands      :   1646.77s CPU   1677.59s WALL (      13 calls)
     sum_band     :    168.36s CPU    169.61s WALL (      13 calls)
     v_of_rho     :      1.39s CPU      1.47s WALL (      14 calls)
     mix_rho      :      2.10s CPU      2.77s WALL (      13 calls)

     Called by c_bands:
     init_us_2    :      6.39s CPU      6.88s WALL (      54 calls)
     cegterg      :   1421.80s CPU   1450.49s WALL (      26 calls)

     Called by sum_band:

     Called by *egterg:
     h_psi        :   1039.23s CPU   1054.25s WALL (     113 calls)
     g_psi        :      1.50s CPU      1.50s WALL (      85 calls)
     cdiaghg      :     18.28s CPU     18.39s WALL (     111 calls)

     Called by h_psi:
     h_psi:pot    :   1036.67s CPU   1045.24s WALL (     113 calls)
     h_psi:calbec :    170.67s CPU    175.29s WALL (     113 calls)
     vloc_psi     :    691.44s CPU    693.94s WALL (     113 calls)
     add_vuspsi   :    174.56s CPU    176.01s WALL (     113 calls)

     General routines
     calbec       :    170.67s CPU    175.29s WALL (     113 calls)
     fft          :      0.87s CPU      0.88s WALL (      42 calls)
     ffts         :      0.29s CPU      0.29s WALL (      13 calls)
     fftw         :    749.42s CPU    751.55s WALL (   33766 calls)
 
     Parallel routines
 
     PWSCF        :  31m13.13s CPU  31m51.62s WALL

 
   This run was terminated on:  23:59:41  21Nov2019            

=------------------------------------------------------------------------------=
   JOB DONE.
=------------------------------------------------------------------------------=
