
     Program PWSCF v.6.2 (svn rev. 14038) starts on 26Mar2020 at 19:13:41 

     This program is part of the open-source Quantum ESPRESSO suite
     for quantum simulation of materials; please cite
         "P. Giannozzi et al., J. Phys.:Condens. Matter 21 395502 (2009);
         "P. Giannozzi et al., J. Phys.:Condens. Matter 29 465901 (2017);
          URL http://www.quantum-espresso.org", 
     in publications or presentations arising from this work. More details at
     http://www.quantum-espresso.org/quote

     Parallel version (MPI), running on    40 processors

     MPI processes distributed on     9 nodes
     K-points division:     npool     =      40
     Reading input from scf.in

     Current dimensions of program PWSCF are:
     Max number of different atomic species (ntypx) = 10
     Max number of k-points (npk) =  40000
     Max angular momentum in pseudopotentials (lmaxx) =  3

     Subspace diagonalization in iterative solution of the eigenvalue problem:
     a serial algorithm will be used

 
     G-vector sticks info
     --------------------
     sticks:   dense  smooth     PW     G-vecs:    dense   smooth      PW
     Sum        7725    7725   2075               498053   498053   68997
 


     bravais-lattice index     =            0
     lattice parameter (alat)  =      13.8860  a.u.
     unit-cell volume          =    2803.7110 (a.u.)^3
     number of atoms/cell      =           32
     number of atomic types    =            2
     number of electrons       =       368.20
     number of Kohn-Sham states=          221
     kinetic-energy cutoff     =     120.0000  Ry
     charge density cutoff     =     480.0000  Ry
     convergence threshold     =      1.0E-08
     mixing beta               =       0.7000
     number of iterations used =            8  plain     mixing
     Exchange-correlation      = SLA PW NOGX NOGC ( 1  4  0  0 0 0)

     celldm(1)=  13.886034  celldm(2)=   0.000000  celldm(3)=   0.000000
     celldm(4)=   0.000000  celldm(5)=   0.000000  celldm(6)=   0.000000

     crystal axes: (cart. coord. in units of alat)
               a(1) = (   1.000000   0.000000   0.000000 )  
               a(2) = (   0.000000   1.047125   0.000000 )  
               a(3) = (   0.000000   0.000000   1.000000 )  

     reciprocal axes: (cart. coord. in units 2 pi/alat)
               b(1) = (  1.000000  0.000000  0.000000 )  
               b(2) = (  0.000000  0.954996  0.000000 )  
               b(3) = (  0.000000  0.000000  1.000000 )  


     PseudoPot. # 1 for W  read from file:
     /cluster/scratch/mnoe/QE/pps/W_ONCV_LDA-4.0.upf
     MD5 check sum: ba0307d5d4cd419d6f1d13dc49d7c13a
     Pseudo is Norm-conserving + core correction, Zval = 28.0
     Generated using ONCVPSP code by D. R. Hamann
     Using radial grid of 1380 points,  8 beta functions with: 
                l(1) =   0
                l(2) =   0
                l(3) =   1
                l(4) =   1
                l(5) =   2
                l(6) =   2
                l(7) =   3
                l(8) =   3

     PseudoPot. # 2 for O  read from file:
     /cluster/scratch/mnoe/QE/pps/O_ONCV_LDA-3.0.upf
     MD5 check sum: a1bd6164e7280c17a38c229939bfbd54
     Pseudo is Norm-conserving + core correction, Zval =  6.0
     Generated using ONCVPSP code by D. R. Hamann
     Using radial grid of  926 points,  5 beta functions with: 
                l(1) =   0
                l(2) =   0
                l(3) =   1
                l(4) =   1
                l(5) =   2

     atomic species   valence    mass     pseudopotential
        W             28.00   183.84000     W ( 1.00)
        O              6.00    15.99940     O ( 1.00)

      8 Sym. Ops. (no inversion) found ( 7 have fractional translation)



   Cartesian axes

     site n.     atom                  positions (alat units)
         1           W   tau(   1) = (   0.2560700   0.2935903  -0.9936101  )
         2           W   tau(   2) = (   0.7436100   0.7535349  -0.9939300  )
         3           W   tau(   3) = (   0.2439300   0.2299723  -0.4936100  )
         4           W   tau(   4) = (   0.7563900   0.8171529  -0.4939300  )
         5           W   tau(   5) = (   0.7439300   0.2935903  -0.5063900  )
         6           W   tau(   6) = (   0.2563900   0.7535349  -0.5060700  )
         7           W   tau(   7) = (   0.7560700   0.2299723  -1.0063900  )
         8           W   tau(   8) = (   0.2436100   0.8171529  -1.0060700  )
         9           O   tau(   9) = (   0.2629400   0.0082939  -0.9871300  )
        10           O   tau(  10) = (   0.7371300   1.0388313  -0.9870600  )
        11           O   tau(  11) = (   0.2370600   0.5152687  -0.4871300  )
        12           O   tau(  12) = (   0.7628700   0.5318565  -0.4870600  )
        13           O   tau(  13) = (   0.7370600   0.0082939  -0.5128700  )
        14           O   tau(  14) = (   0.2628700   1.0388313  -0.5129400  )
        15           O   tau(  15) = (   0.7629400   0.5152687  -1.0128700  )
        16           O   tau(  16) = (   0.2371300   0.5318565  -1.0129400  )
        17           O   tau(  17) = (   0.4973000   0.2779594  -0.5469160  )
        18           O   tau(  18) = (   0.5017700   0.7738884  -0.4530840  )
        19           O   tau(  19) = (   0.0027000   0.2456032  -1.0469160  )
        20           O   tau(  20) = (   0.9982300   0.7967994  -0.9530840  )
        21           O   tau(  21) = (   0.5027000   0.2779594  -0.9530840  )
        22           O   tau(  22) = (   0.4982300   0.7738884  -1.0469160  )
        23           O   tau(  23) = (   0.9973000   0.2456032  -0.4530840  )
        24           O   tau(  24) = (   0.0017700   0.7967994  -0.5469160  )
        25           O   tau(  25) = (   0.7030840   0.2503258  -0.2517700  )
        26           O   tau(  26) = (   0.2969159   0.7691658  -0.7527000  )
        27           O   tau(  27) = (   0.7969160   0.2732368  -0.7517700  )
        28           O   tau(  28) = (   0.2030840   0.8015220  -0.2527000  )
        29           O   tau(  29) = (   0.2969159   0.2503258  -1.2482300  )
        30           O   tau(  30) = (   0.7030840   0.7691658  -0.7473000  )
        31           O   tau(  31) = (   0.2030840   0.2732368  -0.7482300  )
        32           O   tau(  32) = (   0.7969160   0.8015220  -1.2473000  )

     number of k points=    40  gaussian smearing, width (Ry)=  0.0007
                       cart. coord. in units 2pi/alat
        k(    1) = (   0.0000000   0.0000000   0.0000000), wk =   0.0092593
        k(    2) = (   0.0000000   0.0000000   0.1666667), wk =   0.0370370
        k(    3) = (   0.0000000   0.0000000   0.3333333), wk =   0.0370370
        k(    4) = (   0.0000000   0.0000000  -0.5000000), wk =   0.0185185
        k(    5) = (   0.0000000   0.1591659   0.0000000), wk =   0.0185185
        k(    6) = (   0.0000000   0.1591659   0.1666667), wk =   0.0740741
        k(    7) = (   0.0000000   0.1591659   0.3333333), wk =   0.0740741
        k(    8) = (   0.0000000   0.1591659  -0.5000000), wk =   0.0370370
        k(    9) = (   0.0000000   0.3183319   0.0000000), wk =   0.0185185
        k(   10) = (   0.0000000   0.3183319   0.1666667), wk =   0.0740741
        k(   11) = (   0.0000000   0.3183319   0.3333333), wk =   0.0740741
        k(   12) = (   0.0000000   0.3183319  -0.5000000), wk =   0.0370370
        k(   13) = (   0.0000000  -0.4774978   0.0000000), wk =   0.0092593
        k(   14) = (   0.0000000  -0.4774978   0.1666667), wk =   0.0370370
        k(   15) = (   0.0000000  -0.4774978   0.3333333), wk =   0.0370370
        k(   16) = (   0.0000000  -0.4774978  -0.5000000), wk =   0.0185185
        k(   17) = (   0.1666667   0.0000000   0.1666667), wk =   0.0370370
        k(   18) = (   0.1666667   0.0000000   0.3333333), wk =   0.0740741
        k(   19) = (   0.1666667   0.0000000  -0.5000000), wk =   0.0370370
        k(   20) = (   0.1666667   0.1591659   0.1666667), wk =   0.0740741
        k(   21) = (   0.1666667   0.1591659   0.3333333), wk =   0.1481481
        k(   22) = (   0.1666667   0.1591659  -0.5000000), wk =   0.0740741
        k(   23) = (   0.1666667   0.3183319   0.1666667), wk =   0.0740741
        k(   24) = (   0.1666667   0.3183319   0.3333333), wk =   0.1481481
        k(   25) = (   0.1666667   0.3183319  -0.5000000), wk =   0.0740741
        k(   26) = (   0.1666667  -0.4774978   0.1666667), wk =   0.0370370
        k(   27) = (   0.1666667  -0.4774978   0.3333333), wk =   0.0740741
        k(   28) = (   0.1666667  -0.4774978  -0.5000000), wk =   0.0370370
        k(   29) = (   0.3333333   0.0000000   0.3333333), wk =   0.0370370
        k(   30) = (   0.3333333   0.0000000  -0.5000000), wk =   0.0370370
        k(   31) = (   0.3333333   0.1591659   0.3333333), wk =   0.0740741
        k(   32) = (   0.3333333   0.1591659  -0.5000000), wk =   0.0740741
        k(   33) = (   0.3333333   0.3183319   0.3333333), wk =   0.0740741
        k(   34) = (   0.3333333   0.3183319  -0.5000000), wk =   0.0740741
        k(   35) = (   0.3333333  -0.4774978   0.3333333), wk =   0.0370370
        k(   36) = (   0.3333333  -0.4774978  -0.5000000), wk =   0.0370370
        k(   37) = (  -0.5000000   0.0000000  -0.5000000), wk =   0.0092593
        k(   38) = (  -0.5000000   0.1591659  -0.5000000), wk =   0.0185185
        k(   39) = (  -0.5000000   0.3183319  -0.5000000), wk =   0.0185185
        k(   40) = (  -0.5000000  -0.4774978  -0.5000000), wk =   0.0092593

     Dense  grid:   498053 G-vectors     FFT dimensions: ( 100, 108, 100)

     Estimated max dynamical RAM per process >       2.72 GB

     Estimated total dynamical RAM >     108.64 GB

     Initial potential from superposition of free atoms

     starting charge  367.99656, renormalised to  368.20000
     Starting wfc are  232 randomized atomic wfcs

     total cpu time spent up to now is       15.2 secs

     Self-consistent Calculation

     iteration #  1     ecut=   120.00 Ry     beta= 0.70
     Davidson diagonalization with overlap
     ethr =  1.00E-02,  avg # of iterations =  4.8

     total cpu time spent up to now is       62.7 secs

     total energy              =   -6253.80745777 Ry
     Harris-Foulkes estimate   =   -6264.48180081 Ry
     estimated scf accuracy    <      13.49291824 Ry

     iteration #  2     ecut=   120.00 Ry     beta= 0.70
     Davidson diagonalization with overlap
     ethr =  3.66E-03,  avg # of iterations =  3.5

     total cpu time spent up to now is      108.5 secs

     total energy              =   -6250.66014106 Ry
     Harris-Foulkes estimate   =   -6270.64451119 Ry
     estimated scf accuracy    <      53.57197976 Ry

     iteration #  3     ecut=   120.00 Ry     beta= 0.70
     Davidson diagonalization with overlap
     ethr =  3.66E-03,  avg # of iterations =  3.4

     total cpu time spent up to now is      153.3 secs

     total energy              =   -6260.95531380 Ry
     Harris-Foulkes estimate   =   -6261.23586252 Ry
     estimated scf accuracy    <       0.92660729 Ry

     iteration #  4     ecut=   120.00 Ry     beta= 0.70
     Davidson diagonalization with overlap
     ethr =  2.52E-04,  avg # of iterations =  2.9

     total cpu time spent up to now is      190.0 secs

     total energy              =   -6260.95353463 Ry
     Harris-Foulkes estimate   =   -6261.02501947 Ry
     estimated scf accuracy    <       0.22611329 Ry

     iteration #  5     ecut=   120.00 Ry     beta= 0.70
     Davidson diagonalization with overlap
     ethr =  6.14E-05,  avg # of iterations =  5.8

     total cpu time spent up to now is      233.5 secs

     total energy              =   -6260.95571933 Ry
     Harris-Foulkes estimate   =   -6260.98651051 Ry
     estimated scf accuracy    <       0.06866541 Ry

     iteration #  6     ecut=   120.00 Ry     beta= 0.70
     Davidson diagonalization with overlap
     ethr =  1.86E-05,  avg # of iterations =  5.6

     total cpu time spent up to now is      275.9 secs

     total energy              =   -6260.97054307 Ry
     Harris-Foulkes estimate   =   -6260.97308046 Ry
     estimated scf accuracy    <       0.00667508 Ry

     iteration #  7     ecut=   120.00 Ry     beta= 0.70
     Davidson diagonalization with overlap
     ethr =  1.81E-06,  avg # of iterations =  6.7

     total cpu time spent up to now is      314.7 secs

     total energy              =   -6260.97143279 Ry
     Harris-Foulkes estimate   =   -6260.97150943 Ry
     estimated scf accuracy    <       0.00014249 Ry

     iteration #  8     ecut=   120.00 Ry     beta= 0.70
     Davidson diagonalization with overlap
     ethr =  3.87E-08,  avg # of iterations =  3.1

     total cpu time spent up to now is      361.6 secs

     total energy              =   -6260.97149305 Ry
     Harris-Foulkes estimate   =   -6260.97150258 Ry
     estimated scf accuracy    <       0.00004155 Ry

     iteration #  9     ecut=   120.00 Ry     beta= 0.70
     Davidson diagonalization with overlap
     ethr =  1.13E-08,  avg # of iterations =  2.0

     total cpu time spent up to now is      397.8 secs

     total energy              =   -6260.97149313 Ry
     Harris-Foulkes estimate   =   -6260.97149771 Ry
     estimated scf accuracy    <       0.00002313 Ry

     iteration # 10     ecut=   120.00 Ry     beta= 0.70
     Davidson diagonalization with overlap
     ethr =  6.28E-09,  avg # of iterations =  1.1

     total cpu time spent up to now is      431.6 secs

     total energy              =   -6260.97149058 Ry
     Harris-Foulkes estimate   =   -6260.97149441 Ry
     estimated scf accuracy    <       0.00000890 Ry

     iteration # 11     ecut=   120.00 Ry     beta= 0.70
     Davidson diagonalization with overlap
     ethr =  2.42E-09,  avg # of iterations =  3.0

     total cpu time spent up to now is      468.4 secs

     total energy              =   -6260.97149245 Ry
     Harris-Foulkes estimate   =   -6260.97149251 Ry
     estimated scf accuracy    <       0.00000016 Ry

     iteration # 12     ecut=   120.00 Ry     beta= 0.70
     Davidson diagonalization with overlap
     ethr =  4.45E-11,  avg # of iterations =  2.0

     total cpu time spent up to now is      511.6 secs

     total energy              =   -6260.97149247 Ry
     Harris-Foulkes estimate   =   -6260.97149249 Ry
     estimated scf accuracy    <       0.00000004 Ry

     iteration # 13     ecut=   120.00 Ry     beta= 0.70
     Davidson diagonalization with overlap
     ethr =  1.17E-11,  avg # of iterations =  2.9

     total cpu time spent up to now is      552.8 secs

     End of self-consistent calculation

          k = 0.0000 0.0000 0.0000 ( 62151 PWs)   bands (ev):

   -66.1251 -66.1246 -66.1241 -66.1241 -66.1236 -66.1236 -66.1231 -66.1227
   -30.5299 -30.5248 -30.5248 -30.5199 -30.4838 -30.4748 -30.4748 -30.4719
   -30.4711 -30.4659 -30.4645 -30.4645 -30.4584 -30.4500 -30.4500 -30.4472
   -30.3749 -30.3749 -30.3712 -30.3709 -30.3685 -30.3685 -30.3649 -30.3635
   -20.2829 -20.2828 -20.2827 -20.2827 -20.2826 -20.2826 -20.2825 -20.2824
   -20.2688 -20.2684 -20.2684 -20.2680 -20.2639 -20.2634 -20.2634 -20.2628
   -20.2623 -20.2619 -20.2619 -20.2619 -20.2612 -20.2612 -20.2612 -20.2612
   -20.2605 -20.2605 -20.2605 -20.2598 -20.2595 -20.2586 -20.2586 -20.2581
   -20.2522 -20.2518 -20.2515 -20.2515 -20.2493 -20.2493 -20.2489 -20.2483
   -20.2462 -20.2461 -20.2447 -20.2447 -20.2426 -20.2426 -20.2414 -20.2414
   -20.2391 -20.2391 -20.2380 -20.2380 -20.2371 -20.2371 -20.2360 -20.2359
    -9.9311  -9.6375  -9.5045  -9.5045  -9.2216  -9.2216  -9.0842  -9.0207
    -9.0049  -8.8819  -8.8521  -8.8521  -7.8477  -7.7698  -7.7698  -7.7532
    -7.7510  -7.7383  -7.7183  -7.7104  -7.6221  -7.6221  -7.5961  -7.5961
     1.2203   1.2211   1.2949   1.2949   1.3243   1.3243   1.3650   1.5969
     1.6233   1.6233   1.6406   1.8642   2.4322   2.5158   2.5732   2.5841
     2.7237   2.7237   4.2057   4.2057   4.4139   4.4353   4.7580   4.8125
     4.8125   4.8399   4.8505   4.8505   5.0218   5.0218   5.1748   5.4658
     5.4830   5.5117   5.5117   5.5618   5.5618   5.6241   5.6241   5.8518
     5.8694   5.8694   5.8717   5.8888   5.9696   6.0392   6.1107   6.1327
     6.1357   6.2702   6.3009   6.5368   6.5368   6.8382   6.8672   6.8672
     6.9015   6.9022   7.0236   7.0343   7.0898   7.0898   7.3394   7.3394
     7.3913   7.3913   7.8510   7.8680   8.0747   8.0747   8.1170   8.1595
     9.3334   9.3461   9.9241   9.9666   9.9666   9.9832  12.2814  12.2814
    12.3389  12.3389  12.4371  12.4371  12.5794  12.5813  12.7425  12.9305
    13.1227  13.3170  13.3170  13.3599  13.7230  13.9870  13.9870  14.1462
    14.3519  14.5839  14.5839  14.9183  15.4020  15.4223  15.5507  16.0673
    16.0673  16.8581  17.0725  17.0725  17.4403

          k = 0.0000 0.0000 0.1667 ( 62247 PWs)   bands (ev):

   -66.1250 -66.1245 -66.1241 -66.1240 -66.1237 -66.1236 -66.1232 -66.1227
   -30.5295 -30.5251 -30.5245 -30.5203 -30.4820 -30.4751 -30.4719 -30.4702
   -30.4670 -30.4649 -30.4611 -30.4588 -30.4585 -30.4505 -30.4466 -30.4451
   -30.3814 -30.3774 -30.3753 -30.3746 -30.3721 -30.3696 -30.3682 -30.3644
   -20.2829 -20.2828 -20.2828 -20.2827 -20.2826 -20.2826 -20.2826 -20.2824
   -20.2687 -20.2684 -20.2684 -20.2681 -20.2639 -20.2635 -20.2634 -20.2629
   -20.2623 -20.2619 -20.2619 -20.2618 -20.2613 -20.2613 -20.2612 -20.2610
   -20.2607 -20.2604 -20.2604 -20.2598 -20.2594 -20.2587 -20.2586 -20.2581
   -20.2521 -20.2516 -20.2516 -20.2513 -20.2494 -20.2492 -20.2490 -20.2484
   -20.2461 -20.2457 -20.2448 -20.2443 -20.2425 -20.2423 -20.2415 -20.2411
   -20.2396 -20.2391 -20.2385 -20.2381 -20.2375 -20.2371 -20.2364 -20.2360
    -9.8853  -9.5845  -9.5206  -9.4448  -9.2350  -9.1327  -9.0930  -8.9830
    -8.9637  -8.8687  -8.8564  -8.8205  -7.8964  -7.8584  -7.8245  -7.7820
    -7.7738  -7.7433  -7.7336  -7.7267  -7.7168  -7.7140  -7.6307  -7.6047
     1.2910   1.2963   1.3091   1.3295   1.4363   1.4623   1.5825   1.5909
     1.6183   1.7145   1.8158   1.9850   2.5179   2.5877   2.6059   2.6667
     2.7151   2.8110   4.1301   4.2056   4.3746   4.4077   4.4481   4.4794
     4.6138   4.7805   4.7973   4.8712   4.8930   5.0172   5.1507   5.3121
     5.3653   5.4675   5.4970   5.5481   5.6025   5.6161   5.6367   5.6469
     5.7331   5.8159   5.8621   5.9032   6.0029   6.0733   6.1325   6.1343
     6.2982   6.4242   6.4938   6.5209   6.7317   6.7595   6.7793   6.8270
     6.8906   6.8942   6.9430   7.0129   7.0385   7.0981   7.1396   7.1663
     7.1738   7.2353   7.8568   7.8642   8.0347   8.0893   8.0943   8.1487
     9.6706   9.6912   9.9552   9.9647  10.2161  10.2548  12.2094  12.2802
    12.3302  12.3514  12.3905  12.4823  12.5822  12.6655  12.7665  12.9300
    13.0173  13.2330  13.3119  13.3197  13.7718  13.9303  13.9857  14.0650
    14.3520  14.5785  14.6418  15.0314  15.4401  15.4753  15.5167  16.0389
    16.3756  16.8125  17.0265  17.2581  17.5258

          k = 0.0000 0.0000 0.3333 ( 62260 PWs)   bands (ev):

   -66.1248 -66.1244 -66.1243 -66.1239 -66.1238 -66.1234 -66.1234 -66.1229
   -30.5286 -30.5261 -30.5237 -30.5212 -30.4795 -30.4761 -30.4687 -30.4662
   -30.4658 -30.4601 -30.4590 -30.4518 -30.4451 -30.4419 -30.4355 -30.4335
   -30.3989 -30.3947 -30.3925 -30.3884 -30.3738 -30.3716 -30.3674 -30.3653
   -20.2829 -20.2828 -20.2827 -20.2827 -20.2826 -20.2826 -20.2825 -20.2825
   -20.2687 -20.2685 -20.2683 -20.2681 -20.2639 -20.2636 -20.2634 -20.2630
   -20.2623 -20.2620 -20.2618 -20.2617 -20.2614 -20.2613 -20.2613 -20.2609
   -20.2607 -20.2605 -20.2603 -20.2599 -20.2592 -20.2588 -20.2585 -20.2582
   -20.2519 -20.2517 -20.2510 -20.2507 -20.2498 -20.2493 -20.2491 -20.2486
   -20.2458 -20.2451 -20.2444 -20.2432 -20.2422 -20.2418 -20.2414 -20.2409
   -20.2402 -20.2397 -20.2388 -20.2387 -20.2382 -20.2375 -20.2368 -20.2362
    -9.7747  -9.5705  -9.4627  -9.3070  -9.2759  -9.1227  -8.9157  -8.8781
    -8.8683  -8.8179  -8.7737  -8.6986  -8.1844  -8.1703  -8.0870  -8.0717
    -7.8119  -7.7847  -7.7486  -7.7237  -7.7191  -7.6939  -7.6541  -7.6282
     1.3002   1.3085   1.3431   1.3622   1.5479   1.5624   1.5778   1.6086
     2.2736   2.3142   2.4640   2.5420   2.6109   2.7028   2.7689   2.8676
     2.9077   3.0464   3.7713   3.8458   3.8833   4.0075   4.1407   4.3114
     4.3588   4.5423   4.5484   4.7604   4.7757   4.8161   4.9583   5.0823
     5.1648   5.1826   5.2268   5.3897   5.4458   5.4911   5.6784   5.6929
     5.7673   5.7769   5.8405   5.9616   6.0284   6.1676   6.2481   6.2647
     6.3305   6.3979   6.5099   6.5449   6.5780   6.5838   6.6201   6.7592
     6.8497   6.8862   6.8901   6.9860   7.0391   7.0887   7.0946   7.1521
     7.3083   7.3458   7.7782   7.7972   7.9094   7.9628   8.1274   8.1448
     9.9390   9.9589  10.3857  10.4460  10.8316  10.9254  11.8410  11.9104
    12.0971  12.4171  12.4757  12.5416  12.5944  12.6573  12.7313  12.8773
    12.9078  13.1020  13.1783  13.3376  13.6420  13.6858  13.9833  13.9872
    14.4413  14.5610  14.8984  15.3140  15.4072  15.6004  15.8763  15.9520
    16.2821  17.2210  17.3871  17.5653  17.8230

          k = 0.0000 0.0000-0.5000 ( 62280 PWs)   bands (ev):

   -66.1246 -66.1246 -66.1241 -66.1241 -66.1236 -66.1236 -66.1232 -66.1232
   -30.5273 -30.5273 -30.5225 -30.5225 -30.4776 -30.4776 -30.4672 -30.4672
   -30.4623 -30.4623 -30.4542 -30.4542 -30.4224 -30.4224 -30.4184 -30.4184
   -30.4154 -30.4153 -30.4116 -30.4116 -30.3727 -30.3727 -30.3664 -30.3664
   -20.2828 -20.2828 -20.2827 -20.2827 -20.2826 -20.2826 -20.2825 -20.2825
   -20.2686 -20.2686 -20.2682 -20.2682 -20.2637 -20.2637 -20.2632 -20.2632
   -20.2622 -20.2622 -20.2616 -20.2616 -20.2615 -20.2615 -20.2611 -20.2611
   -20.2606 -20.2606 -20.2601 -20.2601 -20.2590 -20.2590 -20.2584 -20.2584
   -20.2518 -20.2518 -20.2503 -20.2503 -20.2499 -20.2499 -20.2489 -20.2489
   -20.2454 -20.2454 -20.2427 -20.2427 -20.2421 -20.2421 -20.2413 -20.2413
   -20.2402 -20.2401 -20.2389 -20.2389 -20.2385 -20.2385 -20.2365 -20.2365
    -9.6571  -9.6571  -9.3494  -9.3494  -9.1871  -9.1871  -8.8859  -8.8859
    -8.5377  -8.5377  -8.5215  -8.5215  -8.4993  -8.4993  -8.4348  -8.4348
    -7.7994  -7.7994  -7.7366  -7.7366  -7.6865  -7.6865  -7.6608  -7.6608
     1.3056   1.3056   1.3589   1.3589   1.5646   1.5646   1.5969   1.5969
     2.6424   2.6424   3.0050   3.0050   3.1467   3.1467   3.1490   3.1490
     3.2948   3.2948   3.3305   3.3305   3.5066   3.5066   3.7818   3.7818
     3.8590   3.8590   4.4815   4.4815   4.7187   4.7187   4.9716   4.9716
     5.2670   5.2670   5.3336   5.3336   5.3367   5.3367   5.7258   5.7258
     5.7814   5.7814   5.9718   5.9718   6.1357   6.1357   6.2467   6.2467
     6.3057   6.3057   6.4173   6.4173   6.4958   6.4958   6.5717   6.5717
     6.8050   6.8051   6.8850   6.8850   7.0750   7.0750   7.5038   7.5039
     7.5618   7.5618   7.6760   7.6760   7.7159   7.7159   8.1417   8.1417
     9.9503   9.9503  11.1692  11.1692  11.2409  11.2409  11.5376  11.5376
    11.7132  11.7132  12.6122  12.6122  12.6985  12.6985  12.8179  12.8179
    12.9385  12.9385  13.2754  13.2754  13.4215  13.4215  13.9835  13.9835
    14.5236  14.5236  15.2015  15.2015  15.7382  15.7382  15.8057  15.8057
    16.6473  16.6473  17.8971  17.8971  18.1294

          k = 0.0000 0.1592 0.0000 ( 62243 PWs)   bands (ev):

   -66.1250 -66.1246 -66.1241 -66.1241 -66.1237 -66.1237 -66.1231 -66.1227
   -30.5260 -30.5208 -30.5208 -30.5158 -30.4855 -30.4765 -30.4765 -30.4718
   -30.4709 -30.4657 -30.4643 -30.4643 -30.4625 -30.4525 -30.4525 -30.4499
   -30.3748 -30.3748 -30.3711 -30.3708 -30.3687 -30.3687 -30.3650 -30.3637
   -20.2829 -20.2828 -20.2827 -20.2827 -20.2826 -20.2826 -20.2825 -20.2824
   -20.2684 -20.2680 -20.2680 -20.2677 -20.2642 -20.2637 -20.2637 -20.2632
   -20.2623 -20.2618 -20.2618 -20.2618 -20.2612 -20.2612 -20.2612 -20.2611
   -20.2606 -20.2605 -20.2605 -20.2597 -20.2597 -20.2588 -20.2588 -20.2582
   -20.2521 -20.2518 -20.2515 -20.2515 -20.2493 -20.2493 -20.2488 -20.2484
   -20.2462 -20.2461 -20.2447 -20.2447 -20.2426 -20.2426 -20.2414 -20.2414
   -20.2391 -20.2391 -20.2380 -20.2380 -20.2371 -20.2371 -20.2360 -20.2359
    -9.9008  -9.6492  -9.4667  -9.4667  -9.2292  -9.2292  -9.0196  -9.0085
    -9.0060  -8.8345  -8.8127  -8.8127  -7.9351  -7.8714  -7.8714  -7.8211
    -7.7624  -7.7496  -7.7399  -7.7206  -7.6227  -7.6227  -7.5977  -7.5977
     1.2202   1.2210   1.3099   1.3099   1.3245   1.3245   1.4926   1.6399
     1.7907   1.8531   1.8531   2.0303   2.4377   2.5101   2.6460   2.6573
     2.7929   2.7929   4.0695   4.0695   4.1403   4.1574   4.7070   4.8086
     4.8086   4.8451   4.8451   4.9019   4.9644   4.9644   5.0492   5.3339
     5.3339   5.4595   5.4595   5.6383   5.6445   5.6445   5.6669   5.6886
     5.7895   5.8056   5.9300   5.9441   5.9441   6.0393   6.1072   6.1206
     6.1448   6.2721   6.2917   6.5646   6.5646   6.8381   6.8621   6.8804
     6.8804   6.9158   6.9232   7.0011   7.0011   7.0142   7.3460   7.3460
     7.3933   7.3933   7.8532   7.8673   8.0408   8.0408   8.0561   8.0816
     9.3375   9.3482  10.1383  10.1544  10.1544  10.1896  12.2227  12.2227
    12.3025  12.3025  12.4143  12.4181  12.4239  12.4239  12.7601  12.9274
    13.1602  13.3186  13.3186  13.3839  13.8611  13.9616  13.9616  14.0531
    14.4292  14.7780  14.7780  15.0811  15.4021  15.4181  15.9519  16.0346
    16.0346  16.5674  17.2105  17.2105  17.5042

          k = 0.0000 0.1592 0.1667 ( 62229 PWs)   bands (ev):

   -66.1250 -66.1246 -66.1241 -66.1240 -66.1237 -66.1236 -66.1232 -66.1228
   -30.5256 -30.5211 -30.5205 -30.5162 -30.4839 -30.4769 -30.4741 -30.4701
   -30.4671 -30.4647 -30.4629 -30.4609 -30.4584 -30.4529 -30.4485 -30.4474
   -30.3813 -30.3773 -30.3754 -30.3745 -30.3721 -30.3696 -30.3684 -30.3646
   -20.2829 -20.2828 -20.2827 -20.2827 -20.2826 -20.2826 -20.2825 -20.2824
   -20.2684 -20.2681 -20.2680 -20.2677 -20.2642 -20.2638 -20.2637 -20.2632
   -20.2623 -20.2619 -20.2618 -20.2618 -20.2613 -20.2612 -20.2612 -20.2609
   -20.2607 -20.2604 -20.2604 -20.2597 -20.2596 -20.2588 -20.2587 -20.2583
   -20.2521 -20.2516 -20.2516 -20.2513 -20.2494 -20.2493 -20.2489 -20.2485
   -20.2461 -20.2457 -20.2448 -20.2443 -20.2425 -20.2423 -20.2415 -20.2411
   -20.2396 -20.2391 -20.2385 -20.2381 -20.2375 -20.2371 -20.2363 -20.2360
    -9.8539  -9.5962  -9.4829  -9.4024  -9.2428  -9.1404  -9.0172  -8.9809
    -8.9648  -8.8236  -8.8170  -8.7858  -7.9422  -7.8935  -7.8719  -7.8678
    -7.8387  -7.8303  -7.7508  -7.7463  -7.7240  -7.7188  -7.6314  -7.6062
     1.3028   1.3084   1.3141   1.3296   1.5354   1.5778   1.5982   1.7971
     1.8116   1.8514   1.8808   2.0949   2.5247   2.5994   2.6603   2.7417
     2.7849   2.8801   4.0322   4.0855   4.1353   4.1876   4.4055   4.4767
     4.6194   4.7000   4.8044   4.8573   4.8891   4.9753   5.0113   5.2633
     5.2844   5.3316   5.3564   5.4742   5.5623   5.5988   5.6462   5.7309
     5.7450   5.7897   5.8651   5.8808   5.9191   6.0997   6.1220   6.1369
     6.2530   6.4084   6.4699   6.5511   6.7326   6.7974   6.8084   6.8327
     6.8599   6.9175   6.9486   6.9878   7.0124   7.0202   7.1416   7.1677
     7.1909   7.2370   7.8567   7.8642   8.0029   8.0307   8.0459   8.0748
     9.6805   9.6952  10.1550  10.1621  10.3870  10.4114  12.1881  12.2325
    12.2921  12.3221  12.3404  12.4182  12.4398  12.5321  12.7917  12.9286
    13.0489  13.2305  13.3184  13.3291  13.8220  13.8722  13.9609  13.9958
    14.4941  14.7724  14.8927  15.1791  15.4402  15.4741  15.9151  16.0095
    16.3410  16.7225  16.9437  17.3736  17.5869

          k = 0.0000 0.1592 0.3333 ( 62270 PWs)   bands (ev):

   -66.1248 -66.1244 -66.1243 -66.1239 -66.1238 -66.1234 -66.1233 -66.1229
   -30.5246 -30.5221 -30.5196 -30.5171 -30.4814 -30.4779 -30.4696 -30.4684
   -30.4657 -30.4641 -30.4602 -30.4541 -30.4451 -30.4418 -30.4367 -30.4343
   -30.3988 -30.3946 -30.3927 -30.3886 -30.3737 -30.3715 -30.3676 -30.3654
   -20.2829 -20.2828 -20.2827 -20.2827 -20.2826 -20.2826 -20.2825 -20.2825
   -20.2684 -20.2682 -20.2680 -20.2678 -20.2641 -20.2639 -20.2637 -20.2633
   -20.2622 -20.2620 -20.2617 -20.2616 -20.2614 -20.2613 -20.2613 -20.2609
   -20.2607 -20.2605 -20.2602 -20.2598 -20.2594 -20.2589 -20.2586 -20.2584
   -20.2519 -20.2517 -20.2510 -20.2506 -20.2498 -20.2493 -20.2491 -20.2487
   -20.2458 -20.2451 -20.2444 -20.2432 -20.2422 -20.2418 -20.2414 -20.2409
   -20.2402 -20.2397 -20.2388 -20.2387 -20.2382 -20.2375 -20.2368 -20.2362
    -9.7405  -9.5331  -9.4739  -9.2844  -9.2502  -9.0476  -8.8966  -8.8828
    -8.8293  -8.8194  -8.7518  -8.6782  -8.1857  -8.1739  -8.0997  -8.0712
    -7.9028  -7.8807  -7.8508  -7.8248  -7.7215  -7.6957  -7.6552  -7.6298
     1.3233   1.3401   1.3433   1.3622   1.7420   1.7582   1.8295   1.8450
     2.2733   2.3249   2.4659   2.5593   2.6827   2.7660   2.7790   2.8648
     2.9844   3.1092   3.7735   3.8426   3.8866   3.9590   4.1498   4.1828
     4.1960   4.3637   4.5591   4.7138   4.7375   4.8107   4.8290   4.9327
     5.0315   5.1537   5.1748   5.1977   5.3977   5.4060   5.5095   5.6531
     5.7200   5.7801   5.8291   5.8932   5.9564   6.1358   6.1928   6.2506
     6.3378   6.5001   6.5415   6.5939   6.6094   6.6814   6.7300   6.7951
     6.8540   6.8573   6.9371   6.9590   6.9956   7.0302   7.1207   7.1435
     7.3105   7.3476   7.7819   7.7939   7.8836   7.9182   8.0636   8.0746
    10.1432  10.1546  10.3985  10.4503  10.9494  11.0236  11.8421  11.9102
    12.0767  12.4279  12.4534  12.4670  12.5247  12.5913  12.6549  12.7927
    12.8883  13.1044  13.1812  13.3256  13.5515  13.6035  13.9588  13.9690
    14.6480  14.7562  15.2246  15.4370  15.5956  15.7979  15.9009  15.9303
    16.4102  17.1781  17.1951  17.4476  17.8203

          k = 0.0000 0.1592-0.5000 ( 62238 PWs)   bands (ev):

   -66.1245 -66.1245 -66.1241 -66.1241 -66.1236 -66.1236 -66.1232 -66.1232
   -30.5234 -30.5234 -30.5184 -30.5184 -30.4795 -30.4795 -30.4671 -30.4671
   -30.4661 -30.4661 -30.4563 -30.4563 -30.4223 -30.4223 -30.4183 -30.4183
   -30.4158 -30.4158 -30.4119 -30.4119 -30.3726 -30.3726 -30.3665 -30.3665
   -20.2828 -20.2828 -20.2827 -20.2827 -20.2826 -20.2826 -20.2825 -20.2825
   -20.2683 -20.2683 -20.2679 -20.2679 -20.2640 -20.2640 -20.2635 -20.2635
   -20.2621 -20.2621 -20.2615 -20.2615 -20.2615 -20.2615 -20.2611 -20.2611
   -20.2606 -20.2606 -20.2600 -20.2600 -20.2591 -20.2591 -20.2585 -20.2585
   -20.2518 -20.2518 -20.2503 -20.2503 -20.2499 -20.2499 -20.2489 -20.2489
   -20.2454 -20.2454 -20.2427 -20.2427 -20.2421 -20.2421 -20.2413 -20.2413
   -20.2402 -20.2401 -20.2389 -20.2389 -20.2385 -20.2385 -20.2365 -20.2365
    -9.6206  -9.6206  -9.3592  -9.3592  -9.1164  -9.1164  -8.8490  -8.8490
    -8.5413  -8.5413  -8.5211  -8.5210  -8.5039  -8.5038  -8.4282  -8.4282
    -7.8944  -7.8944  -7.8398  -7.8398  -7.6881  -7.6881  -7.6625  -7.6625
     1.3355   1.3355   1.3589   1.3589   1.7633   1.7633   1.8451   1.8451
     2.7116   2.7116   3.0201   3.0202   3.1410   3.1410   3.1880   3.1880
     3.3072   3.3072   3.3282   3.3282   3.4977   3.4977   3.7923   3.7923
     3.9081   3.9081   4.2709   4.2709   4.6434   4.6434   4.7914   4.7914
     5.0883   5.0884   5.2964   5.2964   5.3268   5.3268   5.5128   5.5128
     5.7309   5.7309   5.8650   5.8650   6.1392   6.1392   6.2783   6.2783
     6.3597   6.3597   6.4494   6.4494   6.5497   6.5497   6.6927   6.6927
     6.8666   6.8666   6.8915   6.8916   6.9870   6.9870   7.5161   7.5161
     7.5549   7.5549   7.6611   7.6611   7.6950   7.6950   8.0732   8.0733
    10.1542  10.1542  11.1760  11.1760  11.2398  11.2398  11.6071  11.6071
    11.7771  11.7771  12.4715  12.4715  12.6842  12.6842  12.8250  12.8250
    12.8862  12.8862  13.1691  13.1691  13.3774  13.3774  13.9596  13.9596
    14.7247  14.7247  15.5587  15.5587  15.7848  15.7848  15.8852  15.8852
    16.6916  16.6916  17.6939  17.6939  18.1438

          k = 0.0000 0.3183 0.0000 ( 62279 PWs)   bands (ev):

   -66.1249 -66.1247 -66.1240 -66.1240 -66.1237 -66.1237 -66.1230 -66.1228
   -30.5156 -30.5100 -30.5100 -30.5046 -30.4915 -30.4833 -30.4833 -30.4738
   -30.4715 -30.4708 -30.4645 -30.4637 -30.4637 -30.4573 -30.4573 -30.4559
   -30.3746 -30.3746 -30.3709 -30.3707 -30.3689 -30.3689 -30.3650 -30.3642
   -20.2829 -20.2828 -20.2827 -20.2827 -20.2826 -20.2826 -20.2825 -20.2824
   -20.2675 -20.2671 -20.2671 -20.2667 -20.2650 -20.2646 -20.2646 -20.2641
   -20.2621 -20.2618 -20.2617 -20.2617 -20.2612 -20.2612 -20.2610 -20.2610
   -20.2607 -20.2604 -20.2604 -20.2601 -20.2594 -20.2591 -20.2591 -20.2586
   -20.2521 -20.2519 -20.2515 -20.2515 -20.2493 -20.2493 -20.2487 -20.2485
   -20.2462 -20.2461 -20.2447 -20.2447 -20.2426 -20.2426 -20.2414 -20.2414
   -20.2391 -20.2391 -20.2380 -20.2380 -20.2371 -20.2371 -20.2359 -20.2359
    -9.8273  -9.6853  -9.3815  -9.3815  -9.2541  -9.2541  -9.0167  -9.0089
    -8.7946  -8.6867  -8.6787  -8.6787  -8.1800  -8.1306  -8.1306  -8.1020
    -7.7623  -7.7495  -7.7402  -7.7263  -7.6204  -7.6204  -7.6015  -7.6015
     1.2202   1.2206   1.3197   1.3197   1.3248   1.3248   1.6023   1.6373
     2.3691   2.4527   2.4949   2.5131   2.5131   2.6748   2.8588   2.8732
     2.9941   2.9941   3.6621   3.6815   3.7212   3.7212   4.1469   4.4733
     4.4733   4.7575   4.8119   4.8119   4.8560   4.8560   5.0727   5.0727
     5.0730   5.1074   5.3787   5.3787   5.5989   5.6042   5.6990   5.6990
     5.9011   5.9068   5.9068   5.9430   6.0269   6.0316   6.0952   6.1307
     6.1688   6.2529   6.2536   6.5195   6.6243   6.6243   6.8492   6.8492
     6.9004   6.9853   7.1172   7.1230   7.1355   7.1355   7.3538   7.3538
     7.3981   7.3981   7.8138   7.8428   7.8751   7.8771   7.8771   7.8883
     9.3435   9.3493  10.6448  10.6448  10.6745  10.7110  11.8472  11.8472
    11.9656  11.9776  12.3154  12.3154  12.4251  12.4251  12.8070  12.9077
    13.2817  13.3794  13.3794  13.4596  13.7483  13.7803  13.7803  13.8343
    14.8933  15.2746  15.2746  15.4031  15.4099  15.6834  15.9246  15.9246
    16.0191  16.9444  17.2843  17.6831  17.6831

          k = 0.0000 0.3183 0.1667 ( 62213 PWs)   bands (ev):

   -66.1249 -66.1246 -66.1240 -66.1239 -66.1238 -66.1237 -66.1231 -66.1228
   -30.5152 -30.5103 -30.5096 -30.5049 -30.4903 -30.4836 -30.4819 -30.4742
   -30.4697 -30.4675 -30.4640 -30.4602 -30.4579 -30.4576 -30.4528 -30.4517
   -30.3811 -30.3771 -30.3757 -30.3743 -30.3722 -30.3696 -30.3687 -30.3649
   -20.2829 -20.2828 -20.2827 -20.2827 -20.2826 -20.2826 -20.2825 -20.2825
   -20.2675 -20.2671 -20.2671 -20.2667 -20.2650 -20.2646 -20.2646 -20.2641
   -20.2621 -20.2618 -20.2618 -20.2617 -20.2613 -20.2612 -20.2611 -20.2609
   -20.2607 -20.2604 -20.2603 -20.2600 -20.2595 -20.2591 -20.2591 -20.2586
   -20.2520 -20.2517 -20.2516 -20.2513 -20.2494 -20.2493 -20.2489 -20.2486
   -20.2461 -20.2457 -20.2448 -20.2443 -20.2425 -20.2423 -20.2415 -20.2411
   -20.2396 -20.2391 -20.2385 -20.2381 -20.2375 -20.2371 -20.2363 -20.2360
    -9.7777  -9.6325  -9.3976  -9.3059  -9.2683  -9.1661  -8.9768  -8.9679
    -8.8031  -8.6834  -8.6802  -8.6631  -8.1803  -8.1390  -8.1273  -8.1090
    -7.8747  -7.8552  -7.7503  -7.7470  -7.7274  -7.7232  -7.6291  -7.6101
     1.3069   1.3086   1.3246   1.3299   1.5713   1.5812   1.7646   1.8111
     2.3722   2.4920   2.5143   2.5408   2.5835   2.6658   2.8730   2.9680
     2.9868   3.0876   3.6719   3.7100   3.7197   3.7662   4.1367   4.4150
     4.4294   4.4920   4.5091   4.7554   4.7811   4.8606   4.8891   4.9051
     5.0713   5.0976   5.1764   5.3159   5.4069   5.4607   5.6053   5.6512
     5.7016   5.7773   5.8164   5.8869   6.0622   6.0998   6.1239   6.1385
     6.2589   6.4233   6.4262   6.5827   6.6172   6.8334   6.8552   6.9239
     6.9683   6.9870   7.0882   7.0931   7.1017   7.1108   7.1719   7.1841
     7.2402   7.2582   7.8043   7.8361   7.8488   7.8673   7.8731   7.8902
     9.6903   9.6999  10.6492  10.6886  10.8208  10.8610  11.8441  11.9350
    11.9738  12.0463  12.2308  12.3175  12.3711  12.4749  12.8527  12.9273
    13.1631  13.2660  13.3762  13.3870  13.6351  13.6773  13.7776  13.8003
    15.0163  15.2652  15.4125  15.4699  15.5072  15.7511  15.8982  16.1792
    16.2230  16.9076  17.3206  17.3948  17.7552

          k = 0.0000 0.3183 0.3333 ( 62201 PWs)   bands (ev):

   -66.1247 -66.1245 -66.1242 -66.1240 -66.1237 -66.1235 -66.1232 -66.1230
   -30.5140 -30.5113 -30.5086 -30.5059 -30.4882 -30.4847 -30.4793 -30.4753
   -30.4679 -30.4650 -30.4628 -30.4587 -30.4449 -30.4414 -30.4391 -30.4357
   -30.3986 -30.3944 -30.3932 -30.3889 -30.3735 -30.3713 -30.3679 -30.3657
   -20.2828 -20.2828 -20.2828 -20.2827 -20.2826 -20.2826 -20.2826 -20.2825
   -20.2674 -20.2672 -20.2670 -20.2668 -20.2650 -20.2647 -20.2645 -20.2643
   -20.2621 -20.2619 -20.2617 -20.2616 -20.2614 -20.2612 -20.2612 -20.2609
   -20.2607 -20.2605 -20.2601 -20.2598 -20.2596 -20.2593 -20.2590 -20.2587
   -20.2519 -20.2517 -20.2511 -20.2506 -20.2498 -20.2492 -20.2492 -20.2488
   -20.2458 -20.2451 -20.2444 -20.2432 -20.2422 -20.2418 -20.2414 -20.2409
   -20.2402 -20.2397 -20.2388 -20.2387 -20.2382 -20.2375 -20.2368 -20.2362
    -9.6585  -9.5092  -9.4472  -9.3120  -9.1123  -8.9169  -8.8551  -8.8343
    -8.8250  -8.6982  -8.6481  -8.5971  -8.2330  -8.2283  -8.1680  -8.1301
    -8.1221  -8.0848  -8.0556  -8.0030  -7.7195  -7.6998  -7.6529  -7.6337
     1.3372   1.3430   1.3563   1.3618   2.1884   2.2551   2.2922   2.3966
     2.4429   2.5188   2.5322   2.7403   2.8031   2.8383   2.8947   2.9751
     3.2134   3.2970   3.6527   3.6750   3.7758   3.8083   3.8606   3.8756
     4.1038   4.2505   4.4223   4.4475   4.5074   4.5414   4.6123   4.7796
     4.8089   4.8414   4.9929   5.0805   5.1764   5.2117   5.2235   5.3509
     5.3934   5.5869   5.6669   5.8417   6.1393   6.1858   6.2083   6.2615
     6.4223   6.5548   6.5961   6.6448   6.6772   6.8010   6.8055   6.8308
     6.9421   6.9886   7.0445   7.0713   7.0870   7.1423   7.1693   7.2348
     7.3128   7.3566   7.7324   7.7613   7.7926   7.7974   7.8577   7.8769
    10.4005  10.4300  10.6636  10.6961  11.2716  11.3214  11.7993  11.8817
    11.9068  11.9992  12.2091  12.2611  12.5464  12.6154  12.6230  12.6519
    12.8900  13.0882  13.1563  13.3187  13.3742  13.4715  13.7712  13.7826
    15.1422  15.2395  15.5386  15.8183  15.9509  15.9901  16.0289  16.6794
    16.7776  16.8372  17.0366  17.5743  17.6424

          k = 0.0000 0.3183-0.5000 ( 62242 PWs)   bands (ev):

   -66.1245 -66.1245 -66.1242 -66.1242 -66.1235 -66.1235 -66.1233 -66.1233
   -30.5126 -30.5126 -30.5072 -30.5072 -30.4862 -30.4862 -30.4770 -30.4770
   -30.4664 -30.4664 -30.4604 -30.4604 -30.4222 -30.4222 -30.4180 -30.4180
   -30.4167 -30.4167 -30.4125 -30.4125 -30.3724 -30.3724 -30.3668 -30.3668
   -20.2828 -20.2828 -20.2827 -20.2827 -20.2826 -20.2826 -20.2825 -20.2825
   -20.2673 -20.2673 -20.2670 -20.2670 -20.2649 -20.2649 -20.2644 -20.2644
   -20.2620 -20.2620 -20.2615 -20.2615 -20.2614 -20.2614 -20.2611 -20.2611
   -20.2606 -20.2605 -20.2598 -20.2598 -20.2595 -20.2595 -20.2589 -20.2589
   -20.2518 -20.2518 -20.2504 -20.2504 -20.2499 -20.2499 -20.2490 -20.2490
   -20.2454 -20.2454 -20.2427 -20.2427 -20.2421 -20.2421 -20.2413 -20.2413
   -20.2402 -20.2401 -20.2389 -20.2389 -20.2385 -20.2385 -20.2365 -20.2365
    -9.5350  -9.5350  -9.3905  -9.3905  -8.9232  -8.9232  -8.7354  -8.7354
    -8.5562  -8.5561  -8.5518  -8.5518  -8.4878  -8.4878  -8.4024  -8.4024
    -8.1323  -8.1323  -8.0895  -8.0895  -7.6860  -7.6860  -7.6665  -7.6665
     1.3521   1.3521   1.3588   1.3588   2.3708   2.3708   2.5017   2.5017
     2.9077   2.9077   3.0617   3.0617   3.1237   3.1237   3.2550   3.2551
     3.3144   3.3144   3.3687   3.3687   3.4646   3.4646   3.6802   3.6802
     4.0307   4.0307   4.0819   4.0819   4.1716   4.1716   4.3884   4.3884
     4.8151   4.8151   4.9327   4.9327   5.1396   5.1396   5.2726   5.2726
     5.4212   5.4212   5.7526   5.7526   6.2575   6.2575   6.3029   6.3029
     6.4820   6.4820   6.5172   6.5172   6.5572   6.5572   6.7596   6.7596
     7.0684   7.0684   7.0731   7.0731   7.1143   7.1144   7.5198   7.5198
     7.5384   7.5384   7.5935   7.5935   7.6251   7.6251   7.8654   7.8654
    10.6651  10.6651  11.1907  11.1907  11.2376  11.2376  11.7213  11.7213
    11.9736  11.9736  12.1483  12.1483  12.5852  12.5852  12.6521  12.6521
    12.8430  12.8430  12.9610  12.9610  13.3839  13.3839  13.7716  13.7716
    15.1976  15.1976  15.6922  15.6923  16.3220  16.3220  16.5081  16.5081
    16.8616  16.8616  17.3110  17.3110  17.9846

          k = 0.0000-0.4775 0.0000 ( 62250 PWs)   bands (ev):

   -66.1248 -66.1248 -66.1239 -66.1239 -66.1239 -66.1239 -66.1229 -66.1229
   -30.5025 -30.5025 -30.4969 -30.4969 -30.4947 -30.4947 -30.4892 -30.4892
   -30.4711 -30.4711 -30.4628 -30.4628 -30.4614 -30.4614 -30.4599 -30.4599
   -30.3745 -30.3745 -30.3707 -30.3707 -30.3691 -30.3691 -30.3647 -30.3647
   -20.2828 -20.2828 -20.2827 -20.2827 -20.2826 -20.2826 -20.2825 -20.2825
   -20.2662 -20.2662 -20.2659 -20.2659 -20.2657 -20.2657 -20.2654 -20.2654
   -20.2620 -20.2620 -20.2617 -20.2617 -20.2612 -20.2612 -20.2608 -20.2608
   -20.2606 -20.2606 -20.2604 -20.2604 -20.2593 -20.2593 -20.2591 -20.2591
   -20.2520 -20.2520 -20.2515 -20.2515 -20.2493 -20.2493 -20.2486 -20.2486
   -20.2462 -20.2462 -20.2447 -20.2447 -20.2426 -20.2426 -20.2414 -20.2414
   -20.2391 -20.2391 -20.2380 -20.2380 -20.2371 -20.2371 -20.2359 -20.2359
    -9.7469  -9.7469  -9.3062  -9.3062  -9.3000  -9.3000  -9.0128  -9.0128
    -8.4902  -8.4902  -8.4354  -8.4354  -8.4353  -8.4353  -8.4326  -8.4325
    -7.7559  -7.7559  -7.7338  -7.7338  -7.6182  -7.6182  -7.6041  -7.6041
     1.2203   1.2203   1.3217   1.3217   1.3251   1.3251   1.6294   1.6294
     2.4731   2.4731   3.1282   3.1282   3.2172   3.2172   3.2561   3.2561
     3.2765   3.2765   3.3137   3.3138   3.5140   3.5140   3.5318   3.5318
     3.6905   3.6905   4.8129   4.8129   4.8485   4.8485   5.2089   5.2089
     5.2497   5.2497   5.3253   5.3253   5.3423   5.3424   5.7758   5.7758
     5.7795   5.7795   5.9946   5.9946   6.0563   6.0563   6.1356   6.1356
     6.2067   6.2067   6.2839   6.2839   6.7107   6.7107   6.7308   6.7308
     6.9437   6.9438   7.3438   7.3438   7.3828   7.3828   7.4860   7.4860
     7.5035   7.5035   7.5581   7.5581   7.5612   7.5612   7.8677   7.8677
     9.3476   9.3476  11.2593  11.2593  11.2782  11.2782  11.3297  11.3297
    11.3720  11.3720  12.3205  12.3205  12.4276  12.4276  12.8643  12.8643
    13.4906  13.4906  13.5348  13.5348  13.5577  13.5577  13.6122  13.6122
    15.3924  15.3924  15.4540  15.4540  15.6772  15.6772  15.7091  15.7091
    16.5701  16.5701  17.9948  17.9948  18.1340

          k = 0.0000-0.4775 0.1667 ( 62216 PWs)   bands (ev):

   -66.1248 -66.1248 -66.1239 -66.1239 -66.1238 -66.1238 -66.1230 -66.1230
   -30.5020 -30.5016 -30.4972 -30.4960 -30.4951 -30.4943 -30.4896 -30.4895
   -30.4693 -30.4678 -30.4632 -30.4602 -30.4590 -30.4569 -30.4566 -30.4534
   -30.3810 -30.3770 -30.3759 -30.3742 -30.3723 -30.3696 -30.3688 -30.3651
   -20.2828 -20.2828 -20.2827 -20.2827 -20.2826 -20.2826 -20.2825 -20.2825
   -20.2662 -20.2662 -20.2659 -20.2659 -20.2658 -20.2657 -20.2654 -20.2654
   -20.2620 -20.2619 -20.2617 -20.2616 -20.2612 -20.2612 -20.2609 -20.2609
   -20.2606 -20.2605 -20.2604 -20.2602 -20.2593 -20.2592 -20.2591 -20.2591
   -20.2520 -20.2517 -20.2516 -20.2513 -20.2494 -20.2493 -20.2488 -20.2487
   -20.2461 -20.2457 -20.2448 -20.2443 -20.2425 -20.2423 -20.2415 -20.2411
   -20.2396 -20.2391 -20.2385 -20.2381 -20.2375 -20.2371 -20.2363 -20.2360
    -9.6953  -9.6947  -9.3213  -9.3152  -9.2215  -9.2152  -8.9727  -8.9717
    -8.4959  -8.4958  -8.4431  -8.4430  -8.4320  -8.4318  -8.4274  -8.4269
    -7.8726  -7.8589  -7.7475  -7.7471  -7.7284  -7.7263  -7.6268  -7.6127
     1.3076   1.3085   1.3268   1.3301   1.5771   1.5809   1.8008   1.8018
     2.5617   2.5620   3.1331   3.1370   3.2022   3.2137   3.2605   3.2717
     3.3102   3.3192   3.3245   3.3331   3.5107   3.5300   3.5656   3.5771
     3.7174   3.7181   4.4465   4.4609   4.8135   4.8917   4.9651   5.0324
     5.1284   5.1310   5.1947   5.2267   5.3441   5.3481   5.5031   5.5090
     5.7488   5.7491   5.7871   5.7902   6.1104   6.1249   6.1359   6.1374
     6.3803   6.3853   6.4313   6.4341   6.6987   6.7199   6.8916   6.9155
     7.0085   7.0132   7.1275   7.1541   7.1687   7.2036   7.4783   7.4914
     7.5008   7.5102   7.5378   7.5416   7.5503   7.5538   7.8681   7.8687
     9.6930   9.7016  11.2632  11.2823  11.3323  11.3362  11.3979  11.3984
    11.4598  11.4812  12.2331  12.3183  12.3733  12.4749  12.9026  12.9180
    13.3435  13.3593  13.4028  13.4109  13.5315  13.5527  13.5917  13.5960
    15.3817  15.4155  15.6248  15.6437  15.6621  15.7019  15.9574  15.9721
    16.6314  16.6336  17.8987  17.9132  18.0426

          k = 0.0000-0.4775 0.3333 ( 62282 PWs)   bands (ev):

   -66.1246 -66.1246 -66.1241 -66.1241 -66.1236 -66.1236 -66.1231 -66.1231
   -30.5008 -30.4997 -30.4981 -30.4961 -30.4942 -30.4932 -30.4906 -30.4905
   -30.4672 -30.4645 -30.4642 -30.4612 -30.4448 -30.4408 -30.4405 -30.4363
   -30.3985 -30.3942 -30.3935 -30.3891 -30.3734 -30.3712 -30.3680 -30.3659
   -20.2828 -20.2828 -20.2827 -20.2827 -20.2826 -20.2826 -20.2825 -20.2825
   -20.2662 -20.2662 -20.2660 -20.2659 -20.2658 -20.2657 -20.2655 -20.2655
   -20.2620 -20.2618 -20.2618 -20.2615 -20.2614 -20.2612 -20.2611 -20.2610
   -20.2606 -20.2604 -20.2601 -20.2599 -20.2595 -20.2593 -20.2592 -20.2591
   -20.2519 -20.2517 -20.2511 -20.2506 -20.2498 -20.2492 -20.2492 -20.2488
   -20.2458 -20.2451 -20.2444 -20.2432 -20.2422 -20.2418 -20.2414 -20.2409
   -20.2402 -20.2397 -20.2388 -20.2387 -20.2382 -20.2375 -20.2368 -20.2362
    -9.5732  -9.5708  -9.3680  -9.3623  -8.9872  -8.9805  -8.8369  -8.8331
    -8.5305  -8.5297  -8.4685  -8.4681  -8.4240  -8.4238  -8.4032  -8.4028
    -8.1588  -8.1484  -8.0534  -8.0434  -7.7171  -7.7027  -7.6506  -7.6364
     1.3401   1.3430   1.3596   1.3612   2.2541   2.2596   2.4373   2.4416
     2.8179   2.8190   3.1390   3.1501   3.1908   3.2178   3.2592   3.2707
     3.3162   3.3237   3.4060   3.4264   3.4939   3.5225   3.7173   3.7211
     3.7820   3.7873   3.8528   3.8625   4.4498   4.4610   4.6205   4.6321
     4.7736   4.8049   4.8543   4.8978   5.2021   5.2031   5.2500   5.2548
     5.3922   5.3952   5.6706   5.6744   6.1839   6.1865   6.2419   6.2706
     6.5194   6.5260   6.5998   6.6575   6.6878   6.6936   6.8314   6.8510
     7.0357   7.0499   7.1748   7.1868   7.1892   7.2006   7.4562   7.4760
     7.5067   7.5126   7.5208   7.5290   7.5387   7.5445   7.8018   7.8037
    10.4124  10.4347  11.2727  11.2946  11.3216  11.3306  11.7494  11.7500
    11.7868  11.8123  11.8719  11.9139  12.5444  12.6274  12.7331  12.7600
    12.8906  12.8963  13.1678  13.1691  13.5265  13.5336  13.5599  13.5685
    15.4156  15.4488  15.6016  15.6289  16.2389  16.2535  16.6788  16.6916
    16.8448  16.8495  17.4055  17.4174  17.9500

          k = 0.0000-0.4775-0.5000 ( 62256 PWs)   bands (ev):

   -66.1243 -66.1243 -66.1243 -66.1243 -66.1234 -66.1234 -66.1234 -66.1234
   -30.4995 -30.4995 -30.4977 -30.4977 -30.4924 -30.4924 -30.4917 -30.4917
   -30.4656 -30.4656 -30.4627 -30.4627 -30.4221 -30.4221 -30.4176 -30.4176
   -30.4173 -30.4173 -30.4128 -30.4128 -30.3723 -30.3723 -30.3670 -30.3670
   -20.2828 -20.2828 -20.2827 -20.2827 -20.2826 -20.2826 -20.2825 -20.2825
   -20.2661 -20.2661 -20.2660 -20.2660 -20.2657 -20.2657 -20.2656 -20.2656
   -20.2619 -20.2619 -20.2616 -20.2616 -20.2613 -20.2613 -20.2611 -20.2611
   -20.2605 -20.2605 -20.2597 -20.2597 -20.2596 -20.2596 -20.2591 -20.2591
   -20.2518 -20.2518 -20.2504 -20.2504 -20.2498 -20.2498 -20.2490 -20.2490
   -20.2454 -20.2454 -20.2427 -20.2427 -20.2421 -20.2421 -20.2413 -20.2413
   -20.2402 -20.2401 -20.2389 -20.2389 -20.2385 -20.2385 -20.2365 -20.2365
    -9.4520  -9.4520  -9.4463  -9.4463  -8.6950  -8.6950  -8.6777  -8.6777
    -8.6078  -8.6078  -8.5934  -8.5934  -8.3955  -8.3955  -8.3666  -8.3666
    -8.3303  -8.3303  -8.3036  -8.3036  -7.6836  -7.6836  -7.6693  -7.6693
     1.3554   1.3554   1.3586   1.3586   2.9858   2.9858   3.0542   3.0542
     3.1382   3.1382   3.1727   3.1728   3.1989   3.1989   3.2385   3.2385
     3.2820   3.2820   3.3603   3.3603   3.4474   3.4474   3.5131   3.5131
     3.5525   3.5525   3.7513   3.7513   4.2581   4.2581   4.3416   4.3416
     4.3732   4.3732   4.4497   4.4497   5.1986   5.1986   5.2391   5.2391
     5.4969   5.4969   5.5490   5.5490   6.2963   6.2963   6.3042   6.3042
     6.5255   6.5255   6.5388   6.5388   6.6173   6.6173   6.6541   6.6541
     7.2757   7.2757   7.3106   7.3106   7.3397   7.3397   7.4504   7.4504
     7.4765   7.4765   7.5299   7.5299   7.6117   7.6117   7.6213   7.6214
    11.1467  11.1467  11.2162  11.2162  11.3182  11.3182  11.3583  11.3583
    12.2181  12.2181  12.2479  12.2479  12.3420  12.3420  12.3563  12.3563
    12.8438  12.8438  12.8923  12.8923  13.5251  13.5251  13.5488  13.5488
    15.5101  15.5101  15.5394  15.5394  16.8661  16.8661  16.9152  16.9152
    17.3387  17.3387  17.4124  17.4125  17.4925

          k = 0.1667 0.0000 0.1667 ( 62214 PWs)   bands (ev):

   -66.1249 -66.1245 -66.1241 -66.1241 -66.1236 -66.1236 -66.1232 -66.1228
   -30.5292 -30.5249 -30.5248 -30.5206 -30.4798 -30.4725 -30.4720 -30.4651
   -30.4644 -30.4593 -30.4591 -30.4587 -30.4584 -30.4472 -30.4469 -30.4433
   -30.3812 -30.3811 -30.3784 -30.3778 -30.3744 -30.3742 -30.3716 -30.3699
   -20.2829 -20.2827 -20.2827 -20.2827 -20.2826 -20.2826 -20.2826 -20.2824
   -20.2687 -20.2684 -20.2684 -20.2681 -20.2639 -20.2635 -20.2634 -20.2629
   -20.2623 -20.2619 -20.2619 -20.2618 -20.2614 -20.2613 -20.2612 -20.2609
   -20.2607 -20.2605 -20.2603 -20.2598 -20.2593 -20.2587 -20.2586 -20.2582
   -20.2519 -20.2515 -20.2513 -20.2513 -20.2494 -20.2494 -20.2491 -20.2485
   -20.2456 -20.2456 -20.2444 -20.2444 -20.2422 -20.2422 -20.2412 -20.2412
   -20.2395 -20.2395 -20.2386 -20.2385 -20.2375 -20.2375 -20.2365 -20.2364
    -9.8375  -9.5263  -9.4612  -9.4606  -9.1466  -9.1458  -9.1021  -8.9436
    -8.9276  -8.8594  -8.8254  -8.8247  -7.9047  -7.8635  -7.8577  -7.8423
    -7.8132  -7.8004  -7.7771  -7.7525  -7.7456  -7.7257  -7.7172  -7.7137
     1.4265   1.4551   1.4562   1.4809   1.4824   1.5829   1.5877   1.5902
     1.7135   1.7181   1.9027   2.0640   2.6049   2.6701   2.6807   2.6993
     2.7887   2.8197   4.1295   4.1337   4.3561   4.3596   4.4898   4.5062
     4.5356   4.5447   4.6206   4.6667   4.7475   4.8127   5.1261   5.2675
     5.2800   5.3322   5.3597   5.5330   5.5350   5.5982   5.6195   5.7121
     5.7151   5.7413   5.7670   5.8000   5.8504   6.0268   6.2826   6.3777
     6.4475   6.5134   6.5347   6.6761   6.6959   6.7198   6.7385   6.7607
     6.7924   6.8235   6.8742   6.8845   6.9090   6.9813   7.0086   7.1025
     7.2712   7.3199   7.8539   7.8566   8.0384   8.0764   8.0813   8.1200
     9.8955   9.9460  10.1762  10.2065  10.2556  10.3169  12.2575  12.2630
    12.3195  12.3300  12.3923  12.4251  12.6589  12.6600  12.7810  12.9099
    12.9844  13.1394  13.2368  13.3017  13.7914  13.8954  13.9573  13.9951
    14.3480  14.6313  14.6370  15.1557  15.4837  15.5270  15.5420  16.3424
    16.3426  16.9781  16.9784  17.1705  17.6041

          k = 0.1667 0.0000 0.3333 ( 62228 PWs)   bands (ev):

   -66.1247 -66.1243 -66.1243 -66.1239 -66.1238 -66.1235 -66.1234 -66.1230
   -30.5283 -30.5258 -30.5240 -30.5216 -30.4767 -30.4731 -30.4666 -30.4624
   -30.4605 -30.4597 -30.4556 -30.4484 -30.4445 -30.4420 -30.4350 -30.4337
   -30.3986 -30.3950 -30.3923 -30.3889 -30.3801 -30.3778 -30.3738 -30.3716
   -20.2829 -20.2828 -20.2827 -20.2827 -20.2826 -20.2826 -20.2825 -20.2825
   -20.2687 -20.2685 -20.2684 -20.2682 -20.2638 -20.2636 -20.2634 -20.2631
   -20.2622 -20.2620 -20.2618 -20.2616 -20.2615 -20.2614 -20.2611 -20.2609
   -20.2607 -20.2605 -20.2602 -20.2599 -20.2592 -20.2588 -20.2585 -20.2583
   -20.2517 -20.2514 -20.2510 -20.2507 -20.2497 -20.2494 -20.2492 -20.2488
   -20.2454 -20.2446 -20.2443 -20.2433 -20.2419 -20.2415 -20.2414 -20.2408
   -20.2403 -20.2398 -20.2393 -20.2389 -20.2385 -20.2375 -20.2373 -20.2366
    -9.7217  -9.5109  -9.3908  -9.3220  -9.1881  -9.1329  -8.8953  -8.8752
    -8.8373  -8.7955  -8.7680  -8.7049  -8.1757  -8.1609  -8.1016  -8.0838
    -7.8567  -7.8276  -7.7989  -7.7948  -7.7532  -7.7521  -7.7493  -7.7270
     1.4347   1.4480   1.5394   1.5706   1.6017   1.6157   1.6835   1.7205
     2.2801   2.3203   2.4507   2.5341   2.6962   2.7805   2.8705   2.9153
     2.9762   3.0529   3.8135   3.8679   3.9434   3.9816   4.1335   4.3198
     4.3395   4.5142   4.5201   4.5502   4.6012   4.7448   4.7681   4.9024
     5.0544   5.0713   5.1235   5.2179   5.2772   5.4155   5.5919   5.6407
     5.7447   5.7592   5.7922   5.8604   5.8682   6.0232   6.1216   6.1639
     6.4219   6.4700   6.5308   6.5669   6.5791   6.6975   6.7139   6.7296
     6.7700   6.8796   6.8902   6.9152   7.1035   7.1392   7.1726   7.2359
     7.3240   7.3677   7.7844   7.7979   7.9271   7.9648   8.0932   8.1049
    10.2011  10.2073  10.5260  10.5865  10.8397  10.9481  11.8983  11.9615
    12.1358  12.4080  12.4352  12.4708  12.5809  12.6588  12.7836  12.8283
    12.8923  13.0668  13.0766  13.2381  13.6298  13.6580  13.9102  13.9267
    14.4535  14.6094  14.8861  15.3789  15.4615  15.7926  15.9595  16.2463
    16.4275  17.1872  17.4398  17.4960  17.6216

          k = 0.1667 0.0000-0.5000 ( 62248 PWs)   bands (ev):

   -66.1245 -66.1245 -66.1241 -66.1240 -66.1237 -66.1237 -66.1232 -66.1232
   -30.5270 -30.5270 -30.5228 -30.5228 -30.4746 -30.4746 -30.4628 -30.4628
   -30.4609 -30.4609 -30.4507 -30.4507 -30.4221 -30.4221 -30.4186 -30.4186
   -30.4151 -30.4151 -30.4120 -30.4120 -30.3791 -30.3791 -30.3727 -30.3727
   -20.2828 -20.2828 -20.2827 -20.2827 -20.2827 -20.2827 -20.2825 -20.2825
   -20.2686 -20.2686 -20.2683 -20.2683 -20.2637 -20.2637 -20.2633 -20.2632
   -20.2621 -20.2621 -20.2616 -20.2616 -20.2615 -20.2615 -20.2611 -20.2611
   -20.2606 -20.2606 -20.2601 -20.2601 -20.2589 -20.2589 -20.2584 -20.2584
   -20.2516 -20.2516 -20.2503 -20.2503 -20.2500 -20.2500 -20.2490 -20.2490
   -20.2450 -20.2450 -20.2426 -20.2426 -20.2419 -20.2419 -20.2413 -20.2413
   -20.2401 -20.2401 -20.2391 -20.2391 -20.2389 -20.2389 -20.2370 -20.2370
    -9.5994  -9.5994  -9.2658  -9.2657  -9.1995  -9.1995  -8.8544  -8.8544
    -8.5414  -8.5414  -8.5301  -8.5301  -8.4873  -8.4873  -8.4369  -8.4369
    -7.8312  -7.8312  -7.7946  -7.7946  -7.7661  -7.7661  -7.7400  -7.7400
     1.4398   1.4398   1.5567   1.5567   1.6186   1.6186   1.7220   1.7220
     2.7227   2.7227   3.0172   3.0172   3.0984   3.0985   3.2132   3.2132
     3.3004   3.3004   3.4131   3.4131   3.5595   3.5595   3.7995   3.7996
     3.8528   3.8528   4.4390   4.4390   4.5307   4.5307   4.9203   4.9203
     5.0451   5.0451   5.0635   5.0635   5.2711   5.2711   5.6707   5.6707
     5.7617   5.7617   5.8273   5.8273   5.8870   5.8870   6.0173   6.0173
     6.3539   6.3539   6.4643   6.4643   6.6782   6.6782   6.7272   6.7272
     6.8430   6.8430   6.9652   6.9653   7.0205   7.0205   7.5405   7.5405
     7.5823   7.5823   7.6914   7.6914   7.7205   7.7205   8.1028   8.1029
    10.2129  10.2129  11.2458  11.2458  11.3184  11.3184  11.5550  11.5550
    11.7279  11.7279  12.6329  12.6329  12.6740  12.6740  12.7341  12.7341
    12.9063  12.9063  13.2571  13.2571  13.3357  13.3357  13.9131  13.9131
    14.5575  14.5575  15.1808  15.1808  15.8905  15.8905  16.0658  16.0658
    16.7432  16.7432  17.8747  17.8748  17.9546

          k = 0.1667 0.1592 0.1667 ( 62235 PWs)   bands (ev):

   -66.1249 -66.1245 -66.1241 -66.1241 -66.1237 -66.1237 -66.1232 -66.1228
   -30.5253 -30.5208 -30.5208 -30.5165 -30.4819 -30.4747 -30.4742 -30.4650
   -30.4643 -30.4633 -30.4591 -30.4585 -30.4583 -30.4490 -30.4488 -30.4456
   -30.3811 -30.3810 -30.3783 -30.3778 -30.3745 -30.3744 -30.3716 -30.3702
   -20.2829 -20.2828 -20.2827 -20.2827 -20.2826 -20.2826 -20.2826 -20.2824
   -20.2684 -20.2681 -20.2681 -20.2677 -20.2642 -20.2638 -20.2637 -20.2633
   -20.2622 -20.2618 -20.2618 -20.2617 -20.2614 -20.2612 -20.2612 -20.2609
   -20.2607 -20.2605 -20.2603 -20.2598 -20.2595 -20.2588 -20.2588 -20.2583
   -20.2519 -20.2515 -20.2513 -20.2513 -20.2494 -20.2494 -20.2490 -20.2486
   -20.2456 -20.2456 -20.2444 -20.2444 -20.2422 -20.2422 -20.2412 -20.2412
   -20.2395 -20.2395 -20.2386 -20.2385 -20.2375 -20.2375 -20.2365 -20.2364
    -9.8045  -9.5381  -9.4189  -9.4183  -9.1545  -9.1538  -9.0264  -8.9426
    -8.9286  -8.8149  -8.7905  -8.7899  -7.9486  -7.8923  -7.8892  -7.8617
    -7.8581  -7.8415  -7.8410  -7.8250  -7.7738  -7.7506  -7.7328  -7.7154
     1.4781   1.4787   1.5358   1.5408   1.5801   1.5902   1.6182   1.7970
     1.8726   1.8794   1.9059   2.1485   2.6138   2.6931   2.7435   2.7557
     2.8618   2.8849   4.0370   4.0560   4.1605   4.1717   4.4580   4.4649
     4.5373   4.5434   4.6040   4.6762   4.7114   4.7534   4.9449   5.2007
     5.2270   5.2922   5.2934   5.3548   5.3771   5.5517   5.5698   5.6283
     5.7572   5.7637   5.8209   5.8267   5.8358   5.9106   6.2909   6.3420
     6.4075   6.4836   6.4942   6.6811   6.6876   6.7431   6.7644   6.7835
     6.8033   6.8680   6.8945   6.9091   6.9692   6.9700   7.0081   7.1060
     7.2764   7.3191   7.8522   7.8573   7.9931   8.0235   8.0329   8.0477
     9.9170   9.9500  10.3542  10.3668  10.4237  10.4589  12.2441  12.2507
    12.2732  12.2931  12.3559  12.3669  12.5072  12.5103  12.8107  12.9381
    12.9806  13.1313  13.2444  13.3007  13.8050  13.8285  13.8989  13.9050
    14.5632  14.8864  14.8865  15.2887  15.5282  15.5399  15.8853  16.3089
    16.3107  16.8484  17.0865  17.0929  17.6571

          k = 0.1667 0.1592 0.3333 ( 62240 PWs)   bands (ev):

   -66.1247 -66.1243 -66.1242 -66.1239 -66.1238 -66.1235 -66.1234 -66.1230
   -30.5243 -30.5218 -30.5200 -30.5175 -30.4790 -30.4754 -30.4699 -30.4646
   -30.4623 -30.4596 -30.4562 -30.4502 -30.4445 -30.4419 -30.4362 -30.4345
   -30.3986 -30.3949 -30.3926 -30.3890 -30.3800 -30.3777 -30.3740 -30.3718
   -20.2829 -20.2828 -20.2827 -20.2827 -20.2826 -20.2826 -20.2826 -20.2825
   -20.2683 -20.2682 -20.2680 -20.2678 -20.2641 -20.2639 -20.2637 -20.2634
   -20.2622 -20.2619 -20.2617 -20.2616 -20.2614 -20.2614 -20.2612 -20.2609
   -20.2607 -20.2605 -20.2602 -20.2599 -20.2593 -20.2589 -20.2587 -20.2584
   -20.2517 -20.2514 -20.2510 -20.2507 -20.2497 -20.2494 -20.2492 -20.2488
   -20.2454 -20.2446 -20.2443 -20.2433 -20.2419 -20.2415 -20.2414 -20.2408
   -20.2403 -20.2398 -20.2393 -20.2389 -20.2385 -20.2375 -20.2373 -20.2367
    -9.6850  -9.4693  -9.4022  -9.2658  -9.1967  -9.0580  -8.9026  -8.8549
    -8.8031  -8.7961  -8.7475  -8.6841  -8.1770  -8.1651  -8.1151  -8.0828
    -7.9048  -7.8865  -7.8602  -7.8369  -7.8317  -7.8105  -7.7738  -7.7509
     1.5432   1.5577   1.6007   1.6140   1.7571   1.7604   1.8334   1.8754
     2.2797   2.3308   2.4521   2.5495   2.7694   2.8440   2.8903   2.9723
     2.9908   3.1109   3.8164   3.8690   3.9380   3.9455   4.1504   4.1761
     4.2395   4.3755   4.5074   4.5696   4.6202   4.6957   4.7271   4.8281
     4.9079   4.9499   4.9614   5.1735   5.2025   5.2483   5.3488   5.6044
     5.6398   5.6774   5.7663   5.8137   5.8658   5.8797   6.1099   6.1558
     6.3834   6.5173   6.5568   6.6407   6.7060   6.7173   6.7295   6.7939
     6.8445   6.8847   6.9319   6.9665   7.0980   7.1351   7.1737   7.2387
     7.3223   7.3703   7.7851   7.7943   7.8902   7.9197   8.0340   8.0402
    10.3510  10.3771  10.5499  10.5990  10.9564  11.0414  11.8990  11.9608
    12.1250  12.4057  12.4431  12.4901  12.5000  12.5303  12.6901  12.7689
    12.8552  13.0461  13.0707  13.2315  13.5338  13.5652  13.8502  13.8677
    14.7285  14.8665  15.2174  15.5615  15.7767  15.7974  15.9740  16.2189
    16.5347  17.1505  17.2565  17.4960  17.5536

          k = 0.1667 0.1592-0.5000 ( 62260 PWs)   bands (ev):

   -66.1245 -66.1245 -66.1241 -66.1241 -66.1236 -66.1236 -66.1232 -66.1232
   -30.5230 -30.5230 -30.5187 -30.5187 -30.4769 -30.4769 -30.4666 -30.4666
   -30.4608 -30.4608 -30.4522 -30.4522 -30.4220 -30.4220 -30.4185 -30.4185
   -30.4156 -30.4156 -30.4123 -30.4123 -30.3790 -30.3790 -30.3729 -30.3729
   -20.2828 -20.2828 -20.2827 -20.2827 -20.2826 -20.2826 -20.2825 -20.2825
   -20.2683 -20.2683 -20.2679 -20.2679 -20.2640 -20.2640 -20.2636 -20.2636
   -20.2621 -20.2621 -20.2616 -20.2616 -20.2615 -20.2615 -20.2611 -20.2611
   -20.2606 -20.2605 -20.2600 -20.2600 -20.2591 -20.2591 -20.2585 -20.2585
   -20.2516 -20.2516 -20.2503 -20.2503 -20.2499 -20.2499 -20.2490 -20.2490
   -20.2450 -20.2450 -20.2426 -20.2426 -20.2419 -20.2419 -20.2413 -20.2413
   -20.2401 -20.2401 -20.2392 -20.2391 -20.2389 -20.2389 -20.2370 -20.2370
    -9.5594  -9.5594  -9.2758  -9.2758  -9.1292  -9.1292  -8.8207  -8.8207
    -8.5452  -8.5452  -8.5331  -8.5331  -8.4877  -8.4877  -8.4309  -8.4309
    -7.8969  -7.8969  -7.8489  -7.8489  -7.8062  -7.8062  -7.7808  -7.7808
     1.5522   1.5522   1.6173   1.6173   1.7702   1.7702   1.8717   1.8717
     2.7917   2.7917   3.0336   3.0336   3.1156   3.1156   3.2276   3.2276
     3.3031   3.3031   3.4225   3.4225   3.5518   3.5518   3.8112   3.8112
     3.9015   3.9015   4.2802   4.2802   4.5262   4.5262   4.7221   4.7221
     4.9463   4.9463   5.0282   5.0282   5.1031   5.1031   5.4636   5.4636
     5.7097   5.7097   5.7400   5.7400   5.8809   5.8809   5.8978   5.8978
     6.4836   6.4836   6.6219   6.6219   6.6712   6.6712   6.7675   6.7675
     6.9173   6.9173   6.9305   6.9305   7.0518   7.0518   7.5421   7.5421
     7.5756   7.5756   7.6719   7.6719   7.6990   7.6990   8.0396   8.0396
    10.3822  10.3822  11.2541  11.2541  11.3186  11.3186  11.6256  11.6256
    11.7904  11.7904  12.5326  12.5326  12.6319  12.6319  12.7199  12.7199
    12.8940  12.8940  13.1453  13.1453  13.2618  13.2618  13.8526  13.8526
    14.8243  14.8243  15.5488  15.5488  16.0029  16.0029  16.0527  16.0527
    16.7783  16.7783  17.7064  17.7064  17.9508

          k = 0.1667 0.3183 0.1667 ( 62229 PWs)   bands (ev):

   -66.1248 -66.1246 -66.1240 -66.1240 -66.1237 -66.1237 -66.1231 -66.1229
   -30.5147 -30.5100 -30.5099 -30.5053 -30.4890 -30.4824 -30.4822 -30.4746
   -30.4649 -30.4643 -30.4586 -30.4581 -30.4575 -30.4524 -30.4523 -30.4503
   -30.3809 -30.3808 -30.3781 -30.3778 -30.3748 -30.3747 -30.3716 -30.3708
   -20.2829 -20.2828 -20.2827 -20.2827 -20.2826 -20.2826 -20.2825 -20.2825
   -20.2675 -20.2671 -20.2671 -20.2668 -20.2650 -20.2646 -20.2646 -20.2642
   -20.2621 -20.2618 -20.2617 -20.2617 -20.2613 -20.2612 -20.2611 -20.2608
   -20.2607 -20.2604 -20.2603 -20.2599 -20.2595 -20.2591 -20.2591 -20.2587
   -20.2518 -20.2516 -20.2513 -20.2513 -20.2494 -20.2494 -20.2489 -20.2487
   -20.2456 -20.2456 -20.2444 -20.2444 -20.2422 -20.2422 -20.2412 -20.2412
   -20.2395 -20.2395 -20.2386 -20.2385 -20.2375 -20.2375 -20.2365 -20.2364
    -9.7248  -9.5749  -9.3226  -9.3219  -9.1809  -9.1801  -8.9396  -8.9317
    -8.8120  -8.6740  -8.6679  -8.6674  -8.1820  -8.1356  -8.1354  -8.1156
    -7.8718  -7.8609  -7.8519  -7.8384  -7.7745  -7.7611  -7.7313  -7.7200
     1.4785   1.4786   1.5738   1.5791   1.5842   1.5898   1.8376   1.8974
     2.3745   2.4933   2.4948   2.6322   2.6359   2.6955   2.9654   2.9821
     3.0778   3.0845   3.7060   3.7235   3.7376   3.7788   4.1276   4.4369
     4.4388   4.4770   4.4966   4.5517   4.5764   4.7569   4.7678   4.8600
     4.8726   4.9157   5.1151   5.1469   5.3702   5.3967   5.4088   5.4228
     5.6673   5.6836   5.7487   5.7669   5.8359   5.8413   6.3332   6.3638
     6.4279   6.4732   6.5157   6.6444   6.7398   6.7745   6.8458   6.8502
     6.9256   6.9302   7.0160   7.0221   7.1183   7.1216   7.1473   7.1610
     7.3058   7.3269   7.7992   7.8201   7.8347   7.8571   7.8626   7.8870
     9.9408   9.9525  10.7981  10.8186  10.8756  10.8763  11.9121  11.9513
    12.0403  12.0509  12.2871  12.2888  12.3711  12.3713  12.8832  12.9424
    13.1031  13.1810  13.2799  13.3271  13.6075  13.6096  13.6779  13.7147
    15.1664  15.4427  15.4573  15.5454  15.5536  15.8183  16.1920  16.1953
    16.3069  16.8731  17.3750  17.4467  17.4885

          k = 0.1667 0.3183 0.3333 ( 62238 PWs)   bands (ev):

   -66.1246 -66.1244 -66.1241 -66.1239 -66.1238 -66.1236 -66.1233 -66.1231
   -30.5136 -30.5109 -30.5089 -30.5062 -30.4868 -30.4833 -30.4797 -30.4757
   -30.4619 -30.4591 -30.4577 -30.4535 -30.4443 -30.4415 -30.4387 -30.4359
   -30.3983 -30.3947 -30.3930 -30.3893 -30.3798 -30.3775 -30.3743 -30.3721
   -20.2828 -20.2827 -20.2827 -20.2827 -20.2826 -20.2826 -20.2826 -20.2825
   -20.2674 -20.2672 -20.2671 -20.2669 -20.2650 -20.2647 -20.2646 -20.2643
   -20.2620 -20.2618 -20.2617 -20.2616 -20.2614 -20.2613 -20.2612 -20.2609
   -20.2606 -20.2604 -20.2601 -20.2597 -20.2596 -20.2592 -20.2590 -20.2588
   -20.2517 -20.2514 -20.2510 -20.2507 -20.2497 -20.2493 -20.2493 -20.2489
   -20.2454 -20.2446 -20.2443 -20.2433 -20.2419 -20.2415 -20.2414 -20.2408
   -20.2403 -20.2398 -20.2393 -20.2389 -20.2385 -20.2375 -20.2373 -20.2367
    -9.5971  -9.4388  -9.3731  -9.2254  -9.1289  -8.9321  -8.8474  -8.8239
    -8.8002  -8.6815  -8.6437  -8.6020  -8.2425  -8.2229  -8.1627  -8.1305
    -8.1258  -8.0836  -8.0633  -8.0087  -7.8398  -7.8207  -7.7745  -7.7564
     1.5888   1.5990   1.6060   1.6139   2.1930   2.2593   2.2844   2.3950
     2.4311   2.5120   2.5227   2.7125   2.8994   2.9628   2.9915   3.0700
     3.2160   3.2945   3.6841   3.7154   3.7673   3.8094   3.9071   3.9803
     4.0981   4.2606   4.4078   4.4479   4.4872   4.5170   4.5773   4.6726
     4.7348   4.7950   4.8299   4.8796   4.9260   4.9851   5.1263   5.1793
     5.3305   5.3499   5.4466   5.6350   5.7802   5.8439   6.1426   6.1558
     6.5506   6.6154   6.6415   6.7443   6.8182   6.8276   6.9224   6.9942
     7.0085   7.0340   7.0622   7.0865   7.1429   7.1692   7.2185   7.2694
     7.3281   7.3784   7.7348   7.7494   7.7923   7.7979   7.8378   7.8654
    10.5314  10.5642  10.8368  10.8653  11.2816  11.3333  11.8692  11.9397
    11.9509  12.0959  12.2090  12.2548  12.4645  12.5535  12.6341  12.6433
    12.8836  13.0295  13.0825  13.2528  13.3002  13.3628  13.6313  13.6629
    15.3396  15.4440  15.7447  15.9900  16.0229  16.0521  16.1277  16.7378
    16.7516  16.8868  17.0413  17.5977  17.6918

          k = 0.1667 0.3183-0.5000 ( 62210 PWs)   bands (ev):

   -66.1244 -66.1244 -66.1242 -66.1242 -66.1236 -66.1236 -66.1233 -66.1233
   -30.5122 -30.5122 -30.5076 -30.5076 -30.4848 -30.4848 -30.4774 -30.4774
   -30.4604 -30.4604 -30.4551 -30.4551 -30.4218 -30.4218 -30.4182 -30.4182
   -30.4165 -30.4165 -30.4128 -30.4128 -30.3788 -30.3788 -30.3732 -30.3732
   -20.2828 -20.2828 -20.2827 -20.2827 -20.2826 -20.2826 -20.2825 -20.2825
   -20.2673 -20.2673 -20.2670 -20.2670 -20.2648 -20.2648 -20.2644 -20.2644
   -20.2620 -20.2620 -20.2616 -20.2616 -20.2614 -20.2614 -20.2611 -20.2611
   -20.2605 -20.2605 -20.2598 -20.2598 -20.2595 -20.2595 -20.2589 -20.2589
   -20.2515 -20.2515 -20.2503 -20.2503 -20.2499 -20.2499 -20.2491 -20.2491
   -20.2450 -20.2450 -20.2426 -20.2426 -20.2419 -20.2419 -20.2413 -20.2413
   -20.2401 -20.2401 -20.2392 -20.2391 -20.2389 -20.2389 -20.2370 -20.2370
    -9.4651  -9.4651  -9.3085  -9.3085  -8.9377  -8.9376  -8.7151  -8.7151
    -8.5739  -8.5739  -8.5440  -8.5440  -8.4762  -8.4762  -8.4063  -8.4063
    -8.1295  -8.1295  -8.0951  -8.0951  -7.8072  -7.8072  -7.7885  -7.7885
     1.6050   1.6050   1.6170   1.6170   2.3736   2.3736   2.4847   2.4847
     2.9812   2.9812   3.0806   3.0806   3.1301   3.1302   3.2738   3.2738
     3.3092   3.3092   3.4584   3.4584   3.5199   3.5199   3.7250   3.7250
     4.0293   4.0293   4.0850   4.0850   4.1677   4.1677   4.3930   4.3930
     4.7292   4.7292   4.8341   4.8341   4.9945   4.9945   5.0326   5.0326
     5.1349   5.1349   5.5270   5.5270   5.8774   5.8774   5.9029   5.9029
     6.6668   6.6668   6.7821   6.7821   6.8363   6.8363   6.8651   6.8651
     7.0447   7.0447   7.0844   7.0844   7.1863   7.1863   7.5304   7.5304
     7.5516   7.5516   7.6023   7.6023   7.6350   7.6350   7.8466   7.8466
    10.8244  10.8244  11.2706  11.2706  11.3207  11.3208  11.7709  11.7709
    11.9846  11.9846  12.1891  12.1891  12.5684  12.5684  12.6206  12.6206
    12.8024  12.8024  12.9160  12.9160  13.2279  13.2279  13.6371  13.6371
    15.4050  15.4050  15.9598  15.9598  16.3871  16.3871  16.5024  16.5024
    16.9172  16.9172  17.3487  17.3488  17.8997

          k = 0.1667-0.4775 0.1667 ( 62234 PWs)   bands (ev):

   -66.1247 -66.1247 -66.1239 -66.1239 -66.1239 -66.1239 -66.1230 -66.1230
   -30.5011 -30.5011 -30.4963 -30.4963 -30.4946 -30.4946 -30.4899 -30.4899
   -30.4645 -30.4645 -30.4580 -30.4580 -30.4554 -30.4554 -30.4533 -30.4533
   -30.3808 -30.3808 -30.3779 -30.3779 -30.3748 -30.3748 -30.3713 -30.3713
   -20.2828 -20.2828 -20.2827 -20.2827 -20.2826 -20.2826 -20.2825 -20.2825
   -20.2662 -20.2662 -20.2659 -20.2659 -20.2658 -20.2658 -20.2655 -20.2655
   -20.2619 -20.2619 -20.2617 -20.2617 -20.2613 -20.2613 -20.2609 -20.2609
   -20.2604 -20.2604 -20.2602 -20.2602 -20.2593 -20.2593 -20.2591 -20.2591
   -20.2517 -20.2517 -20.2513 -20.2513 -20.2494 -20.2494 -20.2488 -20.2488
   -20.2456 -20.2456 -20.2444 -20.2444 -20.2422 -20.2422 -20.2412 -20.2412
   -20.2395 -20.2395 -20.2386 -20.2386 -20.2375 -20.2375 -20.2364 -20.2364
    -9.6390  -9.6390  -9.2370  -9.2370  -9.2307  -9.2307  -8.9357  -8.9357
    -8.5031  -8.5031  -8.4393  -8.4393  -8.4344  -8.4344  -8.4258  -8.4258
    -7.8668  -7.8668  -7.8463  -7.8463  -7.7685  -7.7685  -7.7260  -7.7260
     1.4784   1.4784   1.5810   1.5810   1.5881   1.5881   1.8856   1.8856
     2.6533   2.6533   3.1413   3.1413   3.2119   3.2119   3.2642   3.2642
     3.3224   3.3224   3.3793   3.3793   3.5621   3.5621   3.5757   3.5757
     3.7379   3.7379   4.4860   4.4860   4.5380   4.5380   4.9338   4.9338
     5.0107   5.0107   5.1097   5.1097   5.1593   5.1593   5.4537   5.4537
     5.4948   5.4948   5.7641   5.7641   5.8002   5.8002   6.3743   6.3743
     6.5065   6.5065   6.5374   6.5374   6.7630   6.7630   6.8896   6.8896
     6.9115   6.9115   7.0800   7.0800   7.2588   7.2588   7.4818   7.4818
     7.5004   7.5004   7.5247   7.5247   7.5609   7.5609   7.8631   7.8631
     9.9505   9.9505  11.3632  11.3632  11.4139  11.4139  11.4464  11.4464
    11.4888  11.4888  12.2868  12.2868  12.3686  12.3687  12.9414  12.9414
    13.3182  13.3182  13.3605  13.3605  13.3655  13.3656  13.5426  13.5426
    15.5217  15.5217  15.7317  15.7317  15.9377  15.9377  15.9606  15.9606
    16.6892  16.6892  17.9082  17.9096  17.9326

          k = 0.1667-0.4775 0.3333 ( 62208 PWs)   bands (ev):

   -66.1245 -66.1245 -66.1240 -66.1240 -66.1237 -66.1237 -66.1232 -66.1232
   -30.4999 -30.4992 -30.4972 -30.4957 -30.4945 -30.4936 -30.4910 -30.4908
   -30.4616 -30.4586 -30.4585 -30.4552 -30.4442 -30.4408 -30.4404 -30.4366
   -30.3982 -30.3946 -30.3933 -30.3895 -30.3797 -30.3774 -30.3744 -30.3723
   -20.2828 -20.2828 -20.2827 -20.2827 -20.2827 -20.2826 -20.2825 -20.2825
   -20.2662 -20.2662 -20.2660 -20.2659 -20.2659 -20.2657 -20.2656 -20.2656
   -20.2619 -20.2618 -20.2618 -20.2616 -20.2614 -20.2613 -20.2611 -20.2610
   -20.2604 -20.2603 -20.2601 -20.2599 -20.2595 -20.2593 -20.2592 -20.2592
   -20.2516 -20.2514 -20.2511 -20.2507 -20.2498 -20.2493 -20.2492 -20.2489
   -20.2454 -20.2446 -20.2443 -20.2433 -20.2419 -20.2415 -20.2414 -20.2408
   -20.2403 -20.2398 -20.2393 -20.2389 -20.2385 -20.2375 -20.2373 -20.2367
    -9.5059  -9.5038  -9.2852  -9.2793  -9.0037  -8.9971  -8.8113  -8.8083
    -8.5419  -8.5407  -8.4606  -8.4591  -8.4230  -8.4211  -8.4072  -8.4067
    -8.1502  -8.1398  -8.0627  -8.0532  -7.8375  -7.8243  -7.7723  -7.7593
     1.5962   1.5984   1.6116   1.6127   2.2606   2.2659   2.4257   2.4298
     2.9163   2.9193   3.1458   3.1533   3.2081   3.2243   3.2581   3.2771
     3.3219   3.3325   3.4578   3.4814   3.5419   3.5692   3.7050   3.7116
     3.7906   3.7936   3.9075   3.9752   4.4198   4.4619   4.5953   4.6251
     4.6628   4.7248   4.7892   4.8345   4.9707   5.0057   5.0224   5.0631
     5.1493   5.2022   5.3565   5.4325   5.7884   5.8065   6.1490   6.1573
     6.6282   6.6447   6.6927   6.7097   6.8482   6.8659   7.0065   7.0513
     7.1054   7.1248   7.1707   7.1985   7.2169   7.2235   7.4549   7.4777
     7.4879   7.5047   7.5139   7.5267   7.5467   7.5603   7.8028   7.8053
    10.5519  10.5677  11.3860  11.4092  11.4384  11.4439  11.7570  11.7609
    11.7798  11.8112  11.9264  11.9864  12.4573  12.5364  12.7431  12.7731
    12.8896  12.9150  13.0739  13.1458  13.3540  13.3760  13.4146  13.4751
    15.6504  15.6766  15.8745  15.8908  16.2862  16.3074  16.6545  16.6885
    16.8823  16.8850  17.4355  17.4763  17.8485

          k = 0.1667-0.4775-0.5000 ( 62188 PWs)   bands (ev):

   -66.1243 -66.1243 -66.1243 -66.1243 -66.1234 -66.1234 -66.1234 -66.1234
   -30.4986 -30.4986 -30.4973 -30.4973 -30.4927 -30.4927 -30.4921 -30.4921
   -30.4599 -30.4599 -30.4565 -30.4565 -30.4217 -30.4217 -30.4180 -30.4179
   -30.4170 -30.4170 -30.4131 -30.4131 -30.3787 -30.3787 -30.3734 -30.3734
   -20.2828 -20.2828 -20.2827 -20.2827 -20.2826 -20.2826 -20.2826 -20.2825
   -20.2661 -20.2661 -20.2660 -20.2660 -20.2658 -20.2658 -20.2656 -20.2656
   -20.2619 -20.2619 -20.2616 -20.2616 -20.2613 -20.2613 -20.2612 -20.2612
   -20.2604 -20.2603 -20.2597 -20.2597 -20.2596 -20.2596 -20.2592 -20.2592
   -20.2515 -20.2515 -20.2504 -20.2503 -20.2499 -20.2499 -20.2491 -20.2491
   -20.2450 -20.2450 -20.2426 -20.2426 -20.2419 -20.2419 -20.2413 -20.2413
   -20.2401 -20.2401 -20.2392 -20.2391 -20.2389 -20.2389 -20.2370 -20.2370
    -9.3741  -9.3741  -9.3681  -9.3681  -8.7138  -8.7138  -8.6973  -8.6972
    -8.5903  -8.5903  -8.5756  -8.5756  -8.3925  -8.3925  -8.3647  -8.3647
    -8.3319  -8.3319  -8.3065  -8.3065  -7.8050  -7.8050  -7.7917  -7.7917
     1.6125   1.6125   1.6161   1.6161   2.9919   2.9919   3.0508   3.0508
     3.1281   3.1281   3.1715   3.1715   3.2234   3.2234   3.2730   3.2730
     3.3028   3.3028   3.4271   3.4271   3.5035   3.5036   3.5550   3.5550
     3.5947   3.5947   3.7780   3.7780   4.2618   4.2618   4.3356   4.3356
     4.3722   4.3722   4.4407   4.4407   4.8795   4.8795   5.0390   5.0390
     5.1572   5.1572   5.3087   5.3087   5.8779   5.8779   5.8936   5.8937
     6.7427   6.7427   6.7871   6.7871   6.8598   6.8598   6.9007   6.9007
     7.2779   7.2779   7.2965   7.2965   7.3762   7.3762   7.4453   7.4453
     7.4744   7.4744   7.5342   7.5342   7.6137   7.6137   7.6439   7.6439
    11.2229  11.2229  11.2853  11.2853  11.4287  11.4287  11.4927  11.4927
    12.2226  12.2226  12.2517  12.2517  12.3399  12.3399  12.3622  12.3623
    12.7671  12.7671  12.8388  12.8388  13.3602  13.3602  13.4116  13.4116
    15.7756  15.7756  15.7991  15.7991  16.9220  16.9220  16.9692  16.9692
    17.3446  17.3447  17.4232  17.4232  17.4910

          k = 0.3333 0.0000 0.3333 ( 62278 PWs)   bands (ev):

   -66.1246 -66.1241 -66.1241 -66.1241 -66.1236 -66.1236 -66.1236 -66.1232
   -30.5274 -30.5250 -30.5249 -30.5225 -30.4721 -30.4679 -30.4673 -30.4617
   -30.4471 -30.4467 -30.4439 -30.4424 -30.4400 -30.4353 -30.4349 -30.4306
   -30.3984 -30.3980 -30.3971 -30.3958 -30.3908 -30.3904 -30.3898 -30.3872
   -20.2828 -20.2827 -20.2827 -20.2827 -20.2826 -20.2826 -20.2826 -20.2825
   -20.2686 -20.2685 -20.2684 -20.2683 -20.2638 -20.2636 -20.2635 -20.2632
   -20.2622 -20.2619 -20.2619 -20.2616 -20.2616 -20.2615 -20.2611 -20.2609
   -20.2606 -20.2605 -20.2602 -20.2600 -20.2590 -20.2587 -20.2586 -20.2584
   -20.2512 -20.2508 -20.2508 -20.2508 -20.2496 -20.2496 -20.2496 -20.2491
   -20.2441 -20.2441 -20.2435 -20.2435 -20.2412 -20.2411 -20.2407 -20.2407
   -20.2405 -20.2405 -20.2400 -20.2399 -20.2384 -20.2384 -20.2378 -20.2377
    -9.5931  -9.3712  -9.3695  -9.2099  -9.1675  -8.9409  -8.9378  -8.7744
    -8.7260  -8.7230  -8.7225  -8.7059  -8.2165  -8.1670  -8.1515  -8.1389
    -8.1377  -8.1264  -8.0344  -8.0099  -7.7881  -7.7624  -7.7622  -7.7370
     1.4886   1.5215   1.5232   1.5558   2.1790   2.1848   2.2874   2.3062
     2.3227   2.3468   2.5316   2.6337   2.9175   2.9386   2.9695   3.0203
     3.2333   3.2737   3.7931   3.8375   3.9335   3.9383   4.1109   4.1252
     4.1292   4.1314   4.2713   4.3154   4.4100   4.4748   4.5299   4.5678
     4.7971   4.8778   4.9780   5.0429   5.0470   5.0591   5.1870   5.4393
     5.4610   5.4989   5.5161   5.6781   5.9200   5.9229   5.9240   6.0727
     6.4880   6.4894   6.5011   6.5192   6.5269   6.5603   6.5617   6.6263
     6.9856   7.1876   7.1928   7.2013   7.2240   7.2931   7.3417   7.3603
     7.3949   7.4821   7.7417   7.7484   7.8998   7.9529   7.9897   8.0151
    10.7385  10.8096  10.8139  10.8624  11.0144  11.1773  12.0602  12.0765
    12.1189  12.1451  12.1892  12.2590  12.4632  12.4639  12.8057  12.8568
    12.8732  12.8738  12.9954  13.0254  13.5637  13.6074  13.6420  13.7170
    14.5963  14.8425  14.8432  15.2861  15.8500  16.3065  16.3420  16.7626
    16.7831  17.1733  17.1806  17.7702  17.8018

          k = 0.3333 0.0000-0.5000 ( 62266 PWs)   bands (ev):

   -66.1243 -66.1243 -66.1239 -66.1239 -66.1238 -66.1238 -66.1234 -66.1234
   -30.5262 -30.5262 -30.5237 -30.5237 -30.4693 -30.4693 -30.4639 -30.4639
   -30.4443 -30.4443 -30.4378 -30.4378 -30.4211 -30.4211 -30.4192 -30.4192
   -30.4146 -30.4145 -30.4129 -30.4129 -30.3961 -30.3961 -30.3899 -30.3899
   -20.2828 -20.2828 -20.2827 -20.2827 -20.2826 -20.2826 -20.2825 -20.2825
   -20.2686 -20.2686 -20.2684 -20.2684 -20.2637 -20.2637 -20.2634 -20.2634
   -20.2620 -20.2620 -20.2617 -20.2617 -20.2615 -20.2615 -20.2610 -20.2610
   -20.2605 -20.2605 -20.2601 -20.2601 -20.2588 -20.2588 -20.2585 -20.2585
   -20.2510 -20.2510 -20.2502 -20.2502 -20.2501 -20.2501 -20.2494 -20.2494
   -20.2438 -20.2438 -20.2424 -20.2424 -20.2419 -20.2419 -20.2407 -20.2407
   -20.2404 -20.2404 -20.2398 -20.2398 -20.2392 -20.2392 -20.2381 -20.2381
    -9.4606  -9.4606  -9.2409  -9.2409  -9.0346  -9.0346  -8.7437  -8.7437
    -8.5898  -8.5897  -8.5192  -8.5191  -8.4647  -8.4647  -8.4357  -8.4357
    -8.1112  -8.1112  -8.0949  -8.0949  -7.7758  -7.7758  -7.7501  -7.7501
     1.5054   1.5054   1.5405   1.5405   2.3085   2.3085   2.3377   2.3377
     2.9272   2.9272   3.0386   3.0386   3.0822   3.0822   3.2400   3.2400
     3.3296   3.3296   3.5979   3.5979   3.7518   3.7518   3.8431   3.8431
     3.8831   3.8832   4.0380   4.0380   4.2030   4.2030   4.3874   4.3874
     4.7342   4.7342   4.9482   4.9482   5.0467   5.0467   5.1422   5.1422
     5.2882   5.2882   5.5574   5.5574   5.9501   5.9501   6.0418   6.0418
     6.4112   6.4112   6.4340   6.4340   6.5086   6.5086   6.5802   6.5802
     7.1618   7.1618   7.2996   7.2996   7.3759   7.3759   7.5596   7.5596
     7.5905   7.5905   7.6974   7.6974   7.7382   7.7382   7.9838   7.9838
    10.8341  10.8341  11.4471  11.4471  11.5371  11.5371  11.6180  11.6180
    11.8162  11.8162  12.2363  12.2363  12.4463  12.4463  12.6355  12.6355
    12.8801  12.8801  13.2196  13.2196  13.2514  13.2515  13.6385  13.6385
    14.7522  14.7522  15.1098  15.1098  16.3044  16.3044  16.7417  16.7417
    17.0876  17.0876  17.4990  17.4990  17.9705

          k = 0.3333 0.1592 0.3333 ( 62228 PWs)   bands (ev):

   -66.1245 -66.1241 -66.1241 -66.1241 -66.1237 -66.1237 -66.1236 -66.1232
   -30.5234 -30.5209 -30.5208 -30.5184 -30.4752 -30.4711 -30.4707 -30.4657
   -30.4471 -30.4466 -30.4438 -30.4425 -30.4400 -30.4359 -30.4357 -30.4318
   -30.3983 -30.3979 -30.3970 -30.3959 -30.3910 -30.3906 -30.3898 -30.3876
   -20.2828 -20.2827 -20.2827 -20.2827 -20.2826 -20.2826 -20.2826 -20.2825
   -20.2683 -20.2681 -20.2681 -20.2679 -20.2641 -20.2638 -20.2638 -20.2635
   -20.2621 -20.2619 -20.2618 -20.2616 -20.2615 -20.2615 -20.2611 -20.2610
   -20.2606 -20.2605 -20.2602 -20.2599 -20.2592 -20.2589 -20.2588 -20.2585
   -20.2512 -20.2508 -20.2508 -20.2508 -20.2496 -20.2496 -20.2496 -20.2491
   -20.2441 -20.2441 -20.2435 -20.2435 -20.2412 -20.2411 -20.2407 -20.2407
   -20.2405 -20.2405 -20.2400 -20.2399 -20.2384 -20.2384 -20.2378 -20.2377
    -9.5498  -9.3167  -9.3148  -9.2219  -9.0937  -8.9502  -8.9471  -8.7403
    -8.7250  -8.7114  -8.7007  -8.6957  -8.2327  -8.1652  -8.1531  -8.1428
    -8.1364  -8.1305  -8.0335  -8.0115  -7.8843  -7.8595  -7.8590  -7.8337
     1.7177   1.7475   1.7494   1.7865   2.1791   2.1852   2.2878   2.3051
     2.3329   2.3568   2.5333   2.6435   2.9894   3.0128   3.0464   3.0713
[...]
    10.9449  10.9449  11.4719  11.4719  11.5627  11.5627  11.6677  11.6677
    11.8627  11.8627  12.2649  12.2649  12.4415  12.4415  12.6473  12.6473
    12.7452  12.7452  13.0971  13.0971  13.1298  13.1298  13.5369  13.5369
    15.1031  15.1031  15.4865  15.4865  16.3870  16.3870  16.7408  16.7408
    17.0940  17.0940  17.5134  17.5134  17.8245

          k = 0.3333 0.3183 0.3333 ( 62235 PWs)   bands (ev):

   -66.1245 -66.1242 -66.1240 -66.1240 -66.1237 -66.1237 -66.1235 -66.1233
   -30.5125 -30.5099 -30.5098 -30.5072 -30.4843 -30.4808 -30.4805 -30.4767
   -30.4469 -30.4466 -30.4434 -30.4426 -30.4396 -30.4373 -30.4367 -30.4344
   -30.3980 -30.3978 -30.3968 -30.3960 -30.3912 -30.3910 -30.3896 -30.3884
   -20.2828 -20.2827 -20.2827 -20.2827 -20.2826 -20.2826 -20.2826 -20.2825
   -20.2674 -20.2672 -20.2672 -20.2670 -20.2649 -20.2647 -20.2646 -20.2644
   -20.2620 -20.2617 -20.2617 -20.2616 -20.2615 -20.2614 -20.2612 -20.2611
   -20.2604 -20.2603 -20.2600 -20.2597 -20.2596 -20.2592 -20.2591 -20.2589
   -20.2511 -20.2509 -20.2508 -20.2508 -20.2497 -20.2496 -20.2495 -20.2492
   -20.2441 -20.2441 -20.2435 -20.2435 -20.2412 -20.2411 -20.2407 -20.2407
   -20.2405 -20.2405 -20.2400 -20.2400 -20.2384 -20.2384 -20.2378 -20.2377
    -9.4451  -9.2618  -9.1837  -9.1816  -8.9833  -8.9797  -8.8864  -8.7223
    -8.7114  -8.6250  -8.6164  -8.6136  -8.3279  -8.2037  -8.1990  -8.1523
    -8.1476  -8.1303  -8.1120  -8.0645  -8.0613  -8.0288  -8.0210  -8.0156
     2.1685   2.1731   2.2028   2.2235   2.2604   2.2830   2.3018   2.4052
     2.4993   2.5350   2.5530   2.7495   3.1568   3.2089   3.2300   3.2658
     3.2783   3.3240   3.6992   3.7234   3.7690   3.8213   4.0338   4.0852
     4.0981   4.1506   4.1655   4.2833   4.3104   4.3730   4.4261   4.4917
     4.4984   4.5635   4.5901   4.6256   4.7224   4.8569   4.8590   4.8928
     4.9126   4.9172   5.1568   5.2778   5.3157   5.3269   5.5150   5.5230
     6.8073   6.8226   6.8450   6.9004   6.9657   7.0200   7.0290   7.0502
     7.1007   7.1734   7.1840   7.2351   7.2507   7.2732   7.3448   7.3539
     7.4195   7.4648   7.6948   7.7098   7.7604   7.7712   7.7779   7.8342
    10.9105  10.9614  11.2515  11.2634  11.3213  11.4490  12.0429  12.0749
    12.0819  12.1311  12.1325  12.2393  12.3735  12.3780  12.5991  12.6308
    12.6664  12.7147  12.7885  13.0242  13.1935  13.2430  13.2591  13.3927
    15.7713  15.9593  15.9634  16.2612  16.3303  16.3337  16.6436  16.8591
    16.8746  16.9921  17.2150  17.2204  17.7375

          k = 0.3333 0.3183-0.5000 ( 62220 PWs)   bands (ev):

   -66.1242 -66.1242 -66.1240 -66.1240 -66.1237 -66.1237 -66.1235 -66.1235
   -30.5112 -30.5112 -30.5085 -30.5085 -30.4823 -30.4823 -30.4784 -30.4784
   -30.4439 -30.4439 -30.4393 -30.4393 -30.4209 -30.4209 -30.4189 -30.4189
   -30.4159 -30.4159 -30.4137 -30.4137 -30.3958 -30.3958 -30.3906 -30.3906
   -20.2827 -20.2827 -20.2827 -20.2827 -20.2826 -20.2826 -20.2826 -20.2826
   -20.2673 -20.2673 -20.2671 -20.2671 -20.2648 -20.2648 -20.2645 -20.2645
   -20.2619 -20.2619 -20.2616 -20.2616 -20.2615 -20.2615 -20.2612 -20.2612
   -20.2603 -20.2603 -20.2599 -20.2599 -20.2594 -20.2594 -20.2590 -20.2590
   -20.2509 -20.2509 -20.2503 -20.2502 -20.2500 -20.2500 -20.2495 -20.2495
   -20.2438 -20.2438 -20.2424 -20.2424 -20.2419 -20.2419 -20.2407 -20.2407
   -20.2404 -20.2404 -20.2398 -20.2398 -20.2392 -20.2392 -20.2381 -20.2381
    -9.2869  -9.2869  -9.0840  -9.0840  -8.9875  -8.9875  -8.6556  -8.6556
    -8.6188  -8.6188  -8.5110  -8.5110  -8.4531  -8.4531  -8.4145  -8.4145
    -8.1540  -8.1540  -8.1235  -8.1235  -8.0890  -8.0890  -8.0433  -8.0433
     2.2219   2.2219   2.2908   2.2908   2.3943   2.3943   2.5083   2.5083
     3.0661   3.0662   3.1156   3.1156   3.1993   3.1993   3.2792   3.2792
     3.3623   3.3623   3.6462   3.6462   3.7248   3.7248   3.8235   3.8235
     4.0112   4.0112   4.0979   4.0979   4.1445   4.1445   4.2691   4.2691
     4.3456   4.3456   4.4904   4.4904   4.6190   4.6190   4.8539   4.8539
     4.9656   4.9657   5.0121   5.0121   5.0679   5.0679   5.3152   5.3152
     6.8610   6.8610   6.9232   6.9232   6.9905   6.9905   7.0504   7.0504
     7.1933   7.1933   7.2806   7.2806   7.3865   7.3865   7.5226   7.5226
     7.5582   7.5582   7.6204   7.6204   7.6550   7.6550   7.7922   7.7922
    11.2439  11.2439  11.5131  11.5131  11.5957  11.5957  11.8498  11.8499
    12.0283  12.0283  12.3093  12.3093  12.3818  12.3818  12.4221  12.4221
    12.6947  12.6947  12.8031  12.8031  12.8654  12.8654  13.2747  13.2747
    15.9206  15.9206  16.4063  16.4063  16.6424  16.6424  16.7228  16.7228
    17.1311  17.1311  17.4130  17.4130  17.6744

          k = 0.3333-0.4775 0.3333 ( 62252 PWs)   bands (ev):

   -66.1243 -66.1243 -66.1239 -66.1239 -66.1239 -66.1239 -66.1234 -66.1234
   -30.4981 -30.4981 -30.4954 -30.4954 -30.4946 -30.4946 -30.4919 -30.4919
   -30.4467 -30.4466 -30.4429 -30.4429 -30.4387 -30.4387 -30.4363 -30.4363
   -30.3978 -30.3978 -30.3964 -30.3964 -30.3913 -30.3913 -30.3892 -30.3892
   -20.2828 -20.2828 -20.2827 -20.2827 -20.2826 -20.2826 -20.2826 -20.2826
   -20.2661 -20.2661 -20.2659 -20.2659 -20.2659 -20.2659 -20.2657 -20.2657
   -20.2618 -20.2618 -20.2616 -20.2616 -20.2614 -20.2614 -20.2612 -20.2612
   -20.2601 -20.2601 -20.2600 -20.2600 -20.2594 -20.2594 -20.2593 -20.2593
   -20.2510 -20.2510 -20.2508 -20.2508 -20.2497 -20.2497 -20.2494 -20.2493
   -20.2441 -20.2441 -20.2435 -20.2435 -20.2412 -20.2411 -20.2407 -20.2407
   -20.2405 -20.2405 -20.2400 -20.2400 -20.2384 -20.2384 -20.2378 -20.2378
    -9.3363  -9.3363  -9.0575  -9.0575  -9.0509  -9.0509  -8.7201  -8.7201
    -8.5888  -8.5888  -8.4329  -8.4329  -8.4275  -8.4275  -8.4063  -8.4063
    -8.1335  -8.1335  -8.1168  -8.1168  -8.1099  -8.1099  -8.0210  -8.0210
     2.1781   2.1781   2.2683   2.2683   2.2925   2.2925   2.5032   2.5032
     3.1338   3.1338   3.1755   3.1755   3.2296   3.2296   3.3021   3.3021
     3.3463   3.3463   3.5782   3.5782   3.6661   3.6661   3.7023   3.7023
     3.8124   3.8124   4.0834   4.0834   4.2033   4.2033   4.4208   4.4208
     4.5154   4.5154   4.6205   4.6205   4.7022   4.7022   4.7780   4.7780
     4.8781   4.8781   4.9890   4.9890   5.0049   5.0049   5.5090   5.5090
     6.9189   6.9189   7.0472   7.0472   7.0790   7.0790   7.1451   7.1451
     7.2169   7.2170   7.2466   7.2466   7.3037   7.3037   7.4520   7.4520
     7.4843   7.4843   7.5406   7.5406   7.5765   7.5766   7.7649   7.7649
    10.9554  10.9554  11.6659  11.6660  11.7464  11.7464  11.7784  11.7784
    11.8656  11.8656  12.1097  12.1097  12.2158  12.2158  12.6472  12.6472
    12.8566  12.8566  12.9093  12.9093  12.9557  12.9557  13.1776  13.1776
    16.3031  16.3031  16.4470  16.4470  16.6045  16.6045  16.6690  16.6690
    17.0101  17.0101  17.5235  17.5236  17.5947

          k = 0.3333-0.4775-0.5000 ( 62220 PWs)   bands (ev):

   -66.1241 -66.1241 -66.1241 -66.1241 -66.1236 -66.1236 -66.1236 -66.1236
   -30.4968 -30.4968 -30.4961 -30.4961 -30.4936 -30.4936 -30.4931 -30.4931
   -30.4438 -30.4438 -30.4398 -30.4398 -30.4207 -30.4207 -30.4188 -30.4188
   -30.4164 -30.4163 -30.4140 -30.4140 -30.3957 -30.3957 -30.3908 -30.3908
   -20.2827 -20.2827 -20.2827 -20.2827 -20.2826 -20.2826 -20.2826 -20.2826
   -20.2661 -20.2661 -20.2660 -20.2660 -20.2658 -20.2658 -20.2657 -20.2657
   -20.2617 -20.2617 -20.2616 -20.2616 -20.2614 -20.2614 -20.2613 -20.2613
   -20.2600 -20.2600 -20.2598 -20.2598 -20.2596 -20.2596 -20.2594 -20.2594
   -20.2509 -20.2509 -20.2503 -20.2503 -20.2500 -20.2500 -20.2495 -20.2495
   -20.2438 -20.2438 -20.2424 -20.2424 -20.2419 -20.2419 -20.2407 -20.2407
   -20.2404 -20.2404 -20.2398 -20.2398 -20.2392 -20.2392 -20.2381 -20.2381
    -9.1657  -9.1657  -9.1587  -9.1587  -8.7757  -8.7757  -8.7605  -8.7605
    -8.5326  -8.5326  -8.5193  -8.5193  -8.3847  -8.3847  -8.3638  -8.3638
    -8.3326  -8.3326  -8.3144  -8.3144  -8.0938  -8.0938  -8.0837  -8.0837
     2.2902   2.2902   2.2970   2.2970   3.0042   3.0042   3.0371   3.0371
     3.1280   3.1280   3.1625   3.1625   3.2640   3.2640   3.2890   3.2890
     3.3973   3.3973   3.4617   3.4617   3.6477   3.6477   3.6830   3.6830
     3.7947   3.7947   3.9039   3.9039   4.2416   4.2416   4.2780   4.2780
     4.3396   4.3396   4.3911   4.3911   4.4755   4.4755   4.5641   4.5641
     4.6670   4.6670   4.8162   4.8162   5.0755   5.0755   5.0943   5.0943
     7.0072   7.0072   7.0755   7.0755   7.1801   7.1801   7.1959   7.1959
     7.2852   7.2852   7.3171   7.3171   7.3985   7.3985   7.4293   7.4293
     7.5016   7.5016   7.5682   7.5682   7.6273   7.6273   7.6611   7.6611
    11.4694  11.4694  11.5175  11.5175  11.7597  11.7597  11.8410  11.8410
    12.1941  12.1941  12.2451  12.2451  12.3044  12.3044  12.3680  12.3680
    12.5036  12.5036  12.6157  12.6157  12.9431  12.9431  13.0232  13.0232
    16.5018  16.5018  16.5444  16.5444  17.0784  17.0784  17.1220  17.1220
    17.3350  17.3351  17.4337  17.4341  17.4934

          k =-0.5000 0.0000-0.5000 ( 62340 PWs)   bands (ev):

   -66.1241 -66.1241 -66.1241 -66.1241 -66.1236 -66.1236 -66.1236 -66.1236
   -30.5250 -30.5250 -30.5249 -30.5249 -30.4661 -30.4661 -30.4657 -30.4657
   -30.4236 -30.4236 -30.4235 -30.4235 -30.4221 -30.4221 -30.4203 -30.4203
   -30.4153 -30.4153 -30.4131 -30.4131 -30.4108 -30.4107 -30.4088 -30.4088
   -20.2827 -20.2827 -20.2827 -20.2827 -20.2826 -20.2826 -20.2826 -20.2826
   -20.2685 -20.2685 -20.2685 -20.2685 -20.2636 -20.2636 -20.2635 -20.2635
   -20.2619 -20.2619 -20.2619 -20.2619 -20.2615 -20.2615 -20.2611 -20.2611
   -20.2605 -20.2605 -20.2601 -20.2601 -20.2587 -20.2587 -20.2586 -20.2586
   -20.2504 -20.2504 -20.2503 -20.2503 -20.2499 -20.2499 -20.2498 -20.2498
   -20.2422 -20.2422 -20.2422 -20.2421 -20.2421 -20.2421 -20.2420 -20.2420
   -20.2396 -20.2396 -20.2395 -20.2395 -20.2395 -20.2395 -20.2394 -20.2394
    -9.3258  -9.3258  -9.3237  -9.3237  -8.7492  -8.7492  -8.7422  -8.7422
    -8.5683  -8.5683  -8.5605  -8.5605  -8.3942  -8.3942  -8.3852  -8.3852
    -8.3690  -8.3690  -8.3603  -8.3603  -7.7635  -7.7635  -7.7634  -7.7634
     1.5229   1.5229   1.5249   1.5249   2.9471   2.9471   2.9802   2.9803
     3.0766   3.0766   3.0996   3.0996   3.1580   3.1580   3.2005   3.2005
     3.3411   3.3411   3.3900   3.3900   3.7568   3.7569   3.8049   3.8049
     3.8111   3.8111   3.8408   3.8408   4.2205   4.2205   4.2342   4.2342
     4.3103   4.3103   4.3174   4.3174   4.9511   4.9511   4.9738   4.9738
     5.3840   5.3840   5.4129   5.4129   6.0334   6.0334   6.0388   6.0388
     6.4028   6.4028   6.4071   6.4071   6.4535   6.4535   6.4578   6.4578
     7.4669   7.4669   7.4773   7.4773   7.4958   7.4958   7.5387   7.5387
     7.6191   7.6191   7.6205   7.6205   7.8007   7.8007   7.8370   7.8370
    11.5166  11.5166  11.5330  11.5330  11.6007  11.6007  11.6025  11.6025
    12.0093  12.0093  12.0164  12.0164  12.1612  12.1612  12.1672  12.1672
    13.1429  13.1429  13.1494  13.1494  13.2954  13.2954  13.3073  13.3073
    14.9692  14.9692  14.9719  14.9719  16.7541  16.7541  16.7832  16.7832
    17.7235  17.7236  17.7331  17.7331  17.8634

          k =-0.5000 0.1592-0.5000 ( 62280 PWs)   bands (ev):

   -66.1241 -66.1241 -66.1241 -66.1240 -66.1237 -66.1237 -66.1237 -66.1237
   -30.5210 -30.5210 -30.5209 -30.5209 -30.4698 -30.4698 -30.4695 -30.4695
   -30.4236 -30.4236 -30.4234 -30.4234 -30.4219 -30.4219 -30.4204 -30.4204
   -30.4153 -30.4153 -30.4130 -30.4130 -30.4114 -30.4114 -30.4094 -30.4094
   -20.2827 -20.2827 -20.2827 -20.2827 -20.2826 -20.2826 -20.2826 -20.2826
   -20.2681 -20.2681 -20.2681 -20.2681 -20.2639 -20.2639 -20.2638 -20.2638
   -20.2619 -20.2619 -20.2618 -20.2618 -20.2615 -20.2615 -20.2611 -20.2611
   -20.2604 -20.2604 -20.2601 -20.2601 -20.2589 -20.2589 -20.2588 -20.2588
   -20.2504 -20.2504 -20.2503 -20.2503 -20.2500 -20.2500 -20.2498 -20.2498
   -20.2422 -20.2422 -20.2422 -20.2422 -20.2421 -20.2421 -20.2420 -20.2420
   -20.2396 -20.2396 -20.2395 -20.2395 -20.2395 -20.2395 -20.2394 -20.2394
    -9.2634  -9.2634  -9.2610  -9.2610  -8.7620  -8.7620  -8.7552  -8.7552
    -8.5536  -8.5536  -8.5460  -8.5460  -8.3931  -8.3931  -8.3844  -8.3844
    -8.3699  -8.3699  -8.3611  -8.3611  -7.8619  -7.8619  -7.8618  -7.8618
     1.7571   1.7571   1.7592   1.7592   2.9625   2.9625   2.9972   2.9972
     3.0861   3.0861   3.1198   3.1198   3.1666   3.1666   3.2251   3.2251
     3.3345   3.3345   3.3834   3.3834   3.8002   3.8002   3.8490   3.8490
     3.8511   3.8511   3.8881   3.8881   4.2115   4.2115   4.2193   4.2193
     4.3108   4.3108   4.3177   4.3177   4.7296   4.7296   4.7500   4.7500
     5.1405   5.1405   5.1636   5.1636   5.7490   5.7490   5.7557   5.7557
     6.5932   6.5932   6.6075   6.6075   6.6453   6.6453   6.6485   6.6485
     7.4600   7.4600   7.4719   7.4719   7.4877   7.4877   7.5326   7.5326
     7.6058   7.6058   7.6106   7.6106   7.7794   7.7794   7.8054   7.8054
    11.5847  11.5847  11.5957  11.5957  11.6574  11.6574  11.6651  11.6651
    12.0129  12.0129  12.0194  12.0194  12.1803  12.1803  12.1836  12.1836
    13.0133  13.0133  13.0190  13.0190  13.1750  13.1750  13.1841  13.1841
    15.3463  15.3463  15.3489  15.3489  16.8182  16.8182  16.8432  16.8433
    17.6644  17.6644  17.6880  17.6881  17.8682

          k =-0.5000 0.3183-0.5000 ( 62204 PWs)   bands (ev):

   -66.1240 -66.1240 -66.1240 -66.1240 -66.1237 -66.1237 -66.1237 -66.1237
   -30.5099 -30.5099 -30.5098 -30.5098 -30.4802 -30.4802 -30.4800 -30.4800
   -30.4234 -30.4234 -30.4233 -30.4233 -30.4215 -30.4215 -30.4205 -30.4205
   -30.4150 -30.4150 -30.4128 -30.4128 -30.4127 -30.4127 -30.4107 -30.4107
   -20.2827 -20.2827 -20.2827 -20.2827 -20.2826 -20.2826 -20.2826 -20.2826
   -20.2672 -20.2672 -20.2672 -20.2672 -20.2647 -20.2647 -20.2647 -20.2646
   -20.2618 -20.2617 -20.2617 -20.2616 -20.2615 -20.2615 -20.2612 -20.2612
   -20.2602 -20.2602 -20.2599 -20.2599 -20.2593 -20.2593 -20.2591 -20.2591
   -20.2503 -20.2503 -20.2502 -20.2502 -20.2501 -20.2501 -20.2499 -20.2499
   -20.2422 -20.2422 -20.2422 -20.2422 -20.2421 -20.2421 -20.2420 -20.2420
   -20.2396 -20.2395 -20.2395 -20.2395 -20.2395 -20.2395 -20.2394 -20.2394
    -9.1010  -9.1010  -9.0976  -9.0976  -8.8088  -8.8088  -8.8027  -8.8027
    -8.4991  -8.4991  -8.4919  -8.4919  -8.3909  -8.3908  -8.3827  -8.3827
    -8.3710  -8.3710  -8.3621  -8.3621  -8.0990  -8.0990  -8.0986  -8.0986
     2.3811   2.3811   2.3818   2.3818   2.9947   2.9947   3.0341   3.0341
     3.0956   3.0956   3.1241   3.1241   3.2259   3.2259   3.3011   3.3011
     3.3129   3.3129   3.3560   3.3560   3.9212   3.9212   3.9337   3.9337
     3.9842   3.9842   4.0230   4.0230   4.0891   4.0891   4.1237   4.1237
     4.3084   4.3084   4.3264   4.3264   4.3664   4.3664   4.4052   4.4052
     4.7214   4.7214   4.7399   4.7399   5.0409   5.0409   5.0497   5.0497
     6.9199   6.9199   6.9395   6.9395   7.0267   7.0267   7.0354   7.0354
     7.4130   7.4130   7.4302   7.4302   7.4573   7.4573   7.4976   7.4976
     7.5821   7.5821   7.5941   7.5941   7.7024   7.7024   7.7186   7.7186
    11.7504  11.7504  11.7541  11.7541  11.7979  11.7979  11.8236  11.8236
    12.0439  12.0439  12.0523  12.0523  12.2566  12.2566  12.2650  12.2650
    12.6837  12.6837  12.6941  12.6941  12.8639  12.8639  12.8734  12.8734
    16.2744  16.2744  16.2814  16.2814  16.9981  16.9981  17.0060  17.0060
    17.4787  17.4787  17.5375  17.5375  17.8821

          k =-0.5000-0.4775-0.5000 ( 62240 PWs)   bands (ev):

   -66.1239 -66.1239 -66.1239 -66.1239 -66.1239 -66.1239 -66.1239 -66.1238
   -30.4954 -30.4954 -30.4947 -30.4947 -30.4947 -30.4947 -30.4945 -30.4945
   -30.4233 -30.4233 -30.4233 -30.4233 -30.4210 -30.4210 -30.4209 -30.4209
   -30.4145 -30.4145 -30.4138 -30.4138 -30.4119 -30.4119 -30.4119 -30.4119
   -20.2827 -20.2827 -20.2827 -20.2827 -20.2827 -20.2827 -20.2827 -20.2826
   -20.2660 -20.2660 -20.2659 -20.2659 -20.2659 -20.2659 -20.2659 -20.2658
   -20.2616 -20.2616 -20.2616 -20.2616 -20.2615 -20.2615 -20.2614 -20.2614
   -20.2598 -20.2598 -20.2597 -20.2597 -20.2596 -20.2596 -20.2596 -20.2596
   -20.2502 -20.2502 -20.2502 -20.2502 -20.2501 -20.2501 -20.2501 -20.2501
   -20.2422 -20.2422 -20.2422 -20.2422 -20.2421 -20.2421 -20.2421 -20.2421
   -20.2395 -20.2395 -20.2395 -20.2395 -20.2395 -20.2395 -20.2395 -20.2395
    -8.9307  -8.9307  -8.9150  -8.9150  -8.9150  -8.9150  -8.9091  -8.9090
    -8.4073  -8.4072  -8.3986  -8.3986  -8.3985  -8.3985  -8.3854  -8.3854
    -8.3444  -8.3444  -8.3292  -8.3291  -8.3291  -8.3291  -8.3076  -8.3076
     2.9787   2.9787   2.9787   2.9787   3.0104   3.0104   3.0372   3.0372
     3.1649   3.1650   3.1744   3.1744   3.2203   3.2203   3.2203   3.2203
     3.3586   3.3586   3.4708   3.4708   3.4708   3.4708   3.5427   3.5427
     4.1457   4.1457   4.1727   4.1727   4.1727   4.1727   4.2110   4.2110
     4.3546   4.3546   4.3694   4.3694   4.3731   4.3731   4.3731   4.3731
     4.4501   4.4501   4.4730   4.4730   4.4730   4.4730   4.5098   4.5098
     7.1153   7.1153   7.2014   7.2015   7.2015   7.2015   7.3052   7.3052
     7.3626   7.3626   7.3626   7.3626   7.3713   7.3713   7.3766   7.3766
     7.5962   7.5962   7.6078   7.6078   7.6078   7.6078   7.6531   7.6531
    11.8603  11.8603  11.8662  11.8662  11.8711  11.8711  11.8711  11.8711
    12.2001  12.2001  12.2694  12.2694  12.2694  12.2694  12.3373  12.3373
    12.4865  12.4865  12.5254  12.5254  12.5254  12.5254  12.5597  12.5597
    17.1164  17.1164  17.1972  17.1972  17.1972  17.1972  17.2079  17.2079
    17.4242  17.4242  17.4242  17.4243  17.5028

     the Fermi energy is     9.6812 ev

!    total energy              =   -6260.97149247 Ry
     Harris-Foulkes estimate   =   -6260.97149248 Ry
     estimated scf accuracy    <          1.7E-09 Ry

     The total energy is the sum of the following terms:

     one-electron contribution =   -4718.63545359 Ry
     hartree contribution      =    2596.67465445 Ry
     xc contribution           =    -965.88905330 Ry
     ewald contribution        =   -3173.12160795 Ry
     smearing contrib. (-TS)   =      -0.00003209 Ry

     convergence has been achieved in  13 iterations

     Writing output data file Landau_7.save
 
     init_run     :     12.07s CPU     13.05s WALL (       1 calls)
     electrons    :    523.12s CPU    537.71s WALL (       1 calls)

     Called by init_run:
     wfcinit      :     10.86s CPU     11.68s WALL (       1 calls)
     potinit      :      0.46s CPU      0.48s WALL (       1 calls)

     Called by electrons:
     c_bands      :    453.79s CPU    467.34s WALL (      13 calls)
     sum_band     :     63.10s CPU     63.52s WALL (      13 calls)
     v_of_rho     :      1.07s CPU      1.09s WALL (      14 calls)
     mix_rho      :      1.68s CPU      2.00s WALL (      13 calls)

     Called by c_bands:
     init_us_2    :      3.09s CPU      3.57s WALL (      27 calls)
     cegterg      :    341.36s CPU    354.47s WALL (      13 calls)

     Called by sum_band:

     Called by *egterg:
     h_psi        :    275.37s CPU    277.21s WALL (      58 calls)
     g_psi        :      0.63s CPU      0.63s WALL (      44 calls)
     cdiaghg      :      5.21s CPU      5.26s WALL (      57 calls)

     Called by h_psi:
     h_psi:pot    :    273.58s CPU    275.31s WALL (      58 calls)
     h_psi:calbec :     26.97s CPU     27.80s WALL (      58 calls)
     vloc_psi     :    216.82s CPU    217.53s WALL (      58 calls)
     add_vuspsi   :     29.79s CPU     29.98s WALL (      58 calls)

     General routines
     calbec       :     26.97s CPU     27.80s WALL (      58 calls)
     fft          :      0.74s CPU      0.76s WALL (      56 calls)
     fftw         :    225.82s CPU    226.44s WALL (   16953 calls)
 
     Parallel routines
 
     PWSCF        :  9m25.89s CPU     9m44.54s WALL

 
   This run was terminated on:  19:23:25  26Mar2020            

=------------------------------------------------------------------------------=
   JOB DONE.
=------------------------------------------------------------------------------=
