
     Program PWSCF v.6.2 (svn rev. 14038) starts on 17Sep2019 at 11:58: 9 

     This program is part of the open-source Quantum ESPRESSO suite
     for quantum simulation of materials; please cite
         "P. Giannozzi et al., J. Phys.:Condens. Matter 21 395502 (2009);
         "P. Giannozzi et al., J. Phys.:Condens. Matter 29 465901 (2017);
          URL http://www.quantum-espresso.org", 
     in publications or presentations arising from this work. More details at
     http://www.quantum-espresso.org/quote

     Parallel version (MPI), running on    40 processors

     MPI processes distributed on     5 nodes
     K-points division:     npool     =      40
     Reading input from scf.in

     Current dimensions of program PWSCF are:
     Max number of different atomic species (ntypx) = 10
     Max number of k-points (npk) =  40000
     Max angular momentum in pseudopotentials (lmaxx) =  3

     Subspace diagonalization in iterative solution of the eigenvalue problem:
     a serial algorithm will be used

     Found symmetry operation: I + ( -0.5000  0.0000 -0.5000)
     This is a supercell, fractional translations are disabled
 
     G-vector sticks info
     --------------------
     sticks:   dense  smooth     PW     G-vecs:    dense   smooth      PW
     Sum        7747    7747   2077               498127   498127   69057
 


     bravais-lattice index     =            0
     lattice parameter (alat)  =      13.8397  a.u.
     unit-cell volume          =    2804.9817 (a.u.)^3
     number of atoms/cell      =           32
     number of atomic types    =            2
     number of electrons       =       368.36
     number of Kohn-Sham states=          221
     kinetic-energy cutoff     =     120.0000  Ry
     charge density cutoff     =     480.0000  Ry
     convergence threshold     =      1.0E-08
     mixing beta               =       0.7000
     number of iterations used =            8  plain     mixing
     Exchange-correlation      = SLA PW NOGX NOGC ( 1  4  0  0 0 0)

     celldm(1)=  13.839685  celldm(2)=   0.000000  celldm(3)=   0.000000
     celldm(4)=   0.000000  celldm(5)=   0.000000  celldm(6)=   0.000000

     crystal axes: (cart. coord. in units of alat)
               a(1) = (   1.000000   0.000000   0.000000 )  
               a(2) = (   0.000000   1.058160   0.000000 )  
               a(3) = (   0.000000   0.000000   1.000000 )  

     reciprocal axes: (cart. coord. in units 2 pi/alat)
               b(1) = (  1.000000  0.000000  0.000000 )  
               b(2) = (  0.000000  0.945037  0.000000 )  
               b(3) = (  0.000000  0.000000  1.000000 )  


     PseudoPot. # 1 for W  read from file:
     /cluster/scratch/mnoe/QE/pps/W_ONCV_LDA-4.0.upf
     MD5 check sum: ba0307d5d4cd419d6f1d13dc49d7c13a
     Pseudo is Norm-conserving + core correction, Zval = 28.0
     Generated using ONCVPSP code by D. R. Hamann
     Using radial grid of 1380 points,  8 beta functions with: 
                l(1) =   0
                l(2) =   0
                l(3) =   1
                l(4) =   1
                l(5) =   2
                l(6) =   2
                l(7) =   3
                l(8) =   3

     PseudoPot. # 2 for O  read from file:
     /cluster/scratch/mnoe/QE/pps/O_ONCV_LDA-3.0.upf
     MD5 check sum: ca1549d10c4e927e51167f6fca52ae32
     Pseudo is Norm-conserving + core correction, Zval =  6.0
     Generated using ONCVPSP code by D. R. Hamann
     Using radial grid of  926 points,  5 beta functions with: 
                l(1) =   0
                l(2) =   0
                l(3) =   1
                l(4) =   1
                l(5) =   2

     atomic species   valence    mass     pseudopotential
        W             28.00   183.84000     W ( 1.00)
        O              6.00    15.99940     O ( 1.00)

      4 Sym. Ops. (no inversion) found



   Cartesian axes

     site n.     atom                  positions (alat units)
         1           W   tau(   1) = (   0.2500000   0.2982530   0.2500000  )
         2           W   tau(   2) = (   0.7500000   0.7599071   0.2500000  )
         3           W   tau(   3) = (   0.2500000   0.2308271   0.7500000  )
         4           W   tau(   4) = (   0.7500000   0.8273330   0.7500000  )
         5           W   tau(   5) = (   0.7500000   0.2982530   0.7500000  )
         6           W   tau(   6) = (   0.2500000   0.7599071   0.7500000  )
         7           W   tau(   7) = (   0.7500000   0.2308271   0.2500000  )
         8           W   tau(   8) = (   0.2500000   0.8273330   0.2500000  )
         9           O   tau(   9) = (   0.2500000   0.0088039   0.2500000  )
        10           O   tau(  10) = (   0.7500000   1.0493562   0.2500000  )
        11           O   tau(  11) = (   0.2500000   0.5202761   0.7500000  )
        12           O   tau(  12) = (   0.7500000   0.5378839   0.7500000  )
        13           O   tau(  13) = (   0.7500000   0.0088039   0.7500000  )
        14           O   tau(  14) = (   0.2500000   1.0493562   0.7500000  )
        15           O   tau(  15) = (   0.7500000   0.5202761   0.2500000  )
        16           O   tau(  16) = (   0.2500000   0.5378839   0.2500000  )
        17           O   tau(  17) = (   0.5000000   0.2645400   0.6995400  )
        18           O   tau(  18) = (   0.5000000   0.7936200   0.8004600  )
        19           O   tau(  19) = (   0.0000000   0.2645400   1.1995400  )
        20           O   tau(  20) = (   0.0000000   0.7936200   0.3004600  )
        21           O   tau(  21) = (   0.5000000   0.2645400   0.3004600  )
        22           O   tau(  22) = (   0.5000000   0.7936200   1.1995400  )
        23           O   tau(  23) = (   0.0000000   0.2645400   0.8004600  )
        24           O   tau(  24) = (   0.0000000   0.7936200   0.6995400  )
        25           O   tau(  25) = (   0.6995400   0.2645400   1.0000000  )
        26           O   tau(  26) = (   0.3004600   0.7936200   0.5000000  )
        27           O   tau(  27) = (   0.8004600   0.2645400   0.5000000  )
        28           O   tau(  28) = (   0.1995400   0.7936200   1.0000000  )
        29           O   tau(  29) = (   0.3004600   0.2645400   1.0000000  )
        30           O   tau(  30) = (   0.6995400   0.7936200   0.5000000  )
        31           O   tau(  31) = (   0.1995400   0.2645400   0.5000000  )
        32           O   tau(  32) = (   0.8004600   0.7936200   1.0000000  )

     number of k points=    44  gaussian smearing, width (Ry)=  0.0007
                       cart. coord. in units 2pi/alat
        k(    1) = (   0.0000000   0.0000000   0.0000000), wk =   0.0092593
        k(    2) = (   0.0000000   0.0000000   0.1666667), wk =   0.0370370
        k(    3) = (   0.0000000   0.0000000   0.3333333), wk =   0.0370370
        k(    4) = (   0.0000000   0.0000000  -0.5000000), wk =   0.0185185
        k(    5) = (   0.0000000   0.1575061   0.0000000), wk =   0.0185185
        k(    6) = (   0.0000000   0.1575061   0.1666667), wk =   0.0740741
        k(    7) = (   0.0000000   0.1575061   0.3333333), wk =   0.0740741
        k(    8) = (   0.0000000   0.1575061  -0.5000000), wk =   0.0370370
        k(    9) = (   0.0000000   0.3150122   0.0000000), wk =   0.0185185
        k(   10) = (   0.0000000   0.3150122   0.1666667), wk =   0.0740741
        k(   11) = (   0.0000000   0.3150122   0.3333333), wk =   0.0740741
        k(   12) = (   0.0000000   0.3150122  -0.5000000), wk =   0.0370370
        k(   13) = (   0.0000000  -0.4725183   0.0000000), wk =   0.0092593
        k(   14) = (   0.0000000  -0.4725183   0.1666667), wk =   0.0370370
        k(   15) = (   0.0000000  -0.4725183   0.3333333), wk =   0.0370370
        k(   16) = (   0.0000000  -0.4725183  -0.5000000), wk =   0.0185185
        k(   17) = (   0.1666667   0.0000000   0.1666667), wk =   0.0370370
        k(   18) = (   0.1666667   0.0000000   0.3333333), wk =   0.0370370
        k(   19) = (   0.1666667   0.0000000  -0.5000000), wk =   0.0370370
        k(   20) = (   0.1666667   0.1575061   0.1666667), wk =   0.0740741
        k(   21) = (   0.1666667   0.1575061   0.3333333), wk =   0.0740741
        k(   22) = (   0.1666667   0.1575061  -0.5000000), wk =   0.0740741
        k(   23) = (   0.1666667   0.3150122   0.1666667), wk =   0.0740741
        k(   24) = (   0.1666667   0.3150122   0.3333333), wk =   0.0740741
        k(   25) = (   0.1666667   0.3150122  -0.5000000), wk =   0.0740741
        k(   26) = (   0.1666667  -0.4725183   0.1666667), wk =   0.0370370
        k(   27) = (   0.1666667  -0.4725183   0.3333333), wk =   0.0370370
        k(   28) = (   0.1666667  -0.4725183  -0.5000000), wk =   0.0370370
        k(   29) = (   0.3333333   0.0000000   0.3333333), wk =   0.0370370
        k(   30) = (   0.3333333   0.0000000  -0.5000000), wk =   0.0370370
        k(   31) = (   0.3333333   0.1575061   0.3333333), wk =   0.0740741
        k(   32) = (   0.3333333   0.1575061  -0.5000000), wk =   0.0740741
        k(   33) = (   0.3333333   0.3150122   0.3333333), wk =   0.0740741
        k(   34) = (   0.3333333   0.3150122  -0.5000000), wk =   0.0740741
        k(   35) = (   0.3333333  -0.4725183   0.3333333), wk =   0.0370370
        k(   36) = (   0.3333333  -0.4725183  -0.5000000), wk =   0.0370370
        k(   37) = (  -0.5000000   0.0000000  -0.5000000), wk =   0.0092593
        k(   38) = (  -0.5000000   0.1575061  -0.5000000), wk =   0.0185185
        k(   39) = (  -0.5000000   0.3150122  -0.5000000), wk =   0.0185185
        k(   40) = (  -0.5000000  -0.4725183  -0.5000000), wk =   0.0092593
        k(   41) = (   0.3333333   0.0000000   0.1666667), wk =   0.0370370
        k(   42) = (   0.3333333  -0.1575061   0.1666667), wk =   0.0740741
        k(   43) = (   0.3333333  -0.3150122   0.1666667), wk =   0.0740741
        k(   44) = (   0.3333333   0.4725183   0.1666667), wk =   0.0370370

     Dense  grid:   498127 G-vectors     FFT dimensions: ( 100, 108, 100)

     Estimated max dynamical RAM per process >       3.13 GB

     Estimated total dynamical RAM >     125.08 GB

     Initial potential from superposition of free atoms

     starting charge  367.99656, renormalised to  368.36000
     Starting wfc are  232 randomized atomic wfcs

     total cpu time spent up to now is       47.3 secs

     Self-consistent Calculation

     iteration #  1     ecut=   120.00 Ry     beta= 0.70
     Davidson diagonalization with overlap
     ethr =  1.00E-02,  avg # of iterations =  5.1

     total cpu time spent up to now is      226.3 secs

     total energy              =   -6253.65935271 Ry
     Harris-Foulkes estimate   =   -6264.39522202 Ry
     estimated scf accuracy    <      13.55163343 Ry

     iteration #  2     ecut=   120.00 Ry     beta= 0.70
     Davidson diagonalization with overlap
     ethr =  3.68E-03,  avg # of iterations =  3.5

     total cpu time spent up to now is      403.6 secs

     total energy              =   -6250.55943157 Ry
     Harris-Foulkes estimate   =   -6270.51806638 Ry
     estimated scf accuracy    <      53.35226236 Ry

     iteration #  3     ecut=   120.00 Ry     beta= 0.70
     Davidson diagonalization with overlap
     ethr =  3.68E-03,  avg # of iterations =  3.3

     total cpu time spent up to now is      565.8 secs

     total energy              =   -6260.84129528 Ry
     Harris-Foulkes estimate   =   -6261.12142818 Ry
     estimated scf accuracy    <       0.92911177 Ry

     iteration #  4     ecut=   120.00 Ry     beta= 0.70
     Davidson diagonalization with overlap
     ethr =  2.52E-04,  avg # of iterations =  3.2

     total cpu time spent up to now is      692.1 secs

     total energy              =   -6260.84217347 Ry
     Harris-Foulkes estimate   =   -6260.91338371 Ry
     estimated scf accuracy    <       0.23119974 Ry

     iteration #  5     ecut=   120.00 Ry     beta= 0.70
     Davidson diagonalization with overlap
     ethr =  6.28E-05,  avg # of iterations =  4.8

     total cpu time spent up to now is      834.9 secs

     total energy              =   -6260.84129543 Ry
     Harris-Foulkes estimate   =   -6260.87341165 Ry
     estimated scf accuracy    <       0.07090957 Ry

     iteration #  6     ecut=   120.00 Ry     beta= 0.70
     Davidson diagonalization with overlap
     ethr =  1.93E-05,  avg # of iterations =  4.8

     total cpu time spent up to now is      979.1 secs

     total energy              =   -6260.85682279 Ry
     Harris-Foulkes estimate   =   -6260.85925728 Ry
     estimated scf accuracy    <       0.00640760 Ry

     iteration #  7     ecut=   120.00 Ry     beta= 0.70
     Davidson diagonalization with overlap
     ethr =  1.74E-06,  avg # of iterations =  4.8

     total cpu time spent up to now is     1121.6 secs

     total energy              =   -6260.85767074 Ry
     Harris-Foulkes estimate   =   -6260.85775870 Ry
     estimated scf accuracy    <       0.00017494 Ry

     iteration #  8     ecut=   120.00 Ry     beta= 0.70
     Davidson diagonalization with overlap
     ethr =  4.75E-08,  avg # of iterations =  3.2

     total cpu time spent up to now is     1288.1 secs

     total energy              =   -6260.85772303 Ry
     Harris-Foulkes estimate   =   -6260.85776050 Ry
     estimated scf accuracy    <       0.00013603 Ry

     iteration #  9     ecut=   120.00 Ry     beta= 0.70
     Davidson diagonalization with overlap
     ethr =  3.69E-08,  avg # of iterations =  2.3

     total cpu time spent up to now is     1406.4 secs

     total energy              =   -6260.85773940 Ry
     Harris-Foulkes estimate   =   -6260.85774556 Ry
     estimated scf accuracy    <       0.00002909 Ry

     iteration # 10     ecut=   120.00 Ry     beta= 0.70
     Davidson diagonalization with overlap
     ethr =  7.90E-09,  avg # of iterations =  1.5

     total cpu time spent up to now is     1517.4 secs

     total energy              =   -6260.85773637 Ry
     Harris-Foulkes estimate   =   -6260.85774092 Ry
     estimated scf accuracy    <       0.00001055 Ry

     iteration # 11     ecut=   120.00 Ry     beta= 0.70
     Davidson diagonalization with overlap
     ethr =  2.87E-09,  avg # of iterations =  2.5

     total cpu time spent up to now is     1655.1 secs

     total energy              =   -6260.85773849 Ry
     Harris-Foulkes estimate   =   -6260.85773872 Ry
     estimated scf accuracy    <       0.00000074 Ry

     iteration # 12     ecut=   120.00 Ry     beta= 0.70
     Davidson diagonalization with overlap
     ethr =  2.01E-10,  avg # of iterations =  2.5

     total cpu time spent up to now is     1798.5 secs

     total energy              =   -6260.85773860 Ry
     Harris-Foulkes estimate   =   -6260.85773866 Ry
     estimated scf accuracy    <       0.00000016 Ry

     iteration # 13     ecut=   120.00 Ry     beta= 0.70
     Davidson diagonalization with overlap
     ethr =  4.40E-11,  avg # of iterations =  1.8

     total cpu time spent up to now is     1911.0 secs

     total energy              =   -6260.85773859 Ry
     Harris-Foulkes estimate   =   -6260.85773862 Ry
     estimated scf accuracy    <       0.00000004 Ry

     iteration # 14     ecut=   120.00 Ry     beta= 0.70
     Davidson diagonalization with overlap
     ethr =  1.07E-11,  avg # of iterations =  2.9

     total cpu time spent up to now is     2066.6 secs

     total energy              =   -6260.85773860 Ry
     Harris-Foulkes estimate   =   -6260.85773861 Ry
     estimated scf accuracy    <       0.00000001 Ry

     iteration # 15     ecut=   120.00 Ry     beta= 0.70
     Davidson diagonalization with overlap
     ethr =  2.76E-12,  avg # of iterations =  2.0

     total cpu time spent up to now is     2196.8 secs

     End of self-consistent calculation

          k = 0.0000 0.0000 0.0000 ( 62239 PWs)   bands (ev):

   -66.0906 -66.0902 -66.0896 -66.0896 -66.0892 -66.0892 -66.0886 -66.0882
   -30.5151 -30.5118 -30.5118 -30.5086 -30.4554 -30.4528 -30.4528 -30.4502
   -30.4320 -30.4320 -30.4287 -30.4287 -30.4267 -30.4267 -30.4234 -30.4234
   -30.3306 -30.3306 -30.3279 -30.3279 -30.3262 -30.3262 -30.3235 -30.3235
   -20.2436 -20.2435 -20.2435 -20.2435 -20.2434 -20.2434 -20.2434 -20.2433
   -20.2392 -20.2390 -20.2390 -20.2388 -20.2338 -20.2335 -20.2335 -20.2332
   -20.2278 -20.2278 -20.2275 -20.2275 -20.2267 -20.2267 -20.2265 -20.2265
   -20.2253 -20.2253 -20.2252 -20.2252 -20.2244 -20.2244 -20.2241 -20.2241
   -20.2166 -20.2165 -20.2162 -20.2162 -20.2161 -20.2161 -20.2159 -20.2158
   -20.2016 -20.2016 -20.2016 -20.2016 -20.2002 -20.2002 -20.2002 -20.2002
   -20.1949 -20.1949 -20.1948 -20.1948 -20.1936 -20.1936 -20.1935 -20.1935
    -9.9309  -9.6470  -9.4910  -9.4910  -9.2128  -9.2128  -9.0710  -9.0234
    -9.0114  -8.8662  -8.8358  -8.8358  -7.8525  -7.7933  -7.7933  -7.7523
    -7.7523  -7.7416  -7.7263  -7.7263  -7.5960  -7.5960  -7.5749  -7.5749
     1.2316   1.2322   1.3073   1.3073   1.3276   1.3276   1.3904   1.6428
     1.6428   1.6473   1.6762   1.8822   2.4177   2.4916   2.5888   2.5888
     2.7390   2.7390   4.1545   4.1545   4.3771   4.3771   4.8460   4.8460
     4.8828   4.8828   4.9096   4.9096   5.0461   5.0461   5.0737   5.4422
     5.4422   5.5352   5.5352   5.5450   5.5450   5.5879   5.5879   5.8212
     5.8212   5.8981   5.8981   5.9508   5.9670   6.0588   6.0588   6.1417
     6.1417   6.2650   6.2651   6.5891   6.5891   6.8113   6.8113   6.8430
     6.8430   6.8982   7.0330   7.0358   7.1034   7.1034   7.4218   7.4218
     7.4661   7.4661   7.8060   7.8200   8.0861   8.0861   8.1536   8.1536
     9.2934   9.3010  10.0221  10.0221  10.0600  10.0600  12.2825  12.2825
    12.3147  12.3147  12.3525  12.3525  12.5267  12.5267  12.9151  12.9181
    13.2647  13.2647  13.4406  13.4406  13.8066  14.1884  14.1884  14.1929
    14.1929  14.3792  14.3792  14.8865  15.4716  15.4827  15.4922  16.0967
    16.0967  16.8419  17.0806  17.0806  17.4557

          k = 0.0000 0.0000 0.1667 ( 62262 PWs)   bands (ev):

   -66.0906 -66.0902 -66.0897 -66.0895 -66.0893 -66.0892 -66.0887 -66.0883
   -30.5150 -30.5121 -30.5117 -30.5089 -30.4556 -30.4531 -30.4531 -30.4505
   -30.4317 -30.4283 -30.4270 -30.4248 -30.4237 -30.4218 -30.4197 -30.4166
   -30.3373 -30.3346 -30.3329 -30.3303 -30.3302 -30.3276 -30.3264 -30.3238
   -20.2436 -20.2435 -20.2435 -20.2435 -20.2434 -20.2434 -20.2434 -20.2433
   -20.2392 -20.2390 -20.2390 -20.2388 -20.2338 -20.2335 -20.2335 -20.2333
   -20.2277 -20.2276 -20.2275 -20.2273 -20.2267 -20.2266 -20.2265 -20.2264
   -20.2254 -20.2253 -20.2253 -20.2251 -20.2246 -20.2244 -20.2242 -20.2241
   -20.2166 -20.2165 -20.2163 -20.2162 -20.2162 -20.2161 -20.2159 -20.2158
   -20.2015 -20.2015 -20.2012 -20.2012 -20.2003 -20.2003 -20.1998 -20.1998
   -20.1954 -20.1953 -20.1948 -20.1947 -20.1940 -20.1940 -20.1936 -20.1936
    -9.8842  -9.5931  -9.5080  -9.4308  -9.2275  -9.1229  -9.0795  -8.9846
    -8.9695  -8.8538  -8.8404  -8.8041  -7.8726  -7.8590  -7.8527  -7.7970
    -7.7859  -7.7450  -7.7398  -7.7262  -7.7167  -7.7084  -7.6060  -7.5847
     1.3070   1.3101   1.3225   1.3342   1.4555   1.4902   1.5852   1.6360
     1.6393   1.7190   1.8478   2.0051   2.5047   2.5832   2.5984   2.6777
     2.7305   2.8280   4.0926   4.1555   4.3640   4.3947   4.3970   4.5074
     4.6880   4.7983   4.8400   4.9506   4.9629   5.0312   5.0550   5.3056
     5.3633   5.4281   5.5221   5.5440   5.5562   5.6068   5.6277   5.6604
     5.7595   5.7626   5.8097   5.9415   5.9808   6.1172   6.1390   6.1430
     6.2879   6.4357   6.5075   6.5779   6.6752   6.7039   6.7826   6.8344
     6.8599   6.8719   6.9933   7.0303   7.0351   7.1129   7.1945   7.1948
     7.2375   7.3020   7.8266   7.8285   8.0453   8.1010   8.1110   8.1545
     9.6429   9.6786  10.0236  10.0574  10.2836  10.3390  12.2132  12.2586
    12.2813  12.3322  12.3750  12.3909  12.5295  12.6235  12.9250  12.9764
    13.0660  13.2558  13.3225  13.4408  13.9366  14.0466  14.0638  14.1847
    14.1918  14.3725  14.5012  14.9970  15.4576  15.5033  15.5325  16.0684
    16.4053  16.8092  17.0120  17.2685  17.5067

          k = 0.0000 0.0000 0.3333 ( 62268 PWs)   bands (ev):

   -66.0904 -66.0900 -66.0899 -66.0895 -66.0894 -66.0890 -66.0889 -66.0885
   -30.5146 -30.5129 -30.5114 -30.5097 -30.4555 -30.4538 -30.4530 -30.4513
   -30.4307 -30.4280 -30.4274 -30.4247 -30.4061 -30.4033 -30.4011 -30.3983
   -30.3558 -30.3531 -30.3512 -30.3485 -30.3295 -30.3272 -30.3268 -30.3246
   -20.2435 -20.2435 -20.2435 -20.2435 -20.2434 -20.2434 -20.2434 -20.2433
   -20.2392 -20.2391 -20.2390 -20.2388 -20.2338 -20.2336 -20.2335 -20.2333
   -20.2277 -20.2275 -20.2273 -20.2269 -20.2268 -20.2264 -20.2262 -20.2260
   -20.2258 -20.2256 -20.2255 -20.2250 -20.2249 -20.2245 -20.2244 -20.2242
   -20.2165 -20.2164 -20.2163 -20.2162 -20.2161 -20.2161 -20.2159 -20.2159
   -20.2013 -20.2013 -20.2006 -20.2006 -20.2000 -20.2000 -20.1986 -20.1986
   -20.1966 -20.1966 -20.1953 -20.1953 -20.1946 -20.1945 -20.1939 -20.1938
    -9.7709  -9.5601  -9.4684  -9.2920  -9.2721  -9.1085  -8.9068  -8.8669
    -8.8533  -8.8218  -8.7670  -8.6814  -8.1736  -8.1727  -8.0676  -8.0487
    -7.8308  -7.8069  -7.7787  -7.7542  -7.7106  -7.6879  -7.6334  -7.6118
     1.3170   1.3287   1.3516   1.3781   1.5746   1.5852   1.6220   1.6229
     2.2764   2.3091   2.4857   2.5638   2.6241   2.7212   2.7566   2.8515
     2.9198   3.0647   3.7829   3.8480   3.8750   3.9729   4.1984   4.2872
     4.3166   4.5265   4.5734   4.8092   4.8308   4.8387   4.9726   4.9969
     5.1988   5.2101   5.2146   5.3568   5.4750   5.4962   5.6311   5.6670
     5.7125   5.7556   5.7847   6.0048   6.0060   6.1873   6.2761   6.3108
     6.3373   6.4014   6.5406   6.5414   6.5960   6.6049   6.7221   6.7258
     6.8285   6.8640   6.8731   7.0171   7.0362   7.0660   7.1064   7.1342
     7.3407   7.3721   7.7698   7.7911   7.9204   7.9746   8.1368   8.1560
    10.0294  10.0500  10.3665  10.4360  10.8947  11.0098  11.8412  11.8846
    12.0971  12.4828  12.4848  12.5395  12.5545  12.6202  12.7098  12.8893
    12.9270  13.1256  13.1980  13.4474  13.7197  13.7272  14.1755  14.1825
    14.1887  14.3508  14.8183  15.2854  15.3461  15.6454  15.9103  15.9824
    16.2663  17.2441  17.3973  17.5497  17.6486

          k = 0.0000 0.0000-0.5000 ( 62264 PWs)   bands (ev):

   -66.0901 -66.0901 -66.0897 -66.0897 -66.0891 -66.0891 -66.0887 -66.0887
   -30.5138 -30.5138 -30.5106 -30.5106 -30.4547 -30.4547 -30.4522 -30.4522
   -30.4293 -30.4293 -30.4260 -30.4260 -30.3809 -30.3809 -30.3782 -30.3782
   -30.3761 -30.3761 -30.3734 -30.3734 -30.3284 -30.3284 -30.3257 -30.3257
   -20.2435 -20.2435 -20.2434 -20.2434 -20.2434 -20.2434 -20.2433 -20.2433
   -20.2392 -20.2392 -20.2389 -20.2389 -20.2337 -20.2337 -20.2334 -20.2334
   -20.2276 -20.2276 -20.2270 -20.2270 -20.2263 -20.2263 -20.2260 -20.2260
   -20.2257 -20.2257 -20.2255 -20.2255 -20.2248 -20.2248 -20.2243 -20.2243
   -20.2164 -20.2164 -20.2163 -20.2163 -20.2160 -20.2160 -20.2160 -20.2160
   -20.2009 -20.2009 -20.2009 -20.2009 -20.1983 -20.1983 -20.1983 -20.1983
   -20.1970 -20.1970 -20.1970 -20.1970 -20.1942 -20.1942 -20.1942 -20.1942
    -9.6498  -9.6498  -9.3505  -9.3505  -9.1722  -9.1722  -8.8726  -8.8726
    -8.5388  -8.5388  -8.5141  -8.5141  -8.4880  -8.4880  -8.4148  -8.4148
    -7.8201  -7.8201  -7.7666  -7.7666  -7.6716  -7.6716  -7.6494  -7.6494
     1.3248   1.3248   1.3719   1.3719   1.6046   1.6046   1.6090   1.6090
     2.6569   2.6569   2.9907   2.9907   3.1348   3.1348   3.1652   3.1652
     3.2994   3.2994   3.3666   3.3666   3.4807   3.4807   3.7924   3.7924
     3.9119   3.9119   4.4558   4.4558   4.7606   4.7606   4.9104   4.9104
     5.2576   5.2576   5.3524   5.3524   5.3631   5.3631   5.6751   5.6751
     5.7439   5.7439   5.9364   5.9364   6.2023   6.2023   6.2683   6.2683
     6.3599   6.3599   6.4830   6.4830   6.4891   6.4891   6.5333   6.5333
     6.7987   6.7987   6.8306   6.8306   7.0867   7.0867   7.5035   7.5035
     7.5670   7.5670   7.7049   7.7049   7.7237   7.7237   8.1533   8.1533
    10.0393  10.0393  11.1623  11.1623  11.2305  11.2305  11.5823  11.5823
    11.8067  11.8067  12.5660  12.5660  12.6967  12.6967  12.8051  12.8051
    12.9589  12.9589  13.2887  13.2887  13.4965  13.4965  14.1849  14.1849
    14.3021  14.3021  15.1362  15.1362  15.7191  15.7191  15.8363  15.8363
    16.6613  16.6613  17.8198  17.8198  18.1589

          k = 0.0000 0.1575 0.0000 ( 62231 PWs)   bands (ev):

   -66.0906 -66.0903 -66.0896 -66.0896 -66.0892 -66.0892 -66.0886 -66.0882
   -30.5111 -30.5079 -30.5079 -30.5047 -30.4595 -30.4568 -30.4568 -30.4541
   -30.4318 -30.4318 -30.4289 -30.4289 -30.4264 -30.4264 -30.4236 -30.4236
   -30.3304 -30.3304 -30.3280 -30.3280 -30.3260 -30.3260 -30.3237 -30.3237
   -20.2436 -20.2435 -20.2435 -20.2435 -20.2434 -20.2434 -20.2434 -20.2433
   -20.2389 -20.2386 -20.2386 -20.2384 -20.2341 -20.2339 -20.2339 -20.2336
   -20.2277 -20.2277 -20.2274 -20.2274 -20.2267 -20.2267 -20.2266 -20.2266
   -20.2252 -20.2252 -20.2251 -20.2251 -20.2245 -20.2245 -20.2242 -20.2242
   -20.2166 -20.2165 -20.2162 -20.2162 -20.2161 -20.2161 -20.2158 -20.2158
   -20.2016 -20.2016 -20.2016 -20.2016 -20.2002 -20.2002 -20.2002 -20.2002
   -20.1949 -20.1949 -20.1948 -20.1948 -20.1936 -20.1936 -20.1935 -20.1935
    -9.9019  -9.6584  -9.4543  -9.4543  -9.2203  -9.2203  -9.0226  -9.0122
    -8.9975  -8.8202  -8.7978  -8.7978  -7.9476  -7.8927  -7.8927  -7.8479
    -7.7506  -7.7506  -7.7281  -7.7281  -7.5946  -7.5946  -7.5763  -7.5763
     1.2317   1.2322   1.3169   1.3169   1.3275   1.3275   1.5236   1.6754
     1.8239   1.8752   1.8752   2.0536   2.4224   2.4864   2.6603   2.6603
     2.8065   2.8065   4.0227   4.0227   4.1096   4.1096   4.8312   4.8851
     4.8851   4.9026   4.9026   4.9071   4.9071   4.9933   4.9933   5.2922
     5.2922   5.4725   5.4725   5.6259   5.6373   5.6373   5.6440   5.6440
     5.8231   5.8231   5.8826   5.8826   5.9896   6.0644   6.0644   6.1477
     6.1477   6.2590   6.2590   6.6107   6.6107   6.8486   6.8486   6.8512
     6.8790   6.8790   6.9079   7.0230   7.0230   7.0272   7.4301   7.4301
     7.4657   7.4657   7.8111   7.8194   8.0443   8.0443   8.0715   8.0715
     9.2938   9.3003  10.2207  10.2207  10.2290  10.2290  12.1892  12.1892
    12.2994  12.2994  12.3514  12.3514  12.3727  12.3727  12.9153  12.9179
    13.3003  13.3003  13.4477  13.4477  14.0906  14.0906  14.1028  14.1028
    14.1346  14.6570  14.6570  15.0552  15.4720  15.4814  15.8937  16.0623
    16.0623  16.5285  17.2132  17.2132  17.5071

          k = 0.0000 0.1575 0.1667 ( 62237 PWs)   bands (ev):

   -66.0905 -66.0902 -66.0897 -66.0895 -66.0893 -66.0892 -66.0886 -66.0883
   -30.5110 -30.5082 -30.5078 -30.5050 -30.4596 -30.4570 -30.4570 -30.4544
   -30.4314 -30.4286 -30.4268 -30.4247 -30.4240 -30.4221 -30.4195 -30.4168
   -30.3372 -30.3348 -30.3327 -30.3304 -30.3301 -30.3278 -30.3263 -30.3240
   -20.2436 -20.2435 -20.2435 -20.2435 -20.2434 -20.2434 -20.2434 -20.2433
   -20.2389 -20.2387 -20.2386 -20.2384 -20.2342 -20.2339 -20.2339 -20.2336
   -20.2276 -20.2275 -20.2274 -20.2272 -20.2267 -20.2266 -20.2266 -20.2265
   -20.2254 -20.2253 -20.2253 -20.2251 -20.2246 -20.2245 -20.2243 -20.2242
   -20.2166 -20.2165 -20.2162 -20.2162 -20.2162 -20.2161 -20.2159 -20.2158
   -20.2015 -20.2015 -20.2012 -20.2012 -20.2003 -20.2003 -20.1998 -20.1998
   -20.1954 -20.1953 -20.1948 -20.1948 -20.1940 -20.1940 -20.1936 -20.1936
    -9.8541  -9.6045  -9.4714  -9.3895  -9.2352  -9.1305  -9.0060  -8.9830
    -8.9703  -8.8097  -8.8024  -8.7707  -7.9470  -7.9079  -7.8916  -7.8711
    -7.8550  -7.8423  -7.7384  -7.7248  -7.7183  -7.7067  -7.6046  -7.5862
     1.3169   1.3219   1.3224   1.3341   1.5475   1.5849   1.6193   1.8332
     1.8469   1.8696   1.8968   2.1163   2.5105   2.5777   2.6696   2.7511
     2.7984   2.8953   3.9912   4.0396   4.0990   4.1443   4.4282   4.5052
     4.7302   4.7375   4.8143   4.8898   4.9424   4.9613   4.9990   5.2489
     5.2773   5.3041   5.3173   5.4996   5.5973   5.6058   5.6436   5.6902
     5.7418   5.7619   5.8201   5.8556   5.8877   6.1279   6.1369   6.1781
     6.2251   6.4256   6.4823   6.5995   6.7239   6.7851   6.8032   6.8287
     6.8671   6.8965   6.9745   6.9840   7.0322   7.0399   7.1940   7.1946
     7.2540   7.3013   7.8280   7.8295   8.0056   8.0342   8.0453   8.0726
     9.6484   9.6766  10.2218  10.2298  10.4508  10.4777  12.1701  12.2211
    12.2570  12.2708  12.3458  12.3486  12.3760  12.5012  12.9249  12.9740
    13.1070  13.2915  13.3292  13.4457  13.9461  13.9723  14.0874  14.1005
    14.2634  14.6514  14.8014  15.1522  15.5027  15.5326  15.8596  16.0346
    16.3687  16.6843  16.9345  17.3818  17.5727

          k = 0.0000 0.1575 0.3333 ( 62284 PWs)   bands (ev):

   -66.0904 -66.0900 -66.0898 -66.0895 -66.0893 -66.0890 -66.0888 -66.0885
   -30.5107 -30.5089 -30.5075 -30.5058 -30.4594 -30.4578 -30.4569 -30.4552
   -30.4305 -30.4278 -30.4276 -30.4249 -30.4059 -30.4035 -30.4009 -30.3985
   -30.3556 -30.3532 -30.3510 -30.3486 -30.3293 -30.3271 -30.3270 -30.3248
   -20.2435 -20.2435 -20.2435 -20.2434 -20.2434 -20.2434 -20.2434 -20.2433
   -20.2389 -20.2387 -20.2386 -20.2385 -20.2341 -20.2340 -20.2339 -20.2337
   -20.2276 -20.2275 -20.2272 -20.2268 -20.2268 -20.2264 -20.2262 -20.2261
   -20.2257 -20.2256 -20.2254 -20.2250 -20.2250 -20.2246 -20.2244 -20.2243
   -20.2165 -20.2164 -20.2163 -20.2162 -20.2161 -20.2161 -20.2159 -20.2159
   -20.2013 -20.2013 -20.2006 -20.2006 -20.2000 -20.2000 -20.1986 -20.1986
   -20.1966 -20.1966 -20.1953 -20.1953 -20.1946 -20.1945 -20.1939 -20.1938
    -9.7381  -9.5239  -9.4794  -9.2804  -9.2366  -9.0355  -8.8872  -8.8750
    -8.8234  -8.8153  -8.7436  -8.6620  -8.1801  -8.1708  -8.0853  -8.0468
    -7.9205  -7.9010  -7.8768  -7.8492  -7.7092  -7.6895  -7.6320  -7.6132
     1.3352   1.3515   1.3579   1.3779   1.7592   1.7845   1.8652   1.8686
     2.2748   2.3213   2.4883   2.5822   2.6947   2.7663   2.7801   2.8504
     2.9946   3.1252   3.7817   3.8431   3.8699   3.9222   4.1127   4.1479
     4.2575   4.3668   4.5919   4.7565   4.8076   4.8234   4.8256   4.8755
     5.0398   5.1555   5.1771   5.2031   5.3795   5.4377   5.5075   5.6176
     5.6979   5.7372   5.7885   5.8345   5.9843   6.1607   6.2276   6.2757
     6.3665   6.5626   6.5742   6.6018   6.6765   6.6778   6.7172   6.8192
     6.8241   6.8363   6.9400   6.9812   7.0218   7.0504   7.0742   7.1223
     7.3327   7.3655   7.7732   7.7894   7.8862   7.9146   8.0645   8.0753
    10.2247  10.2263  10.3755  10.4364  11.0098  11.1002  11.8431  11.8820
    12.0604  12.3865  12.4512  12.5134  12.5186  12.5916  12.6648  12.7795
    12.9146  13.1261  13.2192  13.4436  13.6262  13.6349  14.0869  14.0965
    14.4888  14.6330  15.1632  15.4139  15.6345  15.7511  15.9275  15.9508
    16.3935  17.1481  17.1996  17.4472  17.7960

          k = 0.0000 0.1575-0.5000 ( 62234 PWs)   bands (ev):

   -66.0901 -66.0901 -66.0898 -66.0898 -66.0891 -66.0891 -66.0887 -66.0887
   -30.5099 -30.5099 -30.5067 -30.5067 -30.4587 -30.4587 -30.4561 -30.4561
   -30.4291 -30.4291 -30.4263 -30.4263 -30.3807 -30.3807 -30.3784 -30.3784
   -30.3759 -30.3759 -30.3736 -30.3736 -30.3282 -30.3282 -30.3259 -30.3259
   -20.2435 -20.2435 -20.2435 -20.2435 -20.2434 -20.2434 -20.2434 -20.2434
   -20.2388 -20.2388 -20.2386 -20.2386 -20.2341 -20.2341 -20.2338 -20.2338
   -20.2275 -20.2275 -20.2269 -20.2269 -20.2262 -20.2262 -20.2261 -20.2261
   -20.2257 -20.2257 -20.2255 -20.2255 -20.2249 -20.2249 -20.2244 -20.2244
   -20.2164 -20.2164 -20.2163 -20.2163 -20.2160 -20.2160 -20.2160 -20.2160
   -20.2009 -20.2009 -20.2009 -20.2009 -20.1983 -20.1983 -20.1983 -20.1983
   -20.1970 -20.1970 -20.1970 -20.1970 -20.1942 -20.1942 -20.1942 -20.1942
    -9.6148  -9.6148  -9.3601  -9.3601  -9.1033  -9.1033  -8.8369  -8.8369
    -8.5423  -8.5423  -8.5090  -8.5090  -8.4975  -8.4975  -8.4089  -8.4089
    -7.9139  -7.9139  -7.8652  -7.8652  -7.6701  -7.6701  -7.6509  -7.6509
     1.3511   1.3511   1.3718   1.3718   1.7849   1.7849   1.8727   1.8727
     2.7247   2.7247   3.0078   3.0078   3.1269   3.1269   3.2119   3.2119
     3.3043   3.3043   3.3641   3.3641   3.4691   3.4691   3.7916   3.7916
     3.9607   3.9607   4.2626   4.2626   4.6683   4.6683   4.7497   4.7497
     5.0832   5.0832   5.3226   5.3226   5.3323   5.3323   5.5009   5.5009
     5.7047   5.7047   5.8129   5.8129   6.2007   6.2007   6.3407   6.3407
     6.3724   6.3724   6.5027   6.5027   6.5244   6.5244   6.6722   6.6722
     6.8587   6.8587   6.8615   6.8615   7.0031   7.0031   7.5128   7.5128
     7.5610   7.5610   7.6784   7.6784   7.6931   7.6931   8.0750   8.0750
    10.2275  10.2275  11.1677  11.1677  11.2277  11.2277  11.6469  11.6469
    11.8675  11.8675  12.4418  12.4418  12.6721  12.6721  12.8089  12.8089
    12.9004  12.9004  13.1909  13.1909  13.4663  13.4663  14.0914  14.0914
    14.5931  14.5931  15.5055  15.5055  15.8115  15.8115  15.8623  15.8623
    16.7002  16.7002  17.6253  17.6253  18.1440

          k = 0.0000 0.3150 0.0000 ( 62175 PWs)   bands (ev):

   -66.0905 -66.0903 -66.0895 -66.0895 -66.0893 -66.0893 -66.0885 -66.0883
   -30.5003 -30.4971 -30.4971 -30.4941 -30.4704 -30.4676 -30.4676 -30.4649
   -30.4312 -30.4312 -30.4295 -30.4295 -30.4258 -30.4258 -30.4242 -30.4242
   -30.3299 -30.3299 -30.3285 -30.3285 -30.3255 -30.3255 -30.3241 -30.3241
   -20.2435 -20.2435 -20.2435 -20.2434 -20.2434 -20.2434 -20.2434 -20.2433
   -20.2379 -20.2376 -20.2376 -20.2374 -20.2352 -20.2349 -20.2349 -20.2346
   -20.2275 -20.2275 -20.2272 -20.2272 -20.2269 -20.2269 -20.2268 -20.2268
   -20.2251 -20.2251 -20.2250 -20.2250 -20.2247 -20.2247 -20.2244 -20.2244
   -20.2166 -20.2165 -20.2162 -20.2162 -20.2162 -20.2162 -20.2158 -20.2158
   -20.2016 -20.2016 -20.2016 -20.2016 -20.2002 -20.2002 -20.2002 -20.2002
   -20.1949 -20.1949 -20.1948 -20.1948 -20.1935 -20.1935 -20.1935 -20.1935
    -9.8313  -9.6937  -9.3709  -9.3709  -9.2450  -9.2450  -9.0204  -9.0144
    -8.7897  -8.6770  -8.6692  -8.6692  -8.1888  -8.1428  -8.1428  -8.1181
    -7.7459  -7.7459  -7.7329  -7.7329  -7.5908  -7.5908  -7.5802  -7.5802
     1.2318   1.2320   1.3238   1.3238   1.3271   1.3271   1.6369   1.6724
     2.3846   2.4356   2.4725   2.5340   2.5340   2.7032   2.8706   2.8706
     3.0034   3.0034   3.6419   3.6419   3.6864   3.6864   4.1524   4.4739
     4.4739   4.7514   4.8915   4.8915   4.9162   4.9162   5.0469   5.0469
     5.0750   5.0750   5.3814   5.3814   5.5969   5.5969   5.6913   5.6913
     5.8556   5.8556   5.9111   5.9111   6.0594   6.0594   6.1034   6.1663
     6.1663   6.2327   6.2327   6.5401   6.6722   6.6722   6.8852   6.8852
     6.9343   7.0032   7.0935   7.0935   7.1136   7.1136   7.4403   7.4403
     7.4670   7.4670   7.8146   7.8179   7.8320   7.8320   7.8694   7.8694
     9.2948   9.2986  10.6801  10.6801  10.7231  10.7231  11.8166  11.8166
    11.9482  11.9482  12.3245  12.3245  12.3477  12.3477  12.9159  12.9173
    13.4119  13.4119  13.5090  13.5090  13.8574  13.8574  13.8890  13.8890
    14.7673  15.2352  15.2352  15.4731  15.4783  15.6604  15.9456  15.9456
    15.9602  16.8896  17.2533  17.6693  17.6693

          k = 0.0000 0.3150 0.1667 ( 62260 PWs)   bands (ev):

   -66.0905 -66.0903 -66.0896 -66.0895 -66.0894 -66.0893 -66.0886 -66.0884
   -30.5002 -30.4974 -30.4971 -30.4944 -30.4705 -30.4679 -30.4677 -30.4652
   -30.4308 -30.4292 -30.4262 -30.4246 -30.4242 -30.4226 -30.4189 -30.4174
   -30.3367 -30.3353 -30.3322 -30.3309 -30.3296 -30.3282 -30.3258 -30.3244
   -20.2435 -20.2435 -20.2435 -20.2434 -20.2434 -20.2434 -20.2434 -20.2433
   -20.2379 -20.2377 -20.2376 -20.2374 -20.2352 -20.2349 -20.2349 -20.2347
   -20.2274 -20.2273 -20.2272 -20.2270 -20.2268 -20.2268 -20.2267 -20.2266
   -20.2252 -20.2251 -20.2251 -20.2250 -20.2248 -20.2247 -20.2245 -20.2244
   -20.2165 -20.2165 -20.2162 -20.2162 -20.2162 -20.2161 -20.2159 -20.2158
   -20.2015 -20.2015 -20.2012 -20.2012 -20.2003 -20.2003 -20.1998 -20.1998
   -20.1953 -20.1953 -20.1948 -20.1948 -20.1940 -20.1940 -20.1936 -20.1936
    -9.7809  -9.6400  -9.3881  -9.2949  -9.2605  -9.1561  -8.9797  -8.9727
    -8.7979  -8.6739  -8.6706  -8.6532  -8.1889  -8.1507  -8.1395  -8.1241
    -7.8668  -7.8543  -7.7343  -7.7227  -7.7210  -7.7104  -7.6007  -7.5901
     1.3207   1.3221   1.3301   1.3338   1.5754   1.5840   1.7963   1.8433
     2.3866   2.5100   2.5247   2.5347   2.5633   2.6919   2.8789   2.9748
     2.9960   3.1001   3.6437   3.6771   3.6868   3.7267   4.1452   4.4282
     4.4591   4.4887   4.5393   4.7548   4.7825   4.8887   4.9447   4.9571
     5.0461   5.0866   5.1751   5.3007   5.4303   5.4729   5.6035   5.6233
     5.6837   5.7902   5.7916   5.8365   6.0515   6.1264   6.1405   6.1611
     6.2700   6.4457   6.4462   6.6008   6.6610   6.8687   6.9050   6.9446
     6.9814   6.9938   7.0797   7.0886   7.1036   7.1190   7.1934   7.1960
     7.2878   7.3064   7.8080   7.8138   7.8285   7.8341   7.8523   7.8570
     9.6581   9.6723  10.6850  10.7233  10.8655  10.8906  11.8153  11.9145
    11.9498  12.0242  12.2356  12.2530  12.3744  12.4083  12.9328  12.9659
    13.2285  13.3836  13.4013  13.5043  13.7068  13.7561  13.8555  13.8853
    14.9054  15.2268  15.4423  15.4980  15.5361  15.7289  15.9202  16.1234
    16.2426  16.8522  17.3189  17.3424  17.7826

          k = 0.0000 0.3150 0.3333 ( 62269 PWs)   bands (ev):

   -66.0903 -66.0901 -66.0898 -66.0896 -66.0893 -66.0891 -66.0888 -66.0886
   -30.4999 -30.4982 -30.4968 -30.4951 -30.4703 -30.4687 -30.4676 -30.4659
   -30.4298 -30.4282 -30.4272 -30.4255 -30.4055 -30.4041 -30.4004 -30.3990
   -30.3551 -30.3537 -30.3505 -30.3491 -30.3288 -30.3274 -30.3266 -30.3253
   -20.2435 -20.2435 -20.2435 -20.2434 -20.2434 -20.2434 -20.2434 -20.2433
   -20.2379 -20.2377 -20.2376 -20.2375 -20.2352 -20.2350 -20.2349 -20.2348
   -20.2274 -20.2273 -20.2270 -20.2269 -20.2266 -20.2266 -20.2263 -20.2262
   -20.2256 -20.2255 -20.2252 -20.2252 -20.2250 -20.2248 -20.2246 -20.2245
   -20.2165 -20.2164 -20.2163 -20.2162 -20.2161 -20.2161 -20.2159 -20.2159
   -20.2013 -20.2013 -20.2006 -20.2006 -20.2000 -20.2000 -20.1986 -20.1986
   -20.1966 -20.1966 -20.1953 -20.1953 -20.1945 -20.1945 -20.1939 -20.1939
    -9.6592  -9.5140  -9.4406  -9.3077  -9.1011  -8.9040  -8.8555  -8.8285
    -8.8282  -8.6891  -8.6397  -8.5854  -8.2350  -8.2285  -8.1648  -8.1436
    -8.1314  -8.0882  -8.0409  -7.9960  -7.7051  -7.6937  -7.6281  -7.6173
     1.3464   1.3511   1.3722   1.3774   2.1953   2.2701   2.3093   2.4045
     2.4866   2.5257   2.5377   2.7568   2.8042   2.8246   2.9010   2.9832
     3.2212   3.3123   3.6281   3.6469   3.7435   3.7653   3.8577   3.8714
     4.1243   4.3144   4.3989   4.4273   4.5103   4.5823   4.6421   4.8026
     4.8172   4.8406   4.9985   5.0700   5.1969   5.2095   5.2160   5.3812
     5.3856   5.5963   5.6500   5.7967   6.1483   6.2094   6.2411   6.2814
     6.4449   6.6252   6.6616   6.6871   6.7254   6.8207   6.8424   6.8580
     6.9161   6.9718   7.0400   7.0690   7.0801   7.1466   7.1736   7.1854
     7.2999   7.3491   7.7330   7.7463   7.7755   7.7795   7.8405   7.8563
    10.3940  10.4191  10.7017  10.7196  11.3194  11.3705  11.8041  11.8454
    11.8747  11.9814  12.2114  12.2428  12.5380  12.6151  12.6538  12.7320
    12.8668  13.1505  13.1921  13.4136  13.4987  13.5037  13.8605  13.8789
    15.0820  15.2001  15.5889  15.8441  15.9383  15.9555  16.0113  16.6403
    16.7234  16.8054  17.0440  17.5393  17.6315

          k = 0.0000 0.3150-0.5000 ( 62306 PWs)   bands (ev):

   -66.0900 -66.0900 -66.0898 -66.0898 -66.0890 -66.0890 -66.0888 -66.0888
   -30.4991 -30.4991 -30.4961 -30.4961 -30.4696 -30.4696 -30.4669 -30.4669
   -30.4285 -30.4285 -30.4269 -30.4269 -30.3803 -30.3803 -30.3789 -30.3789
   -30.3754 -30.3754 -30.3741 -30.3741 -30.3277 -30.3277 -30.3264 -30.3263
   -20.2435 -20.2435 -20.2435 -20.2435 -20.2434 -20.2434 -20.2434 -20.2434
   -20.2378 -20.2378 -20.2376 -20.2376 -20.2351 -20.2351 -20.2348 -20.2348
   -20.2273 -20.2273 -20.2269 -20.2269 -20.2261 -20.2261 -20.2260 -20.2260
   -20.2257 -20.2257 -20.2257 -20.2257 -20.2249 -20.2249 -20.2246 -20.2246
   -20.2164 -20.2164 -20.2163 -20.2163 -20.2160 -20.2160 -20.2160 -20.2160
   -20.2009 -20.2009 -20.2009 -20.2009 -20.1983 -20.1983 -20.1983 -20.1983
   -20.1970 -20.1970 -20.1970 -20.1970 -20.1942 -20.1942 -20.1942 -20.1942
    -9.5321  -9.5321  -9.3910  -9.3910  -8.9145  -8.9145  -8.7278  -8.7278
    -8.5559  -8.5559  -8.5391  -8.5391  -8.4854  -8.4854  -8.3854  -8.3854
    -8.1430  -8.1430  -8.1026  -8.1026  -7.6661  -7.6661  -7.6550  -7.6550
     1.3656   1.3656   1.3713   1.3713   2.3865   2.3865   2.5245   2.5245
     2.9204   2.9204   3.0569   3.0569   3.1015   3.1015   3.3024   3.3024
     3.3428   3.3428   3.3570   3.3570   3.4235   3.4235   3.6454   3.6454
     4.0870   4.0870   4.1230   4.1230   4.1396   4.1396   4.3759   4.3759
     4.8156   4.8156   4.9226   4.9226   5.1326   5.1326   5.3037   5.3037
     5.4452   5.4453   5.7236   5.7236   6.3131   6.3131   6.3735   6.3735
     6.4813   6.4813   6.5309   6.5309   6.5681   6.5681   6.7819   6.7819
     7.0487   7.0487   7.0669   7.0669   7.1023   7.1023   7.5193   7.5193
     7.5453   7.5454   7.5758   7.5758   7.6075   7.6075   7.8490   7.8490
    10.7067  10.7067  11.1815  11.1815  11.2205  11.2205  11.7170  11.7170
    12.0522  12.0522  12.1762  12.1762  12.5579  12.5579  12.6769  12.6769
    12.8305  12.8305  12.9913  12.9913  13.4885  13.4885  13.8704  13.8704
    15.1539  15.1539  15.7240  15.7240  16.2969  16.2969  16.4524  16.4524
    16.8587  16.8587  17.2517  17.2517  17.9521

          k = 0.0000-0.4725 0.0000 ( 62212 PWs)   bands (ev):

   -66.0904 -66.0904 -66.0894 -66.0894 -66.0894 -66.0894 -66.0884 -66.0884
   -30.4854 -30.4854 -30.4824 -30.4824 -30.4824 -30.4824 -30.4795 -30.4795
   -30.4304 -30.4304 -30.4303 -30.4303 -30.4250 -30.4250 -30.4250 -30.4250
   -30.3292 -30.3292 -30.3292 -30.3292 -30.3248 -30.3248 -30.3248 -30.3248
   -20.2435 -20.2435 -20.2434 -20.2434 -20.2434 -20.2434 -20.2433 -20.2433
   -20.2366 -20.2365 -20.2363 -20.2363 -20.2363 -20.2363 -20.2360 -20.2360
   -20.2272 -20.2272 -20.2271 -20.2271 -20.2270 -20.2270 -20.2270 -20.2270
   -20.2249 -20.2249 -20.2249 -20.2249 -20.2247 -20.2247 -20.2247 -20.2247
   -20.2166 -20.2165 -20.2162 -20.2162 -20.2162 -20.2162 -20.2158 -20.2158
   -20.2016 -20.2016 -20.2016 -20.2016 -20.2002 -20.2002 -20.2002 -20.2002
   -20.1949 -20.1949 -20.1949 -20.1949 -20.1935 -20.1935 -20.1935 -20.1935
    -9.7536  -9.7536  -9.2935  -9.2935  -9.2935  -9.2935  -9.0174  -9.0174
    -8.4925  -8.4925  -8.4357  -8.4357  -8.4357  -8.4357  -8.4336  -8.4336
    -7.7394  -7.7394  -7.7394  -7.7394  -7.5855  -7.5855  -7.5855  -7.5855
     1.2319   1.2319   1.3262   1.3262   1.3262   1.3262   1.6639   1.6639
     2.4539   2.4539   3.2070   3.2070   3.2070   3.2070   3.2456   3.2456
     3.3114   3.3114   3.3114   3.3114   3.4718   3.4718   3.4718   3.4718
     3.6799   3.6799   4.9010   4.9010   4.9010   4.9010   5.2164   5.2164
     5.2164   5.2164   5.3238   5.3238   5.3238   5.3238   5.7553   5.7553
     5.7553   5.7553   6.0222   6.0222   6.0222   6.0222   6.1965   6.1965
     6.1965   6.1965   6.2868   6.2868   6.7659   6.7659   6.7659   6.7659
     6.9693   6.9693   7.4229   7.4229   7.4229   7.4229   7.4710   7.4710
     7.4710   7.4710   7.5595   7.5595   7.5595   7.5595   7.8162   7.8162
     9.2965   9.2966  11.2658  11.2658  11.2658  11.2658  11.3528  11.3528
    11.3528  11.3528  12.3398  12.3398  12.3398  12.3398  12.9166  12.9166
    13.6049  13.6049  13.6049  13.6049  13.6637  13.6637  13.6637  13.6637
    15.3623  15.3623  15.4753  15.4753  15.6964  15.6964  15.6964  15.6964
    16.5497  16.5497  17.9705  18.1225  18.1225

          k = 0.0000-0.4725 0.1667 ( 62246 PWs)   bands (ev):

   -66.0904 -66.0904 -66.0895 -66.0895 -66.0894 -66.0893 -66.0885 -66.0885
   -30.4854 -30.4854 -30.4827 -30.4827 -30.4825 -30.4824 -30.4798 -30.4798
   -30.4300 -30.4300 -30.4254 -30.4254 -30.4234 -30.4234 -30.4182 -30.4182
   -30.3360 -30.3360 -30.3315 -30.3315 -30.3289 -30.3289 -30.3251 -30.3251
   -20.2435 -20.2435 -20.2435 -20.2434 -20.2434 -20.2434 -20.2434 -20.2433
   -20.2366 -20.2365 -20.2363 -20.2363 -20.2363 -20.2363 -20.2361 -20.2361
   -20.2272 -20.2271 -20.2270 -20.2270 -20.2270 -20.2270 -20.2268 -20.2268
   -20.2250 -20.2250 -20.2249 -20.2249 -20.2248 -20.2248 -20.2247 -20.2247
   -20.2165 -20.2165 -20.2162 -20.2162 -20.2162 -20.2162 -20.2158 -20.2158
   -20.2015 -20.2015 -20.2012 -20.2012 -20.2003 -20.2003 -20.1998 -20.1998
   -20.1953 -20.1953 -20.1948 -20.1948 -20.1940 -20.1940 -20.1936 -20.1936
    -9.7009  -9.7009  -9.3099  -9.3099  -9.2082  -9.2082  -8.9761  -8.9761
    -8.4982  -8.4982  -8.4416  -8.4416  -8.4327  -8.4327  -8.4289  -8.4289
    -7.8608  -7.8608  -7.7286  -7.7286  -7.7157  -7.7157  -7.5954  -7.5954
     1.3217   1.3217   1.3328   1.3328   1.5818   1.5819   1.8330   1.8330
     2.5441   2.5441   3.2120   3.2120   3.2239   3.2239   3.2446   3.2446
     3.3037   3.3037   3.3499   3.3499   3.4691   3.4691   3.5266   3.5266
     3.7076   3.7076   4.4848   4.4848   4.9466   4.9466   4.9765   4.9765
     5.1410   5.1410   5.1986   5.1986   5.3364   5.3364   5.4949   5.4949
     5.7289   5.7289   5.7942   5.7942   6.1342   6.1342   6.1470   6.1470
     6.4141   6.4141   6.4457   6.4457   6.7546   6.7546   6.9362   6.9362
     7.0267   7.0267   7.1925   7.1925   7.2450   7.2450   7.4568   7.4568
     7.4778   7.4778   7.5139   7.5139   7.5377   7.5377   7.8312   7.8312
     9.6662   9.6662  11.2709  11.2709  11.3456  11.3456  11.3966  11.3966
    11.4754  11.4755  12.2457  12.2457  12.3917  12.3917  12.9508  12.9508
    13.4271  13.4271  13.5306  13.5306  13.6099  13.6099  13.6595  13.6595
    15.4209  15.4209  15.6124  15.6124  15.6777  15.6777  15.9655  15.9655
    16.6118  16.6118  17.8904  17.8904  18.0775

          k = 0.0000-0.4725 0.3333 ( 62268 PWs)   bands (ev):

   -66.0902 -66.0902 -66.0897 -66.0897 -66.0892 -66.0892 -66.0887 -66.0887
   -30.4851 -30.4851 -30.4835 -30.4834 -30.4822 -30.4822 -30.4806 -30.4806
   -30.4290 -30.4290 -30.4264 -30.4263 -30.4048 -30.4048 -30.3998 -30.3997
   -30.3544 -30.3544 -30.3498 -30.3498 -30.3281 -30.3281 -30.3259 -30.3259
   -20.2435 -20.2435 -20.2435 -20.2435 -20.2434 -20.2434 -20.2434 -20.2434
   -20.2365 -20.2365 -20.2364 -20.2364 -20.2363 -20.2363 -20.2361 -20.2361
   -20.2271 -20.2271 -20.2270 -20.2270 -20.2265 -20.2265 -20.2264 -20.2264
   -20.2254 -20.2254 -20.2252 -20.2252 -20.2248 -20.2248 -20.2247 -20.2247
   -20.2165 -20.2164 -20.2163 -20.2163 -20.2161 -20.2161 -20.2159 -20.2159
   -20.2013 -20.2013 -20.2006 -20.2006 -20.2000 -20.2000 -20.1986 -20.1986
   -20.1966 -20.1966 -20.1953 -20.1953 -20.1945 -20.1945 -20.1939 -20.1939
    -9.5754  -9.5754  -9.3602  -9.3601  -8.9725  -8.9725  -8.8373  -8.8373
    -8.5313  -8.5313  -8.4669  -8.4669  -8.4241  -8.4241  -8.4028  -8.4028
    -8.1518  -8.1518  -8.0295  -8.0295  -7.6995  -7.6994  -7.6227  -7.6227
     1.3499   1.3499   1.3760   1.3761   2.2592   2.2592   2.4657   2.4657
     2.8060   2.8060   3.2244   3.2244   3.2367   3.2367   3.2462   3.2462
     3.2820   3.2821   3.4262   3.4262   3.4583   3.4583   3.6879   3.6879
     3.7692   3.7692   3.8556   3.8556   4.4972   4.4972   4.6634   4.6634
     4.7996   4.7996   4.8642   4.8642   5.2335   5.2335   5.2600   5.2600
     5.3842   5.3842   5.6576   5.6576   6.2074   6.2074   6.2810   6.2810
     6.5508   6.5508   6.7194   6.7194   6.7216   6.7216   6.8771   6.8771
     7.0147   7.0147   7.2019   7.2019   7.2037   7.2037   7.4373   7.4373
     7.4722   7.4722   7.4988   7.4988   7.5109   7.5109   7.7869   7.7869
    10.4102  10.4102  11.2860  11.2860  11.3257  11.3257  11.7791  11.7791
    11.8192  11.8192  11.8675  11.8675  12.5636  12.5636  12.7628  12.7628
    12.9587  12.9587  13.2352  13.2352  13.6232  13.6232  13.6516  13.6516
    15.4472  15.4472  15.6209  15.6209  16.2169  16.2169  16.6753  16.6753
    16.8261  16.8261  17.3773  17.3773  17.9052

          k = 0.0000-0.4725-0.5000 ( 62284 PWs)   bands (ev):

   -66.0899 -66.0899 -66.0899 -66.0899 -66.0889 -66.0889 -66.0889 -66.0889
   -30.4844 -30.4844 -30.4844 -30.4844 -30.4815 -30.4815 -30.4815 -30.4815
   -30.4277 -30.4277 -30.4277 -30.4277 -30.3796 -30.3796 -30.3796 -30.3796
   -30.3748 -30.3748 -30.3748 -30.3748 -30.3270 -30.3270 -30.3270 -30.3270
   -20.2435 -20.2435 -20.2435 -20.2435 -20.2434 -20.2434 -20.2434 -20.2434
   -20.2365 -20.2365 -20.2365 -20.2365 -20.2362 -20.2362 -20.2362 -20.2362
   -20.2271 -20.2271 -20.2271 -20.2271 -20.2260 -20.2260 -20.2260 -20.2260
   -20.2258 -20.2258 -20.2258 -20.2258 -20.2248 -20.2248 -20.2248 -20.2248
   -20.2164 -20.2164 -20.2163 -20.2163 -20.2160 -20.2160 -20.2160 -20.2160
   -20.2009 -20.2009 -20.2009 -20.2009 -20.1983 -20.1983 -20.1983 -20.1983
   -20.1970 -20.1970 -20.1970 -20.1970 -20.1942 -20.1942 -20.1942 -20.1942
    -9.4485  -9.4485  -9.4485  -9.4485  -8.6786  -8.6786  -8.6786  -8.6786
    -8.6009  -8.6009  -8.6008  -8.6008  -8.3808  -8.3808  -8.3808  -8.3808
    -8.3101  -8.3101  -8.3101  -8.3101  -7.6606  -7.6606  -7.6606  -7.6606
     1.3698   1.3698   1.3698   1.3698   3.0269   3.0269   3.0269   3.0269
     3.1652   3.1652   3.1652   3.1652   3.2445   3.2445   3.2445   3.2445
     3.3044   3.3044   3.3044   3.3044   3.4659   3.4659   3.4659   3.4659
     3.6313   3.6313   3.6313   3.6313   4.3173   4.3173   4.3173   4.3173
     4.4305   4.4305   4.4305   4.4305   5.2372   5.2372   5.2372   5.2372
     5.5195   5.5195   5.5195   5.5195   6.3637   6.3637   6.3637   6.3637
     6.5319   6.5319   6.5319   6.5319   6.6674   6.6674   6.6674   6.6674
     7.2989   7.2989   7.2989   7.2989   7.3820   7.3820   7.3820   7.3820
     7.4735   7.4735   7.4735   7.4735   7.5963   7.5963   7.5963   7.5963
    11.1855  11.1855  11.1855  11.1855  11.3208  11.3208  11.3209  11.3209
    12.3046  12.3046  12.3046  12.3046  12.3474  12.3474  12.3474  12.3474
    12.8743  12.8743  12.8743  12.8743  13.6390  13.6390  13.6391  13.6391
    15.5319  15.5319  15.5319  15.5319  16.8655  16.8655  16.8655  16.8655
    17.3428  17.3428  17.3428  17.3428  17.4783

          k = 0.1667 0.0000 0.1667 ( 62234 PWs)   bands (ev):

   -66.0905 -66.0901 -66.0896 -66.0896 -66.0892 -66.0892 -66.0887 -66.0883
   -30.5149 -30.5120 -30.5120 -30.5092 -30.4558 -30.4533 -30.4533 -30.4508
   -30.4245 -30.4245 -30.4215 -30.4215 -30.4203 -30.4197 -30.4170 -30.4169
   -30.3371 -30.3370 -30.3343 -30.3343 -30.3332 -30.3332 -30.3305 -30.3305
   -20.2436 -20.2435 -20.2435 -20.2435 -20.2434 -20.2434 -20.2434 -20.2433
   -20.2392 -20.2390 -20.2390 -20.2388 -20.2338 -20.2335 -20.2335 -20.2333
   -20.2276 -20.2276 -20.2274 -20.2273 -20.2266 -20.2266 -20.2264 -20.2264
   -20.2255 -20.2255 -20.2253 -20.2252 -20.2246 -20.2245 -20.2242 -20.2242
   -20.2165 -20.2164 -20.2162 -20.2162 -20.2161 -20.2161 -20.2159 -20.2158
   -20.2011 -20.2011 -20.2011 -20.2011 -20.1999 -20.1999 -20.1999 -20.1998
   -20.1953 -20.1952 -20.1952 -20.1952 -20.1941 -20.1941 -20.1941 -20.1941
    -9.8353  -9.5341  -9.4476  -9.4476  -9.1379  -9.1379  -9.0884  -8.9449
    -8.9325  -8.8445  -8.8092  -8.8092  -7.8639  -7.8639  -7.8553  -7.8469
    -7.8469  -7.7886  -7.7886  -7.7570  -7.7485  -7.7393  -7.7140  -7.6939
     1.4495   1.4856   1.4856   1.4919   1.4925   1.5921   1.5921   1.6311
     1.7198   1.7198   1.9336   2.0837   2.5940   2.6795   2.6866   2.6866
     2.8045   2.8378   4.0904   4.1007   4.3359   4.3359   4.4970   4.4970
     4.5725   4.5725   4.7102   4.7102   4.7582   4.8280   5.0389   5.2521
     5.3073   5.3305   5.3893   5.4911   5.4911   5.6414   5.6414   5.6996
     5.6996   5.7371   5.7717   5.7717   5.7964   5.9899   6.3491   6.4638
     6.4638   6.5474   6.5474   6.6495   6.6945   6.7023   6.7035   6.7035
     6.7563   6.8734   6.8734   6.8934   6.9083   7.0081   7.0081   7.1293
     7.3337   7.3981   7.8273   7.8291   8.0436   8.0915   8.1121   8.1121
     9.8726   9.9435  10.2869  10.2869  10.2967  10.3906  12.2640  12.2640
    12.2921  12.2921  12.3332  12.3767  12.6160  12.6160  12.9595  13.0148
    13.0619  13.0619  13.2279  13.3874  14.0237  14.0410  14.0410  14.0448
    14.0973  14.4926  14.4926  15.1165  15.4239  15.5850  15.6004  16.3714
    16.3714  16.9778  16.9778  17.1509  17.5549

          k = 0.1667 0.0000 0.3333 ( 62265 PWs)   bands (ev):

   -66.0903 -66.0899 -66.0898 -66.0894 -66.0894 -66.0890 -66.0889 -66.0885
   -30.5145 -30.5128 -30.5117 -30.5100 -30.4557 -30.4541 -30.4532 -30.4515
   -30.4236 -30.4210 -30.4206 -30.4179 -30.4057 -30.4030 -30.4014 -30.3986
   -30.3555 -30.3527 -30.3515 -30.3488 -30.3362 -30.3340 -30.3335 -30.3313
   -20.2435 -20.2435 -20.2435 -20.2435 -20.2434 -20.2434 -20.2434 -20.2433
   -20.2392 -20.2391 -20.2390 -20.2389 -20.2338 -20.2336 -20.2335 -20.2334
   -20.2275 -20.2274 -20.2272 -20.2269 -20.2267 -20.2262 -20.2262 -20.2260
   -20.2258 -20.2256 -20.2256 -20.2251 -20.2249 -20.2246 -20.2245 -20.2243
   -20.2165 -20.2164 -20.2163 -20.2162 -20.2161 -20.2161 -20.2160 -20.2159
   -20.2008 -20.2008 -20.2001 -20.2001 -20.1999 -20.1999 -20.1987 -20.1987
   -20.1965 -20.1965 -20.1954 -20.1954 -20.1950 -20.1950 -20.1944 -20.1943
    -9.7168  -9.4997  -9.3958  -9.3075  -9.1836  -9.1187  -8.8831  -8.8687
    -8.8224  -8.7986  -8.7615  -8.6888  -8.1622  -8.1619  -8.0843  -8.0610
    -7.8330  -7.8296  -7.8271  -7.7917  -7.7819  -7.7603  -7.7541  -7.7369
     1.4577   1.4751   1.5749   1.6103   1.6131   1.6300   1.6942   1.7250
     2.2836   2.3166   2.4684   2.5509   2.7105   2.7979   2.8668   2.9262
     2.9668   3.0718   3.8325   3.8562   3.9455   3.9478   4.1862   4.2961
     4.3206   4.5084   4.5567   4.5631   4.6448   4.7444   4.7895   4.9453
     4.9863   5.0771   5.1076   5.2189   5.3097   5.3825   5.5495   5.6837
     5.6880   5.7547   5.7821   5.8078   5.8349   6.0025   6.1831   6.2340
     6.4461   6.4526   6.4974   6.5889   6.6181   6.6557   6.6665   6.6874
     6.8223   6.8840   6.8898   6.9138   7.1475   7.1755   7.1764   7.2593
     7.3503   7.3981   7.7792   7.7950   7.9390   7.9771   8.1043   8.1147
    10.2791  10.2936  10.5229  10.5754  10.9038  11.0281  11.8958  11.9346
    12.1484  12.4148  12.4320  12.5477  12.5676  12.6166  12.7665  12.8711
    12.9203  13.0348  13.0918  13.3176  13.6931  13.7064  14.0386  14.0599
    14.2628  14.4639  14.8039  15.3161  15.4256  15.8383  16.0046  16.2741
    16.4078  17.2151  17.4319  17.5122  17.5991

          k = 0.1667 0.0000-0.5000 ( 62322 PWs)   bands (ev):

   -66.0901 -66.0901 -66.0897 -66.0897 -66.0892 -66.0892 -66.0888 -66.0888
   -30.5137 -30.5137 -30.5109 -30.5109 -30.4550 -30.4550 -30.4525 -30.4525
   -30.4223 -30.4223 -30.4192 -30.4192 -30.3806 -30.3806 -30.3779 -30.3779
   -30.3764 -30.3764 -30.3737 -30.3737 -30.3351 -30.3351 -30.3324 -30.3324
   -20.2435 -20.2435 -20.2435 -20.2435 -20.2434 -20.2434 -20.2434 -20.2434
   -20.2392 -20.2392 -20.2389 -20.2389 -20.2337 -20.2337 -20.2335 -20.2335
   -20.2274 -20.2274 -20.2269 -20.2269 -20.2263 -20.2263 -20.2260 -20.2260
   -20.2258 -20.2258 -20.2255 -20.2254 -20.2249 -20.2249 -20.2244 -20.2244
   -20.2164 -20.2164 -20.2163 -20.2163 -20.2161 -20.2161 -20.2160 -20.2160
   -20.2005 -20.2005 -20.2005 -20.2005 -20.1982 -20.1982 -20.1982 -20.1982
   -20.1971 -20.1971 -20.1971 -20.1971 -20.1947 -20.1947 -20.1947 -20.1947
    -9.5911  -9.5911  -9.2662  -9.2662  -9.1846  -9.1846  -8.8414  -8.8414
    -8.5332  -8.5332  -8.5327  -8.5327  -8.4750  -8.4750  -8.4174  -8.4174
    -7.8226  -7.8226  -7.7951  -7.7951  -7.7713  -7.7713  -7.7695  -7.7695
     1.4648   1.4648   1.5949   1.5949   1.6311   1.6311   1.7293   1.7293
     2.7370   2.7370   3.0050   3.0050   3.0953   3.0953   3.2172   3.2172
     3.3259   3.3259   3.4373   3.4373   3.5334   3.5334   3.8104   3.8104
     3.9049   3.9049   4.4222   4.4222   4.5606   4.5606   4.8894   4.8894
     5.0517   5.0517   5.0642   5.0642   5.2639   5.2639   5.6233   5.6233
     5.7931   5.7931   5.8121   5.8121   5.9155   5.9155   5.9704   5.9704
     6.3665   6.3665   6.4513   6.4513   6.6639   6.6639   6.7519   6.7519
     6.8260   6.8260   6.9875   6.9875   7.0460   7.0460   7.5484   7.5484
     7.5929   7.5929   7.7173   7.7173   7.7309   7.7309   8.1142   8.1142
    10.2989  10.2989  11.2382  11.2382  11.3065  11.3065  11.6064  11.6064
    11.8182  11.8182  12.6295  12.6295  12.6565  12.6566  12.7083  12.7083
    12.9341  12.9341  13.2667  13.2667  13.3849  13.3849  14.0454  14.0454
    14.4013  14.4013  15.1131  15.1131  15.8649  15.8649  16.1019  16.1019
    16.7637  16.7637  17.8440  17.8440  17.8772

          k = 0.1667 0.1575 0.1667 ( 62255 PWs)   bands (ev):

   -66.0905 -66.0901 -66.0896 -66.0896 -66.0892 -66.0892 -66.0887 -66.0884
   -30.5110 -30.5081 -30.5081 -30.5053 -30.4597 -30.4573 -30.4573 -30.4547
   -30.4244 -30.4244 -30.4217 -30.4217 -30.4201 -30.4196 -30.4173 -30.4171
   -30.3369 -30.3368 -30.3345 -30.3345 -30.3330 -30.3330 -30.3307 -30.3307
   -20.2436 -20.2435 -20.2435 -20.2435 -20.2434 -20.2434 -20.2434 -20.2433
   -20.2389 -20.2387 -20.2387 -20.2384 -20.2342 -20.2339 -20.2339 -20.2337
   -20.2275 -20.2275 -20.2273 -20.2272 -20.2266 -20.2266 -20.2265 -20.2265
   -20.2254 -20.2254 -20.2253 -20.2252 -20.2246 -20.2246 -20.2243 -20.2243
   -20.2165 -20.2164 -20.2162 -20.2162 -20.2161 -20.2161 -20.2159 -20.2158
   -20.2011 -20.2011 -20.2011 -20.2011 -20.1999 -20.1999 -20.1999 -20.1998
   -20.1953 -20.1952 -20.1952 -20.1952 -20.1941 -20.1941 -20.1941 -20.1941
    -9.8038  -9.5456  -9.4065  -9.4065  -9.1458  -9.1458  -9.0150  -8.9441
    -8.9333  -8.8010  -8.7755  -8.7755  -7.9479  -7.9050  -7.9050  -7.8631
    -7.8603  -7.8603  -7.8331  -7.8331  -7.7555  -7.7346  -7.7128  -7.6953
     1.4919   1.4925   1.5510   1.5510   1.5919   1.5919   1.6390   1.8329
     1.8933   1.8933   1.9327   2.1685   2.6015   2.6742   2.7597   2.7597
     2.8758   2.9012   3.9933   4.0218   4.1256   4.1256   4.4870   4.4870
     4.5757   4.5757   4.7019   4.7456   4.7456   4.7799   4.8006   5.2190
     5.2266   5.2602   5.2602   5.3667   5.3755   5.6015   5.6015   5.6342
     5.7535   5.7535   5.7639   5.7914   5.7914   5.8519   6.3693   6.3914
     6.3914   6.5424   6.5424   6.6714   6.6875   6.7445   6.7889   6.7930
     6.7930   6.8402   6.8906   6.8906   6.9784   6.9869   6.9869   7.1344
     7.3377   7.3962   7.8277   7.8299   7.9904   8.0356   8.0356   8.0373
     9.8884   9.9404  10.4423  10.4534  10.4534  10.5226  12.2279  12.2709
    12.2710  12.2722  12.2790  12.2791  12.4779  12.4779  12.9474  13.0104
    13.1039  13.1039  13.2358  13.3927  13.9284  13.9405  13.9405  14.0076
    14.3788  14.7947  14.7947  15.2573  15.5859  15.5994  15.8274  16.3366
    16.3366  16.8100  17.0822  17.0822  17.6270

          k = 0.1667 0.1575 0.3333 ( 62260 PWs)   bands (ev):

   -66.0903 -66.0899 -66.0898 -66.0894 -66.0894 -66.0891 -66.0889 -66.0886
   -30.5106 -30.5089 -30.5078 -30.5061 -30.4596 -30.4580 -30.4571 -30.4555
   -30.4234 -30.4208 -30.4208 -30.4182 -30.4056 -30.4032 -30.4012 -30.3988
   -30.3553 -30.3529 -30.3513 -30.3490 -30.3360 -30.3338 -30.3337 -30.3315
   -20.2435 -20.2435 -20.2435 -20.2435 -20.2434 -20.2434 -20.2434 -20.2433
   -20.2389 -20.2387 -20.2386 -20.2385 -20.2341 -20.2340 -20.2339 -20.2338
   -20.2274 -20.2273 -20.2271 -20.2268 -20.2267 -20.2263 -20.2262 -20.2261
   -20.2257 -20.2256 -20.2255 -20.2252 -20.2250 -20.2246 -20.2246 -20.2244
   -20.2165 -20.2164 -20.2163 -20.2162 -20.2161 -20.2161 -20.2160 -20.2159
   -20.2008 -20.2008 -20.2001 -20.2001 -20.1999 -20.1999 -20.1987 -20.1987
   -20.1965 -20.1965 -20.1954 -20.1954 -20.1950 -20.1950 -20.1944 -20.1943
    -9.6817  -9.4594  -9.4071  -9.2527  -9.1921  -9.0458  -8.8914  -8.8504
    -8.7998  -8.7885  -8.7392  -8.6689  -8.1687  -8.1601  -8.1026  -8.0590
    -7.9183  -7.9034  -7.8826  -7.8546  -7.8312  -7.8083  -7.7554  -7.7368
     1.5602   1.5781   1.6101   1.6297   1.7783   1.7840   1.8632   1.8915
     2.2821   2.3286   2.4702   2.5670   2.7825   2.8539   2.8897   2.9644
     3.0002   3.1278   3.8282   3.8534   3.9081   3.9367   4.1129   4.1846
     4.2657   4.3771   4.5785   4.5822   4.6780   4.7098   4.7494   4.7630
     4.9120   4.9321   4.9770   5.1631   5.2163   5.2566   5.3211   5.6023
     5.6453   5.6604   5.7458   5.7960   5.8158   5.8271   6.1888   6.2350
     6.3888   6.5284   6.5431   6.6442   6.7045   6.7078   6.7465   6.7704
     6.8722   6.8864   6.9169   6.9505   7.1423   7.1668   7.1716   7.2647
     7.3401   7.3916   7.7805   7.7923   7.8926   7.9173   8.0373   8.0392
    10.4000  10.4574  10.5476  10.5910  11.0182  11.1162  11.8970  11.9310
    12.1213  12.3939  12.4372  12.4697  12.4898  12.5972  12.7068  12.7511
    12.9088  13.0729  13.0738  13.3175  13.5887  13.6098  13.9400  13.9670
    14.5988  14.7715  15.1519  15.5296  15.7298  15.8331  16.0146  16.2425
    16.5155  17.1749  17.2091  17.4888  17.5525

          k = 0.1667 0.1575-0.5000 ( 62292 PWs)   bands (ev):

   -66.0900 -66.0900 -66.0897 -66.0897 -66.0891 -66.0891 -66.0888 -66.0888
   -30.5098 -30.5098 -30.5070 -30.5070 -30.4589 -30.4589 -30.4564 -30.4564
   -30.4221 -30.4221 -30.4195 -30.4195 -30.3804 -30.3804 -30.3781 -30.3781
   -30.3762 -30.3762 -30.3739 -30.3739 -30.3349 -30.3349 -30.3326 -30.3326
   -20.2435 -20.2435 -20.2435 -20.2434 -20.2434 -20.2434 -20.2434 -20.2434
   -20.2388 -20.2388 -20.2386 -20.2386 -20.2341 -20.2341 -20.2339 -20.2339
   -20.2273 -20.2273 -20.2268 -20.2268 -20.2262 -20.2262 -20.2260 -20.2260
   -20.2258 -20.2257 -20.2255 -20.2255 -20.2250 -20.2250 -20.2245 -20.2245
   -20.2164 -20.2164 -20.2163 -20.2163 -20.2161 -20.2161 -20.2160 -20.2160
   -20.2005 -20.2005 -20.2005 -20.2005 -20.1982 -20.1982 -20.1982 -20.1982
   -20.1971 -20.1971 -20.1971 -20.1971 -20.1947 -20.1947 -20.1947 -20.1947
    -9.5527  -9.5527  -9.2761  -9.2761  -9.1162  -9.1162  -8.8088  -8.8088
    -8.5362  -8.5362  -8.5349  -8.5349  -8.4771  -8.4771  -8.4118  -8.4118
    -7.9128  -7.9128  -7.8719  -7.8719  -7.7930  -7.7930  -7.7728  -7.7728
     1.5717   1.5717   1.6308   1.6308   1.7941   1.7941   1.8908   1.8908
     2.8045   2.8045   3.0238   3.0238   3.1076   3.1076   3.2380   3.2380
     3.3286   3.3286   3.4414   3.4414   3.5239   3.5239   3.8119   3.8119
     3.9537   3.9537   4.2688   4.2688   4.5828   4.5828   4.6630   4.6630
     4.9450   4.9450   5.0299   5.0299   5.1197   5.1197   5.4390   5.4390
     5.6915   5.6915   5.7629   5.7629   5.8607   5.8607   5.9135   5.9135
     6.4900   6.4900   6.6162   6.6162   6.6587   6.6587   6.7969   6.7969
     6.9066   6.9066   6.9475   6.9475   7.0683   7.0683   7.5483   7.5483
     7.5873   7.5873   7.6863   7.6863   7.7001   7.7001   8.0412   8.0412
    10.4562  10.4562  11.2443  11.2443  11.3049  11.3049  11.6728  11.6728
    11.8787  11.8787  12.5076  12.5076  12.6355  12.6355  12.6974  12.6974
    12.9130  12.9130  13.1630  13.1630  13.3292  13.3292  13.9496  13.9496
    14.7198  14.7198  15.4881  15.4881  15.9848  15.9848  16.0806  16.0806
    16.7934  16.7934  17.6440  17.6440  17.9149

          k = 0.1667 0.3150 0.1667 ( 62249 PWs)   bands (ev):

   -66.0904 -66.0902 -66.0895 -66.0895 -66.0893 -66.0893 -66.0886 -66.0884
   -30.5002 -30.4974 -30.4974 -30.4947 -30.4706 -30.4680 -30.4680 -30.4655
   -30.4238 -30.4238 -30.4223 -30.4223 -30.4195 -30.4191 -30.4179 -30.4177
   -30.3364 -30.3363 -30.3350 -30.3350 -30.3325 -30.3325 -30.3312 -30.3312
   -20.2435 -20.2435 -20.2435 -20.2435 -20.2434 -20.2434 -20.2434 -20.2433
   -20.2379 -20.2377 -20.2377 -20.2375 -20.2352 -20.2349 -20.2349 -20.2347
   -20.2273 -20.2273 -20.2271 -20.2270 -20.2267 -20.2267 -20.2267 -20.2266
   -20.2252 -20.2252 -20.2252 -20.2252 -20.2248 -20.2248 -20.2245 -20.2245
   -20.2165 -20.2165 -20.2162 -20.2162 -20.2162 -20.2161 -20.2159 -20.2159
   -20.2011 -20.2011 -20.2011 -20.2011 -20.1999 -20.1999 -20.1999 -20.1999
   -20.1953 -20.1953 -20.1952 -20.1952 -20.1941 -20.1941 -20.1941 -20.1941
    -9.7272  -9.5816  -9.3123  -9.3123  -9.1719  -9.1719  -8.9419  -8.9358
    -8.8065  -8.6644  -8.6579  -8.6579  -8.1906  -8.1472  -8.1472  -8.1297
    -7.8564  -7.8564  -7.8433  -7.8433  -7.7514  -7.7398  -7.7091  -7.6990
     1.4919   1.4922   1.5818   1.5818   1.5910   1.5910   1.8689   1.9288
     2.3880   2.5114   2.5114   2.6182   2.6374   2.7001   2.9818   2.9818
     3.0903   3.0970   3.6864   3.6864   3.6930   3.7423   4.1386   4.4522
     4.4522   4.5128   4.5128   4.6040   4.6040   4.7444   4.7530   4.8434
     4.8979   4.8979   5.1256   5.1503   5.3745   5.4127   5.4279   5.4279
     5.6267   5.6492   5.7700   5.7700   5.8211   5.8211   6.4203   6.4203
     6.4427   6.5302   6.5302   6.6439   6.7474   6.7725   6.8914   6.8914
     6.9416   6.9416   6.9950   7.0284   7.1014   7.1014   7.1025   7.1640
     7.3569   7.3967   7.8053   7.8103   7.8103   7.8205   7.8333   7.8634
     9.9110   9.9341  10.8398  10.8926  10.8926  10.9030  11.8892  11.9368
    12.0217  12.0217  12.2831  12.2831  12.3209  12.3209  12.9460  12.9956
    13.2278  13.2278  13.2971  13.4437  13.6990  13.6990  13.7018  13.7973
    15.0581  15.4349  15.4349  15.5882  15.5963  15.7970  16.2153  16.2153
    16.2461  16.8168  17.3782  17.4296  17.4296

          k = 0.1667 0.3150 0.3333 ( 62265 PWs)   bands (ev):

   -66.0902 -66.0900 -66.0897 -66.0895 -66.0893 -66.0891 -66.0888 -66.0886
   -30.4998 -30.4982 -30.4971 -30.4954 -30.4704 -30.4688 -30.4679 -30.4662
   -30.4229 -30.4213 -30.4203 -30.4187 -30.4051 -30.4037 -30.4008 -30.3994
   -30.3548 -30.3534 -30.3508 -30.3494 -30.3355 -30.3342 -30.3333 -30.3320
   -20.2435 -20.2435 -20.2435 -20.2434 -20.2434 -20.2434 -20.2434 -20.2434
   -20.2379 -20.2377 -20.2377 -20.2375 -20.2352 -20.2350 -20.2349 -20.2348
   -20.2272 -20.2271 -20.2269 -20.2267 -20.2266 -20.2265 -20.2263 -20.2262
   -20.2256 -20.2255 -20.2253 -20.2252 -20.2251 -20.2248 -20.2247 -20.2246
   -20.2164 -20.2164 -20.2163 -20.2162 -20.2161 -20.2161 -20.2160 -20.2159
   -20.2008 -20.2008 -20.2001 -20.2001 -20.1999 -20.1999 -20.1987 -20.1987
   -20.1965 -20.1965 -20.1954 -20.1954 -20.1950 -20.1950 -20.1943 -20.1943
    -9.5971  -9.4430  -9.3660  -9.2205  -9.1185  -8.9211  -8.8421  -8.8236
    -8.8018  -8.6723  -8.6352  -8.5910  -8.2414  -8.2258  -8.1559  -8.1434
    -8.1357  -8.0831  -8.0526  -8.0030  -7.8273  -7.8155  -7.7516  -7.7409
     1.5987   1.6091   1.6205   1.6289   2.2007   2.2776   2.2995   2.4000
     2.4690   2.5128   2.5329   2.7294   2.8949   2.9611   2.9996   3.0821
     3.2242   3.3101   3.6665   3.6669   3.7481   3.7576   3.9080   3.9846
     4.1195   4.3189   4.4020   4.4223   4.5022   4.5788   4.6290   4.6363
     4.7222   4.7869   4.8410   4.8746   4.9416   5.0061   5.1509   5.1581
     5.3294   5.3441   5.4591   5.6032   5.7996   5.8321   6.2193   6.2374
     6.5513   6.6354   6.6440   6.7553   6.8313   6.8613   6.9323   6.9682
     7.0210   7.0433   7.0603   7.0781   7.1722   7.1794   7.1995   7.2961
     7.3079   7.3744   7.7344   7.7366   7.7738   7.7860   7.8180   7.8493
    10.5154  10.5559  10.8894  10.8904  11.3316  11.3840  11.8939  11.8995
    11.9036  12.0879  12.2134  12.2310  12.4463  12.5468  12.6706  12.7413
    12.8645  13.0773  13.1491  13.3663  13.3711  13.3900  13.7041  13.7482
    15.2760  15.4103  15.8023  15.9490  16.0103  16.0663  16.1332  16.6947
    16.6989  16.8544  17.0491  17.5759  17.6647

          k = 0.1667 0.3150-0.5000 ( 62264 PWs)   bands (ev):

   -66.0900 -66.0900 -66.0898 -66.0898 -66.0891 -66.0891 -66.0889 -66.0889
   -30.4991 -30.4991 -30.4964 -30.4964 -30.4697 -30.4697 -30.4671 -30.4671
   -30.4216 -30.4216 -30.4200 -30.4200 -30.3799 -30.3799 -30.3786 -30.3786
   -30.3758 -30.3758 -30.3744 -30.3744 -30.3344 -30.3344 -30.3331 -30.3331
   -20.2435 -20.2435 -20.2435 -20.2435 -20.2434 -20.2434 -20.2434 -20.2434
   -20.2378 -20.2378 -20.2376 -20.2376 -20.2351 -20.2351 -20.2349 -20.2349
   -20.2271 -20.2271 -20.2268 -20.2268 -20.2261 -20.2261 -20.2260 -20.2260
   -20.2257 -20.2257 -20.2257 -20.2257 -20.2250 -20.2250 -20.2247 -20.2247
   -20.2163 -20.2163 -20.2163 -20.2163 -20.2160 -20.2160 -20.2160 -20.2160
   -20.2005 -20.2005 -20.2005 -20.2005 -20.1982 -20.1982 -20.1982 -20.1982
   -20.1971 -20.1971 -20.1971 -20.1971 -20.1947 -20.1947 -20.1947 -20.1947
    -9.4616  -9.4616  -9.3084  -9.3084  -8.9292  -8.9292  -8.7076  -8.7076
    -8.5633  -8.5633  -8.5447  -8.5447  -8.4704  -8.4704  -8.3895  -8.3895
    -8.1400  -8.1400  -8.1077  -8.1077  -7.7892  -7.7892  -7.7780  -7.7779
     1.6187   1.6187   1.6299   1.6299   2.3886   2.3886   2.5052   2.5052
     2.9905   2.9905   3.0864   3.0864   3.1061   3.1061   3.3015   3.3015
     3.3371   3.3371   3.4595   3.4595   3.4860   3.4860   3.6919   3.6919
     4.0901   4.0901   4.1238   4.1238   4.1323   4.1323   4.3842   4.3842
     4.7449   4.7449   4.8079   4.8079   4.9947   4.9947   5.0501   5.0502
     5.1541   5.1541   5.5231   5.5231   5.9117   5.9117   5.9196   5.9196
     6.6902   6.6902   6.7985   6.7985   6.8520   6.8520   6.8894   6.8895
     7.0271   7.0271   7.0753   7.0753   7.1839   7.1840   7.5298   7.5299
     7.5661   7.5661   7.5867   7.5867   7.6222   7.6222   7.8300   7.8300
    10.8699  10.8699  11.2588  11.2588  11.3027  11.3027  11.7813  11.7813
    12.0623  12.0623  12.2132  12.2132  12.5425  12.5425  12.6349  12.6349
    12.8011  12.8012  12.9454  12.9454  13.3230  13.3230  13.7218  13.7218
    15.3631  15.3631  15.9955  15.9955  16.3577  16.3577  16.4495  16.4495
    16.9190  16.9190  17.2906  17.2906  17.8680

          k = 0.1667-0.4725 0.1667 ( 62220 PWs)   bands (ev):

   -66.0903 -66.0903 -66.0894 -66.0894 -66.0894 -66.0894 -66.0885 -66.0885
   -30.4854 -30.4854 -30.4828 -30.4827 -30.4827 -30.4827 -30.4801 -30.4801
   -30.4231 -30.4231 -30.4231 -30.4231 -30.4187 -30.4187 -30.4184 -30.4184
   -30.3357 -30.3357 -30.3357 -30.3357 -30.3318 -30.3318 -30.3318 -30.3318
   -20.2435 -20.2435 -20.2435 -20.2434 -20.2434 -20.2434 -20.2434 -20.2433
   -20.2366 -20.2365 -20.2363 -20.2363 -20.2363 -20.2363 -20.2361 -20.2361
   -20.2270 -20.2270 -20.2270 -20.2270 -20.2269 -20.2269 -20.2268 -20.2268
   -20.2250 -20.2250 -20.2250 -20.2250 -20.2249 -20.2249 -20.2248 -20.2248
   -20.2165 -20.2165 -20.2162 -20.2162 -20.2162 -20.2162 -20.2159 -20.2159
   -20.2011 -20.2011 -20.2011 -20.2011 -20.1999 -20.1999 -20.1999 -20.1999
   -20.1953 -20.1953 -20.1952 -20.1952 -20.1941 -20.1941 -20.1941 -20.1941
    -9.6442  -9.6442  -9.2251  -9.2251  -9.2249  -9.2249  -8.9388  -8.9388
    -8.5052  -8.5052  -8.4349  -8.4349  -8.4345  -8.4345  -8.4310  -8.4310
    -7.8503  -7.8503  -7.8500  -7.8500  -7.7458  -7.7458  -7.7041  -7.7041
     1.4920   1.4920   1.5884   1.5884   1.5890   1.5890   1.9164   1.9164
     2.6377   2.6377   3.2247   3.2247   3.2296   3.2296   3.2437   3.2438
     3.3047   3.3047   3.3879   3.3879   3.5210   3.5210   3.5274   3.5274
     3.7284   3.7284   4.5239   4.5239   4.5751   4.5751   4.9358   4.9358
     5.0088   5.0088   5.1191   5.1191   5.1695   5.1695   5.4441   5.4441
     5.4798   5.4798   5.7748   5.7749   5.8070   5.8070   6.4821   6.4821
     6.5062   6.5062   6.5495   6.5495   6.7569   6.7569   6.9217   6.9217
     6.9351   6.9351   7.0962   7.0962   7.3098   7.3098   7.4587   7.4587
     7.4704   7.4704   7.4896   7.4896   7.5563   7.5563   7.8315   7.8315
     9.9251   9.9252  11.3747  11.3747  11.4292  11.4292  11.4671  11.4671
    11.4693  11.4693  12.2880  12.2881  12.3097  12.3097  12.9703  12.9704
    13.4271  13.4272  13.4411  13.4411  13.4607  13.4607  13.5829  13.5829
    15.5914  15.5915  15.6621  15.6621  15.9418  15.9418  15.9532  15.9532
    16.6681  16.6681  17.8970  17.8971  17.9224

          k = 0.1667-0.4725 0.3333 ( 62252 PWs)   bands (ev):

   -66.0901 -66.0901 -66.0896 -66.0896 -66.0892 -66.0892 -66.0887 -66.0887
   -30.4851 -30.4851 -30.4835 -30.4835 -30.4825 -30.4825 -30.4809 -30.4808
   -30.4221 -30.4221 -30.4195 -30.4195 -30.4045 -30.4045 -30.4001 -30.4001
   -30.3541 -30.3541 -30.3501 -30.3501 -30.3349 -30.3349 -30.3326 -30.3326
   -20.2435 -20.2435 -20.2435 -20.2435 -20.2434 -20.2434 -20.2434 -20.2434
   -20.2365 -20.2365 -20.2364 -20.2364 -20.2363 -20.2363 -20.2362 -20.2362
   -20.2269 -20.2269 -20.2269 -20.2269 -20.2265 -20.2265 -20.2264 -20.2264
   -20.2254 -20.2254 -20.2253 -20.2252 -20.2250 -20.2250 -20.2249 -20.2249
   -20.2164 -20.2164 -20.2162 -20.2162 -20.2161 -20.2161 -20.2159 -20.2159
   -20.2008 -20.2008 -20.2001 -20.2001 -20.1999 -20.1999 -20.1987 -20.1987
   -20.1965 -20.1965 -20.1954 -20.1954 -20.1950 -20.1950 -20.1943 -20.1943
    -9.5076  -9.5076  -9.2768  -9.2766  -8.9907  -8.9903  -8.8113  -8.8112
    -8.5423  -8.5414  -8.4592  -8.4575  -8.4216  -8.4206  -8.4081  -8.4080
    -8.1419  -8.1413  -8.0404  -8.0399  -7.8218  -7.8214  -7.7465  -7.7462
     1.6061   1.6072   1.6262   1.6276   2.2664   2.2670   2.4495   2.4508
     2.9079   2.9130   3.2332   3.2336   3.2356   3.2374   3.2428   3.2529
     3.2863   3.3198   3.4411   3.4874   3.4962   3.5277   3.6699   3.6813
     3.7709   3.7851   3.9104   3.9790   4.4691   4.5204   4.6325   4.6360
     4.6877   4.7520   4.7583   4.8006   4.9958   5.0155   5.0250   5.0764
     5.1578   5.2123   5.3505   5.4218   5.8043   5.8196   6.2335   6.2340
     6.6347   6.6416   6.7124   6.7267   6.8762   6.8812   7.0381   7.1034
     7.1209   7.1460   7.1829   7.2111   7.2234   7.2246   7.4324   7.4436
     7.4630   7.4736   7.4759   7.5038   7.5041   7.5427   7.7906   7.7938
    10.5418  10.5453  11.4040  11.4212  11.4383  11.4511  11.7829  11.7962
    11.7989  11.8153  11.9106  11.9624  12.4492  12.5034  12.7562  12.7814
    12.9561  12.9859  13.1385  13.2196  13.4386  13.4670  13.4919  13.5463
    15.6730  15.6942  15.8815  15.9006  16.2475  16.2776  16.6463  16.6753
    16.8596  16.8640  17.3993  17.4451  17.9359

          k = 0.1667-0.4725-0.5000 ( 62232 PWs)   bands (ev):

   -66.0899 -66.0899 -66.0899 -66.0899 -66.0890 -66.0890 -66.0890 -66.0890
   -30.4844 -30.4844 -30.4844 -30.4844 -30.4818 -30.4818 -30.4818 -30.4818
   -30.4208 -30.4208 -30.4208 -30.4208 -30.3793 -30.3793 -30.3793 -30.3793
   -30.3751 -30.3751 -30.3751 -30.3751 -30.3338 -30.3338 -30.3337 -30.3337
   -20.2435 -20.2435 -20.2435 -20.2435 -20.2434 -20.2434 -20.2434 -20.2434
   -20.2365 -20.2365 -20.2365 -20.2365 -20.2363 -20.2363 -20.2362 -20.2362
   -20.2269 -20.2269 -20.2269 -20.2269 -20.2260 -20.2260 -20.2260 -20.2259
   -20.2258 -20.2258 -20.2258 -20.2258 -20.2249 -20.2249 -20.2249 -20.2249
   -20.2163 -20.2163 -20.2163 -20.2163 -20.2160 -20.2160 -20.2160 -20.2160
   -20.2005 -20.2005 -20.2005 -20.2005 -20.1982 -20.1982 -20.1982 -20.1982
   -20.1971 -20.1971 -20.1971 -20.1971 -20.1947 -20.1947 -20.1947 -20.1947
    -9.3700  -9.3700  -9.3699  -9.3699  -8.7006  -8.7005  -8.6980  -8.6980
    -8.5840  -8.5840  -8.5791  -8.5791  -8.3806  -8.3806  -8.3756  -8.3755
    -8.3143  -8.3143  -8.3110  -8.3110  -7.7839  -7.7839  -7.7835  -7.7835
     1.6265   1.6265   1.6280   1.6280   3.0250   3.0250   3.0328   3.0328
     3.1514   3.1514   3.1762   3.1762   3.2334   3.2334   3.2911   3.2911
     3.3055   3.3055   3.4085   3.4085   3.5060   3.5060   3.5288   3.5288
     3.6539   3.6539   3.6710   3.6710   4.3145   4.3145   4.3234   4.3234
     4.4212   4.4212   4.4254   4.4254   4.8912   4.8912   5.0713   5.0713
     5.1503   5.1503   5.3099   5.3099   5.9154   5.9154   5.9224   5.9224
     6.7728   6.7728   6.8017   6.8017   6.8915   6.8915   6.9273   6.9273
     7.2808   7.2808   7.3216   7.3216   7.3677   7.3677   7.4024   7.4024
     7.4585   7.4585   7.4956   7.4956   7.6031   7.6031   7.6273   7.6274
    11.2347  11.2347  11.2651  11.2651  11.4267  11.4267  11.4863  11.4863
    12.2882  12.2882  12.3158  12.3158  12.3503  12.3503  12.3619  12.3619
    12.7750  12.7750  12.8439  12.8439  13.4567  13.4567  13.5020  13.5020
    15.7843  15.7843  15.8067  15.8067  16.9150  16.9150  16.9278  16.9278
    17.3462  17.3463  17.3625  17.3625  17.4562

          k = 0.3333 0.0000 0.3333 ( 62316 PWs)   bands (ev):

   -66.0901 -66.0897 -66.0896 -66.0896 -66.0892 -66.0892 -66.0891 -66.0887
   -30.5142 -30.5124 -30.5124 -30.5107 -30.4555 -30.4540 -30.4540 -30.4523
   -30.4049 -30.4049 -30.4028 -30.4021 -30.4021 -30.4019 -30.3997 -30.3994
   -30.3548 -30.3545 -30.3523 -30.3523 -30.3519 -30.3519 -30.3496 -30.3496
   -20.2435 -20.2435 -20.2435 -20.2435 -20.2434 -20.2434 -20.2434 -20.2434
   -20.2392 -20.2391 -20.2391 -20.2389 -20.2338 -20.2336 -20.2336 -20.2335
   -20.2271 -20.2271 -20.2270 -20.2268 -20.2264 -20.2263 -20.2260 -20.2259
   -20.2259 -20.2258 -20.2254 -20.2254 -20.2249 -20.2248 -20.2247 -20.2247
   -20.2164 -20.2163 -20.2162 -20.2162 -20.2161 -20.2161 -20.2160 -20.2160
   -20.1997 -20.1997 -20.1996 -20.1996 -20.1990 -20.1990 -20.1989 -20.1989
   -20.1964 -20.1963 -20.1962 -20.1962 -20.1956 -20.1956 -20.1956 -20.1956
    -9.5855  -9.3570  -9.3570  -9.2130  -9.1529  -8.9330  -8.9330  -8.7612
    -8.7238  -8.7095  -8.7074  -8.7074  -8.1956  -8.1412  -8.1382  -8.1382
    -8.1263  -8.1262  -8.0141  -7.9956  -7.8160  -7.7916  -7.7916  -7.7668
     1.5115   1.5529   1.5529   1.5937   2.1921   2.2014   2.3013   2.3013
     2.3357   2.3357   2.5403   2.6425   2.9423   2.9423   2.9824   3.0358
     3.2477   3.2800   3.8152   3.8165   3.9236   3.9236   4.1527   4.1527
     4.1649   4.1649   4.2560   4.3372   4.4558   4.4558   4.4963   4.5462
     4.9021   4.9021   4.9205   4.9659   5.0752   5.0752   5.1882   5.4244
     5.4244   5.5391   5.5453   5.6333   5.8673   5.8773   5.8773   6.0381
     6.4561   6.4564   6.4789   6.4789   6.5360   6.5726   6.5727   6.6307
     7.0041   7.2046   7.2046   7.2383   7.2383   7.3559   7.3781   7.3781
     7.4439   7.5133   7.7431   7.7533   7.9090   7.9847   7.9847   8.0316
    10.7576  10.9038  10.9164  10.9164  10.9847  11.2269  12.0653  12.0653
    12.1127  12.1127  12.2140  12.3148  12.5657  12.5657  12.7466  12.8243
    12.8482  12.8482  12.9981  13.0721  13.6043  13.6749  13.6749  13.7738
    14.4782  14.7558  14.7558  15.2198  15.7987  16.3500  16.4022  16.7410
    16.7410  17.2126  17.2126  17.7822  17.8477

          k = 0.3333 0.0000-0.5000 ( 62288 PWs)   bands (ev):

   -66.0899 -66.0899 -66.0895 -66.0895 -66.0894 -66.0894 -66.0890 -66.0890
   -30.5134 -30.5134 -30.5117 -30.5117 -30.4549 -30.4549 -30.4532 -30.4532
   -30.4036 -30.4036 -30.4008 -30.4008 -30.3797 -30.3797 -30.3773 -30.3773
   -30.3770 -30.3770 -30.3746 -30.3746 -30.3535 -30.3535 -30.3508 -30.3508
   -20.2435 -20.2435 -20.2435 -20.2435 -20.2434 -20.2434 -20.2434 -20.2434
   -20.2391 -20.2391 -20.2390 -20.2390 -20.2337 -20.2337 -20.2336 -20.2336
   -20.2270 -20.2270 -20.2266 -20.2266 -20.2264 -20.2263 -20.2261 -20.2261
   -20.2257 -20.2257 -20.2254 -20.2254 -20.2251 -20.2251 -20.2248 -20.2248
   -20.2163 -20.2163 -20.2162 -20.2162 -20.2161 -20.2161 -20.2160 -20.2160
   -20.1993 -20.1993 -20.1993 -20.1993 -20.1980 -20.1980 -20.1980 -20.1980
   -20.1973 -20.1973 -20.1973 -20.1973 -20.1960 -20.1960 -20.1959 -20.1959
    -9.4497  -9.4497  -9.2263  -9.2263  -9.0334  -9.0334  -8.7315  -8.7315
    -8.5845  -8.5845  -8.5176  -8.5176  -8.4511  -8.4511  -8.4186  -8.4186
    -8.0926  -8.0926  -8.0869  -8.0869  -7.8043  -7.8043  -7.7794  -7.7794
     1.5314   1.5314   1.5740   1.5740   2.3201   2.3201   2.3445   2.3445
     2.9356   2.9356   3.0366   3.0366   3.0735   3.0735   3.2435   3.2435
     3.3578   3.3578   3.6184   3.6184   3.7517   3.7517   3.8823   3.8823
     3.8968   3.8968   4.0672   4.0672   4.2195   4.2195   4.3859   4.3859
     4.7314   4.7314   4.9251   4.9251   5.0761   5.0761   5.1417   5.1417
     5.2754   5.2755   5.5177   5.5177   5.8990   5.8990   5.9951   5.9951
     6.4106   6.4106   6.4233   6.4233   6.4670   6.4670   6.5920   6.5920
     7.1817   7.1817   7.3361   7.3361   7.4246   7.4247   7.5775   7.5775
     7.6074   7.6074   7.7160   7.7160   7.7594   7.7594   7.9980   7.9980
    10.9115  10.9115  11.4615  11.4615  11.5439  11.5439  11.6560  11.6560
    11.8853  11.8853  12.2832  12.2832  12.4135  12.4135  12.6665  12.6665
    12.8643  12.8643  13.2229  13.2229  13.2640  13.2640  13.6875  13.6875
    14.6568  14.6568  15.0379  15.0379  16.2622  16.2622  16.7639  16.7639
    17.1275  17.1275  17.4898  17.4898  17.9043

          k = 0.3333 0.1575 0.3333 ( 62283 PWs)   bands (ev):

   -66.0901 -66.0898 -66.0896 -66.0896 -66.0892 -66.0892 -66.0891 -66.0887
[...]
    11.4610  11.4610  11.4932  11.4932  11.7851  11.7851  11.8558  11.8558
    12.2174  12.2174  12.2610  12.2610  12.3700  12.3700  12.3738  12.3738
    12.5369  12.5369  12.6365  12.6365  13.0172  13.0173  13.0947  13.0947
    16.4990  16.4990  16.5498  16.5498  17.0778  17.0778  17.0796  17.0796
    17.3415  17.3415  17.3932  17.3932  17.4198

          k =-0.5000 0.0000-0.5000 ( 62308 PWs)   bands (ev):

   -66.0896 -66.0896 -66.0896 -66.0896 -66.0892 -66.0892 -66.0892 -66.0892
   -30.5126 -30.5126 -30.5126 -30.5126 -30.4542 -30.4542 -30.4541 -30.4541
   -30.3789 -30.3789 -30.3789 -30.3789 -30.3782 -30.3782 -30.3782 -30.3782
   -30.3759 -30.3759 -30.3759 -30.3758 -30.3757 -30.3757 -30.3757 -30.3757
   -20.2435 -20.2435 -20.2435 -20.2435 -20.2434 -20.2434 -20.2434 -20.2434
   -20.2391 -20.2391 -20.2391 -20.2391 -20.2337 -20.2337 -20.2337 -20.2337
   -20.2266 -20.2266 -20.2266 -20.2266 -20.2264 -20.2264 -20.2264 -20.2264
   -20.2253 -20.2253 -20.2253 -20.2253 -20.2252 -20.2252 -20.2252 -20.2252
   -20.2162 -20.2162 -20.2162 -20.2162 -20.2161 -20.2161 -20.2161 -20.2161
   -20.1978 -20.1978 -20.1978 -20.1978 -20.1977 -20.1977 -20.1977 -20.1977
   -20.1976 -20.1976 -20.1976 -20.1976 -20.1976 -20.1976 -20.1975 -20.1975
    -9.3113  -9.3113  -9.3113  -9.3113  -8.7427  -8.7427  -8.7427  -8.7427
    -8.5541  -8.5541  -8.5541  -8.5541  -8.3762  -8.3762  -8.3762  -8.3762
    -8.3542  -8.3542  -8.3542  -8.3542  -7.7922  -7.7922  -7.7922  -7.7922
     1.5529   1.5529   1.5529   1.5529   2.9601   2.9601   2.9601   2.9602
     3.1171   3.1171   3.1171   3.1171   3.1591   3.1591   3.1591   3.1591
     3.3630   3.3630   3.3630   3.3630   3.8344   3.8344   3.8344   3.8344
     3.8650   3.8650   3.8650   3.8650   4.2351   4.2351   4.2351   4.2351
     4.3297   4.3297   4.3297   4.3297   4.9241   4.9241   4.9241   4.9241
     5.3743   5.3743   5.3743   5.3743   5.9826   5.9826   5.9826   5.9826
     6.3947   6.3947   6.3947   6.3947   6.4470   6.4470   6.4470   6.4470
     7.4968   7.4968   7.4968   7.4968   7.5491   7.5491   7.5491   7.5491
     7.6463   7.6463   7.6463   7.6463   7.8418   7.8418   7.8418   7.8418
    11.5900  11.5900  11.5900  11.5900  11.6549  11.6549  11.6549  11.6549
    11.9928  11.9928  11.9928  11.9928  12.1976  12.1976  12.1976  12.1976
    13.1448  13.1448  13.1448  13.1448  13.3107  13.3107  13.3107  13.3107
    14.8923  14.8923  14.8923  14.8923  16.7220  16.7220  16.7220  16.7220
    17.7855  17.7855  17.7855  17.7855  17.9377

          k =-0.5000 0.1575-0.5000 ( 62304 PWs)   bands (ev):

   -66.0896 -66.0896 -66.0896 -66.0896 -66.0892 -66.0892 -66.0892 -66.0892
   -30.5087 -30.5087 -30.5087 -30.5087 -30.4581 -30.4581 -30.4581 -30.4581
   -30.3787 -30.3787 -30.3787 -30.3787 -30.3780 -30.3780 -30.3780 -30.3780
   -30.3761 -30.3761 -30.3761 -30.3761 -30.3759 -30.3759 -30.3759 -30.3759
   -20.2435 -20.2435 -20.2435 -20.2435 -20.2434 -20.2434 -20.2434 -20.2434
   -20.2387 -20.2387 -20.2387 -20.2387 -20.2340 -20.2340 -20.2340 -20.2340
   -20.2265 -20.2265 -20.2265 -20.2265 -20.2263 -20.2263 -20.2263 -20.2263
   -20.2254 -20.2254 -20.2254 -20.2254 -20.2253 -20.2253 -20.2253 -20.2253
   -20.2162 -20.2162 -20.2162 -20.2162 -20.2161 -20.2161 -20.2161 -20.2161
   -20.1978 -20.1978 -20.1978 -20.1978 -20.1977 -20.1977 -20.1977 -20.1977
   -20.1976 -20.1976 -20.1976 -20.1976 -20.1976 -20.1976 -20.1975 -20.1975
    -9.2506  -9.2506  -9.2506  -9.2506  -8.7555  -8.7555  -8.7555  -8.7555
    -8.5403  -8.5403  -8.5403  -8.5403  -8.3756  -8.3756  -8.3756  -8.3756
    -8.3547  -8.3547  -8.3547  -8.3547  -7.8860  -7.8860  -7.8860  -7.8860
     1.7836   1.7836   1.7836   1.7836   2.9783   2.9783   2.9783   2.9783
     3.1293   3.1293   3.1293   3.1293   3.1775   3.1775   3.1775   3.1775
     3.3537   3.3537   3.3537   3.3537   3.8724   3.8724   3.8724   3.8724
     3.9108   3.9108   3.9108   3.9108   4.2235   4.2235   4.2235   4.2235
     4.3310   4.3310   4.3310   4.3310   4.7056   4.7056   4.7056   4.7056
     5.1394   5.1394   5.1394   5.1394   5.7182   5.7182   5.7182   5.7182
     6.5872   6.5872   6.5872   6.5872   6.6272   6.6272   6.6272   6.6272
     7.4829   7.4829   7.4829   7.4829   7.5394   7.5394   7.5394   7.5394
     7.6322   7.6322   7.6322   7.6322   7.8069   7.8069   7.8069   7.8069
    11.6393  11.6393  11.6393  11.6393  11.7146  11.7146  11.7146  11.7146
    11.9989  11.9989  11.9989  11.9989  12.2223  12.2223  12.2223  12.2223
    13.0198  13.0198  13.0198  13.0198  13.1940  13.1940  13.1940  13.1940
    15.2769  15.2769  15.2769  15.2769  16.7877  16.7877  16.7877  16.7877
    17.6995  17.6995  17.6995  17.6995  17.9405

          k =-0.5000 0.3150-0.5000 ( 62264 PWs)   bands (ev):

   -66.0895 -66.0895 -66.0895 -66.0895 -66.0893 -66.0893 -66.0893 -66.0893
   -30.4981 -30.4981 -30.4981 -30.4980 -30.4688 -30.4688 -30.4688 -30.4688
   -30.3781 -30.3781 -30.3781 -30.3781 -30.3776 -30.3776 -30.3776 -30.3776
   -30.3766 -30.3766 -30.3766 -30.3766 -30.3763 -30.3763 -30.3763 -30.3763
   -20.2435 -20.2435 -20.2435 -20.2435 -20.2434 -20.2434 -20.2434 -20.2434
   -20.2378 -20.2378 -20.2378 -20.2378 -20.2350 -20.2350 -20.2350 -20.2350
   -20.2263 -20.2263 -20.2263 -20.2263 -20.2261 -20.2261 -20.2261 -20.2261
   -20.2256 -20.2256 -20.2256 -20.2256 -20.2255 -20.2255 -20.2255 -20.2255
   -20.2162 -20.2162 -20.2162 -20.2162 -20.2161 -20.2161 -20.2161 -20.2161
   -20.1978 -20.1978 -20.1978 -20.1978 -20.1977 -20.1977 -20.1977 -20.1977
   -20.1976 -20.1976 -20.1976 -20.1976 -20.1976 -20.1976 -20.1975 -20.1975
    -9.0922  -9.0922  -9.0922  -9.0922  -8.8029  -8.8029  -8.8028  -8.8028
    -8.4889  -8.4889  -8.4889  -8.4889  -8.3751  -8.3751  -8.3751  -8.3751
    -8.3546  -8.3546  -8.3546  -8.3546  -8.1115  -8.1115  -8.1115  -8.1115
     2.4000   2.4000   2.4000   2.4000   3.0202   3.0202   3.0202   3.0202
     3.1192   3.1192   3.1192   3.1192   3.2642   3.2642   3.2642   3.2642
     3.3172   3.3172   3.3172   3.3172   4.0036   4.0036   4.0036   4.0036
     4.0046   4.0046   4.0046   4.0046   4.0978   4.0978   4.0978   4.0978
     4.3442   4.3442   4.3442   4.3442   4.3624   4.3624   4.3624   4.3624
     4.7348   4.7348   4.7348   4.7348   5.0364   5.0364   5.0364   5.0364
     6.9211   6.9211   6.9211   6.9211   7.0188   7.0188   7.0188   7.0188
     7.4106   7.4106   7.4106   7.4106   7.4988   7.4988   7.4988   7.4988
     7.6123   7.6123   7.6123   7.6123   7.7109   7.7109   7.7109   7.7109
    11.7554  11.7554  11.7554  11.7554  11.8372  11.8372  11.8372  11.8372
    12.0628  12.0628  12.0628  12.0628  12.3205  12.3205  12.3205  12.3205
    12.7066  12.7066  12.7066  12.7066  12.9006  12.9006  12.9006  12.9006
    16.2220  16.2220  16.2220  16.2220  16.9721  16.9721  16.9721  16.9721
    17.4769  17.4769  17.4769  17.4769  17.9285

          k =-0.5000-0.4725-0.5000 ( 62272 PWs)   bands (ev):

   -66.0894 -66.0894 -66.0894 -66.0894 -66.0894 -66.0894 -66.0894 -66.0894
   -30.4835 -30.4835 -30.4834 -30.4834 -30.4834 -30.4834 -30.4834 -30.4834
   -30.3774 -30.3774 -30.3774 -30.3774 -30.3774 -30.3774 -30.3774 -30.3774
   -30.3770 -30.3770 -30.3770 -30.3770 -30.3770 -30.3770 -30.3770 -30.3770
   -20.2435 -20.2435 -20.2435 -20.2434 -20.2434 -20.2434 -20.2434 -20.2434
   -20.2364 -20.2364 -20.2364 -20.2364 -20.2364 -20.2364 -20.2364 -20.2364
   -20.2260 -20.2260 -20.2260 -20.2260 -20.2260 -20.2260 -20.2260 -20.2260
   -20.2258 -20.2258 -20.2258 -20.2258 -20.2258 -20.2258 -20.2257 -20.2257
   -20.2162 -20.2162 -20.2162 -20.2162 -20.2162 -20.2162 -20.2161 -20.2161
   -20.1978 -20.1978 -20.1978 -20.1978 -20.1977 -20.1977 -20.1977 -20.1977
   -20.1976 -20.1976 -20.1976 -20.1976 -20.1976 -20.1976 -20.1975 -20.1975
    -8.9141  -8.9140  -8.9140  -8.9140  -8.9140  -8.9140  -8.9140  -8.9140
    -8.3923  -8.3923  -8.3923  -8.3923  -8.3923  -8.3923  -8.3923  -8.3923
    -8.3215  -8.3215  -8.3215  -8.3215  -8.3215  -8.3215  -8.3215  -8.3215
     3.0294   3.0294   3.0294   3.0294   3.0294   3.0294   3.0294   3.0294
     3.1678   3.1678   3.1678   3.1678   3.1678   3.1678   3.1678   3.1678
     3.4696   3.4696   3.4696   3.4696   3.4696   3.4696   3.4696   3.4696
     4.1777   4.1777   4.1777   4.1777   4.1777   4.1777   4.1777   4.1777
     4.3962   4.3962   4.3962   4.3962   4.3962   4.3963   4.3963   4.3963
     4.4815   4.4815   4.4815   4.4815   4.4815   4.4815   4.4815   4.4815
     7.2153   7.2153   7.2153   7.2153   7.2153   7.2153   7.2153   7.2153
     7.3478   7.3478   7.3478   7.3478   7.3478   7.3478   7.3478   7.3478
     7.6279   7.6279   7.6279   7.6279   7.6279   7.6279   7.6279   7.6279
    11.8474  11.8474  11.8474  11.8474  11.8474  11.8474  11.8474  11.8474
    12.3197  12.3197  12.3197  12.3197  12.3197  12.3197  12.3197  12.3197
    12.5728  12.5728  12.5728  12.5728  12.5728  12.5728  12.5728  12.5728
    17.1712  17.1712  17.1712  17.1712  17.1712  17.1712  17.1712  17.1712
    17.3878  17.3878  17.3878  17.3878  17.3878

          k = 0.3333 0.0000 0.1667 ( 62265 PWs)   bands (ev):

   -66.0903 -66.0899 -66.0898 -66.0894 -66.0894 -66.0890 -66.0889 -66.0885
   -30.5145 -30.5128 -30.5117 -30.5100 -30.4557 -30.4541 -30.4532 -30.4515
   -30.4236 -30.4210 -30.4206 -30.4179 -30.4057 -30.4030 -30.4014 -30.3986
   -30.3555 -30.3527 -30.3515 -30.3488 -30.3362 -30.3340 -30.3335 -30.3313
   -20.2435 -20.2435 -20.2435 -20.2435 -20.2434 -20.2434 -20.2434 -20.2433
   -20.2392 -20.2391 -20.2390 -20.2389 -20.2338 -20.2336 -20.2335 -20.2334
   -20.2275 -20.2274 -20.2272 -20.2269 -20.2267 -20.2262 -20.2262 -20.2260
   -20.2258 -20.2256 -20.2256 -20.2252 -20.2249 -20.2246 -20.2245 -20.2243
   -20.2165 -20.2164 -20.2163 -20.2162 -20.2161 -20.2161 -20.2160 -20.2159
   -20.2008 -20.2008 -20.2001 -20.2001 -20.1999 -20.1999 -20.1987 -20.1987
   -20.1965 -20.1965 -20.1954 -20.1954 -20.1950 -20.1950 -20.1944 -20.1943
    -9.7168  -9.4997  -9.3958  -9.3075  -9.1836  -9.1187  -8.8831  -8.8687
    -8.8224  -8.7986  -8.7615  -8.6888  -8.1622  -8.1619  -8.0843  -8.0610
    -7.8330  -7.8296  -7.8271  -7.7917  -7.7819  -7.7603  -7.7541  -7.7369
     1.4577   1.4751   1.5749   1.6103   1.6131   1.6300   1.6942   1.7250
     2.2836   2.3166   2.4684   2.5509   2.7105   2.7979   2.8668   2.9262
     2.9668   3.0718   3.8325   3.8562   3.9455   3.9478   4.1862   4.2961
     4.3206   4.5084   4.5567   4.5631   4.6448   4.7444   4.7895   4.9453
     4.9863   5.0771   5.1076   5.2189   5.3097   5.3825   5.5495   5.6837
     5.6880   5.7547   5.7821   5.8078   5.8349   6.0025   6.1831   6.2340
     6.4461   6.4526   6.4974   6.5889   6.6181   6.6557   6.6665   6.6874
     6.8223   6.8840   6.8898   6.9138   7.1475   7.1755   7.1764   7.2593
     7.3503   7.3981   7.7792   7.7950   7.9390   7.9771   8.1043   8.1147
    10.2791  10.2936  10.5229  10.5754  10.9038  11.0281  11.8958  11.9346
    12.1484  12.4148  12.4320  12.5477  12.5676  12.6166  12.7665  12.8711
    12.9203  13.0348  13.0918  13.3176  13.6931  13.7064  14.0386  14.0599
    14.2628  14.4639  14.8039  15.3161  15.4256  15.8383  16.0046  16.2741
    16.4078  17.2152  17.4319  17.5121  17.5992

          k = 0.3333-0.1575 0.1667 ( 62260 PWs)   bands (ev):

   -66.0903 -66.0899 -66.0898 -66.0894 -66.0894 -66.0891 -66.0889 -66.0886
   -30.5106 -30.5089 -30.5078 -30.5061 -30.4596 -30.4580 -30.4571 -30.4555
   -30.4234 -30.4208 -30.4208 -30.4182 -30.4056 -30.4032 -30.4012 -30.3988
   -30.3553 -30.3529 -30.3513 -30.3490 -30.3360 -30.3338 -30.3337 -30.3315
   -20.2435 -20.2435 -20.2435 -20.2435 -20.2434 -20.2434 -20.2434 -20.2433
   -20.2389 -20.2387 -20.2386 -20.2385 -20.2341 -20.2340 -20.2339 -20.2338
   -20.2274 -20.2273 -20.2271 -20.2268 -20.2267 -20.2263 -20.2262 -20.2261
   -20.2257 -20.2256 -20.2255 -20.2252 -20.2250 -20.2246 -20.2246 -20.2244
   -20.2165 -20.2164 -20.2163 -20.2162 -20.2161 -20.2161 -20.2160 -20.2159
   -20.2008 -20.2008 -20.2001 -20.2001 -20.1999 -20.1999 -20.1987 -20.1987
   -20.1965 -20.1965 -20.1954 -20.1954 -20.1950 -20.1950 -20.1944 -20.1943
    -9.6817  -9.4594  -9.4071  -9.2527  -9.1921  -9.0458  -8.8914  -8.8504
    -8.7998  -8.7885  -8.7392  -8.6689  -8.1687  -8.1601  -8.1026  -8.0590
    -7.9183  -7.9034  -7.8826  -7.8546  -7.8312  -7.8083  -7.7554  -7.7368
     1.5602   1.5781   1.6101   1.6297   1.7783   1.7840   1.8632   1.8915
     2.2821   2.3286   2.4702   2.5670   2.7825   2.8539   2.8897   2.9644
     3.0002   3.1278   3.8282   3.8534   3.9081   3.9367   4.1129   4.1846
     4.2657   4.3771   4.5785   4.5822   4.6780   4.7098   4.7494   4.7630
     4.9120   4.9321   4.9770   5.1631   5.2163   5.2566   5.3211   5.6023
     5.6453   5.6604   5.7458   5.7960   5.8158   5.8271   6.1888   6.2350
     6.3888   6.5284   6.5431   6.6442   6.7045   6.7078   6.7465   6.7704
     6.8722   6.8864   6.9169   6.9505   7.1423   7.1668   7.1716   7.2647
     7.3401   7.3916   7.7805   7.7923   7.8926   7.9173   8.0373   8.0392
    10.4000  10.4574  10.5476  10.5910  11.0182  11.1162  11.8970  11.9310
    12.1213  12.3939  12.4372  12.4697  12.4898  12.5972  12.7068  12.7511
    12.9088  13.0729  13.0738  13.3175  13.5887  13.6098  13.9400  13.9670
    14.5988  14.7715  15.1519  15.5296  15.7298  15.8331  16.0146  16.2425
    16.5155  17.1749  17.2091  17.4888  17.5525

          k = 0.3333-0.3150 0.1667 ( 62265 PWs)   bands (ev):

   -66.0902 -66.0900 -66.0897 -66.0895 -66.0893 -66.0891 -66.0888 -66.0886
   -30.4998 -30.4982 -30.4971 -30.4954 -30.4704 -30.4688 -30.4679 -30.4662
   -30.4229 -30.4213 -30.4203 -30.4187 -30.4051 -30.4037 -30.4008 -30.3994
   -30.3548 -30.3534 -30.3508 -30.3494 -30.3355 -30.3342 -30.3333 -30.3320
   -20.2435 -20.2435 -20.2435 -20.2434 -20.2434 -20.2434 -20.2434 -20.2434
   -20.2379 -20.2377 -20.2377 -20.2375 -20.2352 -20.2350 -20.2349 -20.2348
   -20.2272 -20.2271 -20.2269 -20.2267 -20.2266 -20.2265 -20.2263 -20.2262
   -20.2256 -20.2255 -20.2253 -20.2252 -20.2251 -20.2248 -20.2247 -20.2246
   -20.2164 -20.2164 -20.2163 -20.2162 -20.2161 -20.2161 -20.2160 -20.2159
   -20.2008 -20.2008 -20.2001 -20.2001 -20.1999 -20.1999 -20.1987 -20.1987
   -20.1965 -20.1965 -20.1954 -20.1954 -20.1950 -20.1950 -20.1943 -20.1943
    -9.5971  -9.4430  -9.3660  -9.2205  -9.1185  -8.9211  -8.8421  -8.8236
    -8.8018  -8.6723  -8.6352  -8.5910  -8.2414  -8.2258  -8.1559  -8.1434
    -8.1357  -8.0831  -8.0526  -8.0030  -7.8273  -7.8155  -7.7516  -7.7409
     1.5987   1.6091   1.6205   1.6289   2.2007   2.2776   2.2995   2.4000
     2.4690   2.5128   2.5329   2.7294   2.8949   2.9611   2.9996   3.0821
     3.2242   3.3101   3.6665   3.6669   3.7481   3.7576   3.9080   3.9846
     4.1195   4.3189   4.4020   4.4223   4.5022   4.5788   4.6290   4.6363
     4.7222   4.7869   4.8410   4.8746   4.9416   5.0061   5.1509   5.1581
     5.3294   5.3441   5.4591   5.6032   5.7996   5.8321   6.2193   6.2374
     6.5513   6.6354   6.6440   6.7553   6.8313   6.8613   6.9323   6.9682
     7.0210   7.0433   7.0603   7.0781   7.1722   7.1794   7.1995   7.2961
     7.3079   7.3744   7.7344   7.7366   7.7738   7.7860   7.8180   7.8493
    10.5154  10.5559  10.8894  10.8904  11.3316  11.3840  11.8939  11.8995
    11.9036  12.0879  12.2134  12.2310  12.4463  12.5468  12.6706  12.7413
    12.8645  13.0773  13.1491  13.3663  13.3711  13.3900  13.7041  13.7482
    15.2760  15.4103  15.8023  15.9490  16.0103  16.0663  16.1332  16.6947
    16.6989  16.8544  17.0491  17.5759  17.6647

          k = 0.3333 0.4725 0.1667 ( 62252 PWs)   bands (ev):

   -66.0901 -66.0901 -66.0896 -66.0896 -66.0892 -66.0892 -66.0887 -66.0887
   -30.4851 -30.4851 -30.4835 -30.4835 -30.4825 -30.4825 -30.4809 -30.4808
   -30.4221 -30.4221 -30.4195 -30.4195 -30.4045 -30.4045 -30.4001 -30.4001
   -30.3541 -30.3541 -30.3501 -30.3501 -30.3349 -30.3349 -30.3326 -30.3326
   -20.2435 -20.2435 -20.2435 -20.2435 -20.2434 -20.2434 -20.2434 -20.2434
   -20.2365 -20.2365 -20.2364 -20.2364 -20.2363 -20.2363 -20.2362 -20.2362
   -20.2269 -20.2269 -20.2269 -20.2269 -20.2265 -20.2265 -20.2264 -20.2264
   -20.2254 -20.2254 -20.2253 -20.2252 -20.2250 -20.2250 -20.2249 -20.2249
   -20.2164 -20.2164 -20.2162 -20.2162 -20.2161 -20.2161 -20.2159 -20.2159
   -20.2008 -20.2008 -20.2001 -20.2001 -20.1999 -20.1999 -20.1987 -20.1987
   -20.1965 -20.1965 -20.1954 -20.1954 -20.1950 -20.1950 -20.1943 -20.1943
    -9.5076  -9.5076  -9.2768  -9.2766  -8.9907  -8.9903  -8.8113  -8.8112
    -8.5423  -8.5414  -8.4592  -8.4575  -8.4216  -8.4206  -8.4081  -8.4080
    -8.1419  -8.1413  -8.0404  -8.0399  -7.8218  -7.8214  -7.7465  -7.7462
     1.6061   1.6072   1.6262   1.6276   2.2664   2.2670   2.4495   2.4508
     2.9079   2.9130   3.2332   3.2336   3.2356   3.2374   3.2428   3.2529
     3.2863   3.3198   3.4411   3.4874   3.4962   3.5277   3.6699   3.6813
     3.7709   3.7851   3.9104   3.9790   4.4691   4.5204   4.6325   4.6360
     4.6877   4.7520   4.7583   4.8006   4.9958   5.0155   5.0250   5.0764
     5.1578   5.2123   5.3505   5.4218   5.8043   5.8196   6.2335   6.2340
     6.6347   6.6416   6.7124   6.7267   6.8762   6.8812   7.0381   7.1034
     7.1209   7.1460   7.1829   7.2111   7.2234   7.2246   7.4324   7.4436
     7.4630   7.4736   7.4759   7.5038   7.5041   7.5427   7.7906   7.7938
    10.5418  10.5453  11.4040  11.4212  11.4383  11.4511  11.7829  11.7962
    11.7989  11.8153  11.9106  11.9624  12.4492  12.5034  12.7562  12.7814
    12.9561  12.9859  13.1385  13.2196  13.4386  13.4670  13.4919  13.5463
    15.6730  15.6942  15.8815  15.9006  16.2475  16.2776  16.6463  16.6753
    16.8596  16.8640  17.3993  17.4451  17.8469

     the Fermi energy is     9.6675 ev

!    total energy              =   -6260.85773860 Ry
     Harris-Foulkes estimate   =   -6260.85773860 Ry
     estimated scf accuracy    <          9.9E-10 Ry

     The total energy is the sum of the following terms:

     one-electron contribution =   -4722.60667682 Ry
     hartree contribution      =    2599.09547652 Ry
     xc contribution           =    -966.06536730 Ry
     ewald contribution        =   -3171.28112790 Ry
     smearing contrib. (-TS)   =      -0.00004311 Ry

     convergence has been achieved in  15 iterations

     Writing output data file Landau_0.save
 
     init_run     :     44.57s CPU     46.77s WALL (       1 calls)
     electrons    :   2100.45s CPU   2149.56s WALL (       1 calls)

     Called by init_run:
     wfcinit      :     42.93s CPU     44.94s WALL (       1 calls)
     potinit      :      0.62s CPU      0.66s WALL (       1 calls)

     Called by electrons:
     c_bands      :   1885.20s CPU   1931.53s WALL (      15 calls)
     sum_band     :    207.61s CPU    209.32s WALL (      15 calls)
     v_of_rho     :      1.72s CPU      1.76s WALL (      16 calls)
     mix_rho      :      3.38s CPU      4.20s WALL (      15 calls)

     Called by c_bands:
     init_us_2    :     12.55s CPU     13.37s WALL (      62 calls)
     cegterg      :   1670.02s CPU   1713.77s WALL (      30 calls)

     Called by sum_band:

     Called by *egterg:
     h_psi        :   1240.04s CPU   1250.20s WALL (     129 calls)
     g_psi        :      2.02s CPU      2.03s WALL (      97 calls)
     cdiaghg      :     21.18s CPU     21.29s WALL (     127 calls)

     Called by h_psi:
     h_psi:pot    :   1233.45s CPU   1243.14s WALL (     129 calls)
     h_psi:calbec :    189.83s CPU    194.82s WALL (     129 calls)
     vloc_psi     :    846.44s CPU    849.44s WALL (     129 calls)
     add_vuspsi   :    197.17s CPU    198.87s WALL (     129 calls)

     General routines
     calbec       :    189.83s CPU    194.82s WALL (     129 calls)
     fft          :      1.46s CPU      1.48s WALL (      64 calls)
     fftw         :    889.41s CPU    892.00s WALL (   38408 calls)
 
     Parallel routines
 
     PWSCF        : 35m45.79s CPU    36m40.42s WALL

 
   This run was terminated on:  12:34:50  17Sep2019            

=------------------------------------------------------------------------------=
   JOB DONE.
=------------------------------------------------------------------------------=
