
     Program PWSCF v.6.2 (svn rev. 14038) starts on 26Mar2020 at 19:13:41 

     This program is part of the open-source Quantum ESPRESSO suite
     for quantum simulation of materials; please cite
         "P. Giannozzi et al., J. Phys.:Condens. Matter 21 395502 (2009);
         "P. Giannozzi et al., J. Phys.:Condens. Matter 29 465901 (2017);
          URL http://www.quantum-espresso.org", 
     in publications or presentations arising from this work. More details at
     http://www.quantum-espresso.org/quote

     Parallel version (MPI), running on    40 processors

     MPI processes distributed on     6 nodes
     K-points division:     npool     =      40
     Reading input from scf.in

     Current dimensions of program PWSCF are:
     Max number of different atomic species (ntypx) = 10
     Max number of k-points (npk) =  40000
     Max angular momentum in pseudopotentials (lmaxx) =  3

     Subspace diagonalization in iterative solution of the eigenvalue problem:
     a serial algorithm will be used

 
     G-vector sticks info
     --------------------
     sticks:   dense  smooth     PW     G-vecs:    dense   smooth      PW
     Sum        7725    7725   2075               498221   498221   69069
 


     bravais-lattice index     =            0
     lattice parameter (alat)  =      13.8795  a.u.
     unit-cell volume          =    2805.5337 (a.u.)^3
     number of atoms/cell      =           32
     number of atomic types    =            2
     number of electrons       =       368.20
     number of Kohn-Sham states=          221
     kinetic-energy cutoff     =     120.0000  Ry
     charge density cutoff     =     480.0000  Ry
     convergence threshold     =      1.0E-08
     mixing beta               =       0.7000
     number of iterations used =            8  plain     mixing
     Exchange-correlation      = SLA PW NOGX NOGC ( 1  4  0  0 0 0)

     celldm(1)=  13.879493  celldm(2)=   0.000000  celldm(3)=   0.000000
     celldm(4)=   0.000000  celldm(5)=   0.000000  celldm(6)=   0.000000

     crystal axes: (cart. coord. in units of alat)
               a(1) = (   1.000000   0.000000   0.000000 )  
               a(2) = (   0.000000   1.049288   0.000000 )  
               a(3) = (   0.000000   0.000000   1.000000 )  

     reciprocal axes: (cart. coord. in units 2 pi/alat)
               b(1) = (  1.000000  0.000000  0.000000 )  
               b(2) = (  0.000000  0.953027  0.000000 )  
               b(3) = (  0.000000  0.000000  1.000000 )  


     PseudoPot. # 1 for W  read from file:
     /cluster/scratch/mnoe/QE/pps/W_ONCV_LDA-4.0.upf
     MD5 check sum: ba0307d5d4cd419d6f1d13dc49d7c13a
     Pseudo is Norm-conserving + core correction, Zval = 28.0
     Generated using ONCVPSP code by D. R. Hamann
     Using radial grid of 1380 points,  8 beta functions with: 
                l(1) =   0
                l(2) =   0
                l(3) =   1
                l(4) =   1
                l(5) =   2
                l(6) =   2
                l(7) =   3
                l(8) =   3

     PseudoPot. # 2 for O  read from file:
     /cluster/scratch/mnoe/QE/pps/O_ONCV_LDA-3.0.upf
     MD5 check sum: a1bd6164e7280c17a38c229939bfbd54
     Pseudo is Norm-conserving + core correction, Zval =  6.0
     Generated using ONCVPSP code by D. R. Hamann
     Using radial grid of  926 points,  5 beta functions with: 
                l(1) =   0
                l(2) =   0
                l(3) =   1
                l(4) =   1
                l(5) =   2

     atomic species   valence    mass     pseudopotential
        W             28.00   183.84000     W ( 1.00)
        O              6.00    15.99940     O ( 1.00)

      8 Sym. Ops. (no inversion) found ( 7 have fractional translation)



   Cartesian axes

     site n.     atom                  positions (alat units)
         1           W   tau(   1) = (   0.2552000   0.2944219  -0.9945300  )
         2           W   tau(   2) = (   0.7445300   0.7548660  -0.9947999  )
         3           W   tau(   3) = (   0.2448000   0.2302221  -0.4945300  )
         4           W   tau(   4) = (   0.7554700   0.8190659  -0.4948000  )
         5           W   tau(   5) = (   0.7447999   0.2944219  -0.5054700  )
         6           W   tau(   6) = (   0.2554700   0.7548660  -0.5052000  )
         7           W   tau(   7) = (   0.7552000   0.2302221  -1.0054700  )
         8           W   tau(   8) = (   0.2445300   0.8190659  -1.0052000  )
         9           O   tau(   9) = (   0.2610900   0.0083724  -0.9889700  )
        10           O   tau(  10) = (   0.7389700   1.0409156  -0.9889100  )
        11           O   tau(  11) = (   0.2389100   0.5162716  -0.4889700  )
        12           O   tau(  12) = (   0.7610300   0.5330164  -0.4889100  )
        13           O   tau(  13) = (   0.7389100   0.0083724  -0.5110300  )
        14           O   tau(  14) = (   0.2610300   1.0409156  -0.5110900  )
        15           O   tau(  15) = (   0.7610899   0.5162716  -1.0110300  )
        16           O   tau(  16) = (   0.2389700   0.5330164  -1.0110899  )
        17           O   tau(  17) = (   0.4976900   0.2762145  -0.5474408  )
        18           O   tau(  18) = (   0.5015100   0.7771342  -0.4525592  )
        19           O   tau(  19) = (   0.0023100   0.2484294  -1.0474408  )
        20           O   tau(  20) = (   0.9984900   0.7967978  -0.9525592  )
        21           O   tau(  21) = (   0.5023100   0.2762145  -0.9525592  )
        22           O   tau(  22) = (   0.4984900   0.7771342  -1.0474408  )
        23           O   tau(  23) = (   0.9976900   0.2484294  -0.4525592  )
        24           O   tau(  24) = (   0.0015100   0.7967978  -0.5474408  )
        25           O   tau(  25) = (   0.7025591   0.2524902  -0.2515100  )
        26           O   tau(  26) = (   0.2974408   0.7730734  -0.7523100  )
        27           O   tau(  27) = (   0.7974408   0.2721538  -0.7515100  )
        28           O   tau(  28) = (   0.2025592   0.8008585  -0.2523100  )
        29           O   tau(  29) = (   0.2974408   0.2524902  -1.2484900  )
        30           O   tau(  30) = (   0.7025591   0.7730734  -0.7476900  )
        31           O   tau(  31) = (   0.2025592   0.2721538  -0.7484900  )
        32           O   tau(  32) = (   0.7974408   0.8008585  -1.2476900  )

     number of k points=    40  gaussian smearing, width (Ry)=  0.0007
                       cart. coord. in units 2pi/alat
        k(    1) = (   0.0000000   0.0000000   0.0000000), wk =   0.0092593
        k(    2) = (   0.0000000   0.0000000   0.1666667), wk =   0.0370370
        k(    3) = (   0.0000000   0.0000000   0.3333333), wk =   0.0370370
        k(    4) = (   0.0000000   0.0000000  -0.5000000), wk =   0.0185185
        k(    5) = (   0.0000000   0.1588379   0.0000000), wk =   0.0185185
        k(    6) = (   0.0000000   0.1588379   0.1666667), wk =   0.0740741
        k(    7) = (   0.0000000   0.1588379   0.3333333), wk =   0.0740741
        k(    8) = (   0.0000000   0.1588379  -0.5000000), wk =   0.0370370
        k(    9) = (   0.0000000   0.3176757   0.0000000), wk =   0.0185185
        k(   10) = (   0.0000000   0.3176757   0.1666667), wk =   0.0740741
        k(   11) = (   0.0000000   0.3176757   0.3333333), wk =   0.0740741
        k(   12) = (   0.0000000   0.3176757  -0.5000000), wk =   0.0370370
        k(   13) = (   0.0000000  -0.4765136   0.0000000), wk =   0.0092593
        k(   14) = (   0.0000000  -0.4765136   0.1666667), wk =   0.0370370
        k(   15) = (   0.0000000  -0.4765136   0.3333333), wk =   0.0370370
        k(   16) = (   0.0000000  -0.4765136  -0.5000000), wk =   0.0185185
        k(   17) = (   0.1666667   0.0000000   0.1666667), wk =   0.0370370
        k(   18) = (   0.1666667   0.0000000   0.3333333), wk =   0.0740741
        k(   19) = (   0.1666667   0.0000000  -0.5000000), wk =   0.0370370
        k(   20) = (   0.1666667   0.1588379   0.1666667), wk =   0.0740741
        k(   21) = (   0.1666667   0.1588379   0.3333333), wk =   0.1481481
        k(   22) = (   0.1666667   0.1588379  -0.5000000), wk =   0.0740741
        k(   23) = (   0.1666667   0.3176757   0.1666667), wk =   0.0740741
        k(   24) = (   0.1666667   0.3176757   0.3333333), wk =   0.1481481
        k(   25) = (   0.1666667   0.3176757  -0.5000000), wk =   0.0740741
        k(   26) = (   0.1666667  -0.4765136   0.1666667), wk =   0.0370370
        k(   27) = (   0.1666667  -0.4765136   0.3333333), wk =   0.0740741
        k(   28) = (   0.1666667  -0.4765136  -0.5000000), wk =   0.0370370
        k(   29) = (   0.3333333   0.0000000   0.3333333), wk =   0.0370370
        k(   30) = (   0.3333333   0.0000000  -0.5000000), wk =   0.0370370
        k(   31) = (   0.3333333   0.1588379   0.3333333), wk =   0.0740741
        k(   32) = (   0.3333333   0.1588379  -0.5000000), wk =   0.0740741
        k(   33) = (   0.3333333   0.3176757   0.3333333), wk =   0.0740741
        k(   34) = (   0.3333333   0.3176757  -0.5000000), wk =   0.0740741
        k(   35) = (   0.3333333  -0.4765136   0.3333333), wk =   0.0370370
        k(   36) = (   0.3333333  -0.4765136  -0.5000000), wk =   0.0370370
        k(   37) = (  -0.5000000   0.0000000  -0.5000000), wk =   0.0092593
        k(   38) = (  -0.5000000   0.1588379  -0.5000000), wk =   0.0185185
        k(   39) = (  -0.5000000   0.3176757  -0.5000000), wk =   0.0185185
        k(   40) = (  -0.5000000  -0.4765136  -0.5000000), wk =   0.0092593

     Dense  grid:   498221 G-vectors     FFT dimensions: ( 100, 108, 100)

     Estimated max dynamical RAM per process >       2.72 GB

     Estimated total dynamical RAM >     108.70 GB

     Initial potential from superposition of free atoms

     starting charge  367.99656, renormalised to  368.20000
     Starting wfc are  232 randomized atomic wfcs

     total cpu time spent up to now is       15.8 secs

     Self-consistent Calculation

     iteration #  1     ecut=   120.00 Ry     beta= 0.70
     Davidson diagonalization with overlap
     ethr =  1.00E-02,  avg # of iterations =  5.0

     total cpu time spent up to now is       65.3 secs

     total energy              =   -6253.80588158 Ry
     Harris-Foulkes estimate   =   -6264.48285865 Ry
     estimated scf accuracy    <      13.49608577 Ry

     iteration #  2     ecut=   120.00 Ry     beta= 0.70
     Davidson diagonalization with overlap
     ethr =  3.67E-03,  avg # of iterations =  3.5

     total cpu time spent up to now is      113.4 secs

     total energy              =   -6250.65982575 Ry
     Harris-Foulkes estimate   =   -6270.64985110 Ry
     estimated scf accuracy    <      53.58910518 Ry

     iteration #  3     ecut=   120.00 Ry     beta= 0.70
     Davidson diagonalization with overlap
     ethr =  3.67E-03,  avg # of iterations =  3.4

     total cpu time spent up to now is      158.9 secs

     total energy              =   -6260.95509719 Ry
     Harris-Foulkes estimate   =   -6261.23637088 Ry
     estimated scf accuracy    <       0.92906873 Ry

     iteration #  4     ecut=   120.00 Ry     beta= 0.70
     Davidson diagonalization with overlap
     ethr =  2.52E-04,  avg # of iterations =  3.1

     total cpu time spent up to now is      197.5 secs

     total energy              =   -6260.95426909 Ry
     Harris-Foulkes estimate   =   -6261.02551982 Ry
     estimated scf accuracy    <       0.22697801 Ry

     iteration #  5     ecut=   120.00 Ry     beta= 0.70
     Davidson diagonalization with overlap
     ethr =  6.16E-05,  avg # of iterations =  5.1

     total cpu time spent up to now is      238.7 secs

     total energy              =   -6260.95565501 Ry
     Harris-Foulkes estimate   =   -6260.98685038 Ry
     estimated scf accuracy    <       0.06948801 Ry

     iteration #  6     ecut=   120.00 Ry     beta= 0.70
     Davidson diagonalization with overlap
     ethr =  1.89E-05,  avg # of iterations =  5.8

     total cpu time spent up to now is      282.3 secs

     total energy              =   -6260.97067592 Ry
     Harris-Foulkes estimate   =   -6260.97318556 Ry
     estimated scf accuracy    <       0.00660101 Ry

     iteration #  7     ecut=   120.00 Ry     beta= 0.70
     Davidson diagonalization with overlap
     ethr =  1.79E-06,  avg # of iterations =  7.1

     total cpu time spent up to now is      325.9 secs

     total energy              =   -6260.97156022 Ry
     Harris-Foulkes estimate   =   -6260.97163317 Ry
     estimated scf accuracy    <       0.00013500 Ry

     iteration #  8     ecut=   120.00 Ry     beta= 0.70
     Davidson diagonalization with overlap
     ethr =  3.67E-08,  avg # of iterations =  3.3

     total cpu time spent up to now is      376.1 secs

     total energy              =   -6260.97161926 Ry
     Harris-Foulkes estimate   =   -6260.97162789 Ry
     estimated scf accuracy    <       0.00003888 Ry

     iteration #  9     ecut=   120.00 Ry     beta= 0.70
     Davidson diagonalization with overlap
     ethr =  1.06E-08,  avg # of iterations =  2.0

     total cpu time spent up to now is      412.6 secs

     total energy              =   -6260.97161892 Ry
     Harris-Foulkes estimate   =   -6260.97162303 Ry
     estimated scf accuracy    <       0.00002111 Ry

     iteration # 10     ecut=   120.00 Ry     beta= 0.70
     Davidson diagonalization with overlap
     ethr =  5.73E-09,  avg # of iterations =  1.0

     total cpu time spent up to now is      447.6 secs

     total energy              =   -6260.97161649 Ry
     Harris-Foulkes estimate   =   -6260.97162008 Ry
     estimated scf accuracy    <       0.00000838 Ry

     iteration # 11     ecut=   120.00 Ry     beta= 0.70
     Davidson diagonalization with overlap
     ethr =  2.27E-09,  avg # of iterations =  3.0

     total cpu time spent up to now is      485.8 secs

     total energy              =   -6260.97161826 Ry
     Harris-Foulkes estimate   =   -6260.97161832 Ry
     estimated scf accuracy    <       0.00000016 Ry

     iteration # 12     ecut=   120.00 Ry     beta= 0.70
     Davidson diagonalization with overlap
     ethr =  4.32E-11,  avg # of iterations =  2.0

     total cpu time spent up to now is      529.5 secs

     total energy              =   -6260.97161828 Ry
     Harris-Foulkes estimate   =   -6260.97161830 Ry
     estimated scf accuracy    <       0.00000004 Ry

     iteration # 13     ecut=   120.00 Ry     beta= 0.70
     Davidson diagonalization with overlap
     ethr =  1.15E-11,  avg # of iterations =  2.9

     total cpu time spent up to now is      573.1 secs

     End of self-consistent calculation

          k = 0.0000 0.0000 0.0000 ( 62247 PWs)   bands (ev):

   -66.1355 -66.1350 -66.1345 -66.1345 -66.1341 -66.1340 -66.1335 -66.1331
   -30.5412 -30.5366 -30.5366 -30.5322 -30.4922 -30.4839 -30.4839 -30.4811
   -30.4801 -30.4762 -30.4744 -30.4744 -30.4713 -30.4628 -30.4628 -30.4612
   -30.3832 -30.3832 -30.3793 -30.3790 -30.3779 -30.3779 -30.3742 -30.3731
   -20.2931 -20.2929 -20.2929 -20.2929 -20.2928 -20.2927 -20.2927 -20.2926
   -20.2798 -20.2795 -20.2795 -20.2792 -20.2747 -20.2743 -20.2743 -20.2738
   -20.2725 -20.2721 -20.2721 -20.2721 -20.2715 -20.2714 -20.2714 -20.2713
   -20.2708 -20.2708 -20.2705 -20.2702 -20.2701 -20.2692 -20.2692 -20.2687
   -20.2626 -20.2623 -20.2620 -20.2620 -20.2602 -20.2602 -20.2598 -20.2593
   -20.2564 -20.2564 -20.2550 -20.2550 -20.2537 -20.2537 -20.2525 -20.2525
   -20.2493 -20.2493 -20.2482 -20.2481 -20.2478 -20.2478 -20.2467 -20.2466
    -9.9410  -9.6507  -9.5128  -9.5128  -9.2327  -9.2327  -9.0920  -9.0335
    -9.0186  -8.8896  -8.8605  -8.8605  -7.8559  -7.7833  -7.7833  -7.7634
    -7.7610  -7.7457  -7.7304  -7.7262  -7.6278  -7.6278  -7.6033  -7.6033
     1.2063   1.2070   1.2824   1.2824   1.3097   1.3097   1.3566   1.5946
     1.6144   1.6144   1.6323   1.8533   2.4197   2.5010   2.5679   2.5760
     2.7173   2.7173   4.1852   4.1852   4.3950   4.4107   4.7668   4.8131
     4.8131   4.8307   4.8489   4.8489   5.0146   5.0146   5.1438   5.4548
     5.4669   5.5046   5.5046   5.5477   5.5477   5.6056   5.6056   5.8504
     5.8510   5.8510   5.8652   5.8928   5.9610   6.0380   6.0933   6.1226
     6.1246   6.2600   6.2852   6.5366   6.5366   6.8427   6.8455   6.8455
     6.8792   6.8801   7.0175   7.0264   7.0839   7.0839   7.3472   7.3472
     7.3926   7.3926   7.8365   7.8528   8.0693   8.0693   8.1188   8.1507
     9.3042   9.3127   9.9270   9.9673   9.9673   9.9712  12.2717  12.2717
    12.3240  12.3240  12.4012  12.4012  12.5537  12.5560  12.7746  12.9241
    13.1397  13.3255  13.3299  13.3299  13.7331  14.0123  14.0123  14.1423
    14.2992  14.5314  14.5314  14.9038  15.3965  15.4151  15.5251  16.0581
    16.0581  16.8457  17.0646  17.0646  17.4320

          k = 0.0000 0.0000 0.1667 ( 62297 PWs)   bands (ev):

   -66.1354 -66.1350 -66.1346 -66.1344 -66.1341 -66.1340 -66.1336 -66.1331
   -30.5410 -30.5369 -30.5364 -30.5325 -30.4907 -30.4843 -30.4818 -30.4798
   -30.4758 -30.4747 -30.4717 -30.4712 -30.4683 -30.4632 -30.4589 -30.4584
   -30.3897 -30.3856 -30.3846 -30.3829 -30.3808 -30.3786 -30.3776 -30.3739
   -20.2930 -20.2929 -20.2929 -20.2929 -20.2928 -20.2927 -20.2927 -20.2926
   -20.2798 -20.2795 -20.2795 -20.2792 -20.2747 -20.2743 -20.2743 -20.2738
   -20.2725 -20.2721 -20.2720 -20.2720 -20.2716 -20.2714 -20.2713 -20.2712
   -20.2709 -20.2708 -20.2705 -20.2702 -20.2701 -20.2693 -20.2692 -20.2687
   -20.2625 -20.2621 -20.2620 -20.2618 -20.2603 -20.2602 -20.2599 -20.2594
   -20.2563 -20.2559 -20.2551 -20.2546 -20.2536 -20.2534 -20.2526 -20.2522
   -20.2498 -20.2492 -20.2486 -20.2483 -20.2482 -20.2477 -20.2471 -20.2467
    -9.8951  -9.5975  -9.5291  -9.4529  -9.2462  -9.1435  -9.1007  -8.9955
    -8.9772  -8.8766  -8.8649  -8.8291  -7.9016  -7.8687  -7.8380  -7.7895
    -7.7872  -7.7527  -7.7454  -7.7347  -7.7298  -7.7271  -7.6366  -7.6120
     1.2786   1.2841   1.2956   1.3151   1.4266   1.4541   1.5682   1.5882
     1.6090   1.7018   1.8069   1.9743   2.5058   2.5809   2.5915   2.6600
     2.7087   2.8048   4.1132   4.1854   4.3675   4.3873   4.4251   4.4727
     4.6189   4.7716   4.7950   4.8741   4.8936   5.0080   5.1204   5.3025
     5.3498   5.4517   5.4893   5.5361   5.5863   5.6134   5.6193   5.6332
     5.7272   5.7972   5.8428   5.8993   5.9894   6.0760   6.1219   6.1286
     6.2890   6.4170   6.4871   6.5215   6.7104   6.7383   6.7819   6.8126
     6.8718   6.8782   6.9439   7.0076   7.0291   7.0924   7.1377   7.1582
     7.1768   7.2361   7.8443   7.8505   8.0291   8.0884   8.0884   8.1415
     9.6454   9.6669   9.9511   9.9653  10.2118  10.2537  12.1993  12.2620
    12.3218  12.3222  12.3745  12.4476  12.5568  12.6422  12.7975  12.9249
    13.0269  13.2364  13.2816  13.3319  13.7909  13.9466  14.0109  14.0587
    14.2965  14.5260  14.5969  15.0162  15.4341  15.4684  15.4910  16.0298
    16.3682  16.8028  17.0149  17.2512  17.5176

          k = 0.0000 0.0000 0.3333 ( 62268 PWs)   bands (ev):

   -66.1352 -66.1348 -66.1347 -66.1343 -66.1342 -66.1338 -66.1338 -66.1333
   -30.5402 -30.5378 -30.5357 -30.5334 -30.4885 -30.4853 -30.4785 -30.4775
   -30.4757 -30.4728 -30.4695 -30.4643 -30.4547 -30.4512 -30.4469 -30.4442
   -30.4074 -30.4032 -30.4020 -30.3979 -30.3821 -30.3799 -30.3768 -30.3747
   -20.2930 -20.2929 -20.2929 -20.2928 -20.2928 -20.2928 -20.2927 -20.2926
   -20.2798 -20.2796 -20.2795 -20.2793 -20.2747 -20.2744 -20.2742 -20.2739
   -20.2724 -20.2722 -20.2719 -20.2718 -20.2715 -20.2715 -20.2715 -20.2711
   -20.2709 -20.2707 -20.2706 -20.2703 -20.2699 -20.2694 -20.2691 -20.2688
   -20.2624 -20.2622 -20.2617 -20.2613 -20.2606 -20.2602 -20.2601 -20.2596
   -20.2561 -20.2554 -20.2547 -20.2536 -20.2531 -20.2528 -20.2524 -20.2512
   -20.2511 -20.2499 -20.2495 -20.2490 -20.2484 -20.2482 -20.2475 -20.2469
    -9.7840  -9.5791  -9.4754  -9.3145  -9.2875  -9.1301  -8.9254  -8.8883
    -8.8768  -8.8307  -8.7838  -8.7073  -8.1924  -8.1817  -8.0941  -8.0792
    -7.8242  -7.7979  -7.7640  -7.7393  -7.7276  -7.7033  -7.6607  -7.6361
     1.2887   1.2976   1.3294   1.3496   1.5428   1.5515   1.5743   1.5986
     2.2607   2.2998   2.4544   2.5322   2.6047   2.6965   2.7568   2.8543
     2.9009   3.0399   3.7629   3.8365   3.8708   3.9900   4.1423   4.2945
     4.3386   4.5256   4.5424   4.7603   4.7750   4.8097   4.9489   5.0539
     5.1583   5.1742   5.2106   5.3733   5.4388   5.4800   5.6622   5.6766
     5.7493   5.7637   5.8204   5.9592   6.0147   6.1600   6.2484   6.2655
     6.3221   6.3907   6.5036   6.5493   6.5608   6.5771   6.6205   6.7471
     6.8439   6.8645   6.8728   6.9821   7.0306   7.0733   7.0882   7.1378
     7.3052   7.3415   7.7682   7.7874   7.9039   7.9578   8.1224   8.1398
     9.9393   9.9592  10.3633  10.4250  10.8291  10.9255  11.8274  11.8876
    12.0866  12.4289  12.4684  12.5197  12.5712  12.6332  12.7142  12.8882
    12.8895  13.0936  13.1623  13.3467  13.6458  13.6827  13.9996  14.0076
    14.3864  14.5085  14.8668  15.2995  15.3811  15.5926  15.8683  15.9431
    16.2701  17.2161  17.3779  17.5547  17.8183

          k = 0.0000 0.0000-0.5000 ( 62264 PWs)   bands (ev):

   -66.1350 -66.1350 -66.1345 -66.1345 -66.1340 -66.1340 -66.1336 -66.1336
   -30.5390 -30.5390 -30.5346 -30.5346 -30.4867 -30.4867 -30.4771 -30.4770
   -30.4747 -30.4747 -30.4662 -30.4662 -30.4313 -30.4313 -30.4273 -30.4273
   -30.4253 -30.4253 -30.4215 -30.4215 -30.3810 -30.3810 -30.3758 -30.3758
   -20.2930 -20.2930 -20.2928 -20.2928 -20.2928 -20.2928 -20.2927 -20.2927
   -20.2797 -20.2797 -20.2794 -20.2794 -20.2746 -20.2746 -20.2741 -20.2741
   -20.2723 -20.2723 -20.2717 -20.2717 -20.2717 -20.2717 -20.2713 -20.2713
   -20.2707 -20.2707 -20.2705 -20.2705 -20.2696 -20.2696 -20.2689 -20.2689
   -20.2623 -20.2623 -20.2611 -20.2611 -20.2607 -20.2607 -20.2599 -20.2599
   -20.2557 -20.2557 -20.2533 -20.2532 -20.2528 -20.2528 -20.2516 -20.2516
   -20.2510 -20.2510 -20.2498 -20.2498 -20.2487 -20.2487 -20.2472 -20.2472
    -9.6660  -9.6660  -9.3616  -9.3615  -9.1944  -9.1943  -8.8947  -8.8947
    -8.5491  -8.5491  -8.5311  -8.5311  -8.5095  -8.5094  -8.4429  -8.4429
    -7.8121  -7.8121  -7.7520  -7.7520  -7.6939  -7.6939  -7.6694  -7.6694
     1.2946   1.2946   1.3459   1.3459   1.5601   1.5601   1.5862   1.5862
     2.6364   2.6364   2.9918   2.9918   3.1342   3.1342   3.1409   3.1409
     3.2844   3.2844   3.3266   3.3266   3.4865   3.4865   3.7726   3.7726
     3.8592   3.8592   4.4629   4.4629   4.7173   4.7174   4.9480   4.9480
     5.2543   5.2543   5.3252   5.3252   5.3271   5.3272   5.7089   5.7089
     5.7636   5.7636   5.9557   5.9557   6.1383   6.1383   6.2415   6.2415
     6.3049   6.3049   6.4184   6.4184   6.4846   6.4846   6.5555   6.5555
     6.7953   6.7953   6.8636   6.8636   7.0687   7.0687   7.4938   7.4938
     7.5529   7.5529   7.6732   7.6732   7.7091   7.7091   8.1371   8.1371
     9.9502   9.9502  11.1515  11.1515  11.2208  11.2208  11.5341  11.5341
    11.7169  11.7169  12.5890  12.5890  12.6933  12.6933  12.8020  12.8020
    12.9269  12.9269  13.2646  13.2646  13.4221  13.4221  14.0051  14.0051
    14.4707  14.4707  15.1742  15.1742  15.7265  15.7265  15.7957  15.7957
    16.6378  16.6378  17.8735  17.8736  18.1175

          k = 0.0000 0.1588 0.0000 ( 62255 PWs)   bands (ev):

   -66.1354 -66.1351 -66.1345 -66.1345 -66.1341 -66.1341 -66.1335 -66.1331
   -30.5373 -30.5326 -30.5326 -30.5282 -30.4942 -30.4861 -30.4861 -30.4810
   -30.4800 -30.4761 -30.4754 -30.4742 -30.4742 -30.4648 -30.4648 -30.4635
   -30.3831 -30.3831 -30.3792 -30.3789 -30.3781 -30.3781 -30.3743 -30.3733
   -20.2930 -20.2929 -20.2929 -20.2929 -20.2928 -20.2928 -20.2927 -20.2926
   -20.2795 -20.2792 -20.2792 -20.2788 -20.2750 -20.2746 -20.2746 -20.2741
   -20.2725 -20.2720 -20.2720 -20.2720 -20.2715 -20.2713 -20.2713 -20.2712
   -20.2708 -20.2708 -20.2706 -20.2703 -20.2701 -20.2694 -20.2693 -20.2688
   -20.2626 -20.2623 -20.2620 -20.2620 -20.2602 -20.2602 -20.2598 -20.2594
   -20.2564 -20.2564 -20.2550 -20.2550 -20.2537 -20.2537 -20.2525 -20.2525
   -20.2493 -20.2493 -20.2482 -20.2481 -20.2478 -20.2478 -20.2466 -20.2466
    -9.9111  -9.6623  -9.4754  -9.4754  -9.2402  -9.2402  -9.0325  -9.0196
    -9.0167  -8.8424  -8.8212  -8.8212  -7.9460  -7.8849  -7.8849  -7.8361
    -7.7696  -7.7593  -7.7476  -7.7325  -7.6277  -7.6277  -7.6048  -7.6048
     1.2063   1.2069   1.2962   1.2962   1.3097   1.3097   1.4846   1.6316
     1.7854   1.8452   1.8452   2.0214   2.4251   2.4954   2.6404   2.6488
     2.7862   2.7862   4.0496   4.0496   4.1234   4.1360   4.7193   4.8109
     4.8109   4.8429   4.8429   4.8925   4.9598   4.9598   5.0138   5.3136
     5.3136   5.4504   5.4504   5.6262   5.6308   5.6308   5.6562   5.6711
     5.7864   5.7981   5.9236   5.9236   5.9334   6.0382   6.0898   6.1154
     6.1331   6.2594   6.2762   6.5625   6.5625   6.8343   6.8616   6.8641
     6.8641   6.8991   6.9045   6.9962   6.9962   7.0081   7.3541   7.3541
     7.3939   7.3939   7.8395   7.8521   8.0336   8.0336   8.0527   8.0718
     9.3071   9.3141  10.1384  10.1515  10.1515  10.1768  12.2029  12.2029
    12.2949  12.2949  12.3895  12.3895  12.3912  12.3937  12.7893  12.9211
    13.1775  13.3332  13.3332  13.3504  13.8837  13.9805  13.9805  14.0476
    14.3689  14.7367  14.7367  15.0677  15.3967  15.4116  15.9273  16.0251
    16.0251  16.5511  17.2018  17.2018  17.4945

          k = 0.0000 0.1588 0.1667 ( 62267 PWs)   bands (ev):

   -66.1354 -66.1350 -66.1345 -66.1344 -66.1341 -66.1340 -66.1336 -66.1332
   -30.5370 -30.5329 -30.5324 -30.5285 -30.4929 -30.4865 -30.4844 -30.4796
   -30.4760 -30.4757 -30.4745 -30.4712 -30.4682 -30.4652 -30.4607 -30.4600
   -30.3896 -30.3855 -30.3847 -30.3828 -30.3809 -30.3786 -30.3778 -30.3740
   -20.2930 -20.2929 -20.2929 -20.2929 -20.2928 -20.2927 -20.2927 -20.2926
   -20.2795 -20.2792 -20.2791 -20.2788 -20.2750 -20.2746 -20.2746 -20.2742
   -20.2725 -20.2721 -20.2720 -20.2719 -20.2716 -20.2714 -20.2713 -20.2712
   -20.2709 -20.2708 -20.2706 -20.2702 -20.2701 -20.2694 -20.2693 -20.2688
   -20.2625 -20.2622 -20.2620 -20.2618 -20.2603 -20.2602 -20.2599 -20.2595
   -20.2563 -20.2559 -20.2551 -20.2546 -20.2536 -20.2534 -20.2526 -20.2522
   -20.2498 -20.2492 -20.2486 -20.2483 -20.2482 -20.2477 -20.2471 -20.2467
    -9.8640  -9.6091  -9.4917  -9.4108  -9.2540  -9.1511  -9.0253  -8.9935
    -8.9783  -8.8316  -8.8255  -8.7944  -7.9511  -7.9055  -7.8849  -7.8790
    -7.8494  -7.8448  -7.7574  -7.7539  -7.7324  -7.7288  -7.6366  -7.6136
     1.2897   1.2951   1.3005   1.3151   1.5233   1.5649   1.5883   1.7922
     1.8035   1.8426   1.8715   2.0853   2.5123   2.5851   2.6534   2.7345
     2.7781   2.8735   4.0139   4.0659   4.1170   4.1673   4.3987   4.4701
     4.6306   4.6962   4.7972   4.8611   4.8883   4.9677   4.9807   5.2551
     5.2661   5.3139   5.3362   5.4670   5.5595   5.5877   5.6357   5.7147
     5.7344   5.7743   5.8585   5.8599   5.8985   6.1005   6.1144   6.1344
     6.2375   6.4035   6.4624   6.5495   6.7223   6.7905   6.7987   6.8208
     6.8514   6.9017   6.9445   6.9783   7.0064   7.0138   7.1392   7.1593
     7.1936   7.2372   7.8449   7.8505   7.9954   8.0247   8.0382   8.0664
     9.6536   9.6696  10.1520  10.1571  10.3826  10.4067  12.1722  12.2203
    12.2727  12.2925  12.3311  12.3942  12.4065  12.5098  12.8205  12.9221
    13.0601  13.2368  13.3007  13.3326  13.8380  13.8822  13.9795  13.9958
    14.4376  14.7313  14.8581  15.1654  15.4341  15.4676  15.8916  15.9991
    16.3333  16.7067  16.9329  17.3665  17.5771

          k = 0.0000 0.1588 0.3333 ( 62336 PWs)   bands (ev):

   -66.1352 -66.1348 -66.1347 -66.1343 -66.1342 -66.1338 -66.1337 -66.1334
   -30.5362 -30.5338 -30.5317 -30.5294 -30.4907 -30.4875 -30.4812 -30.4782
   -30.4769 -30.4755 -30.4707 -30.4663 -30.4547 -30.4511 -30.4478 -30.4448
   -30.4073 -30.4031 -30.4022 -30.3980 -30.3820 -30.3798 -30.3770 -30.3749
   -20.2930 -20.2929 -20.2929 -20.2928 -20.2928 -20.2928 -20.2927 -20.2926
   -20.2794 -20.2793 -20.2791 -20.2789 -20.2750 -20.2748 -20.2746 -20.2743
   -20.2724 -20.2722 -20.2718 -20.2718 -20.2715 -20.2715 -20.2714 -20.2711
   -20.2709 -20.2707 -20.2706 -20.2702 -20.2700 -20.2695 -20.2692 -20.2689
   -20.2624 -20.2621 -20.2617 -20.2613 -20.2606 -20.2602 -20.2601 -20.2597
   -20.2561 -20.2554 -20.2547 -20.2536 -20.2531 -20.2528 -20.2524 -20.2512
   -20.2511 -20.2499 -20.2495 -20.2490 -20.2484 -20.2482 -20.2475 -20.2469
    -9.7502  -9.5421  -9.4864  -9.2959  -9.2580  -9.0554  -8.9064  -8.8937
    -8.8380  -8.8321  -8.7614  -8.6869  -8.1941  -8.1848  -8.1079  -8.0781
    -7.9155  -7.8939  -7.8655  -7.8395  -7.7289  -7.7050  -7.6609  -7.6377
     1.3105   1.3280   1.3297   1.3495   1.7334   1.7512   1.8241   1.8372
     2.2601   2.3109   2.4563   2.5500   2.6762   2.7590   2.7668   2.8519
     2.9771   3.1023   3.7644   3.8328   3.8724   3.9409   4.1316   4.1638
     4.1977   4.3521   4.5553   4.7125   4.7386   4.8036   4.8216   4.9058
     5.0218   5.1434   5.1641   5.1814   5.3816   5.4000   5.4974   5.6366
     5.7051   5.7625   5.8136   5.8740   5.9507   6.1315   6.1893   6.2491
     6.3332   6.5003   6.5453   6.5823   6.6083   6.6722   6.7161   6.7881
     6.8397   6.8429   6.9268   6.9536   6.9916   7.0236   7.1030   7.1280
     7.3049   7.3416   7.7721   7.7843   7.8760   7.9094   8.0565   8.0674
    10.1413  10.1516  10.3752  10.4287  10.9465  11.0224  11.8286  11.8866
    12.0621  12.4047  12.4560  12.4603  12.5162  12.5611  12.6440  12.7753
    12.8937  13.0950  13.1710  13.3371  13.5529  13.5982  13.9766  13.9809
    14.6014  14.7149  15.1988  15.4240  15.5862  15.7772  15.8911  15.9186
    16.3982  17.1705  17.1807  17.4361  17.8101

          k = 0.0000 0.1588-0.5000 ( 62270 PWs)   bands (ev):

   -66.1349 -66.1349 -66.1346 -66.1346 -66.1340 -66.1340 -66.1336 -66.1336
   -30.5351 -30.5351 -30.5306 -30.5306 -30.4889 -30.4889 -30.4787 -30.4787
   -30.4768 -30.4768 -30.4680 -30.4680 -30.4312 -30.4312 -30.4272 -30.4272
   -30.4257 -30.4256 -30.4217 -30.4217 -30.3809 -30.3809 -30.3759 -30.3759
   -20.2930 -20.2930 -20.2928 -20.2928 -20.2928 -20.2928 -20.2927 -20.2927
   -20.2794 -20.2794 -20.2790 -20.2790 -20.2749 -20.2749 -20.2744 -20.2744
   -20.2723 -20.2723 -20.2716 -20.2716 -20.2716 -20.2716 -20.2713 -20.2713
   -20.2708 -20.2708 -20.2704 -20.2704 -20.2697 -20.2697 -20.2691 -20.2691
   -20.2623 -20.2623 -20.2611 -20.2611 -20.2607 -20.2607 -20.2599 -20.2599
   -20.2557 -20.2557 -20.2533 -20.2532 -20.2528 -20.2528 -20.2516 -20.2516
   -20.2510 -20.2510 -20.2498 -20.2498 -20.2487 -20.2487 -20.2472 -20.2472
    -9.6299  -9.6299  -9.3712  -9.3712  -9.1240  -9.1240  -8.8579  -8.8579
    -8.5527  -8.5527  -8.5298  -8.5298  -8.5148  -8.5148  -8.4364  -8.4364
    -7.9073  -7.9073  -7.8544  -7.8544  -7.6946  -7.6946  -7.6711  -7.6710
     1.3233   1.3233   1.3459   1.3459   1.7558   1.7558   1.8380   1.8380
     2.7052   2.7052   3.0074   3.0074   3.1276   3.1276   3.1818   3.1818
     3.2953   3.2953   3.3238   3.3238   3.4772   3.4772   3.7813   3.7813
     3.9084   3.9084   4.2564   4.2564   4.6396   4.6396   4.7712   4.7712
     5.0758   5.0758   5.2903   5.2903   5.3144   5.3144   5.4987   5.4987
     5.7159   5.7159   5.8470   5.8470   6.1410   6.1410   6.2814   6.2814
     6.3505   6.3505   6.4471   6.4471   6.5359   6.5359   6.6792   6.6792
     6.8572   6.8572   6.8752   6.8752   6.9808   6.9808   7.5057   7.5057
     7.5461   7.5461   7.6555   7.6555   7.6859   7.6859   8.0663   8.0663
    10.1512  10.1512  11.1579  11.1579  11.2192  11.2192  11.6027  11.6027
    11.7804  11.7804  12.4505  12.4505  12.6760  12.6760  12.8091  12.8091
    12.8732  12.8732  13.1599  13.1599  13.3810  13.3810  13.9759  13.9759
    14.6822  14.6822  15.5362  15.5362  15.7745  15.7745  15.8715  15.8715
    16.6814  16.6814  17.6714  17.6714  18.1319

          k = 0.0000 0.3177 0.0000 ( 62323 PWs)   bands (ev):

   -66.1354 -66.1351 -66.1344 -66.1344 -66.1342 -66.1342 -66.1334 -66.1332
   -30.5267 -30.5217 -30.5217 -30.5170 -30.5011 -30.4940 -30.4940 -30.4866
   -30.4806 -30.4798 -30.4753 -30.4736 -30.4736 -30.4686 -30.4685 -30.4685
   -30.3828 -30.3828 -30.3789 -30.3787 -30.3784 -30.3784 -30.3743 -30.3737
   -20.2930 -20.2929 -20.2929 -20.2929 -20.2928 -20.2928 -20.2927 -20.2926
   -20.2785 -20.2782 -20.2782 -20.2778 -20.2760 -20.2755 -20.2755 -20.2751
   -20.2723 -20.2720 -20.2719 -20.2719 -20.2715 -20.2713 -20.2713 -20.2711
   -20.2709 -20.2709 -20.2707 -20.2707 -20.2698 -20.2696 -20.2696 -20.2691
   -20.2625 -20.2624 -20.2620 -20.2620 -20.2602 -20.2602 -20.2597 -20.2595
   -20.2564 -20.2564 -20.2550 -20.2550 -20.2537 -20.2537 -20.2525 -20.2525
   -20.2493 -20.2493 -20.2482 -20.2481 -20.2478 -20.2478 -20.2466 -20.2466
    -9.8384  -9.6980  -9.3911  -9.3911  -9.2649  -9.2649  -9.0298  -9.0223
    -8.8038  -8.6952  -8.6878  -8.6878  -8.1910  -8.1427  -8.1427  -8.1152
    -7.7681  -7.7564  -7.7506  -7.7380  -7.6249  -7.6249  -7.6087  -7.6087
     1.2063   1.2066   1.3055   1.3055   1.3098   1.3098   1.5940   1.6289
     2.3618   2.4396   2.4805   2.5060   2.5060   2.6685   2.8527   2.8634
     2.9865   2.9865   3.6481   3.6624   3.7034   3.7034   4.1403   4.4643
     4.4643   4.7454   4.8148   4.8148   4.8529   4.8529   5.0561   5.0561
     5.0632   5.0888   5.3675   5.3675   5.5889   5.5936   5.6854   5.6854
     5.8868   5.8868   5.8961   5.9271   6.0299   6.0329   6.0787   6.1278
     6.1563   6.2383   6.2386   6.5149   6.6231   6.6231   6.8466   6.8466
     6.8980   6.9800   7.1044   7.1085   7.1216   7.1216   7.3622   7.3622
     7.3981   7.3981   7.8071   7.8316   7.8591   7.8668   7.8668   7.8709
     9.3114   9.3151  10.6348  10.6348  10.6682  10.6956  11.8263  11.8263
    11.9468  11.9559  12.3086  12.3086  12.3911  12.3911  12.8279  12.9057
    13.2977  13.3949  13.3949  13.4322  13.7600  13.7926  13.7926  13.8242
    14.8575  15.2512  15.2512  15.3978  15.4047  15.6691  15.9140  15.9140
    15.9989  16.9228  17.2679  17.6719  17.6719

          k = 0.0000 0.3177 0.1667 ( 62244 PWs)   bands (ev):

   -66.1353 -66.1351 -66.1344 -66.1343 -66.1342 -66.1341 -66.1335 -66.1333
   -30.5264 -30.5221 -30.5215 -30.5174 -30.5001 -30.4943 -30.4931 -30.4869
   -30.4791 -30.4765 -30.4739 -30.4707 -30.4688 -30.4678 -30.4647 -30.4626
   -30.3894 -30.3852 -30.3850 -30.3825 -30.3811 -30.3784 -30.3781 -30.3744
   -20.2930 -20.2929 -20.2929 -20.2928 -20.2928 -20.2928 -20.2927 -20.2926
   -20.2785 -20.2782 -20.2782 -20.2779 -20.2759 -20.2756 -20.2755 -20.2752
   -20.2723 -20.2720 -20.2719 -20.2719 -20.2715 -20.2713 -20.2711 -20.2711
   -20.2709 -20.2708 -20.2707 -20.2706 -20.2699 -20.2696 -20.2695 -20.2691
   -20.2625 -20.2622 -20.2620 -20.2618 -20.2603 -20.2602 -20.2598 -20.2596
   -20.2563 -20.2559 -20.2551 -20.2546 -20.2536 -20.2534 -20.2526 -20.2522
   -20.2498 -20.2492 -20.2486 -20.2483 -20.2482 -20.2477 -20.2471 -20.2467
    -9.7886  -9.6450  -9.4072  -9.3152  -9.2793  -9.1766  -8.9897  -8.9812
    -8.8123  -8.6924  -8.6887  -8.6722  -8.1912  -8.1510  -8.1395  -8.1219
    -7.8826  -7.8653  -7.7559  -7.7533  -7.7359  -7.7331  -7.6338  -7.6175
     1.2937   1.2951   1.3106   1.3152   1.5575   1.5668   1.7560   1.8023
     2.3645   2.4846   2.5070   2.5279   2.5695   2.6592   2.8654   2.9601
     2.9792   3.0804   3.6560   3.6927   3.7022   3.7474   4.1309   4.4089
     4.4239   4.4814   4.5035   4.7453   4.7710   4.8568   4.8827   4.9002
     5.0554   5.0836   5.1643   5.3015   5.4009   5.4505   5.5954   5.6353
     5.6864   5.7684   5.8009   5.8673   6.0515   6.0988   6.1198   6.1313
     6.2494   6.4181   6.4203   6.5780   6.6147   6.8309   6.8547   6.9182
     6.9624   6.9790   7.0813   7.0875   7.0903   7.1028   7.1612   7.1729
     7.2378   7.2542   7.7970   7.8250   7.8366   7.8553   7.8600   7.8746
     9.6631   9.6722  10.6393  10.6792  10.8127  10.8503  11.8236  11.9163
    11.9533  12.0266  12.2210  12.2865  12.3636  12.4427  12.8727  12.9228
    13.1710  13.2775  13.3705  13.3914  13.6396  13.6808  13.7893  13.7973
    14.9833  15.2421  15.4070  15.4612  15.4886  15.7371  15.8878  16.1596
    16.2137  16.8859  17.3103  17.3757  17.7446

          k = 0.0000 0.3177 0.3333 ( 62256 PWs)   bands (ev):

   -66.1351 -66.1349 -66.1346 -66.1344 -66.1341 -66.1339 -66.1337 -66.1334
   -30.5255 -30.5230 -30.5207 -30.5183 -30.4984 -30.4953 -30.4913 -30.4880
   -30.4777 -30.4749 -30.4732 -30.4698 -30.4545 -30.4510 -30.4492 -30.4459
   -30.4071 -30.4030 -30.4025 -30.3984 -30.3817 -30.3795 -30.3773 -30.3752
   -20.2930 -20.2929 -20.2929 -20.2928 -20.2928 -20.2927 -20.2927 -20.2927
   -20.2785 -20.2783 -20.2781 -20.2779 -20.2759 -20.2757 -20.2755 -20.2753
   -20.2722 -20.2720 -20.2718 -20.2717 -20.2714 -20.2714 -20.2713 -20.2711
   -20.2710 -20.2708 -20.2706 -20.2703 -20.2700 -20.2698 -20.2695 -20.2692
   -20.2624 -20.2621 -20.2617 -20.2613 -20.2606 -20.2601 -20.2601 -20.2597
   -20.2561 -20.2554 -20.2547 -20.2536 -20.2531 -20.2528 -20.2524 -20.2512
   -20.2511 -20.2499 -20.2495 -20.2490 -20.2484 -20.2482 -20.2475 -20.2469
    -9.6691  -9.5214  -9.4571  -9.3233  -9.1210  -8.9265  -8.8670  -8.8434
    -8.8377  -8.7072  -8.6570  -8.6062  -8.2431  -8.2384  -8.1783  -8.1423
    -8.1336  -8.0951  -8.0650  -8.0130  -7.7262  -7.7093  -7.6581  -7.6417
     1.3238   1.3291   1.3438   1.3491   2.1767   2.2453   2.2824   2.3865
     2.4376   2.5093   2.5213   2.7329   2.7924   2.8256   2.8869   2.9671
     3.2053   3.2901   3.6372   3.6592   3.7584   3.7890   3.8483   3.8622
     4.1013   4.2526   4.4101   4.4276   4.4991   4.5389   4.6076   4.7743
     4.7959   4.8306   4.9820   5.0669   5.1689   5.1992   5.2077   5.3445
     5.3804   5.5766   5.6538   5.8233   6.1315   6.1796   6.2073   6.2578
     6.4159   6.5592   6.5999   6.6401   6.6729   6.7968   6.8030   6.8252
     6.9269   6.9759   7.0334   7.0607   7.0763   7.1374   7.1564   7.2171
     7.2995   7.3447   7.7242   7.7494   7.7809   7.7848   7.8463   7.8647
    10.3819  10.4072  10.6541  10.6836  11.2667  11.3150  11.7858  11.8606
    11.8822  11.9798  12.1955  12.2441  12.5366  12.6047  12.6282  12.6367
    12.8807  13.0873  13.1521  13.3253  13.3879  13.4629  13.7807  13.7889
    15.1170  15.2165  15.5329  15.8090  15.9383  15.9760  16.0085  16.6635
    16.7562  16.8220  17.0284  17.5581  17.6303

          k = 0.0000 0.3177-0.5000 ( 62280 PWs)   bands (ev):

   -66.1349 -66.1349 -66.1346 -66.1346 -66.1339 -66.1339 -66.1337 -66.1337
   -30.5243 -30.5243 -30.5195 -30.5195 -30.4967 -30.4967 -30.4895 -30.4895
   -30.4763 -30.4763 -30.4713 -30.4713 -30.4310 -30.4310 -30.4271 -30.4271
   -30.4262 -30.4262 -30.4223 -30.4223 -30.3806 -30.3806 -30.3762 -30.3762
   -20.2929 -20.2929 -20.2929 -20.2929 -20.2928 -20.2928 -20.2927 -20.2927
   -20.2784 -20.2784 -20.2781 -20.2780 -20.2758 -20.2758 -20.2754 -20.2754
   -20.2722 -20.2722 -20.2716 -20.2716 -20.2715 -20.2715 -20.2713 -20.2713
   -20.2709 -20.2709 -20.2703 -20.2702 -20.2700 -20.2700 -20.2694 -20.2693
   -20.2623 -20.2623 -20.2611 -20.2611 -20.2606 -20.2606 -20.2599 -20.2599
   -20.2557 -20.2557 -20.2533 -20.2532 -20.2528 -20.2528 -20.2516 -20.2516
   -20.2510 -20.2510 -20.2498 -20.2498 -20.2487 -20.2487 -20.2472 -20.2472
    -9.5452  -9.5452  -9.4023  -9.4023  -8.9317  -8.9317  -8.7449  -8.7449
    -8.5669  -8.5669  -8.5614  -8.5614  -8.4985  -8.4985  -8.4110  -8.4109
    -8.1441  -8.1441  -8.1023  -8.1023  -7.6919  -7.6919  -7.6752  -7.6752
     1.3394   1.3394   1.3457   1.3457   2.3631   2.3631   2.4947   2.4947
     2.9011   2.9011   3.0507   3.0507   3.1086   3.1086   3.2524   3.2524
     3.3103   3.3103   3.3526   3.3526   3.4428   3.4428   3.6623   3.6623
     4.0318   4.0319   4.0793   4.0793   4.1548   4.1548   4.3745   4.3745
     4.8056   4.8056   4.9193   4.9193   5.1269   5.1269   5.2655   5.2655
     5.4129   5.4130   5.7374   5.7374   6.2584   6.2584   6.3059   6.3059
     6.4721   6.4721   6.5107   6.5107   6.5466   6.5466   6.7551   6.7551
     7.0553   7.0553   7.0623   7.0623   7.1030   7.1030   7.5119   7.5119
     7.5274   7.5274   7.5813   7.5814   7.6117   7.6117   7.8541   7.8541
    10.6564  10.6564  11.1724  11.1724  11.2157  11.2157  11.7074  11.7074
    11.9747  11.9747  12.1386  12.1386  12.5693  12.5693  12.6436  12.6436
    12.8274  12.8274  12.9539  12.9539  13.3920  13.3920  13.7812  13.7812
    15.1742  15.1742  15.6841  15.6841  16.3087  16.3087  16.4861  16.4861
    16.8507  16.8507  17.2891  17.2891  17.9711

          k = 0.0000-0.4765 0.0000 ( 62258 PWs)   bands (ev):

   -66.1352 -66.1352 -66.1343 -66.1343 -66.1343 -66.1343 -66.1333 -66.1333
   -30.5130 -30.5130 -30.5080 -30.5080 -30.5066 -30.5066 -30.5018 -30.5018
   -30.4801 -30.4801 -30.4730 -30.4730 -30.4729 -30.4729 -30.4704 -30.4704
   -30.3827 -30.3827 -30.3787 -30.3787 -30.3785 -30.3785 -30.3742 -30.3742
   -20.2930 -20.2930 -20.2928 -20.2928 -20.2928 -20.2928 -20.2927 -20.2927
   -20.2772 -20.2772 -20.2769 -20.2769 -20.2768 -20.2768 -20.2765 -20.2765
   -20.2721 -20.2721 -20.2719 -20.2719 -20.2712 -20.2712 -20.2711 -20.2711
   -20.2709 -20.2709 -20.2709 -20.2709 -20.2697 -20.2697 -20.2695 -20.2695
   -20.2625 -20.2625 -20.2620 -20.2620 -20.2602 -20.2602 -20.2596 -20.2596
   -20.2564 -20.2564 -20.2550 -20.2550 -20.2537 -20.2537 -20.2525 -20.2525
   -20.2493 -20.2493 -20.2481 -20.2481 -20.2478 -20.2478 -20.2466 -20.2466
    -9.7589  -9.7589  -9.3158  -9.3158  -9.3110  -9.3110  -9.0261  -9.0261
    -8.5005  -8.5005  -8.4457  -8.4457  -8.4457  -8.4456  -8.4429  -8.4429
    -7.7618  -7.7618  -7.7452  -7.7452  -7.6223  -7.6223  -7.6116  -7.6116
     1.2064   1.2064   1.3075   1.3075   1.3098   1.3098   1.6209   1.6209
     2.4596   2.4596   3.1315   3.1315   3.2056   3.2056   3.2578   3.2578
     3.2747   3.2747   3.2950   3.2950   3.4936   3.4936   3.5083   3.5084
     3.6752   3.6753   4.8173   4.8173   4.8449   4.8449   5.1998   5.1998
     5.2312   5.2312   5.3151   5.3151   5.3280   5.3280   5.7602   5.7602
     5.7632   5.7632   5.9936   5.9936   6.0392   6.0392   6.1384   6.1384
     6.1933   6.1933   6.2746   6.2746   6.7118   6.7118   6.7273   6.7273
     6.9399   6.9399   7.3515   7.3515   7.3801   7.3801   7.4754   7.4754
     7.4886   7.4886   7.5477   7.5477   7.5491   7.5491   7.8516   7.8516
     9.3141   9.3141  11.2450  11.2450  11.2591  11.2591  11.3191  11.3191
    11.3509  11.3509  12.3137  12.3137  12.3934  12.3934  12.8728  12.8728
    13.5036  13.5036  13.5509  13.5509  13.5687  13.5687  13.5935  13.5935
    15.3880  15.3880  15.4289  15.4289  15.6670  15.6670  15.6911  15.6911
    16.5560  16.5560  17.9798  17.9798  18.1239

          k = 0.0000-0.4765 0.1667 ( 62270 PWs)   bands (ev):

   -66.1352 -66.1352 -66.1343 -66.1343 -66.1342 -66.1342 -66.1334 -66.1334
   -30.5127 -30.5124 -30.5083 -30.5074 -30.5069 -30.5063 -30.5022 -30.5021
   -30.4786 -30.4770 -30.4732 -30.4707 -30.4699 -30.4679 -30.4666 -30.4638
   -30.3892 -30.3852 -30.3850 -30.3824 -30.3812 -30.3783 -30.3783 -30.3745
   -20.2930 -20.2930 -20.2929 -20.2928 -20.2928 -20.2928 -20.2927 -20.2927
   -20.2772 -20.2772 -20.2769 -20.2769 -20.2768 -20.2768 -20.2765 -20.2765
   -20.2721 -20.2720 -20.2719 -20.2718 -20.2713 -20.2713 -20.2711 -20.2710
   -20.2709 -20.2709 -20.2708 -20.2707 -20.2697 -20.2697 -20.2695 -20.2695
   -20.2624 -20.2622 -20.2620 -20.2618 -20.2603 -20.2602 -20.2597 -20.2596
   -20.2563 -20.2559 -20.2551 -20.2546 -20.2536 -20.2534 -20.2526 -20.2522
   -20.2498 -20.2492 -20.2486 -20.2483 -20.2482 -20.2477 -20.2471 -20.2467
    -9.7071  -9.7067  -9.3311  -9.3263  -9.2309  -9.2260  -8.9856  -8.9849
    -8.5062  -8.5061  -8.4530  -8.4529  -8.4423  -8.4421  -8.4381  -8.4378
    -7.8799  -7.8694  -7.7534  -7.7524  -7.7370  -7.7367  -7.6311  -7.6204
     1.2945   1.2950   1.3129   1.3151   1.5635   1.5661   1.7920   1.7929
     2.5484   2.5487   3.1363   3.1403   3.1971   3.2066   3.2601   3.2684
     3.2967   3.3010   3.3145   3.3261   3.4905   3.5068   3.5455   3.5548
     3.7025   3.7031   4.4424   4.4532   4.8232   4.8892   4.9567   5.0139
     5.1199   5.1215   5.1851   5.2099   5.3322   5.3353   5.4898   5.4944
     5.7334   5.7341   5.7774   5.7793   6.1098   6.1208   6.1266   6.1276
     6.3766   6.3807   6.4247   6.4272   6.7001   6.7164   6.8907   6.9091
     7.0030   7.0065   7.1282   7.1484   7.1744   7.2004   7.4662   7.4763
     7.4881   7.4952   7.5240   7.5265   7.5379   7.5406   7.8539   7.8544
     9.6662   9.6729  11.2492  11.2634  11.3198  11.3227  11.3814  11.3819
    11.4468  11.4630  12.2234  12.2870  12.3663  12.4419  12.9091  12.9214
    13.3492  13.3619  13.4175  13.4249  13.5473  13.5618  13.5805  13.5830
    15.3770  15.4036  15.6087  15.6243  15.6509  15.6808  15.9462  15.9573
    16.6177  16.6194  17.8884  17.8992  18.0232

          k = 0.0000-0.4765 0.3333 ( 62308 PWs)   bands (ev):

   -66.1350 -66.1350 -66.1345 -66.1345 -66.1340 -66.1340 -66.1335 -66.1335
   -30.5117 -30.5110 -30.5092 -30.5079 -30.5062 -30.5055 -30.5032 -30.5030
   -30.4771 -30.4746 -30.4742 -30.4717 -30.4543 -30.4511 -30.4497 -30.4464
   -30.4069 -30.4030 -30.4025 -30.3986 -30.3816 -30.3794 -30.3775 -30.3753
   -20.2929 -20.2929 -20.2929 -20.2928 -20.2928 -20.2927 -20.2927 -20.2927
   -20.2772 -20.2772 -20.2770 -20.2769 -20.2769 -20.2768 -20.2766 -20.2766
   -20.2721 -20.2720 -20.2719 -20.2717 -20.2714 -20.2713 -20.2712 -20.2711
   -20.2710 -20.2709 -20.2705 -20.2704 -20.2699 -20.2698 -20.2696 -20.2695
   -20.2624 -20.2621 -20.2617 -20.2613 -20.2606 -20.2601 -20.2601 -20.2598
   -20.2561 -20.2554 -20.2547 -20.2536 -20.2531 -20.2528 -20.2524 -20.2512
   -20.2511 -20.2499 -20.2495 -20.2490 -20.2484 -20.2482 -20.2475 -20.2469
    -9.5845  -9.5826  -9.3782  -9.3737  -8.9958  -8.9906  -8.8490  -8.8460
    -8.5405  -8.5399  -8.4783  -8.4780  -8.4342  -8.4340  -8.4137  -8.4134
    -8.1678  -8.1598  -8.0600  -8.0524  -7.7234  -7.7125  -7.6554  -7.6447
     1.3269   1.3288   1.3473   1.3482   2.2419   2.2458   2.4287   2.4322
     2.8058   2.8067   3.1417   3.1525   3.1898   3.2139   3.2548   3.2656
     3.2981   3.3040   3.3952   3.4154   3.4751   3.5009   3.6991   3.7025
     3.7669   3.7711   3.8413   3.8487   4.4495   4.4581   4.6177   4.6268
     4.7669   4.7935   4.8443   4.8799   5.1947   5.1959   5.2409   5.2437
     5.3793   5.3820   5.6567   5.6593   6.1780   6.1797   6.2429   6.2650
     6.5159   6.5214   6.6089   6.6568   6.6866   6.6884   6.8303   6.8452
     7.0209   7.0324   7.1707   7.1800   7.1835   7.1920   7.4442   7.4591
     7.4906   7.4951   7.5082   7.5145   7.5237   7.5276   7.7903   7.7920
    10.3931  10.4102  11.2599  11.2764  11.3068  11.3132  11.7401  11.7405
    11.7789  11.7981  11.8561  11.8873  12.5374  12.5990  12.7307  12.7526
    12.8905  12.8956  13.1700  13.1727  13.5394  13.5411  13.5657  13.5659
    15.4085  15.4337  15.5917  15.6124  16.2242  16.2354  16.6685  16.6780
    16.8322  16.8356  17.3905  17.3992  17.9265

          k = 0.0000-0.4765-0.5000 ( 62304 PWs)   bands (ev):

   -66.1348 -66.1348 -66.1348 -66.1347 -66.1338 -66.1338 -66.1338 -66.1338
   -30.5105 -30.5105 -30.5094 -30.5094 -30.5047 -30.5047 -30.5042 -30.5042
   -30.4756 -30.4756 -30.4731 -30.4730 -30.4309 -30.4308 -30.4272 -30.4272
   -30.4263 -30.4263 -30.4225 -30.4225 -30.3805 -30.3805 -30.3764 -30.3764
   -20.2929 -20.2929 -20.2929 -20.2929 -20.2928 -20.2927 -20.2927 -20.2927
   -20.2771 -20.2771 -20.2771 -20.2771 -20.2768 -20.2768 -20.2767 -20.2767
   -20.2721 -20.2721 -20.2716 -20.2716 -20.2714 -20.2714 -20.2712 -20.2712
   -20.2710 -20.2710 -20.2702 -20.2702 -20.2701 -20.2700 -20.2696 -20.2696
   -20.2623 -20.2623 -20.2611 -20.2611 -20.2606 -20.2606 -20.2600 -20.2600
   -20.2557 -20.2557 -20.2533 -20.2532 -20.2528 -20.2528 -20.2516 -20.2516
   -20.2510 -20.2510 -20.2498 -20.2498 -20.2487 -20.2487 -20.2472 -20.2472
    -9.4626  -9.4626  -9.4580  -9.4580  -8.7029  -8.7029  -8.6881  -8.6880
    -8.6180  -8.6180  -8.6057  -8.6057  -8.4039  -8.4039  -8.3788  -8.3788
    -8.3385  -8.3385  -8.3153  -8.3153  -7.6891  -7.6891  -7.6783  -7.6783
     1.3428   1.3428   1.3453   1.3453   2.9812   2.9812   3.0416   3.0416
     3.1352   3.1352   3.1626   3.1626   3.1949   3.1950   3.2295   3.2295
     3.2743   3.2743   3.3400   3.3400   3.4317   3.4317   3.5159   3.5159
     3.5285   3.5285   3.7229   3.7229   4.2565   4.2565   4.3301   4.3301
     4.3694   4.3694   4.4378   4.4378   5.1928   5.1928   5.2281   5.2281
     5.4881   5.4881   5.5329   5.5330   6.2989   6.2989   6.3054   6.3054
     6.5164   6.5164   6.5281   6.5281   6.6152   6.6152   6.6481   6.6481
     7.2694   7.2694   7.3086   7.3086   7.3254   7.3254   7.4425   7.4425
     7.4543   7.4543   7.5118   7.5118   7.5997   7.5997   7.6068   7.6068
    11.1365  11.1365  11.1931  11.1931  11.3003  11.3003  11.3370  11.3370
    12.2182  12.2183  12.2484  12.2485  12.3283  12.3283  12.3434  12.3435
    12.8389  12.8389  12.8743  12.8743  13.5368  13.5368  13.5555  13.5556
    15.5010  15.5010  15.5232  15.5232  16.8554  16.8554  16.8972  16.8972
    17.3282  17.3282  17.3936  17.3938  17.4792

          k = 0.1667 0.0000 0.1667 ( 62266 PWs)   bands (ev):

   -66.1353 -66.1349 -66.1345 -66.1345 -66.1341 -66.1340 -66.1336 -66.1332
   -30.5407 -30.5367 -30.5367 -30.5329 -30.4889 -30.4823 -30.4819 -30.4741
   -30.4732 -30.4721 -30.4690 -30.4689 -30.4681 -30.4592 -30.4590 -30.4566
   -30.3895 -30.3894 -30.3866 -30.3860 -30.3838 -30.3837 -30.3809 -30.3796
   -20.2930 -20.2929 -20.2929 -20.2929 -20.2928 -20.2927 -20.2927 -20.2926
   -20.2798 -20.2795 -20.2795 -20.2792 -20.2747 -20.2743 -20.2743 -20.2739
   -20.2725 -20.2721 -20.2721 -20.2719 -20.2716 -20.2714 -20.2713 -20.2712
   -20.2709 -20.2709 -20.2705 -20.2702 -20.2700 -20.2693 -20.2692 -20.2687
   -20.2624 -20.2620 -20.2618 -20.2618 -20.2603 -20.2603 -20.2600 -20.2595
   -20.2559 -20.2558 -20.2547 -20.2547 -20.2533 -20.2533 -20.2523 -20.2522
   -20.2497 -20.2497 -20.2487 -20.2487 -20.2482 -20.2482 -20.2472 -20.2471
    -9.8470  -9.5392  -9.4692  -9.4688  -9.1575  -9.1569  -9.1097  -8.9561
    -8.9409  -8.8673  -8.8339  -8.8334  -7.9076  -7.8734  -7.8657  -7.8539
    -7.8284  -7.8060  -7.7869  -7.7615  -7.7602  -7.7368  -7.7323  -7.7211
     1.4181   1.4473   1.4478   1.4676   1.4691   1.5722   1.5756   1.5819
     1.7013   1.7047   1.8939   2.0534   2.5933   2.6646   2.6726   2.6853
     2.7823   2.8136   4.1147   4.1154   4.3413   4.3446   4.4813   4.4918
     4.5307   4.5379   4.6266   4.6635   4.7365   4.8036   5.0971   5.2534
     5.2743   5.3198   5.3534   5.5149   5.5162   5.5965   5.6125   5.7016
     5.7022   5.7340   5.7552   5.7797   5.8317   6.0099   6.2887   6.3911
     6.4545   6.4969   6.5265   6.6720   6.6782   6.7053   6.7193   6.7396
     6.7730   6.8220   6.8616   6.8776   6.8979   6.9784   6.9991   7.0976
     7.2724   7.3237   7.8421   7.8439   8.0322   8.0731   8.0802   8.1104
     9.8715   9.9257  10.1829  10.2064  10.2432  10.3133  12.2478  12.2530
    12.3005  12.3090  12.3649  12.4006  12.6350  12.6368  12.8100  12.9265
    12.9743  13.1431  13.2001  13.3059  13.8148  13.9111  13.9744  13.9922
    14.2876  14.5866  14.5917  15.1393  15.4580  15.5211  15.5365  16.3349
    16.3352  16.9693  16.9696  17.1579  17.5946

          k = 0.1667 0.0000 0.3333 ( 62273 PWs)   bands (ev):

   -66.1352 -66.1347 -66.1347 -66.1343 -66.1342 -66.1339 -66.1338 -66.1334
   -30.5399 -30.5376 -30.5360 -30.5338 -30.4862 -30.4829 -30.4780 -30.4732
   -30.4718 -30.4694 -30.4654 -30.4603 -30.4542 -30.4514 -30.4465 -30.4445
   -30.4072 -30.4035 -30.4019 -30.3983 -30.3885 -30.3862 -30.3833 -30.3811
   -20.2930 -20.2929 -20.2929 -20.2929 -20.2928 -20.2928 -20.2927 -20.2927
   -20.2798 -20.2796 -20.2795 -20.2793 -20.2747 -20.2744 -20.2743 -20.2740
   -20.2724 -20.2722 -20.2719 -20.2718 -20.2716 -20.2715 -20.2713 -20.2711
   -20.2709 -20.2708 -20.2705 -20.2703 -20.2698 -20.2694 -20.2691 -20.2688
   -20.2622 -20.2620 -20.2616 -20.2613 -20.2606 -20.2603 -20.2602 -20.2597
   -20.2556 -20.2549 -20.2546 -20.2536 -20.2529 -20.2525 -20.2523 -20.2513
   -20.2510 -20.2500 -20.2495 -20.2494 -20.2489 -20.2483 -20.2480 -20.2474
    -9.7307  -9.5192  -9.4032  -9.3295  -9.1995  -9.1403  -8.9053  -8.8855
    -8.8460  -8.8082  -8.7782  -8.7137  -8.1832  -8.1721  -8.1093  -8.0911
    -7.8630  -7.8375  -7.8108  -7.8044  -7.7680  -7.7654  -7.7590  -7.7426
     1.4261   1.4399   1.5339   1.5667   1.5886   1.6031   1.6710   1.7076
     2.2672   2.3060   2.4407   2.5238   2.6902   2.7741   2.8600   2.9079
     2.9639   3.0464   3.8068   3.8564   3.9325   3.9646   4.1343   4.3054
     4.3225   4.5023   4.5131   4.5445   4.5976   4.7321   4.7597   4.8972
     5.0345   5.0554   5.1077   5.2065   5.2713   5.3977   5.5736   5.6379
     5.7254   5.7517   5.7761   5.8416   5.8525   6.0111   6.1220   6.1671
     6.4165   6.4577   6.5166   6.5616   6.5759   6.6794   6.6960   6.7112
     6.7692   6.8711   6.8816   6.9033   7.1033   7.1375   7.1624   7.2277
     7.3189   7.3647   7.7751   7.7886   7.9217   7.9600   8.0881   8.0992
    10.2005  10.2075  10.5067  10.5658  10.8369  10.9469  11.8840  11.9391
    12.1278  12.4023  12.4367  12.4555  12.5639  12.6356  12.7671  12.8426
    12.8737  13.0419  13.0661  13.2397  13.6317  13.6561  13.9215  13.9426
    14.4015  14.5638  14.8539  15.3524  15.4456  15.7869  15.9548  16.2388
    16.4149  17.1832  17.4300  17.4882  17.6094

          k = 0.1667 0.0000-0.5000 ( 62304 PWs)   bands (ev):

   -66.1349 -66.1349 -66.1345 -66.1345 -66.1341 -66.1341 -66.1336 -66.1336
   -30.5388 -30.5388 -30.5350 -30.5350 -30.4843 -30.4843 -30.4751 -30.4751
   -30.4706 -30.4706 -30.4620 -30.4620 -30.4310 -30.4310 -30.4275 -30.4274
   -30.4252 -30.4252 -30.4218 -30.4218 -30.3874 -30.3874 -30.3822 -30.3822
   -20.2930 -20.2930 -20.2928 -20.2928 -20.2928 -20.2928 -20.2927 -20.2927
   -20.2797 -20.2797 -20.2794 -20.2794 -20.2746 -20.2745 -20.2741 -20.2741
   -20.2723 -20.2723 -20.2717 -20.2717 -20.2717 -20.2717 -20.2712 -20.2712
   -20.2708 -20.2708 -20.2704 -20.2704 -20.2696 -20.2696 -20.2690 -20.2690
   -20.2621 -20.2621 -20.2611 -20.2611 -20.2607 -20.2607 -20.2600 -20.2600
   -20.2553 -20.2553 -20.2530 -20.2530 -20.2527 -20.2527 -20.2517 -20.2517
   -20.2509 -20.2509 -20.2499 -20.2499 -20.2492 -20.2492 -20.2477 -20.2476
    -9.6079  -9.6079  -9.2777  -9.2777  -9.2067  -9.2067  -8.8633  -8.8633
    -8.5510  -8.5510  -8.5421  -8.5421  -8.4968  -8.4968  -8.4451  -8.4451
    -7.8376  -7.8376  -7.8050  -7.8050  -7.7791  -7.7791  -7.7554  -7.7554
     1.4314   1.4314   1.5519   1.5519   1.6060   1.6060   1.7093   1.7093
     2.7166   2.7166   3.0042   3.0042   3.0873   3.0873   3.2024   3.2024
     3.2943   3.2943   3.4073   3.4073   3.5399   3.5399   3.7903   3.7903
     3.8528   3.8528   4.4238   4.4238   4.5256   4.5256   4.9036   4.9036
     5.0356   5.0356   5.0492   5.0492   5.2569   5.2569   5.6523   5.6523
     5.7604   5.7604   5.8127   5.8127   5.8800   5.8800   5.9985   5.9985
     6.3471   6.3471   6.4525   6.4525   6.6773   6.6773   6.7104   6.7104
     6.8299   6.8299   6.9602   6.9602   7.0153   7.0153   7.5326   7.5327
     7.5742   7.5742   7.6878   7.6878   7.7141   7.7142   8.0978   8.0979
    10.2131  10.2131  11.2280  11.2280  11.2985  11.2985  11.5526  11.5526
    11.7306  11.7306  12.6308  12.6308  12.6523  12.6523  12.7138  12.7139
    12.8962  12.8962  13.2454  13.2454  13.3312  13.3312  13.9283  13.9283
    14.5104  14.5104  15.1530  15.1530  15.8770  15.8770  16.0596  16.0596
    16.7357  16.7357  17.8611  17.8621  17.9292

          k = 0.1667 0.1588 0.1667 ( 62272 PWs)   bands (ev):

   -66.1353 -66.1349 -66.1345 -66.1345 -66.1341 -66.1341 -66.1336 -66.1332
   -30.5367 -30.5327 -30.5327 -30.5288 -30.4913 -30.4849 -30.4846 -30.4761
   -30.4741 -30.4731 -30.4689 -30.4688 -30.4680 -30.4606 -30.4604 -30.4585
   -30.3894 -30.3893 -30.3865 -30.3860 -30.3839 -30.3838 -30.3810 -30.3798
   -20.2930 -20.2929 -20.2929 -20.2929 -20.2928 -20.2928 -20.2927 -20.2926
   -20.2795 -20.2792 -20.2792 -20.2789 -20.2750 -20.2746 -20.2746 -20.2742
   -20.2724 -20.2720 -20.2720 -20.2719 -20.2716 -20.2713 -20.2713 -20.2711
   -20.2709 -20.2709 -20.2706 -20.2702 -20.2701 -20.2694 -20.2693 -20.2689
   -20.2624 -20.2621 -20.2618 -20.2618 -20.2603 -20.2603 -20.2600 -20.2596
   -20.2559 -20.2558 -20.2547 -20.2547 -20.2533 -20.2533 -20.2523 -20.2523
   -20.2497 -20.2497 -20.2487 -20.2487 -20.2482 -20.2482 -20.2472 -20.2471
    -9.8144  -9.5508  -9.4274  -9.4269  -9.1653  -9.1648  -9.0345  -8.9551
    -8.9419  -8.8229  -8.7990  -8.7986  -7.9562  -7.9037  -7.9017  -7.8716
    -7.8693  -7.8552  -7.8493  -7.8371  -7.7816  -7.7583  -7.7405  -7.7228
     1.4652   1.4656   1.5245   1.5282   1.5681   1.5755   1.6089   1.7920
     1.8643   1.8695   1.8963   2.1386   2.6017   2.6792   2.7380   2.7472
     2.8550   2.8785   4.0182   4.0394   4.1424   4.1509   4.4539   4.4584
     4.5330   4.5379   4.6154   4.6701   4.7062   4.7485   4.9101   5.1926
     5.2166   5.2747   5.2761   5.3440   5.3639   5.5510   5.5642   5.6210
     5.7457   5.7512   5.8020   5.8093   5.8155   5.8902   6.2990   6.3480
     6.3970   6.4830   6.4913   6.6699   6.6770   6.7313   6.7570   6.7788
     6.7943   6.8524   6.8813   6.8947   6.9579   6.9640   6.9948   7.1019
     7.2772   7.3227   7.8411   7.8445   7.9849   8.0189   8.0259   8.0373
     9.8912   9.9278  10.3583  10.3643  10.4113  10.4543  12.2282  12.2403
    12.2618  12.2771  12.3234  12.3350  12.4864  12.4883  12.8378  12.9376
    12.9894  13.1394  13.2090  13.3066  13.8215  13.8388  13.8948  13.9155
    14.5120  14.8517  14.8518  15.2741  15.5222  15.5347  15.8609  16.3012
    16.3027  16.8328  17.0770  17.0819  17.6450

          k = 0.1667 0.1588 0.3333 ( 62274 PWs)   bands (ev):

   -66.1351 -66.1347 -66.1346 -66.1343 -66.1343 -66.1339 -66.1338 -66.1334
   -30.5360 -30.5336 -30.5320 -30.5297 -30.4889 -30.4856 -30.4815 -30.4772
   -30.4718 -30.4693 -30.4660 -30.4617 -30.4542 -30.4512 -30.4474 -30.4451
   -30.4070 -30.4034 -30.4021 -30.3984 -30.3884 -30.3861 -30.3834 -30.3813
   -20.2930 -20.2929 -20.2929 -20.2928 -20.2928 -20.2928 -20.2927 -20.2927
   -20.2794 -20.2793 -20.2791 -20.2790 -20.2750 -20.2747 -20.2746 -20.2743
   -20.2724 -20.2721 -20.2719 -20.2718 -20.2716 -20.2715 -20.2713 -20.2711
   -20.2709 -20.2708 -20.2706 -20.2702 -20.2700 -20.2695 -20.2692 -20.2690
   -20.2622 -20.2619 -20.2616 -20.2613 -20.2606 -20.2602 -20.2602 -20.2598
   -20.2556 -20.2549 -20.2546 -20.2536 -20.2529 -20.2525 -20.2523 -20.2513
   -20.2510 -20.2500 -20.2495 -20.2494 -20.2489 -20.2483 -20.2480 -20.2474
    -9.6944  -9.4780  -9.4145  -9.2736  -9.2080  -9.0658  -8.9127  -8.8656
    -8.8124  -8.8081  -8.7571  -8.6929  -8.1848  -8.1757  -8.1238  -8.0897
    -7.9162  -7.8989  -7.8739  -7.8470  -7.8456  -7.8208  -7.7812  -7.7594
     1.5322   1.5472   1.5878   1.6018   1.7497   1.7522   1.8263   1.8659
     2.2667   2.3170   2.4421   2.5395   2.7631   2.8363   2.8799   2.9605
     2.9830   3.1041   3.8081   3.8569   3.9229   3.9310   4.1314   4.1727
     4.2280   4.3636   4.5076   4.5666   4.6204   4.6864   4.7194   4.8077
     4.8943   4.9331   4.9511   5.1621   5.1920   5.2370   5.3318   5.6012
     5.6236   5.6641   5.7532   5.7980   5.8466   5.8607   6.1148   6.1609
     6.3744   6.5104   6.5450   6.6319   6.6972   6.7084   6.7205   6.7806
     6.8379   6.8750   6.9193   6.9532   7.0974   7.1322   7.1620   7.2314
     7.3154   7.3652   7.7761   7.7850   7.8825   7.9113   8.0269   8.0324
    10.3454  10.3757  10.5306  10.5783  10.9535  11.0396  11.8848  11.9376
    12.1131  12.3946  12.4331  12.4772  12.4891  12.5126  12.6796  12.7513
    12.8646  13.0376  13.0518  13.2345  13.5326  13.5620  13.8573  13.8776
    14.6872  14.8313  15.1905  15.5466  15.7577  15.7868  15.9683  16.2105
    16.5223  17.1459  17.2396  17.4868  17.5418

          k = 0.1667 0.1588-0.5000 ( 62314 PWs)   bands (ev):

   -66.1349 -66.1349 -66.1345 -66.1345 -66.1340 -66.1340 -66.1337 -66.1337
   -30.5348 -30.5348 -30.5309 -30.5309 -30.4870 -30.4870 -30.4790 -30.4790
   -30.4704 -30.4704 -30.4633 -30.4633 -30.4309 -30.4309 -30.4273 -30.4273
   -30.4255 -30.4255 -30.4221 -30.4221 -30.3873 -30.3873 -30.3824 -30.3824
   -20.2929 -20.2929 -20.2928 -20.2928 -20.2928 -20.2928 -20.2927 -20.2927
   -20.2794 -20.2794 -20.2791 -20.2791 -20.2749 -20.2749 -20.2745 -20.2745
   -20.2722 -20.2722 -20.2717 -20.2717 -20.2716 -20.2716 -20.2712 -20.2712
   -20.2708 -20.2708 -20.2704 -20.2704 -20.2697 -20.2697 -20.2691 -20.2691
   -20.2621 -20.2621 -20.2611 -20.2611 -20.2607 -20.2607 -20.2600 -20.2600
   -20.2553 -20.2553 -20.2530 -20.2530 -20.2527 -20.2527 -20.2517 -20.2517
   -20.2509 -20.2509 -20.2499 -20.2499 -20.2492 -20.2492 -20.2477 -20.2476
    -9.5684  -9.5684  -9.2876  -9.2876  -9.1368  -9.1367  -8.8297  -8.8297
    -8.5546  -8.5546  -8.5449  -8.5449  -8.4974  -8.4974  -8.4392  -8.4392
    -7.9089  -7.9089  -7.8629  -7.8629  -7.8144  -7.8144  -7.7903  -7.7903
     1.5417   1.5417   1.6049   1.6049   1.7630   1.7630   1.8626   1.8626
     2.7852   2.7852   3.0211   3.0211   3.1034   3.1035   3.2180   3.2180
     3.2969   3.2969   3.4153   3.4153   3.5320   3.5320   3.8004   3.8004
     3.9017   3.9017   4.2650   4.2650   4.5270   4.5270   4.7003   4.7003
     4.9352   4.9352   5.0159   5.0159   5.0933   5.0933   5.4479   5.4479
     5.6977   5.6977   5.7348   5.7348   5.8724   5.8724   5.8825   5.8825
     6.4753   6.4753   6.6124   6.6124   6.6598   6.6598   6.7618   6.7618
     6.9071   6.9071   6.9224   6.9224   7.0448   7.0448   7.5339   7.5339
     7.5677   7.5677   7.6657   7.6657   7.6904   7.6904   8.0323   8.0323
    10.3801  10.3802  11.2356  11.2356  11.2982  11.2982  11.6225  11.6225
    11.7930  11.7930  12.5128  12.5128  12.6259  12.6259  12.7004  12.7004
    12.8830  12.8830  13.1350  13.1350  13.2607  13.2607  13.8620  13.8620
    14.7875  14.7875  15.5240  15.5240  15.9916  15.9916  16.0441  16.0441
    16.7700  16.7700  17.6855  17.6856  17.9340

          k = 0.1667 0.3177 0.1667 ( 62258 PWs)   bands (ev):

   -66.1352 -66.1350 -66.1344 -66.1344 -66.1342 -66.1342 -66.1335 -66.1333
   -30.5261 -30.5219 -30.5218 -30.5177 -30.4992 -30.4935 -30.4934 -30.4873
   -30.4738 -30.4732 -30.4686 -30.4684 -30.4674 -30.4633 -30.4630 -30.4621
   -30.3891 -30.3891 -30.3863 -30.3860 -30.3841 -30.3840 -30.3810 -30.3803
   -20.2930 -20.2929 -20.2929 -20.2929 -20.2928 -20.2928 -20.2927 -20.2927
   -20.2785 -20.2782 -20.2782 -20.2779 -20.2759 -20.2756 -20.2756 -20.2752
   -20.2723 -20.2719 -20.2719 -20.2719 -20.2715 -20.2712 -20.2712 -20.2711
   -20.2709 -20.2709 -20.2707 -20.2705 -20.2699 -20.2696 -20.2696 -20.2692
   -20.2623 -20.2621 -20.2618 -20.2618 -20.2603 -20.2603 -20.2599 -20.2596
   -20.2559 -20.2558 -20.2547 -20.2547 -20.2533 -20.2533 -20.2523 -20.2523
   -20.2497 -20.2497 -20.2487 -20.2487 -20.2482 -20.2482 -20.2472 -20.2471
    -9.7356  -9.5873  -9.3319  -9.3314  -9.1915  -9.1909  -8.9523  -8.9449
    -8.8211  -8.6825  -8.6769  -8.6765  -8.1930  -8.1476  -8.1475  -8.1282
    -7.8783  -7.8684  -7.8619  -7.8500  -7.7808  -7.7676  -7.7384  -7.7272
     1.4654   1.4655   1.5608   1.5649   1.5706   1.5749   1.8292   1.8888
     2.3665   2.4859   2.4870   2.6196   2.6267   2.6843   2.9599   2.9725
     3.0708   3.0772   3.6914   3.7050   3.7183   3.7606   4.1225   4.4329
     4.4333   4.4716   4.4879   4.5498   4.5692   4.7436   4.7526   4.8441
     4.8663   4.8988   5.1053   5.1367   5.3588   5.3891   5.4021   5.4118
     5.6490   5.6673   5.7422   5.7557   5.8220   5.8262   6.3456   6.3728
     6.4214   6.4691   6.5058   6.6359   6.7285   6.7613   6.8440   6.8479
     6.9186   6.9227   7.0049   7.0137   7.1058   7.1073   7.1301   7.1515
     7.3039   7.3289   7.7924   7.8088   7.8219   7.8444   7.8493   7.8732
     9.9143   9.9282  10.7897  10.8161  10.8622  10.8661  11.8929  11.9339
    12.0216  12.0296  12.2759  12.2775  12.3423  12.3426  12.9016  12.9362
    13.1175  13.1924  13.2542  13.3397  13.6154  13.6170  13.6684  13.7197
    15.1339  15.4300  15.4409  15.5368  15.5406  15.8046  16.1835  16.1863
    16.2866  16.8513  17.3660  17.4348  17.4678

          k = 0.1667 0.3177 0.3333 ( 62279 PWs)   bands (ev):

   -66.1350 -66.1348 -66.1346 -66.1343 -66.1342 -66.1340 -66.1337 -66.1335
   -30.5252 -30.5227 -30.5210 -30.5186 -30.4975 -30.4944 -30.4916 -30.4883
   -30.4714 -30.4688 -30.4675 -30.4642 -30.4540 -30.4509 -30.4491 -30.4461
   -30.4068 -30.4031 -30.4025 -30.3988 -30.3881 -30.3859 -30.3838 -30.3816
   -20.2930 -20.2929 -20.2929 -20.2928 -20.2928 -20.2928 -20.2927 -20.2927
   -20.2785 -20.2783 -20.2782 -20.2780 -20.2759 -20.2757 -20.2755 -20.2753
   -20.2722 -20.2720 -20.2718 -20.2718 -20.2715 -20.2713 -20.2713 -20.2711
   -20.2709 -20.2708 -20.2705 -20.2703 -20.2700 -20.2697 -20.2695 -20.2693
   -20.2622 -20.2619 -20.2617 -20.2613 -20.2606 -20.2602 -20.2602 -20.2598
   -20.2556 -20.2549 -20.2546 -20.2536 -20.2529 -20.2525 -20.2523 -20.2513
   -20.2510 -20.2500 -20.2495 -20.2494 -20.2489 -20.2483 -20.2480 -20.2474
    -9.6074  -9.4508  -9.3828  -9.2365  -9.1377  -8.9420  -8.8565  -8.8357
    -8.8126  -8.6906  -8.6526  -8.6112  -8.2519  -8.2338  -8.1723  -8.1422
    -8.1378  -8.0929  -8.0738  -8.0189  -7.8473  -7.8305  -7.7804  -7.7647
     1.5760   1.5862   1.5936   1.6014   2.1814   2.2501   2.2741   2.3844
     2.4252   2.5006   2.5135   2.7046   2.8886   2.9518   2.9838   3.0626
     3.2078   3.2876   3.6691   3.6961   3.7519   3.7884   3.8959   3.9695
     4.0958   4.2617   4.3960   4.4317   4.4814   4.5168   4.5729   4.6594
     4.7185   4.7808   4.8202   4.8679   4.9158   4.9759   5.1206   5.1631
     5.3200   5.3368   5.4384   5.6189   5.7726   5.8306   6.1472   6.1612
     6.5403   6.6108   6.6307   6.7378   6.8120   6.8224   6.9158   6.9812
     7.0019   7.0258   7.0517   7.0754   7.1385   7.1598   7.2062   7.2615
     7.3143   7.3673   7.7268   7.7374   7.7796   7.7870   7.8257   7.8538
    10.5104  10.5430  10.8300  10.8542  11.2767  11.3273  11.8571  11.9176
    11.9268  12.0786  12.1957  12.2367  12.4489  12.5358  12.6372  12.6424
    12.8746  13.0264  13.0819  13.2619  13.3007  13.3558  13.6341  13.6688
    15.3150  15.4238  15.7417  15.9730  16.0139  16.0375  16.1157  16.7215
    16.7304  16.8712  17.0333  17.5851  17.6818

          k = 0.1667 0.3177-0.5000 ( 62268 PWs)   bands (ev):

   -66.1348 -66.1348 -66.1346 -66.1346 -66.1340 -66.1340 -66.1337 -66.1337
   -30.5240 -30.5240 -30.5199 -30.5199 -30.4958 -30.4958 -30.4898 -30.4898
   -30.4700 -30.4700 -30.4656 -30.4655 -30.4307 -30.4307 -30.4271 -30.4271
   -30.4262 -30.4262 -30.4226 -30.4226 -30.3871 -30.3871 -30.3827 -30.3827
   -20.2929 -20.2929 -20.2929 -20.2928 -20.2928 -20.2928 -20.2927 -20.2927
   -20.2784 -20.2784 -20.2781 -20.2781 -20.2758 -20.2758 -20.2754 -20.2754
   -20.2721 -20.2721 -20.2717 -20.2717 -20.2715 -20.2715 -20.2712 -20.2712
   -20.2708 -20.2708 -20.2703 -20.2702 -20.2700 -20.2700 -20.2694 -20.2694
   -20.2621 -20.2621 -20.2611 -20.2611 -20.2607 -20.2607 -20.2601 -20.2600
   -20.2553 -20.2553 -20.2530 -20.2530 -20.2527 -20.2527 -20.2517 -20.2517
   -20.2509 -20.2509 -20.2499 -20.2499 -20.2492 -20.2492 -20.2477 -20.2476
    -9.4751  -9.4751  -9.3200  -9.3200  -8.9461  -8.9461  -8.7247  -8.7247
    -8.5831  -8.5831  -8.5555  -8.5555  -8.4864  -8.4864  -8.4148  -8.4148
    -8.1413  -8.1413  -8.1077  -8.1077  -7.8138  -7.8138  -7.7975  -7.7975
     1.5927   1.5927   1.6045   1.6045   2.3656   2.3657   2.4774   2.4774
     2.9740   2.9740   3.0709   3.0709   3.1151   3.1151   3.2677   3.2677
     3.3032   3.3032   3.4467   3.4467   3.4998   3.4998   3.7070   3.7070
     4.0314   4.0314   4.0809   4.0809   4.1514   4.1514   4.3799   4.3799
     4.7214   4.7214   4.8179   4.8179   4.9844   4.9845   5.0228   5.0228
     5.1259   5.1259   5.5163   5.5163   5.8732   5.8733   5.8944   5.8944
     6.6618   6.6618   6.7764   6.7764   6.8296   6.8296   6.8593   6.8593
     7.0316   7.0316   7.0731   7.0731   7.1763   7.1763   7.5217   7.5217
     7.5428   7.5428   7.5904   7.5904   7.6225   7.6225   7.8350   7.8350
    10.8171  10.8171  11.2514  11.2514  11.2994  11.2994  11.7601  11.7601
    11.9855  11.9855  12.1784  12.1784  12.5525  12.5525  12.6099  12.6099
    12.7875  12.7876  12.9084  12.9084  13.2336  13.2336  13.6431  13.6431
    15.3835  15.3835  15.9543  15.9543  16.3731  16.3731  16.4809  16.4809
    16.9075  16.9075  17.3273  17.3273  17.8855

          k = 0.1667-0.4765 0.1667 ( 62274 PWs)   bands (ev):

   -66.1351 -66.1351 -66.1343 -66.1343 -66.1343 -66.1343 -66.1334 -66.1334
   -30.5120 -30.5120 -30.5078 -30.5078 -30.5067 -30.5067 -30.5025 -30.5025
   -30.4734 -30.4734 -30.4681 -30.4681 -30.4660 -30.4660 -30.4639 -30.4639
   -30.3890 -30.3890 -30.3861 -30.3861 -30.3841 -30.3841 -30.3808 -30.3808
   -20.2930 -20.2930 -20.2928 -20.2928 -20.2928 -20.2928 -20.2927 -20.2927
   -20.2772 -20.2772 -20.2769 -20.2769 -20.2768 -20.2768 -20.2765 -20.2765
   -20.2721 -20.2721 -20.2718 -20.2718 -20.2713 -20.2713 -20.2710 -20.2710
   -20.2709 -20.2709 -20.2707 -20.2707 -20.2697 -20.2697 -20.2696 -20.2696
   -20.2622 -20.2622 -20.2618 -20.2618 -20.2603 -20.2603 -20.2598 -20.2598
   -20.2558 -20.2558 -20.2547 -20.2547 -20.2533 -20.2533 -20.2523 -20.2523
   -20.2497 -20.2497 -20.2487 -20.2487 -20.2482 -20.2482 -20.2471 -20.2471
    -9.6507  -9.6507  -9.2466  -9.2466  -9.2416  -9.2416  -8.9486  -8.9486
    -8.5134  -8.5134  -8.4487  -8.4486  -8.4448  -8.4448  -8.4369  -8.4369
    -7.8730  -7.8730  -7.8577  -7.8577  -7.7748  -7.7748  -7.7330  -7.7330
     1.4654   1.4654   1.5680   1.5680   1.5731   1.5731   1.8768   1.8768
     2.6403   2.6403   3.1445   3.1445   3.2067   3.2067   3.2618   3.2618
     3.3046   3.3046   3.3707   3.3707   3.5422   3.5422   3.5536   3.5536
     3.7232   3.7232   4.4829   4.4829   4.5325   4.5325   4.9237   4.9237
     4.9987   4.9987   5.1010   5.1010   5.1497   5.1498   5.4403   5.4403
     5.4804   5.4804   5.7557   5.7558   5.7894   5.7894   6.3908   6.3908
     6.4936   6.4936   6.5308   6.5308   6.7490   6.7490   6.8864   6.8864
     6.9052   6.9052   7.0741   7.0741   7.2588   7.2589   7.4695   7.4695
     7.4850   7.4850   7.5088   7.5088   7.5490   7.5490   7.8497   7.8497
     9.9247   9.9247  11.3503  11.3504  11.4003  11.4003  11.4356  11.4356
    11.4682  11.4682  12.2762  12.2762  12.3388  12.3388  12.9427  12.9427
    13.3299  13.3299  13.3654  13.3654  13.3739  13.3739  13.5340  13.5340
    15.5191  15.5191  15.7093  15.7093  15.9260  15.9260  15.9453  15.9453
    16.6753  16.6753  17.8973  17.8988  17.9210

          k = 0.1667-0.4765 0.3333 ( 62252 PWs)   bands (ev):

   -66.1349 -66.1349 -66.1344 -66.1344 -66.1341 -66.1341 -66.1336 -66.1336
   -30.5111 -30.5107 -30.5086 -30.5077 -30.5065 -30.5059 -30.5035 -30.5034
   -30.4710 -30.4684 -30.4682 -30.4655 -30.4538 -30.4507 -30.4500 -30.4467
   -30.4066 -30.4029 -30.4028 -30.3989 -30.3880 -30.3858 -30.3839 -30.3818
   -20.2929 -20.2929 -20.2929 -20.2928 -20.2928 -20.2928 -20.2927 -20.2927
   -20.2772 -20.2772 -20.2770 -20.2769 -20.2769 -20.2768 -20.2766 -20.2766
   -20.2721 -20.2719 -20.2719 -20.2717 -20.2714 -20.2713 -20.2712 -20.2711
   -20.2709 -20.2708 -20.2705 -20.2704 -20.2699 -20.2698 -20.2697 -20.2696
   -20.2622 -20.2619 -20.2617 -20.2613 -20.2606 -20.2602 -20.2601 -20.2599
   -20.2556 -20.2549 -20.2546 -20.2536 -20.2529 -20.2525 -20.2523 -20.2513
   -20.2510 -20.2500 -20.2495 -20.2494 -20.2489 -20.2483 -20.2480 -20.2474
    -9.5170  -9.5154  -9.2951  -9.2905  -9.0126  -9.0075  -8.8233  -8.8210
    -8.5518  -8.5508  -8.4705  -8.4690  -8.4328  -8.4312  -8.4180  -8.4176
    -8.1590  -8.1510  -8.0696  -8.0623  -7.8445  -7.8344  -7.7778  -7.7680
     1.5836   1.5850   1.5994   1.6000   2.2484   2.2523   2.4167   2.4201
     2.9048   2.9080   3.1484   3.1558   3.2053   3.2200   3.2526   3.2720
     3.3038   3.3163   3.4434   3.4700   3.5228   3.5492   3.6863   3.6926
     3.7739   3.7796   3.8966   3.9638   4.4209   4.4620   4.5912   4.6171
     4.6544   4.7166   4.7751   4.8154   4.9638   4.9963   5.0118   5.0540
     5.1388   5.1928   5.3437   5.4190   5.7801   5.7978   6.1550   6.1619
     6.6198   6.6333   6.6875   6.7031   6.8445   6.8581   7.0043   7.0518
     7.0978   7.1159   7.1642   7.1907   7.2093   7.2153   7.4419   7.4635
     7.4701   7.4903   7.4988   7.5105   7.5303   7.5459   7.7921   7.7941
    10.5314  10.5438  11.3751  11.3943  11.4231  11.4296  11.7470  11.7522
    11.7691  11.7971  11.9082  11.9641  12.4443  12.5127  12.7370  12.7658
    12.8896  12.9159  13.0747  13.1504  13.3607  13.3823  13.4154  13.4749
    15.6436  15.6667  15.8643  15.8792  16.2689  16.2903  16.6434  16.6755
    16.8692  16.8712  17.4189  17.4602  17.8381

          k = 0.1667-0.4765-0.5000 ( 62244 PWs)   bands (ev):

   -66.1347 -66.1347 -66.1347 -66.1347 -66.1339 -66.1339 -66.1338 -66.1338
   -30.5099 -30.5099 -30.5091 -30.5090 -30.5050 -30.5050 -30.5045 -30.5045
   -30.4695 -30.4695 -30.4667 -30.4667 -30.4305 -30.4305 -30.4269 -30.4269
   -30.4266 -30.4266 -30.4228 -30.4228 -30.3869 -30.3869 -30.3829 -30.3829
   -20.2929 -20.2929 -20.2929 -20.2929 -20.2928 -20.2928 -20.2927 -20.2927
   -20.2771 -20.2771 -20.2771 -20.2770 -20.2768 -20.2768 -20.2767 -20.2767
   -20.2720 -20.2720 -20.2717 -20.2717 -20.2714 -20.2714 -20.2712 -20.2712
   -20.2708 -20.2708 -20.2702 -20.2702 -20.2700 -20.2700 -20.2696 -20.2696
   -20.2621 -20.2620 -20.2611 -20.2611 -20.2607 -20.2607 -20.2601 -20.2601
   -20.2553 -20.2553 -20.2530 -20.2530 -20.2527 -20.2527 -20.2517 -20.2517
   -20.2509 -20.2509 -20.2499 -20.2499 -20.2492 -20.2492 -20.2477 -20.2476
    -9.3845  -9.3845  -9.3796  -9.3796  -8.7219  -8.7219  -8.7077  -8.7077
    -8.6004  -8.6004  -8.5876  -8.5876  -8.4010  -8.4010  -8.3767  -8.3767
    -8.3403  -8.3402  -8.3182  -8.3182  -7.8111  -7.8111  -7.8011  -7.8011
     1.6003   1.6003   1.6033   1.6034   2.9866   2.9866   3.0391   3.0391
     3.1231   3.1232   3.1625   3.1625   3.2174   3.2174   3.2639   3.2639
     3.2940   3.2940   3.4107   3.4107   3.4891   3.4891   3.5530   3.5530
     3.5742   3.5742   3.7501   3.7501   4.2600   4.2600   4.3267   4.3267
     4.3661   4.3661   4.4292   4.4292   4.8702   4.8702   5.0327   5.0327
     5.1448   5.1448   5.2973   5.2973   5.8739   5.8739   5.8881   5.8881
     6.7390   6.7390   6.7808   6.7808   6.8556   6.8556   6.8953   6.8953
     7.2704   7.2704   7.2923   7.2923   7.3634   7.3634   7.4330   7.4330
     7.4571   7.4571   7.5170   7.5170   7.6018   7.6018   7.6310   7.6310
    11.2099  11.2099  11.2627  11.2627  11.4123  11.4123  11.4750  11.4751
    12.2214  12.2214  12.2524  12.2524  12.3256  12.3256  12.3508  12.3509
    12.7554  12.7554  12.8256  12.8256  13.3683  13.3683  13.4173  13.4173
    15.7658  15.7658  15.7875  15.7875  16.9116  16.9116  16.9517  16.9517
    17.3348  17.3348  17.4052  17.4054  17.4754

          k = 0.3333 0.0000 0.3333 ( 62318 PWs)   bands (ev):

   -66.1350 -66.1345 -66.1345 -66.1345 -66.1341 -66.1341 -66.1340 -66.1336
   -30.5392 -30.5370 -30.5369 -30.5347 -30.4828 -30.4791 -30.4787 -30.4743
   -30.4559 -30.4552 -30.4530 -30.4520 -30.4498 -30.4457 -30.4455 -30.4424
   -30.4068 -30.4065 -30.4054 -30.4043 -30.4005 -30.4001 -30.3993 -30.3972
   -20.2930 -20.2929 -20.2929 -20.2928 -20.2928 -20.2928 -20.2928 -20.2927
   -20.2797 -20.2796 -20.2796 -20.2794 -20.2746 -20.2744 -20.2743 -20.2741
   -20.2723 -20.2720 -20.2720 -20.2717 -20.2717 -20.2717 -20.2711 -20.2710
   -20.2709 -20.2709 -20.2705 -20.2703 -20.2697 -20.2693 -20.2692 -20.2690
   -20.2618 -20.2615 -20.2615 -20.2614 -20.2605 -20.2605 -20.2605 -20.2600
   -20.2544 -20.2543 -20.2537 -20.2537 -20.2521 -20.2521 -20.2516 -20.2516
   -20.2508 -20.2508 -20.2502 -20.2502 -20.2491 -20.2491 -20.2486 -20.2485
    -9.6014  -9.3785  -9.3772  -9.2218  -9.1747  -8.9513  -8.9490  -8.7828
    -8.7376  -8.7317  -8.7316  -8.7183  -8.2232  -8.1732  -8.1595  -8.1499
    -8.1461  -8.1379  -8.0419  -8.0188  -7.8028  -7.7775  -7.7774  -7.7524
     1.4806   1.5153   1.5166   1.5511   2.1672   2.1735   2.2771   2.2910
     2.3123   2.3302   2.5208   2.6225   2.9137   2.9295   2.9621   3.0131
     3.2253   3.2646   3.7888   3.8241   3.9206   3.9252   4.1111   4.1213
     4.1248   4.1263   4.2538   4.3059   4.4044   4.4583   4.5207   4.5440
     4.8015   4.8702   4.9589   5.0159   5.0408   5.0502   5.1747   5.4275
     5.4431   5.4943   5.5075   5.6590   5.9020   5.9047   5.9048   6.0562
     6.4719   6.4739   6.4926   6.5027   6.5152   6.5521   6.5541   6.6194
     6.9792   7.1820   7.1860   7.1989   7.2164   7.2941   7.3389   7.3533
     7.3922   7.4797   7.7332   7.7404   7.8934   7.9525   7.9801   8.0104
    10.7285  10.8120  10.8202  10.8558  10.9913  11.1680  12.0473  12.0610
    12.1039  12.1241  12.1832  12.2576  12.4694  12.4699  12.7810  12.8365
    12.8537  12.8541  12.9811  13.0189  13.5603  13.6106  13.6360  13.7167
    14.5563  14.8097  14.8097  15.2588  15.8307  16.3042  16.3431  16.7504
    16.7659  17.1713  17.1773  17.7670  17.8022

          k = 0.3333 0.0000-0.5000 ( 62318 PWs)   bands (ev):

   -66.1347 -66.1347 -66.1343 -66.1343 -66.1342 -66.1342 -66.1338 -66.1338
   -30.5381 -30.5381 -30.5358 -30.5358 -30.4805 -30.4805 -30.4761 -30.4761
   -30.4534 -30.4534 -30.4477 -30.4477 -30.4301 -30.4301 -30.4281 -30.4281
   -30.4245 -30.4245 -30.4228 -30.4228 -30.4048 -30.4048 -30.3996 -30.3996
   -20.2929 -20.2929 -20.2928 -20.2928 -20.2928 -20.2928 -20.2927 -20.2927
   -20.2797 -20.2797 -20.2795 -20.2795 -20.2745 -20.2745 -20.2743 -20.2743
   -20.2722 -20.2722 -20.2719 -20.2718 -20.2717 -20.2717 -20.2711 -20.2711
   -20.2709 -20.2709 -20.2704 -20.2704 -20.2695 -20.2695 -20.2691 -20.2691
   -20.2616 -20.2616 -20.2610 -20.2610 -20.2609 -20.2609 -20.2603 -20.2603
   -20.2540 -20.2540 -20.2526 -20.2526 -20.2522 -20.2522 -20.2516 -20.2516
   -20.2508 -20.2508 -20.2505 -20.2505 -20.2500 -20.2500 -20.2488 -20.2488
    -9.4684  -9.4684  -9.2480  -9.2480  -9.0459  -9.0459  -8.7527  -8.7527
    -8.5999  -8.5999  -8.5301  -8.5301  -8.4739  -8.4739  -8.4447  -8.4446
    -8.1185  -8.1185  -8.1049  -8.1049  -7.7907  -7.7907  -7.7653  -7.7653
     1.4981   1.4981   1.5348   1.5348   2.2970   2.2970   2.3253   2.3253
     2.9199   2.9199   3.0272   3.0272   3.0693   3.0693   3.2285   3.2285
     3.3233   3.3233   3.5932   3.5932   3.7396   3.7396   3.8407   3.8407
     3.8728   3.8728   4.0337   4.0337   4.1927   4.1927   4.3752   4.3752
     4.7215   4.7215   4.9340   4.9340   5.0387   5.0387   5.1283   5.1283
     5.2737   5.2737   5.5390   5.5390   5.9311   5.9311   6.0230   6.0230
     6.4022   6.4022   6.4225   6.4225   6.4908   6.4908   6.5741   6.5741
     7.1562   7.1562   7.2967   7.2967   7.3754   7.3754   7.5541   7.5541
     7.5832   7.5832   7.6916   7.6916   7.7343   7.7343   7.9785   7.9785
    10.8347  10.8347  11.4356  11.4356  11.5251  11.5251  11.6091  11.6091
    11.8127  11.8127  12.2347  12.2347  12.4256  12.4256  12.6253  12.6253
    12.8620  12.8620  13.2067  13.2067  13.2404  13.2404  13.6368  13.6368
    14.7173  14.7173  15.0810  15.0810  16.2873  16.2873  16.7378  16.7378
    17.0861  17.0861  17.4865  17.4865  17.9491

          k = 0.3333 0.1588 0.3333 ( 62278 PWs)   bands (ev):

   -66.1349 -66.1346 -66.1345 -66.1345 -66.1341 -66.1341 -66.1340 -66.1336
   -30.5352 -30.5329 -30.5329 -30.5306 -30.4861 -30.4826 -30.4823 -30.4783
   -30.4558 -30.4551 -30.4529 -30.4520 -30.4498 -30.4462 -30.4461 -30.4434
   -30.4067 -30.4064 -30.4053 -30.4043 -30.4006 -30.4003 -30.3993 -30.3975
   -20.2930 -20.2929 -20.2929 -20.2928 -20.2928 -20.2928 -20.2928 -20.2927
   -20.2794 -20.2792 -20.2792 -20.2790 -20.2749 -20.2747 -20.2747 -20.2745
   -20.2723 -20.2720 -20.2720 -20.2717 -20.2716 -20.2716 -20.2712 -20.2711
   -20.2709 -20.2709 -20.2705 -20.2703 -20.2698 -20.2694 -20.2693 -20.2691
   -20.2618 -20.2615 -20.2614 -20.2614 -20.2605 -20.2605 -20.2604 -20.2600
   -20.2544 -20.2543 -20.2537 -20.2537 -20.2521 -20.2521 -20.2516 -20.2516
   -20.2508 -20.2508 -20.2502 -20.2502 -20.2491 -20.2491 -20.2486 -20.2485
    -9.5586  -9.3244  -9.3230  -9.2337  -9.1013  -8.9605  -8.9582  -8.7487
    -8.7366  -8.7230  -8.7094  -8.7058  -8.2399  -8.1715  -8.1612  -8.1526
    -8.1460  -8.1416  -8.0409  -8.0203  -7.8984  -7.8739  -7.8735  -7.8482
     1.7098   1.7410   1.7423   1.7810   2.1673   2.1737   2.2772   2.2899
     2.3229   2.3406   2.5225   2.6328   2.9855   3.0031   3.0385   3.0633
[...]
    10.9439  10.9439  11.4579  11.4579  11.5449  11.5449  11.6639  11.6639
    11.8609  11.8609  12.2610  12.2610  12.4209  12.4209  12.6375  12.6375
    12.7297  12.7297  13.0850  13.0850  13.1196  13.1196  13.5340  13.5340
    15.0733  15.0733  15.4604  15.4604  16.3709  16.3709  16.7373  16.7373
    17.0915  17.0915  17.4997  17.4997  17.8036

          k = 0.3333 0.3177 0.3333 ( 62287 PWs)   bands (ev):

   -66.1349 -66.1346 -66.1344 -66.1344 -66.1342 -66.1342 -66.1339 -66.1337
   -30.5243 -30.5220 -30.5219 -30.5195 -30.4957 -30.4927 -30.4925 -30.4893
   -30.4555 -30.4551 -30.4525 -30.4520 -30.4495 -30.4474 -30.4468 -30.4453
   -30.4064 -30.4062 -30.4051 -30.4045 -30.4008 -30.4006 -30.3993 -30.3982
   -20.2929 -20.2929 -20.2929 -20.2928 -20.2928 -20.2928 -20.2928 -20.2927
   -20.2784 -20.2783 -20.2783 -20.2781 -20.2758 -20.2756 -20.2756 -20.2754
   -20.2721 -20.2719 -20.2718 -20.2718 -20.2716 -20.2715 -20.2713 -20.2711
   -20.2708 -20.2707 -20.2705 -20.2701 -20.2701 -20.2697 -20.2696 -20.2694
   -20.2617 -20.2615 -20.2614 -20.2614 -20.2605 -20.2605 -20.2604 -20.2601
   -20.2544 -20.2543 -20.2537 -20.2537 -20.2521 -20.2521 -20.2516 -20.2516
   -20.2508 -20.2508 -20.2502 -20.2502 -20.2491 -20.2491 -20.2486 -20.2485
    -9.4549  -9.2731  -9.1924  -9.1908  -8.9932  -8.9905  -8.8952  -8.7340
    -8.7234  -8.6339  -8.6253  -8.6233  -8.3370  -8.2133  -8.2099  -8.1601
    -8.1550  -8.1404  -8.1250  -8.0754  -8.0729  -8.0392  -8.0309  -8.0242
     2.1598   2.1632   2.1924   2.2091   2.2543   2.2742   2.2865   2.3926
     2.4934   2.5238   2.5405   2.7411   3.1508   3.2027   3.2198   3.2565
     3.2698   3.3172   3.6798   3.7115   3.7467   3.8002   4.0347   4.0755
     4.0930   4.1459   4.1588   4.2743   4.3050   4.3655   4.4118   4.4762
     4.4917   4.5484   4.5725   4.6131   4.7143   4.8528   4.8541   4.8820
     4.9034   4.9069   5.1428   5.2661   5.3031   5.3113   5.5120   5.5186
     6.8020   6.8140   6.8333   6.8902   6.9570   7.0105   7.0179   7.0415
     7.0900   7.1658   7.1738   7.2281   7.2401   7.2714   7.3381   7.3445
     7.4127   7.4546   7.6819   7.7035   7.7510   7.7585   7.7645   7.8239
    10.8890  10.9425  11.2461  11.2644  11.3089  11.4442  12.0284  12.0543
    12.0672  12.1088  12.1136  12.2277  12.3608  12.3642  12.5902  12.6340
    12.6714  12.7136  12.7695  13.0212  13.1918  13.2423  13.2541  13.3916
    15.7452  15.9418  15.9453  16.2468  16.3257  16.3333  16.6244  16.8512
    16.8638  16.9713  17.2034  17.2082  17.7194

          k = 0.3333 0.3177-0.5000 ( 62268 PWs)   bands (ev):

   -66.1346 -66.1346 -66.1344 -66.1344 -66.1341 -66.1341 -66.1339 -66.1339
   -30.5232 -30.5232 -30.5208 -30.5208 -30.4940 -30.4940 -30.4908 -30.4908
   -30.4529 -30.4529 -30.4490 -30.4490 -30.4297 -30.4297 -30.4277 -30.4277
   -30.4256 -30.4256 -30.4235 -30.4235 -30.4044 -30.4044 -30.4003 -30.4002
   -20.2929 -20.2929 -20.2928 -20.2928 -20.2928 -20.2928 -20.2927 -20.2927
   -20.2784 -20.2784 -20.2782 -20.2782 -20.2758 -20.2758 -20.2755 -20.2755
   -20.2720 -20.2720 -20.2717 -20.2717 -20.2716 -20.2716 -20.2713 -20.2713
   -20.2707 -20.2707 -20.2703 -20.2703 -20.2699 -20.2699 -20.2695 -20.2695
   -20.2616 -20.2615 -20.2610 -20.2610 -20.2608 -20.2608 -20.2604 -20.2604
   -20.2540 -20.2540 -20.2526 -20.2526 -20.2522 -20.2522 -20.2516 -20.2516
   -20.2508 -20.2508 -20.2505 -20.2505 -20.2500 -20.2500 -20.2488 -20.2488
    -9.2962  -9.2961  -9.0948  -9.0948  -8.9959  -8.9959  -8.6656  -8.6656
    -8.6281  -8.6281  -8.5222  -8.5222  -8.4629  -8.4629  -8.4232  -8.4232
    -8.1646  -8.1646  -8.1334  -8.1334  -8.1000  -8.1000  -8.0543  -8.0543
     2.2119   2.2119   2.2825   2.2825   2.3830   2.3830   2.4997   2.4997
     3.0548   3.0548   3.1049   3.1050   3.1901   3.1901   3.2698   3.2698
     3.3535   3.3536   3.6311   3.6311   3.7132   3.7132   3.8096   3.8096
     4.0150   4.0150   4.0906   4.0906   4.1352   4.1352   4.2544   4.2544
     4.3335   4.3335   4.4749   4.4750   4.6099   4.6099   4.8429   4.8429
     4.9584   4.9584   5.0022   5.0022   5.0599   5.0600   5.3014   5.3014
     6.8529   6.8529   6.9130   6.9130   6.9792   6.9792   7.0394   7.0394
     7.1825   7.1825   7.2747   7.2747   7.3835   7.3835   7.5125   7.5125
     7.5492   7.5492   7.6115   7.6115   7.6446   7.6446   7.7809   7.7809
    11.2372  11.2372  11.4944  11.4944  11.5772  11.5772  11.8440  11.8440
    12.0281  12.0281  12.3009  12.3009  12.3665  12.3665  12.4034  12.4034
    12.6880  12.6880  12.7937  12.7937  12.8618  12.8618  13.2732  13.2732
    15.8994  15.8994  16.3879  16.3879  16.6289  16.6289  16.7169  16.7169
    17.1256  17.1256  17.3931  17.3931  17.6587

          k = 0.3333-0.4765 0.3333 ( 62284 PWs)   bands (ev):

   -66.1348 -66.1348 -66.1343 -66.1343 -66.1343 -66.1343 -66.1338 -66.1338
   -30.5098 -30.5098 -30.5074 -30.5073 -30.5068 -30.5068 -30.5044 -30.5044
   -30.4552 -30.4552 -30.4522 -30.4522 -30.4487 -30.4487 -30.4467 -30.4467
   -30.4061 -30.4061 -30.4048 -30.4048 -30.4008 -30.4008 -30.3989 -30.3989
   -20.2929 -20.2929 -20.2928 -20.2928 -20.2928 -20.2928 -20.2927 -20.2927
   -20.2771 -20.2771 -20.2770 -20.2770 -20.2769 -20.2769 -20.2767 -20.2767
   -20.2719 -20.2719 -20.2718 -20.2718 -20.2715 -20.2715 -20.2713 -20.2713
   -20.2705 -20.2705 -20.2704 -20.2704 -20.2698 -20.2698 -20.2698 -20.2698
   -20.2616 -20.2616 -20.2614 -20.2614 -20.2605 -20.2605 -20.2602 -20.2602
   -20.2543 -20.2543 -20.2537 -20.2537 -20.2521 -20.2521 -20.2516 -20.2516
   -20.2508 -20.2508 -20.2502 -20.2502 -20.2491 -20.2491 -20.2485 -20.2485
    -9.3471  -9.3471  -9.0667  -9.0667  -9.0616  -9.0616  -8.7321  -8.7321
    -8.5983  -8.5983  -8.4421  -8.4421  -8.4380  -8.4380  -8.4173  -8.4173
    -8.1406  -8.1406  -8.1272  -8.1272  -8.1200  -8.1200  -8.0294  -8.0294
     2.1674   2.1674   2.2589   2.2589   2.2770   2.2770   2.4930   2.4930
     3.1296   3.1296   3.1736   3.1736   3.2242   3.2242   3.2885   3.2885
     3.3374   3.3374   3.5617   3.5617   3.6470   3.6470   3.6842   3.6842
     3.7976   3.7976   4.0754   4.0754   4.1966   4.1966   4.4127   4.4128
     4.5068   4.5068   4.6154   4.6154   4.6957   4.6957   4.7654   4.7654
     4.8668   4.8668   4.9787   4.9787   4.9944   4.9944   5.5065   5.5065
     6.9143   6.9143   7.0392   7.0392   7.0716   7.0716   7.1394   7.1394
     7.2137   7.2137   7.2414   7.2414   7.2917   7.2917   7.4351   7.4351
     7.4700   7.4700   7.5268   7.5268   7.5626   7.5626   7.7551   7.7551
    10.9336  10.9336  11.6599  11.6599  11.7340  11.7340  11.7652  11.7652
    11.8545  11.8545  12.0908  12.0909  12.1984  12.1984  12.6327  12.6327
    12.8621  12.8621  12.9097  12.9097  12.9570  12.9570  13.1742  13.1742
    16.3053  16.3053  16.4307  16.4307  16.5927  16.5927  16.6520  16.6520
    16.9963  16.9963  17.5073  17.5073  17.5802

          k = 0.3333-0.4765-0.5000 ( 62220 PWs)   bands (ev):

   -66.1345 -66.1345 -66.1345 -66.1345 -66.1340 -66.1340 -66.1340 -66.1340
   -30.5086 -30.5086 -30.5082 -30.5081 -30.5059 -30.5059 -30.5055 -30.5055
   -30.4527 -30.4527 -30.4495 -30.4495 -30.4296 -30.4296 -30.4275 -30.4275
   -30.4261 -30.4261 -30.4237 -30.4237 -30.4043 -30.4043 -30.4005 -30.4005
   -20.2929 -20.2929 -20.2929 -20.2928 -20.2928 -20.2928 -20.2928 -20.2928
   -20.2771 -20.2771 -20.2770 -20.2770 -20.2769 -20.2769 -20.2768 -20.2768
   -20.2719 -20.2719 -20.2717 -20.2717 -20.2715 -20.2715 -20.2714 -20.2714
   -20.2705 -20.2705 -20.2702 -20.2702 -20.2700 -20.2700 -20.2698 -20.2698
   -20.2615 -20.2615 -20.2610 -20.2610 -20.2608 -20.2608 -20.2604 -20.2604
   -20.2540 -20.2540 -20.2526 -20.2526 -20.2522 -20.2522 -20.2516 -20.2516
   -20.2508 -20.2508 -20.2505 -20.2505 -20.2500 -20.2500 -20.2489 -20.2488
    -9.1754  -9.1754  -9.1696  -9.1696  -8.7841  -8.7841  -8.7710  -8.7710
    -8.5425  -8.5425  -8.5308  -8.5308  -8.3933  -8.3933  -8.3750  -8.3750
    -8.3419  -8.3419  -8.3260  -8.3260  -8.1017  -8.1017  -8.0939  -8.0939
     2.2793   2.2793   2.2855   2.2855   2.9976   2.9976   3.0271   3.0271
     3.1214   3.1214   3.1507   3.1507   3.2590   3.2590   3.2837   3.2837
     3.3842   3.3842   3.4425   3.4425   3.6389   3.6389   3.6723   3.6723
     3.7798   3.7798   3.8796   3.8796   4.2372   4.2372   4.2735   4.2735
     4.3297   4.3297   4.3840   4.3840   4.4641   4.4641   4.5574   4.5574
     4.6562   4.6562   4.8065   4.8065   5.0683   5.0683   5.0859   5.0859
     7.0050   7.0050   7.0663   7.0663   7.1751   7.1751   7.1898   7.1898
     7.2780   7.2780   7.3087   7.3087   7.3781   7.3781   7.4174   7.4174
     7.4901   7.4901   7.5559   7.5559   7.6181   7.6182   7.6488   7.6488
    11.4525  11.4525  11.4956  11.4956  11.7496  11.7496  11.8281  11.8281
    12.1867  12.1867  12.2381  12.2381  12.2973  12.2973  12.3559  12.3559
    12.4949  12.4949  12.6050  12.6050  12.9446  12.9446  13.0235  13.0235
    16.4930  16.4930  16.5367  16.5367  17.0699  17.0699  17.1048  17.1048
    17.3268  17.3268  17.4188  17.4191  17.4703

          k =-0.5000 0.0000-0.5000 ( 62356 PWs)   bands (ev):

   -66.1345 -66.1345 -66.1345 -66.1345 -66.1341 -66.1341 -66.1340 -66.1340
   -30.5371 -30.5371 -30.5370 -30.5370 -30.4780 -30.4780 -30.4777 -30.4777
   -30.4319 -30.4319 -30.4317 -30.4317 -30.4306 -30.4306 -30.4289 -30.4289
   -30.4250 -30.4250 -30.4229 -30.4229 -30.4214 -30.4214 -30.4196 -30.4196
   -20.2929 -20.2929 -20.2929 -20.2929 -20.2928 -20.2928 -20.2928 -20.2928
   -20.2796 -20.2796 -20.2796 -20.2796 -20.2744 -20.2744 -20.2744 -20.2744
   -20.2720 -20.2720 -20.2720 -20.2720 -20.2717 -20.2716 -20.2711 -20.2711
   -20.2709 -20.2709 -20.2704 -20.2704 -20.2694 -20.2694 -20.2692 -20.2692
   -20.2612 -20.2612 -20.2611 -20.2611 -20.2607 -20.2607 -20.2606 -20.2606
   -20.2524 -20.2524 -20.2523 -20.2523 -20.2523 -20.2523 -20.2522 -20.2522
   -20.2504 -20.2504 -20.2504 -20.2504 -20.2503 -20.2503 -20.2503 -20.2503
    -9.3327  -9.3327  -9.3311  -9.3311  -8.7588  -8.7588  -8.7536  -8.7536
    -8.5763  -8.5763  -8.5704  -8.5704  -8.4024  -8.4024  -8.3956  -8.3956
    -8.3781  -8.3781  -8.3716  -8.3716  -7.7785  -7.7785  -7.7785  -7.7785
     1.5166   1.5166   1.5181   1.5181   2.9397   2.9397   2.9649   2.9650
     3.0724   3.0724   3.0931   3.0931   3.1449   3.1449   3.1806   3.1806
     3.3341   3.3341   3.3706   3.3706   3.7615   3.7615   3.8052   3.8052
     3.8066   3.8066   3.8371   3.8371   4.2106   4.2106   4.2201   4.2201
     4.3015   4.3015   4.3065   4.3065   4.9339   4.9339   4.9507   4.9507
     5.3718   5.3718   5.3929   5.3929   6.0142   6.0142   6.0181   6.0181
     6.3917   6.3918   6.3947   6.3947   6.4439   6.4439   6.4473   6.4473
     7.4651   7.4651   7.4720   7.4720   7.4973   7.4973   7.5296   7.5296
     7.6139   7.6139   7.6147   7.6147   7.8016   7.8016   7.8285   7.8286
    11.5227  11.5227  11.5339  11.5339  11.5939  11.5939  11.5975  11.5975
    11.9907  11.9907  11.9952  11.9952  12.1511  12.1511  12.1547  12.1547
    13.1304  13.1304  13.1344  13.1344  13.2858  13.2858  13.2938  13.2938
    14.9395  14.9395  14.9409  14.9409  16.7400  16.7400  16.7613  16.7613
    17.7296  17.7296  17.7366  17.7366  17.8696

          k =-0.5000 0.1588-0.5000 ( 62292 PWs)   bands (ev):

   -66.1345 -66.1345 -66.1345 -66.1345 -66.1341 -66.1341 -66.1341 -66.1341
   -30.5330 -30.5330 -30.5329 -30.5329 -30.4818 -30.4818 -30.4815 -30.4815
   -30.4319 -30.4319 -30.4317 -30.4317 -30.4304 -30.4304 -30.4289 -30.4289
   -30.4250 -30.4250 -30.4229 -30.4229 -30.4219 -30.4219 -30.4201 -30.4201
   -20.2929 -20.2929 -20.2929 -20.2929 -20.2928 -20.2928 -20.2928 -20.2928
   -20.2792 -20.2792 -20.2792 -20.2792 -20.2748 -20.2747 -20.2747 -20.2747
   -20.2720 -20.2720 -20.2719 -20.2719 -20.2716 -20.2716 -20.2712 -20.2712
   -20.2708 -20.2708 -20.2704 -20.2704 -20.2695 -20.2695 -20.2693 -20.2693
   -20.2612 -20.2611 -20.2611 -20.2611 -20.2608 -20.2608 -20.2607 -20.2607
   -20.2524 -20.2524 -20.2524 -20.2523 -20.2523 -20.2523 -20.2522 -20.2522
   -20.2504 -20.2504 -20.2504 -20.2504 -20.2503 -20.2503 -20.2503 -20.2503
    -9.2706  -9.2706  -9.2689  -9.2689  -8.7715  -8.7715  -8.7664  -8.7664
    -8.5618  -8.5618  -8.5560  -8.5560  -8.4014  -8.4014  -8.3948  -8.3948
    -8.3789  -8.3789  -8.3723  -8.3723  -7.8761  -7.8761  -7.8761  -7.8761
     1.7505   1.7505   1.7519   1.7519   2.9555   2.9556   2.9820   2.9821
     3.0821   3.0821   3.1116   3.1116   3.1557   3.1557   3.2041   3.2041
     3.3269   3.3269   3.3634   3.3634   3.8041   3.8041   3.8434   3.8434
     3.8530   3.8530   3.8839   3.8839   4.2013   4.2013   4.2061   4.2061
     4.3021   4.3021   4.3070   4.3070   4.7130   4.7130   4.7283   4.7283
     5.1299   5.1299   5.1468   5.1468   5.7334   5.7334   5.7384   5.7384
     6.5836   6.5836   6.5949   6.5949   6.6317   6.6317   6.6346   6.6346
     7.4568   7.4568   7.4647   7.4647   7.4888   7.4888   7.5226   7.5227
     7.6000   7.6000   7.6040   7.6040   7.7769   7.7769   7.7962   7.7962
    11.5879  11.5879  11.5937  11.5937  11.6503  11.6503  11.6597  11.6597
    11.9948  11.9948  11.9987  11.9987  12.1714  12.1714  12.1728  12.1728
    13.0011  13.0011  13.0050  13.0050  13.1654  13.1654  13.1717  13.1717
    15.3197  15.3197  15.3212  15.3212  16.8045  16.8045  16.8229  16.8229
    17.6661  17.6661  17.6845  17.6845  17.8738

          k =-0.5000 0.3177-0.5000 ( 62304 PWs)   bands (ev):

   -66.1344 -66.1344 -66.1344 -66.1344 -66.1342 -66.1342 -66.1342 -66.1342
   -30.5220 -30.5220 -30.5219 -30.5219 -30.4923 -30.4923 -30.4922 -30.4922
   -30.4317 -30.4317 -30.4316 -30.4316 -30.4299 -30.4299 -30.4290 -30.4290
   -30.4249 -30.4248 -30.4230 -30.4230 -30.4227 -30.4226 -30.4211 -30.4211
   -20.2929 -20.2928 -20.2928 -20.2928 -20.2928 -20.2928 -20.2928 -20.2928
   -20.2783 -20.2783 -20.2783 -20.2783 -20.2757 -20.2757 -20.2756 -20.2756
   -20.2719 -20.2719 -20.2718 -20.2718 -20.2716 -20.2716 -20.2713 -20.2713
   -20.2706 -20.2706 -20.2703 -20.2703 -20.2698 -20.2698 -20.2697 -20.2696
   -20.2611 -20.2611 -20.2610 -20.2610 -20.2609 -20.2609 -20.2608 -20.2607
   -20.2524 -20.2524 -20.2524 -20.2524 -20.2523 -20.2523 -20.2523 -20.2522
   -20.2504 -20.2504 -20.2504 -20.2504 -20.2503 -20.2503 -20.2503 -20.2503
    -9.1091  -9.1091  -9.1065  -9.1065  -8.8182  -8.8182  -8.8137  -8.8137
    -8.5077  -8.5077  -8.5023  -8.5023  -8.3995  -8.3995  -8.3933  -8.3933
    -8.3798  -8.3798  -8.3731  -8.3731  -8.1115  -8.1115  -8.1111  -8.1111
     2.3739   2.3739   2.3743   2.3743   2.9896   2.9896   3.0199   3.0199
     3.0889   3.0889   3.1111   3.1111   3.2217   3.2217   3.2805   3.2805
     3.3030   3.3030   3.3342   3.3342   3.9254   3.9254   3.9389   3.9389
     3.9781   3.9781   4.0135   4.0135   4.0782   4.0782   4.1070   4.1070
     4.3007   4.3007   4.3168   4.3168   4.3520   4.3520   4.3840   4.3840
     4.7135   4.7135   4.7270   4.7270   5.0298   5.0298   5.0363   5.0363
     6.9117   6.9117   6.9270   6.9270   7.0155   7.0155   7.0225   7.0225
     7.4044   7.4044   7.4170   7.4170   7.4567   7.4567   7.4864   7.4864
     7.5772   7.5772   7.5866   7.5866   7.6949   7.6949   7.7070   7.7070
    11.7391  11.7391  11.7434  11.7434  11.7905  11.7905  11.8118  11.8118
    12.0312  12.0312  12.0375  12.0375  12.2520  12.2520  12.2596  12.2596
    12.6743  12.6743  12.6822  12.6822  12.8570  12.8570  12.8640  12.8640
    16.2544  16.2544  16.2591  16.2591  16.9854  16.9854  16.9910  16.9910
    17.4725  17.4725  17.5167  17.5167  17.8868

          k =-0.5000-0.4765-0.5000 ( 62224 PWs)   bands (ev):

   -66.1343 -66.1343 -66.1343 -66.1343 -66.1343 -66.1343 -66.1343 -66.1343
   -30.5075 -30.5075 -30.5070 -30.5070 -30.5069 -30.5069 -30.5067 -30.5067
   -30.4316 -30.4316 -30.4316 -30.4315 -30.4294 -30.4294 -30.4293 -30.4293
   -30.4245 -30.4245 -30.4238 -30.4238 -30.4221 -30.4221 -30.4221 -30.4221
   -20.2928 -20.2928 -20.2928 -20.2928 -20.2928 -20.2928 -20.2928 -20.2928
   -20.2770 -20.2770 -20.2770 -20.2770 -20.2769 -20.2769 -20.2769 -20.2769
   -20.2717 -20.2717 -20.2717 -20.2717 -20.2716 -20.2715 -20.2715 -20.2715
   -20.2703 -20.2702 -20.2702 -20.2702 -20.2700 -20.2700 -20.2700 -20.2700
   -20.2610 -20.2610 -20.2610 -20.2610 -20.2609 -20.2609 -20.2609 -20.2609
   -20.2524 -20.2524 -20.2524 -20.2524 -20.2523 -20.2523 -20.2523 -20.2523
   -20.2504 -20.2504 -20.2504 -20.2504 -20.2503 -20.2503 -20.2503 -20.2503
    -8.9382  -8.9382  -8.9252  -8.9252  -8.9252  -8.9252  -8.9195  -8.9195
    -8.4161  -8.4161  -8.4084  -8.4084  -8.4084  -8.4084  -8.3976  -8.3976
    -8.3525  -8.3525  -8.3390  -8.3389  -8.3389  -8.3389  -8.3205  -8.3205
     2.9778   2.9778   2.9778   2.9778   3.0036   3.0037   3.0260   3.0261
     3.1521   3.1521   3.1612   3.1612   3.1980   3.1980   3.1980   3.1980
     3.3647   3.3647   3.4591   3.4591   3.4591   3.4591   3.5238   3.5238
     4.1379   4.1379   4.1623   4.1623   4.1623   4.1623   4.1953   4.1953
     4.3513   4.3513   4.3639   4.3639   4.3657   4.3657   4.3657   4.3657
     4.4413   4.4413   4.4628   4.4628   4.4628   4.4628   4.4943   4.4943
     7.1168   7.1168   7.1950   7.1950   7.1950   7.1950   7.2936   7.2936
     7.3475   7.3475   7.3516   7.3516   7.3516   7.3516   7.3638   7.3638
     7.5895   7.5896   7.6011   7.6011   7.6012   7.6012   7.6390   7.6390
    11.8429  11.8429  11.8484  11.8484  11.8513  11.8513  11.8513  11.8513
    12.2029  12.2029  12.2647  12.2647  12.2647  12.2648  12.3267  12.3267
    12.4847  12.4847  12.5196  12.5196  12.5196  12.5196  12.5502  12.5502
    17.1165  17.1165  17.1854  17.1854  17.1854  17.1854  17.1989  17.1990
    17.4082  17.4082  17.4082  17.4083  17.4668

     the Fermi energy is     9.6547 ev

!    total energy              =   -6260.97161828 Ry
     Harris-Foulkes estimate   =   -6260.97161828 Ry
     estimated scf accuracy    <          1.2E-09 Ry

     The total energy is the sum of the following terms:

     one-electron contribution =   -4721.80060466 Ry
     hartree contribution      =    2598.12071191 Ry
     xc contribution           =    -965.88901469 Ry
     ewald contribution        =   -3171.40267847 Ry
     smearing contrib. (-TS)   =      -0.00003237 Ry

     convergence has been achieved in  13 iterations

     Writing output data file Landau_6.save
 
     init_run     :     13.95s CPU     15.02s WALL (       1 calls)
     electrons    :    541.41s CPU    557.54s WALL (       1 calls)

     Called by init_run:
     wfcinit      :     12.60s CPU     13.52s WALL (       1 calls)
     potinit      :      0.53s CPU      0.57s WALL (       1 calls)

     Called by electrons:
     c_bands      :    472.33s CPU    487.42s WALL (      13 calls)
     sum_band     :     64.03s CPU     64.40s WALL (      13 calls)
     v_of_rho     :      1.17s CPU      1.19s WALL (      14 calls)
     mix_rho      :      2.18s CPU      2.52s WALL (      13 calls)

     Called by c_bands:
     init_us_2    :      4.18s CPU      4.63s WALL (      27 calls)
     cegterg      :    399.43s CPU    414.16s WALL (      13 calls)

     Called by sum_band:

     Called by *egterg:
     h_psi        :    322.15s CPU    324.33s WALL (      59 calls)
     g_psi        :      0.71s CPU      0.71s WALL (      45 calls)
     cdiaghg      :      5.92s CPU      5.97s WALL (      58 calls)

     Called by h_psi:
     h_psi:pot    :    319.95s CPU    321.98s WALL (      59 calls)
     h_psi:calbec :     32.00s CPU     32.94s WALL (      59 calls)
     vloc_psi     :    253.61s CPU    254.49s WALL (      59 calls)
     add_vuspsi   :     34.34s CPU     34.55s WALL (      59 calls)

     General routines
     calbec       :     32.00s CPU     32.94s WALL (      59 calls)
     fft          :      0.85s CPU      0.86s WALL (      56 calls)
     fftw         :    263.85s CPU    264.58s WALL (   16931 calls)
 
     Parallel routines
 
     PWSCF        :  9m16.16s CPU     9m36.18s WALL

 
   This run was terminated on:  19:23:17  26Mar2020            

=------------------------------------------------------------------------------=
   JOB DONE.
=------------------------------------------------------------------------------=
