
     Program PWSCF v.6.2 (svn rev. 14038) starts on  4Mar2020 at 19:28: 7 

     This program is part of the open-source Quantum ESPRESSO suite
     for quantum simulation of materials; please cite
         "P. Giannozzi et al., J. Phys.:Condens. Matter 21 395502 (2009);
         "P. Giannozzi et al., J. Phys.:Condens. Matter 29 465901 (2017);
          URL http://www.quantum-espresso.org", 
     in publications or presentations arising from this work. More details at
     http://www.quantum-espresso.org/quote

     Parallel version (MPI), running on    64 processors

     MPI processes distributed on    12 nodes
     K-points division:     npool     =      64
     Reading input from rscf.in

     Current dimensions of program PWSCF are:
     Max number of different atomic species (ntypx) = 10
     Max number of k-points (npk) =  40000
     Max angular momentum in pseudopotentials (lmaxx) =  3

     Subspace diagonalization in iterative solution of the eigenvalue problem:
     a serial algorithm will be used

 
     G-vector sticks info
     --------------------
     sticks:   dense  smooth     PW     G-vecs:    dense   smooth      PW
     Sum        7747    7747   2077               498127   498127   69057
 


     bravais-lattice index     =            0
     lattice parameter (alat)  =      13.8397  a.u.
     unit-cell volume          =    2804.9816 (a.u.)^3
     number of atoms/cell      =           32
     number of atomic types    =            2
     number of electrons       =       368.00
     number of Kohn-Sham states=          221
     kinetic-energy cutoff     =     120.0000  Ry
     charge density cutoff     =     480.0000  Ry
     convergence threshold     =      1.0E-08
     mixing beta               =       0.7000
     number of iterations used =            8  plain     mixing
     Exchange-correlation      = SLA PW NOGX NOGC ( 1  4  0  0 0 0)
     nstep                     =           50


     celldm(1)=  13.839685  celldm(2)=   0.000000  celldm(3)=   0.000000
     celldm(4)=   0.000000  celldm(5)=   0.000000  celldm(6)=   0.000000

     crystal axes: (cart. coord. in units of alat)
               a(1) = (   1.000000   0.000000   0.000000 )  
               a(2) = (   0.000000   1.058160   0.000000 )  
               a(3) = (   0.000000   0.000000   1.000000 )  

     reciprocal axes: (cart. coord. in units 2 pi/alat)
               b(1) = (  1.000000  0.000000  0.000000 )  
               b(2) = (  0.000000  0.945037  0.000000 )  
               b(3) = (  0.000000  0.000000  1.000000 )  


     PseudoPot. # 1 for W  read from file:
     /cluster/scratch/mnoe/QE/pps/W_ONCV_LDA-4.0.upf
     MD5 check sum: ba0307d5d4cd419d6f1d13dc49d7c13a
     Pseudo is Norm-conserving + core correction, Zval = 28.0
     Generated using ONCVPSP code by D. R. Hamann
     Using radial grid of 1380 points,  8 beta functions with: 
                l(1) =   0
                l(2) =   0
                l(3) =   1
                l(4) =   1
                l(5) =   2
                l(6) =   2
                l(7) =   3
                l(8) =   3

     PseudoPot. # 2 for O  read from file:
     /cluster/scratch/mnoe/QE/pps/O_ONCV_LDA-3.0.upf
     MD5 check sum: a1bd6164e7280c17a38c229939bfbd54
     Pseudo is Norm-conserving + core correction, Zval =  6.0
     Generated using ONCVPSP code by D. R. Hamann
     Using radial grid of  926 points,  5 beta functions with: 
                l(1) =   0
                l(2) =   0
                l(3) =   1
                l(4) =   1
                l(5) =   2

     atomic species   valence    mass     pseudopotential
        W             28.00   183.84000     W ( 1.00)
        O              6.00    15.99940     O ( 1.00)

      8 Sym. Ops., with inversion, found ( 6 have fractional translation)



   Cartesian axes

     site n.     atom                  positions (alat units)
         1           W   tau(   1) = (   0.2444500   0.2969906   0.0052400  )
         2           W   tau(   2) = (   0.7555500   0.7611695   0.9947600  )
         3           W   tau(   3) = (   0.2555500   0.2320895   0.5052400  )
         4           W   tau(   4) = (   0.7444500   0.8260706   0.4947600  )
         5           W   tau(   5) = (   0.7555500   0.2969906   0.4947600  )
         6           W   tau(   6) = (   0.2444500   0.7611695   0.5052400  )
         7           W   tau(   7) = (   0.7444500   0.2320895   0.9947600  )
         8           W   tau(   8) = (   0.2555500   0.8260706   0.0052400  )
         9           O   tau(   9) = (   0.2397600   0.0084600   0.0016300  )
        10           O   tau(  10) = (   0.7602400   1.0497001   0.9983700  )
        11           O   tau(  11) = (   0.2602400   0.5206201   0.5016300  )
        12           O   tau(  12) = (   0.7397600   0.5375400   0.4983700  )
        13           O   tau(  13) = (   0.7602400   0.0084600   0.4983700  )
        14           O   tau(  14) = (   0.2397600   1.0497001   0.5016300  )
        15           O   tau(  15) = (   0.7397600   0.5206201   0.9983700  )
        16           O   tau(  16) = (   0.2602400   0.5375400   0.0016300  )
        17           O   tau(  17) = (   0.5015200   0.2534293   0.4524572  )
        18           O   tau(  18) = (   0.4984800   0.8047307   0.5475428  )
        19           O   tau(  19) = (   0.9984800   0.2756507   0.9524572  )
        20           O   tau(  20) = (   0.0015199   0.7825094   0.0475428  )
        21           O   tau(  21) = (   0.4984800   0.2534293   0.0475428  )
        22           O   tau(  22) = (   0.5015200   0.8047307   0.9524572  )
        23           O   tau(  23) = (   0.0015199   0.2756507   0.5475428  )
        24           O   tau(  24) = (   0.9984800   0.7825094   0.4524572  )
        25           O   tau(  25) = (   0.7024572   0.2621168   0.7477000  )
        26           O   tau(  26) = (   0.2975428   0.7960433   0.2523000  )
        27           O   tau(  27) = (   0.7975428   0.2669632   0.2477000  )
        28           O   tau(  28) = (   0.2024572   0.7911969   0.7523000  )
        29           O   tau(  29) = (   0.2975428   0.2621168   0.7523000  )
        30           O   tau(  30) = (   0.7024572   0.7960433   0.2477000  )
        31           O   tau(  31) = (   0.2024572   0.2669632   0.2523000  )
        32           O   tau(  32) = (   0.7975428   0.7911969   0.7477000  )

     number of k points=    64  gaussian smearing, width (Ry)=  0.0007
                       cart. coord. in units 2pi/alat
        k(    1) = (   0.0000000   0.0000000   0.0000000), wk =   0.0092593
        k(    2) = (   0.0000000   0.0000000   0.1666667), wk =   0.0185185
        k(    3) = (   0.0000000   0.0000000   0.3333333), wk =   0.0185185
        k(    4) = (   0.0000000   0.0000000  -0.5000000), wk =   0.0092593
        k(    5) = (   0.0000000   0.1575061   0.0000000), wk =   0.0185185
        k(    6) = (   0.0000000   0.1575061   0.1666667), wk =   0.0370370
        k(    7) = (   0.0000000   0.1575061   0.3333333), wk =   0.0370370
        k(    8) = (   0.0000000   0.1575061  -0.5000000), wk =   0.0185185
        k(    9) = (   0.0000000   0.3150122   0.0000000), wk =   0.0185185
        k(   10) = (   0.0000000   0.3150122   0.1666667), wk =   0.0370370
        k(   11) = (   0.0000000   0.3150122   0.3333333), wk =   0.0370370
        k(   12) = (   0.0000000   0.3150122  -0.5000000), wk =   0.0185185
        k(   13) = (   0.0000000  -0.4725183   0.0000000), wk =   0.0092593
        k(   14) = (   0.0000000  -0.4725183   0.1666667), wk =   0.0185185
        k(   15) = (   0.0000000  -0.4725183   0.3333333), wk =   0.0185185
        k(   16) = (   0.0000000  -0.4725183  -0.5000000), wk =   0.0092593
        k(   17) = (   0.1666667   0.0000000   0.1666667), wk =   0.0370370
        k(   18) = (   0.1666667   0.0000000   0.3333333), wk =   0.0370370
        k(   19) = (   0.1666667   0.0000000  -0.5000000), wk =   0.0185185
        k(   20) = (   0.1666667   0.1575061   0.1666667), wk =   0.0740741
        k(   21) = (   0.1666667   0.1575061   0.3333333), wk =   0.0740741
        k(   22) = (   0.1666667   0.1575061  -0.5000000), wk =   0.0370370
        k(   23) = (   0.1666667   0.3150122   0.1666667), wk =   0.0740741
        k(   24) = (   0.1666667   0.3150122   0.3333333), wk =   0.0740741
        k(   25) = (   0.1666667   0.3150122  -0.5000000), wk =   0.0370370
        k(   26) = (   0.1666667  -0.4725183   0.1666667), wk =   0.0370370
        k(   27) = (   0.1666667  -0.4725183   0.3333333), wk =   0.0370370
        k(   28) = (   0.1666667  -0.4725183  -0.5000000), wk =   0.0185185
        k(   29) = (   0.3333333   0.0000000   0.3333333), wk =   0.0370370
        k(   30) = (   0.3333333   0.0000000  -0.5000000), wk =   0.0185185
        k(   31) = (   0.3333333   0.1575061   0.3333333), wk =   0.0740741
        k(   32) = (   0.3333333   0.1575061  -0.5000000), wk =   0.0370370
        k(   33) = (   0.3333333   0.3150122   0.3333333), wk =   0.0740741
        k(   34) = (   0.3333333   0.3150122  -0.5000000), wk =   0.0370370
        k(   35) = (   0.3333333  -0.4725183   0.3333333), wk =   0.0370370
        k(   36) = (   0.3333333  -0.4725183  -0.5000000), wk =   0.0185185
        k(   37) = (  -0.5000000   0.0000000  -0.5000000), wk =   0.0092593
        k(   38) = (  -0.5000000   0.1575061  -0.5000000), wk =   0.0185185
        k(   39) = (  -0.5000000   0.3150122  -0.5000000), wk =   0.0185185
        k(   40) = (  -0.5000000  -0.4725183  -0.5000000), wk =   0.0092593
        k(   41) = (   0.1666667   0.0000000   0.0000000), wk =   0.0185185
        k(   42) = (   0.3333333   0.0000000   0.0000000), wk =   0.0185185
        k(   43) = (  -0.5000000   0.0000000   0.0000000), wk =   0.0092593
        k(   44) = (   0.1666667  -0.1575061   0.0000000), wk =   0.0370370
        k(   45) = (   0.3333333  -0.1575061   0.0000000), wk =   0.0370370
        k(   46) = (  -0.5000000  -0.1575061   0.0000000), wk =   0.0185185
        k(   47) = (   0.1666667  -0.3150122   0.0000000), wk =   0.0370370
        k(   48) = (   0.3333333  -0.3150122   0.0000000), wk =   0.0370370
        k(   49) = (  -0.5000000  -0.3150122   0.0000000), wk =   0.0185185
        k(   50) = (   0.1666667   0.4725183   0.0000000), wk =   0.0185185
        k(   51) = (   0.3333333   0.4725183   0.0000000), wk =   0.0185185
        k(   52) = (  -0.5000000   0.4725183   0.0000000), wk =   0.0092593
        k(   53) = (   0.3333333   0.0000000   0.1666667), wk =   0.0370370
        k(   54) = (  -0.5000000   0.0000000   0.1666667), wk =   0.0185185
        k(   55) = (   0.3333333  -0.1575061   0.1666667), wk =   0.0740741
        k(   56) = (  -0.5000000  -0.1575061   0.1666667), wk =   0.0370370
        k(   57) = (   0.3333333  -0.3150122   0.1666667), wk =   0.0740741
        k(   58) = (  -0.5000000  -0.3150122   0.1666667), wk =   0.0370370
        k(   59) = (   0.3333333   0.4725183   0.1666667), wk =   0.0370370
        k(   60) = (  -0.5000000   0.4725183   0.1666667), wk =   0.0185185
        k(   61) = (  -0.5000000   0.0000000   0.3333333), wk =   0.0185185
        k(   62) = (  -0.5000000  -0.1575061   0.3333333), wk =   0.0370370
        k(   63) = (  -0.5000000  -0.3150122   0.3333333), wk =   0.0370370
        k(   64) = (  -0.5000000   0.4725183   0.3333333), wk =   0.0185185

     Dense  grid:   498127 G-vectors     FFT dimensions: ( 100, 108, 100)

     Estimated max dynamical RAM per process >       2.74 GB

     Estimated total dynamical RAM >     175.05 GB

     Initial potential from superposition of free atoms

     starting charge  367.99656, renormalised to  368.00000
     Starting wfc are  232 randomized atomic wfcs

     total cpu time spent up to now is       46.2 secs

     Self-consistent Calculation

     iteration #  1     ecut=   120.00 Ry     beta= 0.70
     Davidson diagonalization with overlap
     ethr =  1.00E-02,  avg # of iterations =  4.9

     total cpu time spent up to now is      124.9 secs

     total energy              =   -6253.99885978 Ry
     Harris-Foulkes estimate   =   -6264.58506236 Ry
     estimated scf accuracy    <      13.40810528 Ry

     iteration #  2     ecut=   120.00 Ry     beta= 0.70
     Davidson diagonalization with overlap
     ethr =  3.64E-03,  avg # of iterations =  3.5

     total cpu time spent up to now is      202.7 secs

     total energy              =   -6250.85829383 Ry
     Harris-Foulkes estimate   =   -6270.77295326 Ry
     estimated scf accuracy    <      53.51090075 Ry

     iteration #  3     ecut=   120.00 Ry     beta= 0.70
     Davidson diagonalization with overlap
     ethr =  3.64E-03,  avg # of iterations =  3.4

     total cpu time spent up to now is      275.5 secs

     total energy              =   -6261.08000915 Ry
     Harris-Foulkes estimate   =   -6261.39216670 Ry
     estimated scf accuracy    <       1.01119649 Ry

     iteration #  4     ecut=   120.00 Ry     beta= 0.70
     Davidson diagonalization with overlap
     ethr =  2.75E-04,  avg # of iterations =  2.8

     total cpu time spent up to now is      333.3 secs

     total energy              =   -6261.09789840 Ry
     Harris-Foulkes estimate   =   -6261.17225275 Ry
     estimated scf accuracy    <       0.25719329 Ry

     iteration #  5     ecut=   120.00 Ry     beta= 0.70
     Davidson diagonalization with overlap
     ethr =  6.99E-05,  avg # of iterations =  4.5

     total cpu time spent up to now is      396.6 secs

     total energy              =   -6261.08982713 Ry
     Harris-Foulkes estimate   =   -6261.12688094 Ry
     estimated scf accuracy    <       0.08073221 Ry

     iteration #  6     ecut=   120.00 Ry     beta= 0.70
     Davidson diagonalization with overlap
     ethr =  2.19E-05,  avg # of iterations =  5.4

     total cpu time spent up to now is      466.0 secs

     total energy              =   -6261.10790444 Ry
     Harris-Foulkes estimate   =   -6261.10973086 Ry
     estimated scf accuracy    <       0.00511651 Ry

     iteration #  7     ecut=   120.00 Ry     beta= 0.70
     Davidson diagonalization with overlap
     ethr =  1.39E-06,  avg # of iterations =  4.9

     total cpu time spent up to now is      530.7 secs

     total energy              =   -6261.10847607 Ry
     Harris-Foulkes estimate   =   -6261.10857902 Ry
     estimated scf accuracy    <       0.00023553 Ry

     iteration #  8     ecut=   120.00 Ry     beta= 0.70
     Davidson diagonalization with overlap
     ethr =  6.40E-08,  avg # of iterations =  3.2

     total cpu time spent up to now is      601.5 secs

     total energy              =   -6261.10853450 Ry
     Harris-Foulkes estimate   =   -6261.10854347 Ry
     estimated scf accuracy    <       0.00002137 Ry

     iteration #  9     ecut=   120.00 Ry     beta= 0.70
     Davidson diagonalization with overlap
     ethr =  5.81E-09,  avg # of iterations =  2.9

     total cpu time spent up to now is      671.2 secs

     total energy              =   -6261.10853885 Ry
     Harris-Foulkes estimate   =   -6261.10854155 Ry
     estimated scf accuracy    <       0.00001153 Ry

     iteration # 10     ecut=   120.00 Ry     beta= 0.70
     Davidson diagonalization with overlap
     ethr =  3.13E-09,  avg # of iterations =  2.1

     total cpu time spent up to now is      733.6 secs

     total energy              =   -6261.10853792 Ry
     Harris-Foulkes estimate   =   -6261.10853971 Ry
     estimated scf accuracy    <       0.00000396 Ry

     iteration # 11     ecut=   120.00 Ry     beta= 0.70
     Davidson diagonalization with overlap
     ethr =  1.08E-09,  avg # of iterations =  2.6

     total cpu time spent up to now is      796.1 secs

     total energy              =   -6261.10853877 Ry
     Harris-Foulkes estimate   =   -6261.10853881 Ry
     estimated scf accuracy    <       0.00000010 Ry

     iteration # 12     ecut=   120.00 Ry     beta= 0.70
     Davidson diagonalization with overlap
     ethr =  2.60E-11,  avg # of iterations =  2.0

     total cpu time spent up to now is      863.8 secs

     total energy              =   -6261.10853878 Ry
     Harris-Foulkes estimate   =   -6261.10853879 Ry
     estimated scf accuracy    <       0.00000002 Ry

     iteration # 13     ecut=   120.00 Ry     beta= 0.70
     Davidson diagonalization with overlap
     ethr =  5.61E-12,  avg # of iterations =  2.0

     total cpu time spent up to now is      919.7 secs

     End of self-consistent calculation

          k = 0.0000 0.0000 0.0000 ( 62239 PWs)   bands (ev):

   -66.1712 -66.1708 -66.1702 -66.1702 -66.1698 -66.1698 -66.1692 -66.1688
   -30.5490 -30.5434 -30.5425 -30.5370 -30.5355 -30.5316 -30.5301 -30.5290
   -30.5242 -30.5237 -30.5236 -30.5217 -30.4818 -30.4816 -30.4806 -30.4805
   -30.4314 -30.4293 -30.4279 -30.4276 -30.4256 -30.4247 -30.4230 -30.4200
   -20.3305 -20.3304 -20.3304 -20.3303 -20.3303 -20.3302 -20.3302 -20.3301
   -20.3107 -20.3103 -20.3103 -20.3100 -20.3081 -20.3078 -20.3076 -20.3075
   -20.3072 -20.3069 -20.3068 -20.3066 -20.3065 -20.3063 -20.3062 -20.3058
   -20.3057 -20.3053 -20.3050 -20.3047 -20.3045 -20.3042 -20.3040 -20.3037
   -20.2987 -20.2986 -20.2984 -20.2982 -20.2979 -20.2979 -20.2977 -20.2976
   -20.2936 -20.2934 -20.2932 -20.2932 -20.2932 -20.2931 -20.2930 -20.2928
   -20.2895 -20.2894 -20.2894 -20.2894 -20.2892 -20.2888 -20.2882 -20.2880
    -9.9728  -9.7208  -9.5310  -9.5203  -9.3092  -9.2900  -9.1006  -9.0873
    -9.0158  -8.8479  -8.8382  -8.8337  -7.8323  -7.8001  -7.7775  -7.7707
    -7.7673  -7.7563  -7.7510  -7.6974  -7.6590  -7.6483  -7.6355  -7.6292
     1.1110   1.1123   1.2078   1.2153   1.2288   1.2403   1.3734   1.5703
     1.6666   1.6738   1.6760   1.8382   2.3350   2.4111   2.5846   2.5869
     2.7310   2.7311   4.1247   4.1481   4.3072   4.3417   4.7543   4.7584
     4.7809   4.7880   4.8535   4.8991   5.0605   5.0663   5.0896   5.4766
     5.4938   5.4974   5.5250   5.5452   5.5459   5.5816   5.6156   5.8593
     5.8791   5.8815   5.8822   5.8856   5.9879   6.0102   6.0244   6.0953
     6.1042   6.2473   6.2579   6.5107   6.5265   6.8304   6.8404   6.8642
     6.8748   6.8898   6.9745   7.0159   7.0526   7.0701   7.3147   7.3366
     7.3497   7.3710   7.8105   7.8249   8.0670   8.0873   8.1373   8.1584
     9.2574   9.2594   9.9480   9.9567   9.9710   9.9809  12.2529  12.2551
    12.3133  12.3370  12.3636  12.3795  12.4714  12.4871  12.8741  12.9509
    13.2419  13.2806  13.3612  13.3900  13.7448  14.0186  14.1363  14.1443
    14.2029  14.3415  14.4418  14.8968  15.4267  15.4288  15.4429  16.0877
    16.0891  16.8616  17.0752  17.0887  17.5025

          k = 0.0000 0.0000 0.1667 ( 62262 PWs)   bands (ev):

   -66.1711 -66.1707 -66.1702 -66.1701 -66.1699 -66.1697 -66.1692 -66.1688
   -30.5486 -30.5437 -30.5423 -30.5374 -30.5292 -30.5285 -30.5284 -30.5240
   -30.5238 -30.5220 -30.5206 -30.5168 -30.4813 -30.4812 -30.4810 -30.4810
   -30.4380 -30.4361 -30.4339 -30.4318 -30.4276 -30.4244 -30.4237 -30.4204
   -20.3305 -20.3304 -20.3303 -20.3303 -20.3303 -20.3302 -20.3302 -20.3301
   -20.3106 -20.3103 -20.3103 -20.3100 -20.3080 -20.3078 -20.3075 -20.3075
   -20.3072 -20.3069 -20.3068 -20.3067 -20.3066 -20.3063 -20.3063 -20.3058
   -20.3057 -20.3054 -20.3050 -20.3047 -20.3045 -20.3042 -20.3041 -20.3038
   -20.2987 -20.2984 -20.2982 -20.2978 -20.2978 -20.2978 -20.2974 -20.2971
   -20.2937 -20.2935 -20.2934 -20.2933 -20.2932 -20.2931 -20.2928 -20.2926
   -20.2899 -20.2897 -20.2896 -20.2895 -20.2892 -20.2892 -20.2883 -20.2883
    -9.9233  -9.6653  -9.5369  -9.4608  -9.3037  -9.2179  -9.0603  -9.0460
    -9.0249  -8.8389  -8.8381  -8.8150  -7.9251  -7.9120  -7.8287  -7.7929
    -7.7774  -7.7653  -7.7603  -7.7570  -7.7387  -7.7008  -7.6571  -7.6381
     1.2059   1.2109   1.2319   1.2457   1.4343   1.4501   1.4796   1.6653
     1.6688   1.7055   1.7385   1.9377   2.4239   2.5024   2.5960   2.6739
     2.7225   2.8185   4.0895   4.1265   4.3266   4.3267   4.3324   4.4056
     4.6882   4.7891   4.8257   4.8340   4.8426   5.0536   5.0769   5.2842
     5.3203   5.4532   5.4954   5.5338   5.6083   5.6203   5.6265   5.6363
     5.7099   5.8208   5.8684   5.9209   5.9972   6.0520   6.1056   6.1198
     6.2535   6.3788   6.4649   6.5158   6.7081   6.7483   6.8067   6.8142
     6.8283   6.8823   6.9495   6.9839   7.0069   7.0778   7.1024   7.1033
     7.1560   7.2172   7.8188   7.8230   8.0463   8.0865   8.1150   8.1390
     9.6048   9.6230   9.9556   9.9688  10.2207  10.2640  12.1932  12.2624
    12.2917  12.3224  12.3627  12.4012  12.4897  12.5735  12.9220  12.9275
    13.0521  13.2760  13.2890  13.3620  13.8481  13.9913  14.0148  14.0170
    14.2156  14.4366  14.4626  15.0117  15.3933  15.4666  15.5037  16.0603
    16.4065  16.8218  17.0332  17.2717  17.5452

          k = 0.0000 0.0000 0.3333 ( 62268 PWs)   bands (ev):

   -66.1709 -66.1705 -66.1704 -66.1700 -66.1699 -66.1695 -66.1694 -66.1690
   -30.5475 -30.5447 -30.5414 -30.5385 -30.5276 -30.5261 -30.5250 -30.5231
   -30.5120 -30.5072 -30.5038 -30.4990 -30.4836 -30.4830 -30.4793 -30.4787
   -30.4551 -30.4544 -30.4510 -30.4499 -30.4268 -30.4245 -30.4235 -30.4213
   -20.3304 -20.3304 -20.3303 -20.3303 -20.3303 -20.3303 -20.3302 -20.3302
   -20.3106 -20.3104 -20.3102 -20.3101 -20.3078 -20.3076 -20.3073 -20.3073
   -20.3073 -20.3070 -20.3068 -20.3068 -20.3068 -20.3064 -20.3062 -20.3059
   -20.3056 -20.3055 -20.3049 -20.3048 -20.3045 -20.3042 -20.3042 -20.3039
   -20.2986 -20.2985 -20.2979 -20.2978 -20.2968 -20.2967 -20.2962 -20.2960
   -20.2943 -20.2942 -20.2939 -20.2937 -20.2928 -20.2927 -20.2924 -20.2921
   -20.2910 -20.2907 -20.2905 -20.2901 -20.2893 -20.2890 -20.2887 -20.2885
    -9.8039  -9.5883  -9.5381  -9.3454  -9.2897  -9.0571  -8.9577  -8.9499
    -8.8978  -8.8511  -8.7879  -8.7201  -8.2354  -8.2323  -8.1397  -8.1201
    -7.8018  -7.7713  -7.7470  -7.7343  -7.7316  -7.7102  -7.6812  -7.6627
     1.2399   1.2509   1.2600   1.2770   1.5875   1.6138   1.6483   1.6528
     2.1879   2.2303   2.3882   2.4713   2.6198   2.6816   2.7075   2.7701
     2.9166   3.0479   3.6986   3.7864   3.8624   3.9352   4.1909   4.2264
     4.2779   4.4895   4.5207   4.7718   4.8021   4.8171   4.8977   5.0184
     5.1121   5.1386   5.1703   5.3489   5.4324   5.4505   5.6773   5.6945
     5.7810   5.7813   5.8380   5.9758   6.0271   6.1442   6.2091   6.2759
     6.2977   6.4143   6.4790   6.5453   6.5616   6.5836   6.5878   6.7506
     6.8055   6.8732   6.8771   6.9681   7.0186   7.0283   7.0719   7.1018
     7.3011   7.3463   7.7440   7.7621   7.9174   7.9755   8.1221   8.1409
     9.9384   9.9622  10.3303  10.4035  10.8458  10.9408  11.8221  11.8723
    12.0954  12.4846  12.4847  12.4886  12.5378  12.5722  12.6901  12.8374
    12.9036  13.1219  13.1784  13.3718  13.6504  13.6855  13.9809  14.0129
    14.2967  14.4194  14.7747  15.2859  15.3002  15.6263  15.9196  15.9760
    16.2824  17.2662  17.4308  17.5784  17.6963

          k = 0.0000 0.0000-0.5000 ( 62264 PWs)   bands (ev):

   -66.1707 -66.1707 -66.1703 -66.1703 -66.1697 -66.1697 -66.1693 -66.1693
   -30.5461 -30.5461 -30.5399 -30.5399 -30.5263 -30.5263 -30.5245 -30.5245
   -30.4922 -30.4922 -30.4895 -30.4895 -30.4793 -30.4793 -30.4745 -30.4745
   -30.4729 -30.4729 -30.4705 -30.4705 -30.4257 -30.4257 -30.4224 -30.4224
   -20.3304 -20.3304 -20.3303 -20.3303 -20.3303 -20.3303 -20.3302 -20.3302
   -20.3105 -20.3105 -20.3102 -20.3102 -20.3076 -20.3075 -20.3073 -20.3073
   -20.3071 -20.3071 -20.3071 -20.3070 -20.3066 -20.3066 -20.3061 -20.3061
   -20.3056 -20.3056 -20.3048 -20.3048 -20.3044 -20.3044 -20.3041 -20.3041
   -20.2986 -20.2986 -20.2979 -20.2979 -20.2954 -20.2954 -20.2953 -20.2953
   -20.2947 -20.2947 -20.2947 -20.2947 -20.2920 -20.2920 -20.2920 -20.2920
   -20.2916 -20.2916 -20.2913 -20.2912 -20.2890 -20.2890 -20.2888 -20.2888
    -9.6787  -9.6787  -9.4207  -9.4207  -9.1343  -9.1343  -8.8764  -8.8764
    -8.6107  -8.6107  -8.5736  -8.5736  -8.5702  -8.5702  -8.4818  -8.4818
    -7.7865  -7.7865  -7.7232  -7.7232  -7.7136  -7.7136  -7.6968  -7.6968
     1.2493   1.2493   1.2761   1.2761   1.6292   1.6292   1.6362   1.6362
     2.6503   2.6503   2.9472   2.9473   3.0713   3.0713   3.1238   3.1238
     3.2277   3.2277   3.2600   3.2600   3.4180   3.4180   3.7496   3.7496
     3.8804   3.8804   4.4110   4.4110   4.7421   4.7421   4.9039   4.9039
     5.2313   5.2313   5.2812   5.2812   5.2884   5.2884   5.7431   5.7431
     5.7682   5.7682   5.9746   5.9746   6.1415   6.1415   6.2426   6.2426
     6.2813   6.2813   6.4029   6.4029   6.5095   6.5095   6.5098   6.5098
     6.7849   6.7849   6.8723   6.8723   7.0532   7.0532   7.4712   7.4712
     7.5244   7.5244   7.6805   7.6805   7.7193   7.7193   8.1381   8.1381
     9.9521   9.9521  11.1335  11.1335  11.2034  11.2034  11.5579  11.5579
    11.7462  11.7462  12.5327  12.5327  12.7010  12.7010  12.8157  12.8157
    12.9062  12.9062  13.2318  13.2318  13.4315  13.4315  14.0070  14.0070
    14.3810  14.3810  15.0834  15.0834  15.7347  15.7347  15.8285  15.8285
    16.6941  16.6941  17.8712  17.8712  18.1371

          k = 0.0000 0.1575 0.0000 ( 62231 PWs)   bands (ev):

   -66.1712 -66.1708 -66.1702 -66.1701 -66.1698 -66.1698 -66.1691 -66.1688
   -30.5462 -30.5402 -30.5393 -30.5354 -30.5333 -30.5317 -30.5300 -30.5293
   -30.5240 -30.5232 -30.5230 -30.5207 -30.4856 -30.4854 -30.4843 -30.4842
   -30.4313 -30.4294 -30.4277 -30.4275 -30.4257 -30.4249 -30.4228 -30.4202
   -20.3305 -20.3304 -20.3304 -20.3303 -20.3303 -20.3302 -20.3302 -20.3301
   -20.3104 -20.3100 -20.3100 -20.3096 -20.3081 -20.3078 -20.3076 -20.3074
   -20.3072 -20.3069 -20.3067 -20.3067 -20.3064 -20.3064 -20.3063 -20.3058
   -20.3057 -20.3053 -20.3050 -20.3048 -20.3047 -20.3045 -20.3043 -20.3040
   -20.2986 -20.2986 -20.2984 -20.2982 -20.2979 -20.2979 -20.2978 -20.2976
   -20.2935 -20.2934 -20.2932 -20.2932 -20.2932 -20.2931 -20.2930 -20.2928
   -20.2895 -20.2894 -20.2894 -20.2893 -20.2892 -20.2889 -20.2882 -20.2880
    -9.9475  -9.7314  -9.5023  -9.4905  -9.3159  -9.2969  -9.0997  -9.0882
    -8.9429  -8.7985  -8.7927  -8.7891  -7.9117  -7.8533  -7.8494  -7.8031
    -7.7985  -7.7899  -7.7735  -7.7691  -7.6575  -7.6491  -7.6379  -7.6307
     1.1110   1.1122   1.2116   1.2154   1.2340   1.2403   1.4652   1.5697
     1.8486   1.9013   1.9079   2.0493   2.3400   2.4058   2.6563   2.6578
     2.7980   2.7994   3.9885   4.0142   4.0617   4.0910   4.7552   4.7591
     4.7674   4.7746   4.7830   4.9595   5.0091   5.0279   5.0349   5.2887
     5.3000   5.4650   5.4663   5.6119   5.6179   5.6288   5.6568   5.6914
     5.8154   5.8262   5.9233   5.9383   5.9491   6.0162   6.0253   6.0997
     6.1022   6.2360   6.2576   6.5326   6.5514   6.8171   6.8423   6.8599
     6.8798   6.9098   6.9101   6.9706   6.9735   6.9790   7.3230   7.3397
     7.3540   7.3697   7.8148   7.8241   8.0304   8.0464   8.0630   8.0774
     9.2593   9.2598  10.1495  10.1509  10.1517  10.1549  12.1306  12.1599
    12.3162  12.3209  12.3297  12.3301  12.3635  12.3738  12.8842  12.9505
    13.2736  13.3076  13.3690  13.3952  13.9437  13.9904  14.0406  14.0545
    14.2529  14.6239  14.6608  15.0460  15.4289  15.4408  15.8303  16.0522
    16.0557  16.5656  17.2021  17.2167  17.5175

          k = 0.0000 0.1575 0.1667 ( 62237 PWs)   bands (ev):

   -66.1711 -66.1708 -66.1702 -66.1701 -66.1699 -66.1697 -66.1692 -66.1689
   -30.5456 -30.5406 -30.5390 -30.5336 -30.5294 -30.5285 -30.5281 -30.5244
   -30.5238 -30.5211 -30.5200 -30.5165 -30.4851 -30.4850 -30.4848 -30.4845
   -30.4379 -30.4362 -30.4338 -30.4320 -30.4274 -30.4246 -30.4235 -30.4206
   -20.3305 -20.3304 -20.3303 -20.3303 -20.3303 -20.3302 -20.3302 -20.3301
   -20.3103 -20.3100 -20.3100 -20.3096 -20.3081 -20.3077 -20.3076 -20.3074
   -20.3073 -20.3068 -20.3068 -20.3068 -20.3065 -20.3063 -20.3063 -20.3058
   -20.3057 -20.3054 -20.3050 -20.3049 -20.3047 -20.3045 -20.3044 -20.3041
   -20.2986 -20.2984 -20.2982 -20.2978 -20.2978 -20.2978 -20.2974 -20.2972
   -20.2937 -20.2935 -20.2934 -20.2933 -20.2932 -20.2931 -20.2928 -20.2927
   -20.2899 -20.2897 -20.2896 -20.2894 -20.2892 -20.2892 -20.2883 -20.2883
    -9.8971  -9.6760  -9.5071  -9.4283  -9.3108  -9.2246  -9.0592  -9.0469
    -8.9520  -8.7937  -8.7907  -8.7733  -7.9295  -7.9234  -7.9022  -7.8531
    -7.8404  -7.8176  -7.7915  -7.7777  -7.7603  -7.7587  -7.6581  -7.6397
     1.2090   1.2109   1.2383   1.2457   1.4594   1.4796   1.5812   1.7378
     1.8555   1.9003   1.9142   2.0891   2.4295   2.4969   2.6665   2.7476
     2.7899   2.8869   3.9842   4.0048   4.0787   4.1011   4.3492   4.4027
     4.7288   4.7483   4.7575   4.8190   4.8283   4.9992   5.0359   5.2328
     5.2475   5.2914   5.3395   5.4740   5.5661   5.5784   5.6507   5.7073
     5.7369   5.7880   5.8636   5.8796   5.9171   6.0684   6.0948   6.1501
     6.1927   6.3588   6.4441   6.5400   6.7228   6.7927   6.8166   6.8248
     6.8287   6.9089   6.9314   6.9469   6.9902   6.9955   7.1027   7.1054
     7.1747   7.2173   7.8212   7.8227   8.0073   8.0355   8.0394   8.0653
     9.6101   9.6269  10.1497  10.1562  10.3836  10.4058  12.1343  12.2077
    12.2437  12.2640  12.3324  12.3388  12.3793  12.4744  12.9316  12.9382
    13.0815  13.2916  13.2988  13.3678  13.8928  13.9246  13.9725  13.9893
    14.3378  14.6535  14.7701  15.1479  15.4654  15.5044  15.7979  16.0256
    16.3705  16.7244  16.9417  17.3791  17.5830

          k = 0.0000 0.1575 0.3333 ( 62284 PWs)   bands (ev):

   -66.1709 -66.1706 -66.1704 -66.1701 -66.1699 -66.1696 -66.1694 -66.1691
   -30.5444 -30.5416 -30.5378 -30.5347 -30.5280 -30.5254 -30.5253 -30.5222
   -30.5121 -30.5075 -30.5037 -30.4990 -30.4870 -30.4865 -30.4827 -30.4820
   -30.4553 -30.4546 -30.4511 -30.4500 -30.4266 -30.4243 -30.4238 -30.4215
   -20.3304 -20.3304 -20.3303 -20.3303 -20.3303 -20.3303 -20.3302 -20.3302
   -20.3103 -20.3101 -20.3099 -20.3097 -20.3079 -20.3075 -20.3074 -20.3074
   -20.3072 -20.3070 -20.3069 -20.3068 -20.3067 -20.3064 -20.3062 -20.3059
   -20.3056 -20.3055 -20.3050 -20.3048 -20.3048 -20.3045 -20.3045 -20.3042
   -20.2986 -20.2985 -20.2980 -20.2978 -20.2968 -20.2967 -20.2961 -20.2960
   -20.2943 -20.2942 -20.2938 -20.2937 -20.2928 -20.2927 -20.2923 -20.2922
   -20.2909 -20.2907 -20.2905 -20.2902 -20.2893 -20.2890 -20.2887 -20.2886
    -9.7756  -9.5584  -9.5483  -9.3531  -9.2431  -8.9851  -8.9647  -8.9398
    -8.8994  -8.8077  -8.7508  -8.6924  -8.2405  -8.2299  -8.1504  -8.1178
    -7.8873  -7.8630  -7.8334  -7.8084  -7.7519  -7.7333  -7.6828  -7.6643
     1.2495   1.2600   1.2644   1.2769   1.7844   1.8094   1.8857   1.8974
     2.1868   2.2477   2.3886   2.4952   2.6892   2.6894   2.7519   2.7860
     2.9913   3.1107   3.6989   3.7811   3.8526   3.8845   4.0872   4.1010
     4.2487   4.3516   4.5383   4.6881   4.7415   4.7718   4.7902   4.9302
     5.0564   5.1036   5.1073   5.1693   5.3855   5.3967   5.4630   5.6557
     5.7172   5.7842   5.8437   5.8975   5.9533   6.1161   6.1698   6.2091
     6.3290   6.5028   6.5418   6.5549   6.5781   6.6712   6.7248   6.7652
     6.8353   6.8363   6.9198   6.9352   6.9786   7.0134   7.0695   7.0898
     7.2969   7.3401   7.7476   7.7605   7.8843   7.9170   8.0554   8.0679
    10.1331  10.1500  10.3390  10.4098  10.9579  11.0310  11.8226  11.8701
    12.0578  12.3439  12.4386  12.4753  12.5201  12.5491  12.6442  12.7363
    12.9041  13.1246  13.1828  13.3696  13.5515  13.6046  13.9859  13.9886
    14.5166  14.6384  15.1253  15.4112  15.6148  15.6944  15.9415  15.9437
    16.4026  17.1943  17.2241  17.4824  17.8088

          k = 0.0000 0.1575-0.5000 ( 62234 PWs)   bands (ev):

   -66.1707 -66.1707 -66.1703 -66.1703 -66.1696 -66.1696 -66.1693 -66.1693
   -30.5430 -30.5430 -30.5362 -30.5362 -30.5267 -30.5267 -30.5237 -30.5237
   -30.4940 -30.4940 -30.4918 -30.4918 -30.4794 -30.4794 -30.4747 -30.4747
   -30.4746 -30.4746 -30.4718 -30.4718 -30.4255 -30.4255 -30.4227 -30.4227
   -20.3304 -20.3304 -20.3303 -20.3303 -20.3303 -20.3303 -20.3302 -20.3302
   -20.3102 -20.3102 -20.3098 -20.3098 -20.3076 -20.3076 -20.3073 -20.3073
   -20.3071 -20.3071 -20.3070 -20.3070 -20.3066 -20.3066 -20.3061 -20.3061
   -20.3056 -20.3056 -20.3049 -20.3049 -20.3047 -20.3047 -20.3044 -20.3044
   -20.2985 -20.2985 -20.2979 -20.2979 -20.2954 -20.2954 -20.2953 -20.2953
   -20.2947 -20.2947 -20.2947 -20.2947 -20.2920 -20.2920 -20.2920 -20.2920
   -20.2916 -20.2916 -20.2913 -20.2913 -20.2890 -20.2890 -20.2888 -20.2888
    -9.6490  -9.6489  -9.4296  -9.4296  -9.0689  -9.0689  -8.8391  -8.8391
    -8.6140  -8.6139  -8.5779  -8.5779  -8.5650  -8.5650  -8.4729  -8.4729
    -7.8763  -7.8763  -7.8217  -7.8217  -7.7171  -7.7171  -7.6985  -7.6985
     1.2626   1.2626   1.2760   1.2760   1.8178   1.8178   1.8985   1.8985
     2.7169   2.7169   2.9619   2.9619   3.0645   3.0645   3.1556   3.1556
     3.2437   3.2438   3.2571   3.2571   3.4086   3.4087   3.7574   3.7574
     3.9321   3.9321   4.2284   4.2284   4.6031   4.6032   4.7696   4.7696
     5.1001   5.1001   5.2597   5.2598   5.2693   5.2693   5.5077   5.5077
     5.7357   5.7357   5.8737   5.8737   6.1362   6.1363   6.2784   6.2784
     6.3140   6.3140   6.4273   6.4273   6.4999   6.4999   6.6907   6.6907
     6.8551   6.8551   6.8800   6.8800   6.9616   6.9616   7.4824   7.4824
     7.5191   7.5191   7.6577   7.6577   7.6880   7.6880   8.0665   8.0665
    10.1480  10.1480  11.1388  11.1388  11.2015  11.2015  11.6221  11.6221
    11.8055  11.8055  12.3971  12.3971  12.6790  12.6790  12.8252  12.8252
    12.8419  12.8419  13.1354  13.1354  13.4041  13.4041  13.9857  13.9857
    14.6046  14.6046  15.4578  15.4578  15.8032  15.8032  15.8656  15.8656
    16.7365  16.7365  17.6746  17.6746  18.1807

          k = 0.0000 0.3150 0.0000 ( 62175 PWs)   bands (ev):

   -66.1711 -66.1709 -66.1701 -66.1701 -66.1699 -66.1699 -66.1691 -66.1689
   -30.5400 -30.5351 -30.5331 -30.5326 -30.5319 -30.5303 -30.5297 -30.5251
   -30.5229 -30.5200 -30.5183 -30.5168 -30.4958 -30.4956 -30.4943 -30.4943
   -30.4309 -30.4299 -30.4272 -30.4271 -30.4260 -30.4256 -30.4224 -30.4209
   -20.3305 -20.3304 -20.3303 -20.3303 -20.3303 -20.3302 -20.3302 -20.3301
   -20.3096 -20.3092 -20.3091 -20.3087 -20.3083 -20.3079 -20.3075 -20.3074
   -20.3071 -20.3070 -20.3068 -20.3066 -20.3065 -20.3063 -20.3062 -20.3058
   -20.3057 -20.3057 -20.3054 -20.3052 -20.3051 -20.3050 -20.3048 -20.3047
   -20.2986 -20.2985 -20.2982 -20.2982 -20.2980 -20.2979 -20.2978 -20.2977
   -20.2935 -20.2933 -20.2933 -20.2932 -20.2932 -20.2932 -20.2929 -20.2929
   -20.2895 -20.2893 -20.2893 -20.2893 -20.2893 -20.2890 -20.2882 -20.2881
    -9.8860  -9.7637  -9.4381  -9.4237  -9.3374  -9.3191  -9.0973  -9.0906
    -8.7372  -8.6472  -8.6466  -8.6450  -8.1478  -8.1025  -8.0997  -8.0722
    -7.7942  -7.7902  -7.7774  -7.7738  -7.6536  -7.6461  -7.6425  -7.6350
     1.1112   1.1118   1.2148   1.2156   1.2384   1.2403   1.5399   1.5673
     2.3531   2.3915   2.4100   2.5498   2.5605   2.7133   2.8656   2.8733
     2.9928   3.0033   3.6106   3.6393   3.6518   3.6817   4.1563   4.4827
     4.4945   4.7594   4.7644   4.7725   4.7885   4.7951   5.0992   5.1073
     5.1272   5.1373   5.3882   5.3931   5.6322   5.6367   5.6640   5.6718
     5.8796   5.8917   5.8935   5.8973   6.0134   6.0147   6.0337   6.1175
     6.1220   6.1937   6.2279   6.5019   6.5959   6.6085   6.8232   6.8252
     6.8737   6.9474   7.1082   7.1107   7.1179   7.1258   7.3365   7.3399
     7.3661   7.3694   7.8066   7.8155   7.8478   7.8479   7.8638   7.8701
     9.2607   9.2611  10.6071  10.6200  10.6589  10.6639  11.7559  11.7856
    11.8895  11.9014  12.3394  12.3529  12.3608  12.3698  12.9082  12.9459
    13.3777  13.3984  13.4323  13.4572  13.8034  13.8083  13.8125  13.8409
    14.8352  15.2115  15.2177  15.4296  15.4365  15.6061  15.9326  15.9402
    16.0128  16.8270  17.2129  17.6419  17.6584

          k = 0.0000 0.3150 0.1667 ( 62260 PWs)   bands (ev):

   -66.1710 -66.1708 -66.1701 -66.1700 -66.1700 -66.1698 -66.1691 -66.1689
   -30.5388 -30.5334 -30.5312 -30.5306 -30.5284 -30.5274 -30.5255 -30.5237
   -30.5233 -30.5174 -30.5166 -30.5145 -30.4953 -30.4951 -30.4946 -30.4943
   -30.4376 -30.4367 -30.4335 -30.4324 -30.4269 -30.4253 -30.4229 -30.4213
   -20.3305 -20.3304 -20.3303 -20.3303 -20.3303 -20.3303 -20.3302 -20.3301
   -20.3096 -20.3092 -20.3091 -20.3088 -20.3083 -20.3078 -20.3075 -20.3074
   -20.3071 -20.3070 -20.3068 -20.3066 -20.3064 -20.3063 -20.3063 -20.3059
   -20.3058 -20.3057 -20.3054 -20.3052 -20.3051 -20.3051 -20.3048 -20.3048
   -20.2985 -20.2983 -20.2983 -20.2979 -20.2979 -20.2978 -20.2973 -20.2972
   -20.2937 -20.2935 -20.2934 -20.2933 -20.2932 -20.2931 -20.2928 -20.2927
   -20.2898 -20.2897 -20.2895 -20.2894 -20.2893 -20.2892 -20.2883 -20.2883
    -9.8334  -9.7085  -9.4399  -9.3558  -9.3335  -9.2467  -9.0564  -9.0494
    -8.7460  -8.6505  -8.6423  -8.6352  -8.1487  -8.1128  -8.0973  -8.0802
    -7.9190  -7.9037  -7.7877  -7.7792  -7.7707  -7.7631  -7.6552  -7.6440
     1.2106   1.2109   1.2435   1.2457   1.4744   1.4793   1.6987   1.7350
     2.4113   2.4438   2.4822   2.5294   2.5574   2.7007   2.8732   2.9756
     2.9855   3.0984   3.6404   3.6521   3.6725   3.6986   4.1448   4.3643
     4.3779   4.4980   4.5067   4.7756   4.7972   4.8268   4.8451   4.9134
     5.0880   5.1422   5.1844   5.2895   5.4349   5.4517   5.6166   5.6334
     5.6881   5.7469   5.7876   5.8778   6.0314   6.0771   6.0845   6.1137
     6.2359   6.3777   6.3982   6.5698   6.5952   6.8102   6.8521   6.9048
     6.9447   6.9558   7.0666   7.0711   7.0931   7.1001   7.1049   7.1492
     7.2280   7.2349   7.8046   7.8094   7.8254   7.8454   7.8486   7.8615
     9.6188   9.6280  10.6245  10.6650  10.7902  10.8311  11.7837  11.8521
    11.9024  11.9700  12.2440  12.2591  12.4022  12.4256  12.9510  12.9593
    13.1890  13.3363  13.3753  13.4287  13.6584  13.7147  13.8032  13.8068
    14.9583  15.2059  15.4249  15.4593  15.5113  15.6783  15.9084  16.1779
    16.2459  16.7913  17.2798  17.3367  17.7489

          k = 0.0000 0.3150 0.3333 ( 62269 PWs)   bands (ev):

   -66.1708 -66.1706 -66.1703 -66.1701 -66.1698 -66.1696 -66.1693 -66.1691
   -30.5373 -30.5344 -30.5292 -30.5283 -30.5265 -30.5246 -30.5222 -30.5184
   -30.5132 -30.5093 -30.5031 -30.4987 -30.4966 -30.4963 -30.4914 -30.4901
   -30.4555 -30.4549 -30.4511 -30.4504 -30.4261 -30.4245 -30.4238 -30.4222
   -20.3304 -20.3304 -20.3303 -20.3303 -20.3303 -20.3303 -20.3302 -20.3302
   -20.3095 -20.3092 -20.3091 -20.3089 -20.3081 -20.3076 -20.3076 -20.3073
   -20.3072 -20.3070 -20.3068 -20.3067 -20.3065 -20.3064 -20.3063 -20.3060
   -20.3058 -20.3056 -20.3055 -20.3053 -20.3051 -20.3051 -20.3049 -20.3049
   -20.2985 -20.2983 -20.2981 -20.2980 -20.2968 -20.2967 -20.2961 -20.2960
   -20.2943 -20.2942 -20.2938 -20.2938 -20.2928 -20.2927 -20.2923 -20.2922
   -20.2909 -20.2908 -20.2904 -20.2902 -20.2892 -20.2891 -20.2887 -20.2886
    -9.7076  -9.5799  -9.4899  -9.3777  -9.1359  -8.9888  -8.9233  -8.9039
    -8.7819  -8.6695  -8.6213  -8.5890  -8.2710  -8.2287  -8.2222  -8.1114
    -8.1102  -8.0934  -8.0714  -8.0153  -7.7497  -7.7379  -7.6801  -7.6687
     1.2568   1.2598   1.2732   1.2766   2.1328   2.1833   2.2600   2.3855
     2.4244   2.5278   2.5586   2.6960   2.7446   2.7606   2.8937   2.9704
     3.2187   3.3034   3.6080   3.6444   3.6923   3.7474   3.7878   3.7903
     4.1208   4.3112   4.3924   4.4248   4.4748   4.5798   4.5977   4.7403
     4.7738   4.8622   5.0071   5.1174   5.1176   5.2020   5.2230   5.3542
     5.3825   5.5522   5.6916   5.8380   6.1167   6.1591   6.1810   6.2206
     6.4068   6.5463   6.5777   6.6067   6.6542   6.7807   6.7822   6.7911
     6.8962   6.9565   7.0288   7.0555   7.0799   7.1305   7.1700   7.1947
     7.2739   7.3286   7.7322   7.7468   7.7480   7.7588   7.8443   7.8599
    10.3560  10.3675  10.6376  10.6731  11.2646  11.3059  11.7522  11.8557
    11.8636  11.9345  12.1478  12.2074  12.5596  12.6126  12.6235  12.6874
    12.8760  13.1289  13.1396  13.3354  13.4247  13.4911  13.7959  13.8047
    15.0940  15.1848  15.5693  15.8354  15.9017  15.9319  16.0338  16.6687
    16.6956  16.7975  17.0638  17.5093  17.6673

          k = 0.0000 0.3150-0.5000 ( 62306 PWs)   bands (ev):

   -66.1706 -66.1706 -66.1704 -66.1704 -66.1696 -66.1696 -66.1694 -66.1694
   -30.5358 -30.5358 -30.5278 -30.5278 -30.5261 -30.5261 -30.5200 -30.5200
   -30.5007 -30.5006 -30.4995 -30.4995 -30.4795 -30.4795 -30.4779 -30.4779
   -30.4748 -30.4748 -30.4740 -30.4740 -30.4249 -30.4249 -30.4233 -30.4233
   -20.3304 -20.3304 -20.3303 -20.3303 -20.3303 -20.3303 -20.3302 -20.3302
   -20.3094 -20.3094 -20.3090 -20.3090 -20.3078 -20.3078 -20.3074 -20.3074
   -20.3071 -20.3071 -20.3068 -20.3068 -20.3066 -20.3066 -20.3062 -20.3062
   -20.3057 -20.3057 -20.3054 -20.3054 -20.3050 -20.3050 -20.3050 -20.3050
   -20.2984 -20.2984 -20.2981 -20.2980 -20.2954 -20.2954 -20.2953 -20.2953
   -20.2947 -20.2947 -20.2947 -20.2947 -20.2920 -20.2920 -20.2920 -20.2920
   -20.2915 -20.2915 -20.2913 -20.2913 -20.2890 -20.2890 -20.2889 -20.2889
    -9.5793  -9.5793  -9.4576  -9.4576  -8.8953  -8.8953  -8.7379  -8.7379
    -8.6262  -8.6262  -8.6078  -8.6078  -8.5218  -8.5218  -8.4359  -8.4359
    -8.1080  -8.1080  -8.0662  -8.0662  -7.7146  -7.7146  -7.7029  -7.7029
     1.2719   1.2719   1.2758   1.2758   2.4092   2.4092   2.5418   2.5418
     2.9046   2.9046   3.0055   3.0055   3.0457   3.0457   3.2043   3.2043
     3.2487   3.2487   3.3181   3.3181   3.3739   3.3739   3.6339   3.6339
     4.0594   4.0595   4.0979   4.0979   4.1178   4.1178   4.3548   4.3548
     4.8304   4.8304   4.9567   4.9567   5.1730   5.1730   5.2389   5.2390
     5.3772   5.3772   5.7640   5.7640   6.2414   6.2414   6.2891   6.2891
     6.4324   6.4324   6.4755   6.4755   6.5230   6.5230   6.7405   6.7405
     7.0572   7.0572   7.0633   7.0633   7.1049   7.1049   7.4980   7.4980
     7.5051   7.5051   7.5657   7.5657   7.5935   7.5935   7.8523   7.8523
    10.6404  10.6404  11.1508  11.1508  11.1982  11.1982  11.6989  11.6989
    11.9877  11.9877  12.1169  12.1169  12.5527  12.5527  12.6126  12.6126
    12.8443  12.8443  12.9541  12.9541  13.4278  13.4278  13.7973  13.7973
    15.1485  15.1485  15.7156  15.7156  16.2701  16.2701  16.4185  16.4185
    16.8982  16.8982  17.2942  17.2942  17.9601

          k = 0.0000-0.4725 0.0000 ( 62212 PWs)   bands (ev):

   -66.1710 -66.1710 -66.1700 -66.1700 -66.1700 -66.1700 -66.1690 -66.1690
   -30.5358 -30.5358 -30.5315 -30.5315 -30.5299 -30.5299 -30.5276 -30.5276
   -30.5093 -30.5092 -30.5091 -30.5091 -30.5078 -30.5078 -30.5071 -30.5070
   -30.4304 -30.4304 -30.4266 -30.4266 -30.4264 -30.4264 -30.4217 -30.4216
   -20.3305 -20.3305 -20.3303 -20.3303 -20.3303 -20.3303 -20.3302 -20.3301
   -20.3088 -20.3088 -20.3084 -20.3083 -20.3081 -20.3081 -20.3077 -20.3077
   -20.3069 -20.3069 -20.3065 -20.3065 -20.3065 -20.3065 -20.3064 -20.3064
   -20.3059 -20.3058 -20.3057 -20.3057 -20.3053 -20.3053 -20.3049 -20.3049
   -20.2985 -20.2985 -20.2982 -20.2982 -20.2981 -20.2981 -20.2978 -20.2978
   -20.2934 -20.2934 -20.2933 -20.2933 -20.2932 -20.2932 -20.2929 -20.2929
   -20.2894 -20.2894 -20.2893 -20.2893 -20.2891 -20.2891 -20.2882 -20.2881
    -9.8176  -9.8176  -9.3775  -9.3775  -9.3607  -9.3607  -9.0940  -9.0940
    -8.4460  -8.4460  -8.3997  -8.3997  -8.3981  -8.3981  -8.3933  -8.3933
    -7.7895  -7.7895  -7.7786  -7.7786  -7.6481  -7.6481  -7.6407  -7.6407
     1.1114   1.1114   1.2156   1.2156   1.2399   1.2399   1.5606   1.5606
     2.3723   2.3723   3.1391   3.1391   3.1986   3.1986   3.2589   3.2589
     3.2767   3.2767   3.3152   3.3152   3.5180   3.5180   3.5334   3.5335
     3.7098   3.7098   4.7695   4.7696   4.7740   4.7740   5.2470   5.2471
     5.2691   5.2691   5.3677   5.3677   5.3813   5.3813   5.7491   5.7491
     5.7581   5.7581   5.9692   5.9692   5.9969   5.9969   6.1362   6.1362
     6.1553   6.1553   6.2524   6.2524   6.6941   6.6941   6.7012   6.7012
     6.9118   6.9118   7.3304   7.3304   7.3466   7.3466   7.4812   7.4812
     7.4831   7.4831   7.5444   7.5445   7.5467   7.5467   7.8229   7.8229
     9.2613   9.2613  11.1993  11.1993  11.2230  11.2230  11.2814  11.2814
    11.3113  11.3113  12.3536  12.3536  12.3650  12.3650  12.9319  12.9319
    13.5511  13.5512  13.5845  13.5845  13.5881  13.5881  13.6143  13.6143
    15.4113  15.4113  15.4472  15.4472  15.6778  15.6778  15.6883  15.6883
    16.4852  16.4852  17.9899  18.0453  18.0473

          k = 0.0000-0.4725 0.1667 ( 62246 PWs)   bands (ev):

   -66.1709 -66.1709 -66.1701 -66.1700 -66.1699 -66.1699 -66.1690 -66.1690
   -30.5333 -30.5333 -30.5283 -30.5283 -30.5279 -30.5279 -30.5247 -30.5246
   -30.5093 -30.5092 -30.5079 -30.5079 -30.5073 -30.5073 -30.5065 -30.5065
   -30.4372 -30.4372 -30.4329 -30.4329 -30.4261 -30.4261 -30.4221 -30.4221
   -20.3305 -20.3304 -20.3303 -20.3303 -20.3303 -20.3303 -20.3302 -20.3302
   -20.3088 -20.3087 -20.3083 -20.3083 -20.3081 -20.3081 -20.3077 -20.3077
   -20.3069 -20.3069 -20.3065 -20.3065 -20.3064 -20.3064 -20.3064 -20.3064
   -20.3059 -20.3059 -20.3057 -20.3057 -20.3052 -20.3052 -20.3049 -20.3049
   -20.2984 -20.2984 -20.2981 -20.2981 -20.2979 -20.2979 -20.2973 -20.2973
   -20.2936 -20.2936 -20.2933 -20.2933 -20.2932 -20.2931 -20.2927 -20.2927
   -20.2898 -20.2898 -20.2894 -20.2894 -20.2893 -20.2893 -20.2883 -20.2883
    -9.7632  -9.7632  -9.3760  -9.3760  -9.2891  -9.2891  -9.0529  -9.0529
    -8.4514  -8.4514  -8.4065  -8.4065  -8.3946  -8.3946  -8.3929  -8.3929
    -7.9125  -7.9125  -7.7826  -7.7826  -7.7685  -7.7685  -7.6497  -7.6497
     1.2109   1.2109   1.2452   1.2452   1.4783   1.4783   1.7267   1.7267
     2.4627   2.4627   3.1553   3.1553   3.2000   3.2000   3.2732   3.2732
     3.3020   3.3020   3.3207   3.3207   3.5250   3.5250   3.5673   3.5673
     3.7358   3.7358   4.3835   4.3835   4.8227   4.8227   4.9957   4.9957
     5.1636   5.1637   5.2330   5.2330   5.3858   5.3858   5.4844   5.4844
     5.7250   5.7250   5.7546   5.7546   6.0850   6.0850   6.1067   6.1067
     6.3623   6.3623   6.3980   6.3980   6.6878   6.6878   6.8890   6.8890
     6.9804   6.9804   7.0977   7.0977   7.1651   7.1651   7.4689   7.4689
     7.4910   7.4910   7.5212   7.5212   7.5348   7.5348   7.8263   7.8263
     9.6251   9.6251  11.2266  11.2266  11.2979  11.2979  11.3311  11.3311
    11.4112  11.4112  12.2524  12.2524  12.4154  12.4155  12.9667  12.9667
    13.3768  13.3768  13.4594  13.4594  13.5832  13.5832  13.6002  13.6002
    15.4056  15.4056  15.6452  15.6452  15.6707  15.6707  15.9630  15.9630
    16.5489  16.5489  17.8893  17.8894  18.0087

          k = 0.0000-0.4725 0.3333 ( 62268 PWs)   bands (ev):

   -66.1707 -66.1707 -66.1702 -66.1702 -66.1697 -66.1697 -66.1692 -66.1692
   -30.5317 -30.5317 -30.5289 -30.5289 -30.5177 -30.5177 -30.5156 -30.5156
   -30.5104 -30.5103 -30.5088 -30.5088 -30.4999 -30.4998 -30.4967 -30.4967
   -30.4553 -30.4553 -30.4508 -30.4508 -30.4253 -30.4253 -30.4230 -30.4230
   -20.3304 -20.3304 -20.3303 -20.3303 -20.3303 -20.3303 -20.3302 -20.3302
   -20.3086 -20.3086 -20.3083 -20.3083 -20.3082 -20.3082 -20.3079 -20.3078
   -20.3068 -20.3068 -20.3066 -20.3065 -20.3065 -20.3065 -20.3063 -20.3063
   -20.3061 -20.3061 -20.3059 -20.3059 -20.3052 -20.3052 -20.3050 -20.3050
   -20.2983 -20.2983 -20.2982 -20.2982 -20.2968 -20.2968 -20.2961 -20.2961
   -20.2942 -20.2942 -20.2938 -20.2938 -20.2928 -20.2928 -20.2923 -20.2923
   -20.2908 -20.2908 -20.2903 -20.2903 -20.2892 -20.2892 -20.2886 -20.2886
    -9.6346  -9.6346  -9.4232  -9.4231  -9.0412  -9.0412  -8.9115  -8.9115
    -8.4933  -8.4933  -8.4437  -8.4437  -8.3907  -8.3906  -8.3749  -8.3748
    -8.2008  -8.2008  -8.0922  -8.0922  -7.7440  -7.7440  -7.6745  -7.6745
     1.2591   1.2592   1.2758   1.2758   2.1750   2.1750   2.3680   2.3680
     2.7251   2.7251   3.1706   3.1706   3.2147   3.2147   3.2741   3.2741
     3.2879   3.2879   3.4080   3.4080   3.5064   3.5064   3.7012   3.7012
     3.7705   3.7705   3.7862   3.7862   4.4799   4.4799   4.6342   4.6342
     4.7837   4.7838   4.8361   4.8361   5.1605   5.1605   5.2774   5.2774
     5.4240   5.4240   5.6468   5.6468   6.1585   6.1585   6.2236   6.2236
     6.5027   6.5027   6.6061   6.6061   6.6678   6.6678   6.8054   6.8054
     6.9855   6.9855   7.1840   7.1841   7.1857   7.1857   7.4437   7.4437
     7.4773   7.4773   7.5092   7.5092   7.5173   7.5173   7.7641   7.7641
    10.3692  10.3692  11.2381  11.2381  11.2842  11.2842  11.7091  11.7091
    11.7630  11.7630  11.8607  11.8607  12.5800  12.5800  12.7609  12.7609
    12.9031  12.9031  13.1907  13.1907  13.5723  13.5723  13.5893  13.5893
    15.4378  15.4378  15.6094  15.6094  16.2687  16.2687  16.6770  16.6770
    16.7735  16.7735  17.3722  17.3722  17.8489

          k = 0.0000-0.4725-0.5000 ( 62284 PWs)   bands (ev):

   -66.1705 -66.1705 -66.1705 -66.1705 -66.1695 -66.1695 -66.1695 -66.1695
   -30.5303 -30.5303 -30.5303 -30.5303 -30.5127 -30.5127 -30.5127 -30.5127
   -30.5109 -30.5109 -30.5109 -30.5109 -30.4793 -30.4793 -30.4793 -30.4793
   -30.4748 -30.4748 -30.4748 -30.4748 -30.4242 -30.4242 -30.4242 -30.4242
   -20.3304 -20.3304 -20.3304 -20.3304 -20.3302 -20.3302 -20.3302 -20.3302
   -20.3084 -20.3084 -20.3084 -20.3084 -20.3080 -20.3080 -20.3080 -20.3080
   -20.3067 -20.3067 -20.3067 -20.3067 -20.3063 -20.3063 -20.3063 -20.3063
   -20.3061 -20.3061 -20.3061 -20.3061 -20.3051 -20.3051 -20.3051 -20.3051
   -20.2982 -20.2982 -20.2982 -20.2982 -20.2954 -20.2954 -20.2954 -20.2954
   -20.2947 -20.2947 -20.2947 -20.2947 -20.2920 -20.2920 -20.2920 -20.2920
   -20.2914 -20.2914 -20.2914 -20.2914 -20.2889 -20.2889 -20.2889 -20.2889
    -9.5081  -9.5081  -9.5081  -9.5081  -8.7051  -8.7051  -8.7051  -8.7051
    -8.6526  -8.6526  -8.6526  -8.6526  -8.3655  -8.3655  -8.3654  -8.3654
    -8.3167  -8.3166  -8.3166  -8.3166  -7.7089  -7.7089  -7.7089  -7.7089
     1.2748   1.2748   1.2748   1.2748   2.9735   2.9735   2.9735   2.9735
     3.1171   3.1171   3.1171   3.1171   3.2132   3.2132   3.2132   3.2132
     3.2701   3.2701   3.2701   3.2701   3.4452   3.4452   3.4452   3.4452
     3.6221   3.6221   3.6221   3.6221   4.3118   4.3118   4.3119   4.3119
     4.4259   4.4259   4.4259   4.4259   5.2164   5.2164   5.2164   5.2164
     5.5153   5.5154   5.5154   5.5154   6.2834   6.2834   6.2834   6.2834
     6.4791   6.4792   6.4792   6.4792   6.6150   6.6150   6.6150   6.6150
     7.2930   7.2930   7.2930   7.2931   7.3790   7.3790   7.3790   7.3790
     7.4635   7.4635   7.4635   7.4635   7.5841   7.5841   7.5841   7.5841
    11.1338  11.1338  11.1338  11.1338  11.3016  11.3016  11.3016  11.3016
    12.2607  12.2607  12.2607  12.2607  12.2898  12.2898  12.2898  12.2898
    12.8713  12.8713  12.8713  12.8713  13.5745  13.5745  13.5745  13.5745
    15.5257  15.5258  15.5258  15.5258  16.8805  16.8805  16.8805  16.8805
    17.3395  17.3397  17.3398  17.3399  17.4582

          k = 0.1667 0.0000 0.1667 ( 62234 PWs)   bands (ev):

   -66.1711 -66.1707 -66.1702 -66.1702 -66.1698 -66.1698 -66.1693 -66.1689
   -30.5479 -30.5432 -30.5427 -30.5378 -30.5288 -30.5245 -30.5242 -30.5222
   -30.5204 -30.5176 -30.5159 -30.5150 -30.4818 -30.4816 -30.4805 -30.4803
   -30.4378 -30.4359 -30.4353 -30.4334 -30.4329 -30.4305 -30.4297 -30.4266
   -20.3305 -20.3304 -20.3304 -20.3303 -20.3303 -20.3302 -20.3302 -20.3301
   -20.3106 -20.3103 -20.3103 -20.3100 -20.3080 -20.3078 -20.3075 -20.3075
   -20.3072 -20.3069 -20.3067 -20.3067 -20.3066 -20.3063 -20.3061 -20.3057
   -20.3057 -20.3054 -20.3050 -20.3048 -20.3045 -20.3042 -20.3041 -20.3038
   -20.2983 -20.2983 -20.2979 -20.2978 -20.2975 -20.2973 -20.2973 -20.2971
   -20.2939 -20.2936 -20.2934 -20.2932 -20.2932 -20.2932 -20.2927 -20.2925
   -20.2902 -20.2900 -20.2897 -20.2896 -20.2896 -20.2892 -20.2886 -20.2884
    -9.8726  -9.6073  -9.4775  -9.4682  -9.2316  -9.2131  -9.0350  -9.0214
    -9.0072  -8.8299  -8.8195  -8.8140  -7.9214  -7.9160  -7.8940  -7.8901
    -7.8330  -7.8204  -7.7820  -7.7754  -7.7580  -7.7411  -7.7411  -7.7043
     1.3753   1.3777   1.4344   1.4481   1.4623   1.4856   1.5088   1.6608
     1.7013   1.7127   1.8353   2.0147   2.5144   2.5973   2.6818   2.6848
     2.7974   2.8256   4.0755   4.0892   4.2779   4.2826   4.4454   4.4516
     4.4657   4.4701   4.6748   4.6913   4.7383   4.8302   5.0403   5.2297
     5.2653   5.3005   5.3514   5.5032   5.5252   5.6067   5.6120   5.7047
     5.7060   5.7427   5.7448   5.8043   5.8673   6.0236   6.2949   6.3947
     6.4042   6.4454   6.5123   6.6555   6.6725   6.7001   6.7307   6.7526
     6.7547   6.8278   6.8332   6.8533   6.8853   6.9676   6.9754   7.0816
     7.2410   7.2987   7.8161   7.8164   8.0394   8.0833   8.0984   8.1159
     9.8341   9.8938  10.2039  10.2187  10.2320  10.3179  12.2517  12.2711
    12.2803  12.2975  12.3245  12.3629  12.5615  12.5750  12.8912  12.9520
    13.0377  13.1582  13.1698  13.3517  13.8648  13.9245  13.9884  14.0273
    14.1493  14.4545  14.4963  15.1403  15.3600  15.5585  15.5717  16.3716
    16.3742  16.9887  16.9932  17.1727  17.6014

          k = 0.1667 0.0000 0.3333 ( 62265 PWs)   bands (ev):

   -66.1709 -66.1705 -66.1704 -66.1700 -66.1700 -66.1696 -66.1695 -66.1691
   -30.5468 -30.5442 -30.5417 -30.5388 -30.5216 -30.5214 -30.5176 -30.5167
   -30.5116 -30.5075 -30.5033 -30.4993 -30.4837 -30.4827 -30.4798 -30.4781
   -30.4549 -30.4542 -30.4514 -30.4502 -30.4334 -30.4311 -30.4300 -30.4277
   -20.3304 -20.3304 -20.3303 -20.3303 -20.3303 -20.3303 -20.3302 -20.3302
   -20.3106 -20.3104 -20.3103 -20.3101 -20.3078 -20.3076 -20.3074 -20.3073
   -20.3073 -20.3070 -20.3069 -20.3068 -20.3067 -20.3064 -20.3061 -20.3058
   -20.3057 -20.3055 -20.3050 -20.3048 -20.3045 -20.3042 -20.3042 -20.3040
   -20.2982 -20.2981 -20.2976 -20.2975 -20.2967 -20.2965 -20.2962 -20.2960
   -20.2943 -20.2942 -20.2938 -20.2938 -20.2930 -20.2929 -20.2923 -20.2920
   -20.2911 -20.2909 -20.2905 -20.2901 -20.2896 -20.2894 -20.2889 -20.2889
    -9.7461  -9.5204  -9.4653  -9.3062  -9.2558  -9.0683  -8.9722  -8.9137
    -8.8741  -8.8265  -8.7834  -8.7257  -8.2256  -8.2228  -8.1552  -8.1311
    -7.8853  -7.8649  -7.8193  -7.8043  -7.7727  -7.7528  -7.7383  -7.7136
     1.4446   1.4453   1.5227   1.5323   1.6040   1.6439   1.6445   1.7067
     2.1942   2.2366   2.3745   2.4631   2.7062   2.7737   2.8058   2.8824
     2.9231   3.0490   3.7467   3.8575   3.8746   3.9153   4.1766   4.2508
     4.2580   4.4706   4.4942   4.5754   4.6152   4.6863   4.7222   4.8615
     4.9912   5.0043   5.0615   5.1723   5.2601   5.3619   5.5776   5.6433
     5.7296   5.7451   5.8038   5.8723   5.8779   6.0180   6.1083   6.1376
     6.4158   6.4581   6.5259   6.5660   6.5822   6.6642   6.7049   6.7245
     6.7760   6.8586   6.8693   6.8753   7.0856   7.1024   7.1408   7.1906
     7.3131   7.3678   7.7513   7.7641   7.9353   7.9774   8.0895   8.1009
    10.2004  10.2061  10.4854  10.5471  10.8538  10.9596  11.8809  11.9250
    12.1424  12.4144  12.4462  12.4888  12.5263  12.5732  12.7397  12.8150
    12.8628  13.0533  13.0698  13.2642  13.6315  13.6510  13.9150  13.9467
    14.2956  14.4701  14.7603  15.2561  15.4512  15.8295  16.0087  16.2793
    16.4326  17.2360  17.4617  17.5398  17.6292

          k = 0.1667 0.0000-0.5000 ( 62322 PWs)   bands (ev):

   -66.1706 -66.1706 -66.1702 -66.1702 -66.1697 -66.1697 -66.1693 -66.1693
   -30.5455 -30.5455 -30.5403 -30.5403 -30.5210 -30.5210 -30.5174 -30.5174
   -30.4920 -30.4920 -30.4896 -30.4896 -30.4790 -30.4790 -30.4749 -30.4749
   -30.4730 -30.4730 -30.4705 -30.4705 -30.4323 -30.4323 -30.4289 -30.4289
   -20.3304 -20.3304 -20.3303 -20.3303 -20.3303 -20.3303 -20.3302 -20.3302
   -20.3105 -20.3105 -20.3102 -20.3102 -20.3076 -20.3076 -20.3073 -20.3073
   -20.3071 -20.3071 -20.3071 -20.3071 -20.3065 -20.3065 -20.3060 -20.3059
   -20.3056 -20.3056 -20.3049 -20.3049 -20.3044 -20.3044 -20.3041 -20.3041
   -20.2982 -20.2982 -20.2975 -20.2975 -20.2953 -20.2953 -20.2953 -20.2953
   -20.2948 -20.2948 -20.2947 -20.2947 -20.2923 -20.2923 -20.2921 -20.2921
   -20.2915 -20.2915 -20.2912 -20.2912 -20.2894 -20.2894 -20.2892 -20.2892
    -9.6140  -9.6140  -9.3354  -9.3354  -9.1481  -9.1481  -8.8492  -8.8492
    -8.6067  -8.6067  -8.5983  -8.5983  -8.5482  -8.5482  -8.4847  -8.4847
    -7.8533  -7.8533  -7.8309  -7.8309  -7.7661  -7.7661  -7.7261  -7.7261
     1.4450   1.4450   1.5396   1.5396   1.6266   1.6266   1.6973   1.6973
     2.7295   2.7295   2.9640   2.9640   3.0476   3.0476   3.1600   3.1600
     3.2373   3.2373   3.3481   3.3481   3.4696   3.4697   3.7659   3.7659
     3.8724   3.8724   4.3817   4.3817   4.5611   4.5611   4.8470   4.8470
     4.9771   4.9771   5.0116   5.0116   5.2117   5.2117   5.6611   5.6611
     5.7550   5.7550   5.8202   5.8202   5.8724   5.8724   6.0169   6.0169
     6.3557   6.3557   6.4805   6.4805   6.6812   6.6812   6.7276   6.7276
     6.8005   6.8005   6.9381   6.9381   6.9910   6.9910   7.5135   7.5135
     7.5478   7.5478   7.6935   7.6935   7.7241   7.7241   8.0999   8.0999
    10.2158  10.2158  11.2134  11.2134  11.2830  11.2830  11.5786  11.5786
    11.7581  11.7581  12.5971  12.5971  12.6347  12.6347  12.7143  12.7143
    12.8990  12.8990  13.2091  13.2091  13.3208  13.3208  13.9295  13.9295
    14.4137  14.4137  15.0602  15.0602  15.8892  15.8892  16.1028  16.1028
    16.7954  16.7954  17.8737  17.8739  17.9420

          k = 0.1667 0.1575 0.1667 ( 62255 PWs)   bands (ev):

   -66.1710 -66.1707 -66.1702 -66.1701 -66.1698 -66.1698 -66.1693 -66.1689
   -30.5447 -30.5399 -30.5393 -30.5340 -30.5287 -30.5245 -30.5242 -30.5226
   -30.5203 -30.5176 -30.5152 -30.5146 -30.4855 -30.4853 -30.4841 -30.4839
   -30.4377 -30.4360 -30.4352 -30.4332 -30.4330 -30.4308 -30.4296 -30.4269
   -20.3305 -20.3304 -20.3304 -20.3303 -20.3303 -20.3302 -20.3302 -20.3301
   -20.3103 -20.3100 -20.3100 -20.3097 -20.3081 -20.3077 -20.3076 -20.3074
   -20.3073 -20.3068 -20.3068 -20.3067 -20.3065 -20.3063 -20.3062 -20.3057
   -20.3057 -20.3054 -20.3051 -20.3048 -20.3048 -20.3045 -20.3044 -20.3041
   -20.2982 -20.2982 -20.2979 -20.2978 -20.2975 -20.2973 -20.2973 -20.2971
   -20.2939 -20.2936 -20.2934 -20.2932 -20.2932 -20.2932 -20.2927 -20.2925
   -20.2901 -20.2900 -20.2897 -20.2896 -20.2896 -20.2892 -20.2886 -20.2884
    -9.8452  -9.6180  -9.4450  -9.4345  -9.2386  -9.2203  -9.0205  -9.0089
    -8.9613  -8.7828  -8.7779  -8.7733  -7.9398  -7.9146  -7.9039  -7.9032
    -7.8870  -7.8458  -7.8411  -7.8317  -7.8110  -7.7722  -7.7699  -7.7545
     1.3757   1.3775   1.4633   1.4808   1.4859   1.5069   1.6228   1.8339
     1.8573   1.9084   1.9155   2.1297   2.5208   2.5922   2.7553   2.7572
     2.8689   2.8904   3.9725   3.9981   4.0895   4.1040   4.4091   4.4212
     4.4666   4.4737   4.6717   4.7043   4.7362   4.8070   4.8668   5.1793
     5.2052   5.2550   5.2781   5.3343   5.3469   5.5660   5.5700   5.6451
     5.7159   5.7334   5.8141   5.8302   5.8332   5.9150   6.2873   6.3554
     6.3640   6.4083   6.5012   6.6314   6.6685   6.7080   6.7681   6.7892
     6.8027   6.8323   6.8661   6.8745   6.9406   6.9566   6.9717   7.0893
     7.2456   7.2977   7.8165   7.8167   7.9893   8.0301   8.0312   8.0405
     9.8511   9.8941  10.3571  10.3821  10.3936  10.4556  12.1775  12.2176
    12.2788  12.2861  12.2888  12.2997  12.4299  12.4383  12.9174  12.9505
    13.0659  13.1690  13.1759  13.3562  13.8470  13.8570  13.8915  13.9465
    14.4087  14.7614  14.7751  15.2638  15.5595  15.5703  15.7659  16.3356
    16.3405  16.8469  17.0897  17.0958  17.6363

          k = 0.1667 0.1575 0.3333 ( 62260 PWs)   bands (ev):

   -66.1708 -66.1705 -66.1703 -66.1700 -66.1700 -66.1696 -66.1695 -66.1691
   -30.5435 -30.5408 -30.5381 -30.5351 -30.5220 -30.5213 -30.5176 -30.5161
   -30.5118 -30.5077 -30.5033 -30.4993 -30.4872 -30.4861 -30.4832 -30.4814
   -30.4551 -30.4543 -30.4515 -30.4504 -30.4332 -30.4310 -30.4303 -30.4280
   -20.3304 -20.3304 -20.3303 -20.3303 -20.3303 -20.3303 -20.3302 -20.3302
   -20.3103 -20.3101 -20.3100 -20.3098 -20.3079 -20.3075 -20.3074 -20.3074
   -20.3072 -20.3070 -20.3070 -20.3067 -20.3066 -20.3064 -20.3061 -20.3058
   -20.3057 -20.3055 -20.3050 -20.3049 -20.3048 -20.3045 -20.3045 -20.3043
   -20.2982 -20.2981 -20.2976 -20.2975 -20.2967 -20.2965 -20.2962 -20.2960
   -20.2943 -20.2942 -20.2938 -20.2938 -20.2930 -20.2929 -20.2923 -20.2921
   -20.2911 -20.2909 -20.2905 -20.2901 -20.2896 -20.2894 -20.2889 -20.2889
    -9.7158  -9.4870  -9.4758  -9.2641  -9.2595  -8.9967  -8.9795  -8.9060
    -8.8752  -8.7866  -8.7460  -8.6978  -8.2307  -8.2206  -8.1666  -8.1286
    -7.9000  -7.8857  -7.8631  -7.8535  -7.8258  -7.8221  -7.8030  -7.7811
     1.4898   1.5030   1.5222   1.5319   1.7936   1.8083   1.8784   1.9091
     2.1932   2.2536   2.3750   2.4847   2.7771   2.7929   2.8580   2.8848
     2.9969   3.1097   3.7438   3.8477   3.8587   3.8854   4.0825   4.1449
     4.2464   4.3588   4.4964   4.5727   4.6187   4.6602   4.6974   4.7819
     4.8630   4.8953   4.9282   5.1410   5.1726   5.2086   5.3371   5.6090
     5.6409   5.6695   5.7533   5.8098   5.8645   5.8848   6.0895   6.1332
     6.3546   6.5176   6.5271   6.6454   6.7056   6.7087   6.7282   6.7588
     6.8339   6.8601   6.9086   6.9468   7.0769   7.1019   7.1370   7.1991
     7.3056   7.3621   7.7529   7.7617   7.8901   7.9188   8.0273   8.0336
    10.3348  10.3679  10.5099  10.5626  10.9652  11.0472  11.8811  11.9215
    12.1145  12.3904  12.4178  12.4426  12.4512  12.5431  12.6748  12.6999
    12.8779  13.0490  13.0636  13.2675  13.5275  13.5579  13.8586  13.8827
    14.5992  14.7528  15.1137  15.5319  15.6812  15.8235  16.0216  16.2478
    16.5338  17.1960  17.2552  17.5180  17.5852

          k = 0.1667 0.1575-0.5000 ( 62292 PWs)   bands (ev):

   -66.1706 -66.1706 -66.1703 -66.1702 -66.1697 -66.1697 -66.1694 -66.1694
   -30.5422 -30.5422 -30.5366 -30.5366 -30.5213 -30.5213 -30.5170 -30.5170
   -30.4937 -30.4937 -30.4917 -30.4917 -30.4790 -30.4790 -30.4750 -30.4750
   -30.4747 -30.4747 -30.4720 -30.4719 -30.4321 -30.4321 -30.4292 -30.4292
   -20.3304 -20.3304 -20.3303 -20.3303 -20.3303 -20.3303 -20.3302 -20.3302
   -20.3102 -20.3102 -20.3099 -20.3099 -20.3076 -20.3076 -20.3072 -20.3072
   -20.3072 -20.3072 -20.3070 -20.3070 -20.3065 -20.3065 -20.3060 -20.3060
   -20.3056 -20.3056 -20.3050 -20.3050 -20.3047 -20.3047 -20.3044 -20.3044
   -20.2981 -20.2981 -20.2975 -20.2975 -20.2953 -20.2953 -20.2953 -20.2953
   -20.2948 -20.2948 -20.2947 -20.2947 -20.2923 -20.2923 -20.2921 -20.2921
   -20.2915 -20.2915 -20.2912 -20.2912 -20.2893 -20.2893 -20.2892 -20.2892
    -9.5813  -9.5813  -9.3445  -9.3445  -9.0832  -9.0832  -8.8146  -8.8146
    -8.6100  -8.6100  -8.6003  -8.6002  -8.5450  -8.5450  -8.4761  -8.4761
    -7.8855  -7.8855  -7.8462  -7.8462  -7.8324  -7.8324  -7.8051  -7.8051
     1.5020   1.5020   1.5391   1.5391   1.8240   1.8240   1.9046   1.9046
     2.7951   2.7951   2.9806   2.9806   3.0550   3.0550   3.1765   3.1765
     3.2412   3.2412   3.3584   3.3584   3.4617   3.4617   3.7757   3.7757
     3.9242   3.9242   4.2340   4.2340   4.5416   4.5416   4.6766   4.6766
     4.9010   4.9010   4.9700   4.9700   5.0640   5.0640   5.4569   5.4569
     5.7123   5.7123   5.7403   5.7403   5.8533   5.8533   5.8909   5.8909
     6.4719   6.4719   6.6230   6.6230   6.6626   6.6626   6.7661   6.7661
     6.8849   6.8849   6.9034   6.9034   7.0263   7.0263   7.5152   7.5152
     7.5428   7.5428   7.6655   7.6655   7.6920   7.6920   8.0334   8.0334
    10.3782  10.3782  11.2191  11.2191  11.2824  11.2824  11.6443  11.6443
    11.8170  11.8170  12.4601  12.4601  12.6253  12.6253  12.6984  12.6984
    12.8764  12.8764  13.1064  13.1064  13.2683  13.2683  13.8650  13.8650
    14.7067  14.7067  15.4390  15.4390  15.9973  15.9973  16.0823  16.0823
    16.8284  16.8284  17.6919  17.6919  17.9541

          k = 0.1667 0.3150 0.1667 ( 62249 PWs)   bands (ev):

   -66.1710 -66.1708 -66.1701 -66.1701 -66.1699 -66.1699 -66.1692 -66.1690
   -30.5372 -30.5317 -30.5314 -30.5287 -30.5247 -30.5245 -30.5236 -30.5232
   -30.5206 -30.5161 -30.5126 -30.5121 -30.4956 -30.4954 -30.4936 -30.4933
   -30.4374 -30.4364 -30.4347 -30.4335 -30.4328 -30.4314 -30.4291 -30.4276
   -20.3305 -20.3304 -20.3303 -20.3303 -20.3303 -20.3303 -20.3302 -20.3302
   -20.3096 -20.3092 -20.3092 -20.3088 -20.3083 -20.3078 -20.3075 -20.3074
   -20.3071 -20.3071 -20.3067 -20.3066 -20.3063 -20.3063 -20.3062 -20.3058
   -20.3058 -20.3057 -20.3055 -20.3052 -20.3052 -20.3051 -20.3049 -20.3048
   -20.2982 -20.2982 -20.2978 -20.2978 -20.2976 -20.2974 -20.2973 -20.2972
   -20.2938 -20.2937 -20.2934 -20.2933 -20.2932 -20.2932 -20.2927 -20.2926
   -20.2901 -20.2900 -20.2896 -20.2896 -20.2895 -20.2893 -20.2886 -20.2885
    -9.7790  -9.6508  -9.3722  -9.3589  -9.2612  -9.2436  -9.0180  -9.0112
    -8.7555  -8.6407  -8.6386  -8.6369  -8.1513  -8.1096  -8.1074  -8.0878
    -7.9098  -7.9026  -7.8917  -7.8860  -7.8108  -7.7958  -7.7698  -7.7592
     1.3759   1.3769   1.4798   1.4851   1.5004   1.5068   1.7843   1.8310
     2.4137   2.5240   2.5350   2.5398   2.5704   2.6903   2.9762   2.9824
     3.0811   3.0946   3.6482   3.6672   3.6903   3.7346   4.1366   4.4098
     4.4111   4.4294   4.4382   4.5308   4.5510   4.7660   4.7806   4.8731
     4.9182   4.9321   5.1184   5.1436   5.3406   5.3777   5.4345   5.4355
     5.6560   5.6776   5.7220   5.7282   5.8139   5.8152   6.3173   6.3586
     6.4126   6.4181   6.4809   6.6161   6.7044   6.7128   6.8388   6.8482
     6.9044   6.9092   6.9961   6.9999   7.0911   7.1113   7.1182   7.1401
     7.2776   7.3065   7.7930   7.8041   7.8166   7.8258   7.8361   7.8602
     9.8734   9.8918  10.7691  10.8085  10.8341  10.8572  11.8376  11.8884
    11.9714  11.9784  12.2921  12.2979  12.3238  12.3287  12.9581  12.9683
    13.1768  13.2247  13.2396  13.3961  13.6252  13.6495  13.6601  13.7466
    15.1099  15.3993  15.4190  15.5653  15.5699  15.7503  16.2112  16.2185
    16.2991  16.7573  17.3303  17.4293  17.4341

          k = 0.1667 0.3150 0.3333 ( 62265 PWs)   bands (ev):

   -66.1708 -66.1706 -66.1703 -66.1701 -66.1699 -66.1697 -66.1694 -66.1692
   -30.5353 -30.5325 -30.5286 -30.5249 -30.5235 -30.5217 -30.5169 -30.5136
   -30.5127 -30.5093 -30.5026 -30.4989 -30.4970 -30.4952 -30.4916 -30.4895
   -30.4552 -30.4546 -30.4515 -30.4508 -30.4326 -30.4310 -30.4303 -30.4287
   -20.3304 -20.3304 -20.3303 -20.3303 -20.3303 -20.3303 -20.3302 -20.3302
   -20.3095 -20.3093 -20.3091 -20.3089 -20.3081 -20.3077 -20.3076 -20.3073
   -20.3072 -20.3070 -20.3068 -20.3066 -20.3065 -20.3064 -20.3062 -20.3059
   -20.3058 -20.3056 -20.3056 -20.3052 -20.3052 -20.3051 -20.3050 -20.3049
   -20.2981 -20.2979 -20.2977 -20.2976 -20.2967 -20.2966 -20.2961 -20.2960
   -20.2943 -20.2942 -20.2938 -20.2938 -20.2930 -20.2929 -20.2922 -20.2921
   -20.2911 -20.2909 -20.2904 -20.2902 -20.2896 -20.2895 -20.2890 -20.2889
    -9.6431  -9.5085  -9.4105  -9.2891  -9.1532  -9.0044  -8.8942  -8.8803
    -8.7926  -8.6562  -8.6166  -8.5940  -8.2633  -8.2436  -8.2132  -8.1210
    -8.1094  -8.0994  -8.0706  -8.0206  -7.8738  -7.8604  -7.8057  -7.7938
     1.5135   1.5214   1.5254   1.5314   2.1380   2.1896   2.2501   2.3728
     2.4233   2.5298   2.5362   2.6993   2.8146   2.8799   2.9936   3.0702
     3.2213   3.3001   3.6395   3.6643   3.6934   3.7580   3.8290   3.9091
     4.1147   4.3122   4.3904   4.4221   4.4551   4.5393   4.5775   4.6230
     4.6573   4.8195   4.8236   4.8812   4.9213   4.9763   5.1242   5.1545
     5.3139   5.3432   5.4691   5.6327   5.7512   5.8207   6.1185   6.1334
     6.5001   6.5868   6.6175   6.7396   6.7970   6.8155   6.9162   6.9603
     6.9943   7.0162   7.0430   7.0600   7.1211   7.1630   7.1919   7.2510
     7.2846   7.3490   7.7346   7.7368   7.7469   7.7613   7.8246   7.8474
    10.4806  10.5114  10.8200  10.8425  11.2748  11.3192  11.8336  11.8888
    11.9202  12.0433  12.1509  12.1996  12.4557  12.5352  12.6387  12.6914
    12.8698  13.0479  13.0886  13.2952  13.3143  13.3662  13.6441  13.6829
    15.2871  15.3876  15.7923  15.9258  15.9711  16.0735  16.1514  16.6394
    16.7542  16.8600  17.0641  17.5410  17.6902

          k = 0.1667 0.3150-0.5000 ( 62264 PWs)   bands (ev):

   -66.1705 -66.1705 -66.1703 -66.1703 -66.1696 -66.1696 -66.1694 -66.1694
   -30.5338 -30.5338 -30.5265 -30.5265 -30.5224 -30.5224 -30.5149 -30.5149
   -30.5006 -30.5006 -30.4988 -30.4988 -30.4792 -30.4792 -30.4776 -30.4776
   -30.4752 -30.4752 -30.4742 -30.4742 -30.4315 -30.4315 -30.4299 -30.4299
   -20.3304 -20.3304 -20.3303 -20.3303 -20.3303 -20.3303 -20.3302 -20.3302
   -20.3094 -20.3094 -20.3090 -20.3090 -20.3078 -20.3078 -20.3074 -20.3074
   -20.3070 -20.3070 -20.3068 -20.3068 -20.3065 -20.3065 -20.3061 -20.3061
   -20.3058 -20.3058 -20.3054 -20.3054 -20.3051 -20.3051 -20.3050 -20.3050
   -20.2980 -20.2980 -20.2977 -20.2977 -20.2953 -20.2953 -20.2953 -20.2953
   -20.2948 -20.2947 -20.2947 -20.2947 -20.2922 -20.2922 -20.2921 -20.2921
   -20.2915 -20.2914 -20.2913 -20.2913 -20.2893 -20.2893 -20.2892 -20.2892
    -9.5047  -9.5047  -9.3737  -9.3737  -8.9118  -8.9117  -8.7211  -8.7211
    -8.6288  -8.6287  -8.6099  -8.6099  -8.5127  -8.5127  -8.4396  -8.4396
    -8.1059  -8.1059  -8.0730  -8.0730  -7.8397  -7.8397  -7.8269  -7.8269
     1.5299   1.5299   1.5384   1.5384   2.4115   2.4115   2.5209   2.5209
     2.9621   2.9621   3.0355   3.0355   3.0652   3.0652   3.2165   3.2165
     3.2572   3.2572   3.3993   3.3993   3.4315   3.4315   3.6758   3.6758
     4.0628   4.0628   4.0976   4.0976   4.1089   4.1089   4.3641   4.3641
     4.7469   4.7469   4.8222   4.8222   4.9951   4.9951   5.0254   5.0254
     5.0978   5.0978   5.5389   5.5389   5.8479   5.8479   5.8764   5.8764
     6.6460   6.6460   6.7687   6.7687   6.8011   6.8011   6.8423   6.8423
     7.0277   7.0277   7.0760   7.0760   7.1733   7.1733   7.5118   7.5118
     7.5277   7.5277   7.5701   7.5701   7.6011   7.6011   7.8333   7.8333
    10.8027  10.8027  11.2311  11.2311  11.2840  11.2840  11.7596  11.7597
    11.9986  11.9986  12.1513  12.1513  12.5376  12.5376  12.5844  12.5844
    12.7891  12.7891  12.9038  12.9038  13.2658  13.2658  13.6547  13.6547
    15.3527  15.3527  15.9927  15.9927  16.3288  16.3288  16.4243  16.4243
    16.9586  16.9586  17.3344  17.3344  17.8861

          k = 0.1667-0.4725 0.1667 ( 62220 PWs)   bands (ev):

   -66.1709 -66.1709 -66.1700 -66.1700 -66.1700 -66.1700 -66.1691 -66.1691
   -30.5307 -30.5307 -30.5264 -30.5263 -30.5247 -30.5247 -30.5229 -30.5228
   -30.5096 -30.5096 -30.5080 -30.5080 -30.5054 -30.5053 -30.5045 -30.5044
   -30.4370 -30.4369 -30.4341 -30.4340 -30.4322 -30.4321 -30.4284 -30.4284
   -20.3304 -20.3304 -20.3303 -20.3303 -20.3303 -20.3303 -20.3302 -20.3302
   -20.3088 -20.3087 -20.3084 -20.3083 -20.3082 -20.3082 -20.3078 -20.3078
   -20.3068 -20.3068 -20.3065 -20.3065 -20.3064 -20.3064 -20.3064 -20.3063
   -20.3059 -20.3059 -20.3057 -20.3057 -20.3053 -20.3053 -20.3050 -20.3050
   -20.2981 -20.2981 -20.2978 -20.2978 -20.2975 -20.2975 -20.2973 -20.2973
   -20.2937 -20.2937 -20.2933 -20.2933 -20.2932 -20.2932 -20.2926 -20.2926
   -20.2900 -20.2900 -20.2896 -20.2896 -20.2894 -20.2894 -20.2886 -20.2886
    -9.7065  -9.7065  -9.3046  -9.3045  -9.2886  -9.2885  -9.0146  -9.0145
    -8.4590  -8.4588  -8.4027  -8.4023  -8.4000  -8.3997  -8.3924  -8.3921
    -7.9047  -7.9042  -7.8931  -7.8929  -7.8045  -7.8045  -7.7647  -7.7646
     1.3760   1.3766   1.4836   1.4844   1.5050   1.5056   1.8206   1.8211
     2.5553   2.5559   3.1620   3.1622   3.2013   3.2140   3.2697   3.2781
     3.3095   3.3109   3.3584   3.3715   3.5607   3.5612   3.5720   3.5764
     3.7538   3.7552   4.4214   4.4325   4.4630   4.4722   4.9473   4.9555
     5.0306   5.0328   5.1417   5.1551   5.1851   5.1969   5.4265   5.4277
     5.4707   5.4725   5.7279   5.7435   5.7613   5.7726   6.3633   6.3746
     6.4385   6.4584   6.5262   6.5291   6.6998   6.7097   6.8786   6.8814
     6.8864   6.8966   7.0574   7.0589   7.2297   7.2314   7.4694   7.4717
     7.4755   7.4819   7.5026   7.5096   7.5425   7.5433   7.8213   7.8222
     9.8855   9.8859  11.3088  11.3189  11.3538  11.3723  11.4021  11.4125
    11.4284  11.4300  12.2954  12.3015  12.3163  12.3228  12.9801  12.9807
    13.3633  13.3726  13.3743  13.3864  13.4080  13.4139  13.5516  13.5526
    15.5577  15.5590  15.7184  15.7243  15.9306  15.9422  15.9448  15.9518
    16.6058  16.6064  17.8822  17.8892  17.9220

          k = 0.1667-0.4725 0.3333 ( 62252 PWs)   bands (ev):

   -66.1707 -66.1707 -66.1702 -66.1702 -66.1698 -66.1698 -66.1693 -66.1693
   -30.5275 -30.5275 -30.5248 -30.5247 -30.5176 -30.5175 -30.5138 -30.5137
   -30.5107 -30.5107 -30.5065 -30.5064 -30.4995 -30.4994 -30.4966 -30.4965
   -30.4550 -30.4550 -30.4512 -30.4512 -30.4319 -30.4319 -30.4296 -30.4296
   -20.3304 -20.3304 -20.3303 -20.3303 -20.3303 -20.3303 -20.3302 -20.3302
   -20.3086 -20.3086 -20.3083 -20.3083 -20.3082 -20.3082 -20.3079 -20.3079
   -20.3068 -20.3068 -20.3065 -20.3065 -20.3065 -20.3065 -20.3062 -20.3062
   -20.3061 -20.3061 -20.3058 -20.3058 -20.3053 -20.3052 -20.3051 -20.3051
   -20.2979 -20.2979 -20.2978 -20.2978 -20.2966 -20.2966 -20.2961 -20.2961
   -20.2943 -20.2942 -20.2938 -20.2938 -20.2930 -20.2930 -20.2922 -20.2922
   -20.2910 -20.2910 -20.2903 -20.2903 -20.2895 -20.2895 -20.2890 -20.2890
    -9.5658  -9.5657  -9.3373  -9.3372  -9.0581  -9.0577  -8.8856  -8.8856
    -8.5061  -8.5060  -8.4371  -8.4345  -8.3903  -8.3885  -8.3798  -8.3793
    -8.1930  -8.1919  -8.1012  -8.1003  -7.8683  -7.8679  -7.8005  -7.8002
     1.5192   1.5198   1.5293   1.5306   2.1809   2.1820   2.3564   2.3572
     2.8261   2.8312   3.1768   3.1834   3.2166   3.2288   3.2672   3.2838
     3.2980   3.3062   3.4404   3.4578   3.5465   3.5598   3.6814   3.6866
     3.7821   3.7907   3.8461   3.8996   4.4492   4.4900   4.5750   4.5792
     4.6528   4.7154   4.7662   4.7955   4.9773   4.9843   5.0041   5.0893
     5.1711   5.2299   5.3197   5.4155   5.7599   5.7787   6.1259   6.1337
     6.5761   6.5848   6.6873   6.7060   6.8377   6.8442   6.9854   7.0282
     7.0550   7.0970   7.1693   7.1866   7.2033   7.2138   7.4405   7.4509
     7.4666   7.4754   7.4910   7.5068   7.5194   7.5326   7.7663   7.7669
    10.5059  10.5081  11.3531  11.3600  11.4033  11.4063  11.7162  11.7204
    11.7451  11.7694  11.9036  11.9502  12.4565  12.5105  12.7519  12.7808
    12.8978  12.9285  13.0868  13.1687  13.3837  13.4049  13.4436  13.5010
    15.6718  15.6868  15.8749  15.8855  16.3067  16.3290  16.6526  16.6771
    16.8069  16.8104  17.4030  17.4333  17.7975

          k = 0.1667-0.4725-0.5000 ( 62232 PWs)   bands (ev):

   -66.1704 -66.1704 -66.1704 -66.1704 -66.1695 -66.1695 -66.1695 -66.1695
   -30.5260 -30.5260 -30.5260 -30.5260 -30.5130 -30.5130 -30.5130 -30.5130
   -30.5085 -30.5085 -30.5085 -30.5085 -30.4790 -30.4790 -30.4790 -30.4790
   -30.4751 -30.4751 -30.4751 -30.4751 -30.4308 -30.4308 -30.4307 -30.4307
   -20.3304 -20.3304 -20.3304 -20.3303 -20.3303 -20.3302 -20.3302 -20.3302
   -20.3084 -20.3084 -20.3084 -20.3084 -20.3081 -20.3081 -20.3081 -20.3081
   -20.3067 -20.3066 -20.3066 -20.3066 -20.3064 -20.3063 -20.3063 -20.3063
   -20.3061 -20.3060 -20.3060 -20.3060 -20.3052 -20.3052 -20.3052 -20.3052
   -20.2978 -20.2978 -20.2978 -20.2978 -20.2953 -20.2953 -20.2953 -20.2953
   -20.2947 -20.2947 -20.2947 -20.2947 -20.2922 -20.2922 -20.2922 -20.2922
   -20.2914 -20.2914 -20.2914 -20.2914 -20.2893 -20.2893 -20.2893 -20.2893
    -9.4274  -9.4274  -9.4273  -9.4273  -8.7289  -8.7289  -8.7262  -8.7262
    -8.6345  -8.6345  -8.6304  -8.6303  -8.3649  -8.3649  -8.3598  -8.3598
    -8.3223  -8.3223  -8.3181  -8.3181  -7.8343  -7.8343  -7.8338  -7.8338
     1.5357   1.5357   1.5370   1.5370   2.9740   2.9740   2.9796   2.9796
     3.1035   3.1035   3.1387   3.1387   3.2288   3.2288   3.2289   3.2289
     3.3036   3.3036   3.3494   3.3494   3.4802   3.4803   3.4939   3.4939
     3.6455   3.6456   3.6624   3.6625   4.3092   4.3092   4.3157   4.3157
     4.4135   4.4135   4.4216   4.4217   4.8559   4.8559   5.0149   5.0149
     5.1585   5.1585   5.3102   5.3102   5.8493   5.8493   5.8644   5.8644
     6.7267   6.7267   6.7531   6.7531   6.8380   6.8381   6.8679   6.8679
     7.2766   7.2766   7.3237   7.3237   7.3659   7.3659   7.3934   7.3934
     7.4571   7.4571   7.4851   7.4851   7.5781   7.5781   7.6091   7.6091
    11.1932  11.1932  11.2253  11.2253  11.3972  11.3972  11.4568  11.4568
    12.2486  12.2486  12.2702  12.2702  12.2887  12.2887  12.3044  12.3044
    12.7634  12.7634  12.8328  12.8328  13.3950  13.3950  13.4414  13.4414
    15.7855  15.7855  15.8018  15.8018  16.9330  16.9330  16.9396  16.9397
    17.3436  17.3439  17.3605  17.3606  17.4392

          k = 0.3333 0.0000 0.3333 ( 62316 PWs)   bands (ev):

   -66.1707 -66.1703 -66.1702 -66.1702 -66.1698 -66.1698 -66.1697 -66.1693
   -30.5455 -30.5429 -30.5427 -30.5399 -30.5111 -30.5091 -30.5065 -30.5047
   -30.5042 -30.5009 -30.4989 -30.4967 -30.4854 -30.4819 -30.4800 -30.4755
   -30.4556 -30.4539 -30.4530 -30.4519 -30.4502 -30.4480 -30.4468 -30.4440
   -20.3304 -20.3304 -20.3303 -20.3303 -20.3303 -20.3303 -20.3303 -20.3302
   -20.3106 -20.3104 -20.3104 -20.3102 -20.3078 -20.3075 -20.3075 -20.3074
   -20.3073 -20.3070 -20.3070 -20.3069 -20.3064 -20.3062 -20.3059 -20.3058
   -20.3057 -20.3056 -20.3052 -20.3050 -20.3045 -20.3043 -20.3042 -20.3040
   -20.2973 -20.2972 -20.2967 -20.2967 -20.2965 -20.2963 -20.2958 -20.2957
   -20.2948 -20.2946 -20.2936 -20.2935 -20.2934 -20.2934 -20.2920 -20.2917
   -20.2917 -20.2915 -20.2904 -20.2904 -20.2903 -20.2900 -20.2897 -20.2894
    -9.6047  -9.3587  -9.3536  -9.2841  -9.1067  -9.0180  -9.0020  -8.7982
    -8.7816  -8.7617  -8.7397  -8.7315  -8.2634  -8.2076  -8.1987  -8.1946
    -8.1823  -8.1816  -8.0811  -8.0611  -7.7751  -7.7495  -7.7486  -7.7235
     1.5455   1.5840   1.5851   1.6261   2.0936   2.0978   2.2090   2.2255
     2.2513   2.2664   2.4679   2.5706   2.9335   2.9368   2.9775   3.0072
     3.1696   3.1907   3.7737   3.8041   3.8625   3.9009   4.0641   4.0656
     4.1481   4.1496   4.2174   4.3218   4.3798   4.3852   4.4796   4.5022
     4.7977   4.8282   4.9028   4.9490   5.0090   5.0170   5.1444   5.4091
     5.4282   5.4532   5.4569   5.6616   5.9325   5.9346   5.9401   6.0709
     6.4937   6.5071   6.5074   6.5295   6.5300   6.5543   6.5550   6.6266
     6.9907   7.1594   7.1704   7.1747   7.1835   7.2663   7.3270   7.3424
     7.3655   7.4837   7.7074   7.7128   7.9030   7.9723   7.9826   8.0188
    10.7141  10.8246  10.8363  10.8756  10.9652  11.1698  12.0485  12.0604
    12.1005  12.1099  12.1880  12.2762  12.4987  12.5188  12.7719  12.7862
    12.8014  12.8021  12.9401  13.0337  13.5382  13.6057  13.6179  13.7123
    14.4491  14.7123  14.7140  15.1610  15.8445  16.3649  16.4052  16.7877
    16.7896  17.2200  17.2252  17.7948  17.8300

          k = 0.3333 0.0000-0.5000 ( 62288 PWs)   bands (ev):

   -66.1704 -66.1704 -66.1700 -66.1700 -66.1699 -66.1699 -66.1695 -66.1695
   -30.5442 -30.5442 -30.5413 -30.5413 -30.5060 -30.5060 -30.4995 -30.4995
   -30.4918 -30.4918 -30.4886 -30.4886 -30.4781 -30.4781 -30.4757 -30.4757
   -30.4742 -30.4742 -30.4696 -30.4695 -30.4500 -30.4500 -30.4459 -30.4459
   -20.3304 -20.3304 -20.3303 -20.3303 -20.3303 -20.3303 -20.3302 -20.3302
   -20.3105 -20.3105 -20.3103 -20.3103 -20.3075 -20.3075 -20.3073 -20.3073
   -20.3072 -20.3072 -20.3071 -20.3071 -20.3063 -20.3063 -20.3058 -20.3058
   -20.3057 -20.3057 -20.3051 -20.3051 -20.3044 -20.3044 -20.3042 -20.3042
   -20.2971 -20.2971 -20.2966 -20.2966 -20.2954 -20.2954 -20.2953 -20.2953
   -20.2946 -20.2946 -20.2944 -20.2944 -20.2929 -20.2929 -20.2926 -20.2926
   -20.2913 -20.2913 -20.2910 -20.2910 -20.2902 -20.2902 -20.2900 -20.2899
    -9.4542  -9.4542  -9.1948  -9.1948  -9.1003  -9.1003  -8.7516  -8.7516
    -8.6552  -8.6552  -8.5791  -8.5791  -8.5237  -8.5237  -8.4888  -8.4887
    -8.1515  -8.1515  -8.1449  -8.1449  -7.7625  -7.7625  -7.7362  -7.7362
     1.5654   1.5654   1.6074   1.6074   2.2386   2.2386   2.2681   2.2681
     2.9137   2.9137   3.0026   3.0026   3.0370   3.0371   3.1797   3.1797
     3.2736   3.2736   3.5492   3.5492   3.6817   3.6817   3.8230   3.8230
     3.8539   3.8539   4.0480   4.0480   4.1801   4.1801   4.3282   4.3282
     4.6626   4.6626   4.8871   4.8871   4.9920   4.9920   5.0827   5.0827
[...]
   -20.3515 -20.3515 -20.3513 -20.3513 -20.3511 -20.3511 -20.3508 -20.3508
   -20.3432 -20.3432 -20.3430 -20.3430 -20.3408 -20.3408 -20.3407 -20.3407
   -20.3402 -20.3402 -20.3402 -20.3402 -20.3378 -20.3378 -20.3377 -20.3377
   -20.3372 -20.3372 -20.3371 -20.3371 -20.3349 -20.3349 -20.3346 -20.3346
    -9.5183  -9.5183  -9.3693  -9.3693  -8.9819  -8.9819  -8.7649  -8.7649
    -8.6271  -8.6271  -8.6014  -8.6014  -8.5292  -8.5292  -8.4581  -8.4581
    -8.1769  -8.1769  -8.1466  -8.1465  -7.8596  -7.8596  -7.8469  -7.8469
     1.5296   1.5296   1.5398   1.5398   2.3246   2.3246   2.4372   2.4372
     2.9488   2.9488   3.0248   3.0248   3.0471   3.0471   3.2190   3.2190
     3.2556   3.2557   3.4108   3.4108   3.4376   3.4376   3.6529   3.6529
     3.9992   3.9992   4.0326   4.0326   4.1251   4.1251   4.3368   4.3368
     4.6879   4.6880   4.7629   4.7629   4.9480   4.9480   4.9788   4.9788
     5.0825   5.0825   5.4747   5.4747   5.8226   5.8226   5.8445   5.8445
     6.6275   6.6276   6.7483   6.7483   6.7909   6.7909   6.8219   6.8219
     6.9824   6.9824   7.0408   7.0408   7.1342   7.1342   7.4755   7.4755
     7.4968   7.4968   7.5540   7.5540   7.5817   7.5817   7.7997   7.7997
    10.7656  10.7656  11.1808  11.1808  11.2263  11.2263  11.6860  11.6860
    11.9488  11.9488  12.1283  12.1283  12.4874  12.4874  12.5668  12.5668
    12.7286  12.7286  12.8626  12.8626  13.1988  13.1988  13.6158  13.6158
    15.3077  15.3077  15.8800  15.8801  16.3353  16.3353  16.4244  16.4244
    16.8372  16.8372  17.2827  17.2827  17.8402

          k = 0.3325 0.4743 0.1661 ( 62382 PWs)   bands (ev):

   -66.2143 -66.2143 -66.2138 -66.2138 -66.2134 -66.2134 -66.2130 -66.2129
   -30.5758 -30.5758 -30.5730 -30.5730 -30.5716 -30.5716 -30.5686 -30.5686
   -30.5508 -30.5507 -30.5479 -30.5478 -30.5311 -30.5310 -30.5274 -30.5274
   -30.4840 -30.4840 -30.4804 -30.4804 -30.4672 -30.4672 -30.4649 -30.4649
   -20.3762 -20.3762 -20.3761 -20.3761 -20.3760 -20.3760 -20.3760 -20.3760
   -20.3546 -20.3545 -20.3543 -20.3543 -20.3540 -20.3540 -20.3537 -20.3537
   -20.3527 -20.3527 -20.3525 -20.3525 -20.3521 -20.3520 -20.3519 -20.3519
   -20.3518 -20.3518 -20.3514 -20.3514 -20.3513 -20.3513 -20.3509 -20.3509
   -20.3433 -20.3433 -20.3429 -20.3429 -20.3419 -20.3419 -20.3415 -20.3415
   -20.3398 -20.3398 -20.3392 -20.3392 -20.3386 -20.3386 -20.3378 -20.3378
   -20.3366 -20.3366 -20.3361 -20.3361 -20.3349 -20.3349 -20.3345 -20.3345
    -9.5622  -9.5621  -9.3404  -9.3402  -9.0536  -9.0533  -8.8698  -8.8698
    -8.5875  -8.5866  -8.5070  -8.5056  -8.4669  -8.4658  -8.4565  -8.4564
    -8.1992  -8.1987  -8.1110  -8.1101  -7.8872  -7.8869  -7.8203  -7.8201
     1.5200   1.5203   1.5350   1.5351   2.1938   2.1947   2.3660   2.3685
     2.8565   2.8574   3.1178   3.1203   3.1664   3.1743   3.2197   3.2429
     3.2668   3.2746   3.3907   3.4264   3.4748   3.5059   3.6462   3.6493
     3.7263   3.7382   3.8507   3.9145   4.3765   4.4140   4.5667   4.5710
     4.6164   4.6587   4.7611   4.7617   4.9116   4.9616   4.9650   5.0128
     5.0959   5.1523   5.2957   5.3692   5.7278   5.7455   6.1151   6.1168
     6.5805   6.5929   6.6573   6.6681   6.8171   6.8211   6.9603   7.0095
     7.0546   7.0740   7.1267   7.1555   7.1798   7.1802   7.3972   7.4138
     7.4271   7.4521   7.4572   7.4750   7.4839   7.5070   7.7478   7.7485
    10.4625  10.4665  11.3118  11.3296  11.3484  11.3563  11.7052  11.7093
    11.7262  11.7382  11.8408  11.8947  12.3854  12.4366  12.6820  12.7059
    12.8513  12.8772  13.0450  13.1288  13.3233  13.3531  13.3756  13.4333
    15.5777  15.5955  15.7955  15.8108  16.2078  16.2304  16.5834  16.6091
    16.8234  16.8244  17.3844  17.4263  17.8209

          k =-0.4987 0.4743 0.1661 ( 62392 PWs)   bands (ev):

   -66.2140 -66.2140 -66.2140 -66.2140 -66.2132 -66.2132 -66.2132 -66.2132
   -30.5745 -30.5745 -30.5741 -30.5741 -30.5703 -30.5703 -30.5698 -30.5698
   -30.5492 -30.5492 -30.5491 -30.5491 -30.5081 -30.5081 -30.5075 -30.5075
   -30.5043 -30.5043 -30.5038 -30.5038 -30.4661 -30.4661 -30.4661 -30.4661
   -20.3762 -20.3762 -20.3762 -20.3762 -20.3760 -20.3760 -20.3760 -20.3760
   -20.3545 -20.3544 -20.3544 -20.3544 -20.3539 -20.3539 -20.3539 -20.3539
   -20.3526 -20.3526 -20.3526 -20.3526 -20.3520 -20.3519 -20.3519 -20.3519
   -20.3516 -20.3516 -20.3516 -20.3515 -20.3512 -20.3512 -20.3511 -20.3511
   -20.3431 -20.3431 -20.3431 -20.3431 -20.3407 -20.3407 -20.3407 -20.3407
   -20.3402 -20.3402 -20.3402 -20.3402 -20.3378 -20.3378 -20.3377 -20.3377
   -20.3372 -20.3371 -20.3371 -20.3371 -20.3347 -20.3347 -20.3347 -20.3347
    -9.4306  -9.4306  -9.4273  -9.4272  -8.7620  -8.7620  -8.7482  -8.7481
    -8.6440  -8.6440  -8.6318  -8.6318  -8.4376  -8.4376  -8.4145  -8.4145
    -8.3808  -8.3808  -8.3596  -8.3596  -7.8537  -7.8537  -7.8534  -7.8534
     1.5357   1.5357   1.5394   1.5394   2.9306   2.9306   2.9931   2.9931
     3.0930   3.0930   3.0949   3.0949   3.1722   3.1722   3.2089   3.2089
     3.2812   3.2812   3.4029   3.4029   3.4180   3.4180   3.4919   3.4919
     3.5203   3.5203   3.7053   3.7053   4.2420   4.2421   4.2791   4.2791
     4.3250   4.3250   4.3905   4.3905   4.8282   4.8282   4.9910   4.9910
     5.1034   5.1034   5.2504   5.2504   5.8233   5.8233   5.8386   5.8386
     6.7046   6.7046   6.7500   6.7500   6.8195   6.8195   6.8559   6.8559
     7.2373   7.2373   7.2602   7.2602   7.3196   7.3196   7.3869   7.3869
     7.4106   7.4106   7.4832   7.4832   7.5535   7.5535   7.5837   7.5837
    11.1586  11.1586  11.1910  11.1910  11.3336  11.3336  11.3943  11.3943
    12.1833  12.1833  12.2200  12.2200  12.2599  12.2599  12.3012  12.3012
    12.7013  12.7013  12.7704  12.7704  13.3386  13.3386  13.3869  13.3869
    15.6982  15.6982  15.7169  15.7169  16.8660  16.8660  16.9195  16.9196
    17.2861  17.2861  17.3402  17.3403  17.4113

          k =-0.4987 0.0000 0.3322 ( 62422 PWs)   bands (ev):

   -66.2141 -66.2140 -66.2136 -66.2136 -66.2136 -66.2136 -66.2132 -66.2132
   -30.6025 -30.6025 -30.6004 -30.6004 -30.5476 -30.5476 -30.5424 -30.5424
   -30.5311 -30.5310 -30.5307 -30.5307 -30.5085 -30.5085 -30.5070 -30.5070
   -30.5035 -30.5035 -30.5030 -30.5030 -30.4841 -30.4841 -30.4823 -30.4823
   -20.3762 -20.3762 -20.3761 -20.3761 -20.3761 -20.3761 -20.3760 -20.3760
   -20.3564 -20.3564 -20.3562 -20.3562 -20.3535 -20.3535 -20.3533 -20.3533
   -20.3530 -20.3530 -20.3528 -20.3528 -20.3519 -20.3519 -20.3517 -20.3517
   -20.3513 -20.3512 -20.3510 -20.3510 -20.3501 -20.3501 -20.3499 -20.3499
   -20.3422 -20.3422 -20.3421 -20.3421 -20.3410 -20.3410 -20.3409 -20.3409
   -20.3399 -20.3399 -20.3398 -20.3398 -20.3383 -20.3383 -20.3382 -20.3382
   -20.3370 -20.3370 -20.3367 -20.3367 -20.3358 -20.3358 -20.3353 -20.3353
    -9.5043  -9.5043  -9.2809  -9.2809  -9.0959  -9.0959  -8.7958  -8.7958
    -8.6452  -8.6452  -8.5756  -8.5756  -8.5187  -8.5187  -8.4898  -8.4898
    -8.1634  -8.1634  -8.1560  -8.1560  -7.8292  -7.8292  -7.8050  -7.8050
     1.4600   1.4600   1.4993   1.4993   2.2339   2.2339   2.2646   2.2646
     2.8862   2.8862   2.9816   2.9817   3.0134   3.0134   3.1721   3.1721
     3.2746   3.2746   3.5622   3.5622   3.6837   3.6837   3.8110   3.8110
     3.8119   3.8119   4.0024   4.0024   4.1492   4.1492   4.3313   4.3313
     4.6617   4.6617   4.8765   4.8765   5.0025   5.0025   5.0623   5.0623
     5.2325   5.2325   5.4880   5.4880   5.8921   5.8921   5.9843   5.9843
     6.3675   6.3675   6.3873   6.3873   6.4482   6.4482   6.5433   6.5433
     7.1222   7.1222   7.2565   7.2565   7.3388   7.3388   7.5083   7.5083
     7.5363   7.5363   7.6570   7.6570   7.7014   7.7014   7.9542   7.9542
    10.8032  10.8032  11.3678  11.3678  11.4599  11.4599  11.5490  11.5490
    11.7721  11.7721  12.2043  12.2043  12.3520  12.3520  12.5692  12.5692
    12.7946  12.7946  13.1520  13.1520  13.1904  13.1904  13.5988  13.5988
    14.6305  14.6306  15.0080  15.0080  16.2493  16.2493  16.6835  16.6835
    17.0231  17.0231  17.4394  17.4394  17.9036

          k =-0.4987-0.1581 0.3322 ( 62438 PWs)   bands (ev):

   -66.2140 -66.2140 -66.2137 -66.2137 -66.2136 -66.2135 -66.2132 -66.2132
   -30.5986 -30.5986 -30.5965 -30.5965 -30.5505 -30.5505 -30.5461 -30.5461
   -30.5313 -30.5313 -30.5312 -30.5312 -30.5083 -30.5083 -30.5068 -30.5068
   -30.5040 -30.5040 -30.5033 -30.5033 -30.4841 -30.4841 -30.4825 -30.4825
   -20.3762 -20.3762 -20.3761 -20.3761 -20.3761 -20.3761 -20.3760 -20.3760
   -20.3561 -20.3561 -20.3559 -20.3559 -20.3535 -20.3535 -20.3533 -20.3533
   -20.3531 -20.3530 -20.3527 -20.3527 -20.3519 -20.3519 -20.3517 -20.3517
   -20.3513 -20.3513 -20.3511 -20.3511 -20.3505 -20.3505 -20.3502 -20.3502
   -20.3422 -20.3422 -20.3421 -20.3421 -20.3410 -20.3410 -20.3409 -20.3409
   -20.3399 -20.3399 -20.3398 -20.3398 -20.3383 -20.3383 -20.3382 -20.3382
   -20.3370 -20.3370 -20.3368 -20.3368 -20.3358 -20.3358 -20.3353 -20.3353
    -9.4555  -9.4554  -9.2136  -9.2136  -9.1065  -9.1065  -8.7714  -8.7714
    -8.6535  -8.6535  -8.5731  -8.5731  -8.5171  -8.5171  -8.4862  -8.4862
    -8.1617  -8.1617  -8.1609  -8.1609  -7.9257  -7.9257  -7.9015  -7.9015
     1.6889   1.6889   1.7297   1.7297   2.2332   2.2332   2.2742   2.2742
     2.9345   2.9345   3.0147   3.0148   3.0320   3.0320   3.1821   3.1821
     3.2762   3.2762   3.5802   3.5802   3.6832   3.6832   3.8043   3.8043
     3.8555   3.8555   4.0349   4.0350   4.1453   4.1453   4.3387   4.3387
     4.5341   4.5341   4.6596   4.6596   4.9516   4.9516   4.9905   4.9905
     5.0347   5.0347   5.2731   5.2731   5.6704   5.6704   5.7600   5.7600
     6.5064   6.5064   6.5369   6.5369   6.5976   6.5976   6.7207   6.7207
     7.1275   7.1275   7.2493   7.2494   7.3377   7.3377   7.5048   7.5048
     7.5306   7.5306   7.6329   7.6329   7.6758   7.6758   7.8994   7.8994
    10.9070  10.9070  11.3884  11.3884  11.4756  11.4756  11.6061  11.6061
    11.8221  11.8221  12.2255  12.2255  12.3482  12.3482  12.5831  12.5831
    12.6657  12.6657  13.0308  13.0308  13.0693  13.0693  13.4908  13.4908
    14.9986  14.9986  15.3921  15.3921  16.3338  16.3338  16.6836  16.6836
    17.0280  17.0281  17.4556  17.4556  17.7584

          k =-0.4987-0.3162 0.3322 ( 62392 PWs)   bands (ev):

   -66.2140 -66.2139 -66.2137 -66.2137 -66.2135 -66.2135 -66.2133 -66.2133
   -30.5878 -30.5878 -30.5857 -30.5857 -30.5596 -30.5596 -30.5564 -30.5564
   -30.5321 -30.5321 -30.5316 -30.5316 -30.5078 -30.5078 -30.5065 -30.5065
   -30.5050 -30.5049 -30.5041 -30.5041 -30.4839 -30.4839 -30.4829 -30.4829
   -20.3762 -20.3762 -20.3761 -20.3761 -20.3761 -20.3761 -20.3760 -20.3760
   -20.3553 -20.3552 -20.3550 -20.3550 -20.3538 -20.3538 -20.3533 -20.3533
   -20.3530 -20.3530 -20.3525 -20.3525 -20.3519 -20.3519 -20.3517 -20.3517
   -20.3514 -20.3514 -20.3513 -20.3513 -20.3512 -20.3511 -20.3510 -20.3510
   -20.3422 -20.3422 -20.3421 -20.3421 -20.3409 -20.3409 -20.3409 -20.3409
   -20.3399 -20.3399 -20.3399 -20.3399 -20.3383 -20.3383 -20.3382 -20.3382
   -20.3370 -20.3370 -20.3368 -20.3368 -20.3357 -20.3357 -20.3354 -20.3354
    -9.3369  -9.3369  -9.1430  -9.1430  -9.0318  -9.0318  -8.7098  -8.7098
    -8.6698  -8.6698  -8.5680  -8.5680  -8.5065  -8.5065  -8.4666  -8.4666
    -8.2077  -8.2077  -8.1672  -8.1672  -8.1513  -8.1513  -8.0981  -8.0981
     2.1555   2.1555   2.2303   2.2303   2.3343   2.3343   2.4561   2.4561
     3.0040   3.0040   3.0509   3.0509   3.1502   3.1502   3.2199   3.2199
     3.3063   3.3063   3.5816   3.5816   3.6652   3.6652   3.7549   3.7549
     3.9758   3.9758   4.0499   4.0499   4.1193   4.1193   4.1936   4.1936
     4.2902   4.2902   4.4235   4.4235   4.5754   4.5754   4.8029   4.8029
     4.9022   4.9022   4.9743   4.9743   5.0088   5.0088   5.2604   5.2604
     6.8228   6.8228   6.8790   6.8790   6.9435   6.9435   6.9986   6.9986
     7.1400   7.1400   7.2350   7.2350   7.3437   7.3437   7.4683   7.4683
     7.5038   7.5038   7.5729   7.5729   7.6022   7.6022   7.7406   7.7406
    11.1891  11.1891  11.4235  11.4235  11.5048  11.5048  11.7803  11.7803
    11.9914  11.9914  12.2583  12.2583  12.3024  12.3024  12.3340  12.3340
    12.6461  12.6461  12.7429  12.7429  12.8103  12.8103  13.2286  13.2286
    15.8396  15.8396  16.3266  16.3266  16.5913  16.5913  16.6695  16.6695
    17.0610  17.0610  17.3529  17.3529  17.6120

          k =-0.4987 0.4743 0.3322 ( 62400 PWs)   bands (ev):

   -66.2139 -66.2138 -66.2138 -66.2138 -66.2134 -66.2134 -66.2134 -66.2134
   -30.5736 -30.5736 -30.5732 -30.5732 -30.5712 -30.5712 -30.5707 -30.5707
   -30.5321 -30.5321 -30.5320 -30.5320 -30.5072 -30.5072 -30.5067 -30.5067
   -30.5052 -30.5052 -30.5047 -30.5047 -30.4835 -30.4835 -30.4834 -30.4834
   -20.3762 -20.3761 -20.3761 -20.3761 -20.3761 -20.3760 -20.3760 -20.3760
   -20.3543 -20.3543 -20.3543 -20.3543 -20.3540 -20.3540 -20.3540 -20.3540
   -20.3525 -20.3525 -20.3525 -20.3525 -20.3521 -20.3521 -20.3521 -20.3521
   -20.3515 -20.3515 -20.3515 -20.3515 -20.3513 -20.3513 -20.3512 -20.3512
   -20.3422 -20.3422 -20.3421 -20.3421 -20.3409 -20.3409 -20.3409 -20.3409
   -20.3399 -20.3399 -20.3399 -20.3399 -20.3383 -20.3383 -20.3383 -20.3383
   -20.3369 -20.3369 -20.3369 -20.3369 -20.3356 -20.3356 -20.3356 -20.3356
    -9.2203  -9.2203  -9.2152  -9.2152  -8.8246  -8.8246  -8.8114  -8.8114
    -8.5879  -8.5879  -8.5755  -8.5754  -8.4305  -8.4305  -8.4131  -8.4131
    -8.3819  -8.3819  -8.3675  -8.3675  -8.1465  -8.1465  -8.1456  -8.1456
     2.2179   2.2179   2.2252   2.2252   2.9454   2.9454   2.9838   2.9838
     3.0842   3.0842   3.0913   3.0913   3.2165   3.2165   3.2287   3.2287
     3.3588   3.3588   3.3982   3.3982   3.5842   3.5842   3.6244   3.6245
     3.7283   3.7283   3.8245   3.8245   4.2081   4.2081   4.2327   4.2327
     4.2821   4.2821   4.3485   4.3485   4.4244   4.4244   4.5241   4.5241
     4.6217   4.6217   4.7670   4.7670   5.0155   5.0155   5.0371   5.0371
     6.9753   6.9753   7.0417   7.0417   7.1386   7.1386   7.1486   7.1486
     7.2379   7.2379   7.2792   7.2793   7.3305   7.3305   7.3672   7.3672
     7.4448   7.4448   7.5165   7.5165   7.5680   7.5680   7.6019   7.6019
    11.3916  11.3917  11.4238  11.4238  11.6807  11.6807  11.7560  11.7560
    12.1388  12.1388  12.1888  12.1888  12.2521  12.2521  12.3007  12.3007
    12.4443  12.4443  12.5547  12.5547  12.9019  12.9019  12.9795  12.9795
    16.4410  16.4410  16.4872  16.4872  17.0296  17.0297  17.0705  17.0705
    17.2883  17.2883  17.3606  17.3606  17.3939

     the Fermi energy is     8.9351 ev

!    total energy              =   -6261.11043711 Ry
     Harris-Foulkes estimate   =   -6261.11043711 Ry
     estimated scf accuracy    <          5.2E-12 Ry

     The total energy is the sum of the following terms:

     one-electron contribution =   -4730.04416558 Ry
     hartree contribution      =    2601.20432313 Ry
     xc contribution           =    -965.66824684 Ry
     ewald contribution        =   -3166.60234782 Ry
     smearing contrib. (-TS)   =      -0.00000000 Ry

     convergence has been achieved in  15 iterations

     Forces acting on atoms (cartesian axes, Ry/au):

     atom    1 type  1   force =    -0.00232346    0.00206330    0.00162747
     atom    2 type  1   force =     0.00232346   -0.00206330   -0.00162747
     atom    3 type  1   force =     0.00232346   -0.00206330    0.00162747
     atom    4 type  1   force =    -0.00232346    0.00206330   -0.00162747
     atom    5 type  1   force =     0.00232346    0.00206330   -0.00162747
     atom    6 type  1   force =    -0.00232346   -0.00206330    0.00162747
     atom    7 type  1   force =    -0.00232346   -0.00206330   -0.00162747
     atom    8 type  1   force =     0.00232346    0.00206330    0.00162747
     atom    9 type  2   force =    -0.00030188   -0.00091065    0.00014971
     atom   10 type  2   force =     0.00030188    0.00091065   -0.00014971
     atom   11 type  2   force =     0.00030188    0.00091065    0.00014971
     atom   12 type  2   force =    -0.00030188   -0.00091065   -0.00014971
     atom   13 type  2   force =     0.00030188   -0.00091065   -0.00014971
     atom   14 type  2   force =    -0.00030188    0.00091065    0.00014971
     atom   15 type  2   force =    -0.00030188    0.00091065   -0.00014971
     atom   16 type  2   force =     0.00030188   -0.00091065    0.00014971
     atom   17 type  2   force =    -0.00118245   -0.00000742   -0.00010395
     atom   18 type  2   force =     0.00118245    0.00000742    0.00010395
     atom   19 type  2   force =     0.00118245    0.00000742   -0.00010395
     atom   20 type  2   force =    -0.00118245   -0.00000742    0.00010395
     atom   21 type  2   force =     0.00118245   -0.00000742    0.00010395
     atom   22 type  2   force =    -0.00118245    0.00000742   -0.00010395
     atom   23 type  2   force =    -0.00118245    0.00000742    0.00010395
     atom   24 type  2   force =     0.00118245   -0.00000742   -0.00010395
     atom   25 type  2   force =    -0.00054332   -0.00073692    0.00097784
     atom   26 type  2   force =     0.00054332    0.00073692   -0.00097784
     atom   27 type  2   force =     0.00054332    0.00073692    0.00097784
     atom   28 type  2   force =    -0.00054332   -0.00073692   -0.00097784
     atom   29 type  2   force =     0.00054332   -0.00073692   -0.00097784
     atom   30 type  2   force =    -0.00054332    0.00073692    0.00097784
     atom   31 type  2   force =    -0.00054332    0.00073692   -0.00097784
     atom   32 type  2   force =     0.00054332   -0.00073692    0.00097784

     Total force =     0.000000     Total SCF correction =     0.000000


     Computing stress (Cartesian axis) and pressure

          total   stress  (Ry/bohr**3)                   (kbar)     P=    0.06
   0.00000075   0.00000000   0.00000000          0.11      0.00      0.00
   0.00000000  -0.00000038   0.00000000          0.00     -0.06      0.00
   0.00000000   0.00000000   0.00000089          0.00      0.00      0.13


     Writing output data file Landau_12.save
 
     init_run     :     62.72s CPU     64.35s WALL (       2 calls)
     electrons    :   5576.90s CPU   5671.27s WALL (       6 calls)
     update_pot   :    115.63s CPU    115.79s WALL (       4 calls)
     forces       :    148.02s CPU    149.86s WALL (       6 calls)
     stress       :    854.35s CPU    864.39s WALL (       6 calls)

     Called by init_run:
     wfcinit      :     36.91s CPU     38.26s WALL (       2 calls)
     potinit      :     11.79s CPU     11.86s WALL (       2 calls)

     Called by electrons:
     c_bands      :   4857.17s CPU   4944.14s WALL (      83 calls)
     sum_band     :    639.92s CPU    643.33s WALL (      83 calls)
     v_of_rho     :     11.13s CPU     11.27s WALL (      88 calls)
     mix_rho      :     18.18s CPU     21.05s WALL (      83 calls)

     Called by c_bands:
     init_us_2    :     36.41s CPU     39.07s WALL (     168 calls)
     cegterg      :   3802.95s CPU   3888.76s WALL (      83 calls)

     Called by sum_band:

     Called by *egterg:
     h_psi        :   2882.79s CPU   2891.76s WALL (     309 calls)
     g_psi        :     12.27s CPU     12.28s WALL (     224 calls)
     cdiaghg      :     40.08s CPU     40.15s WALL (     302 calls)

     Called by h_psi:
     h_psi:pot    :   2862.80s CPU   2871.45s WALL (     309 calls)
     h_psi:calbec :    361.96s CPU    367.91s WALL (     309 calls)
     vloc_psi     :   2123.21s CPU   2125.13s WALL (     309 calls)
     add_vuspsi   :    377.62s CPU    378.41s WALL (     309 calls)

     General routines
     calbec       :    415.56s CPU    422.14s WALL (     339 calls)
     fft          :      7.93s CPU      7.95s WALL (     400 calls)
     fftw         :   2180.57s CPU   2181.68s WALL (  106037 calls)
 
     Parallel routines
 
     PWSCF        :     1h52m CPU        1h54m WALL

 
   This run was terminated on:  21:22:51   4Mar2020            

=------------------------------------------------------------------------------=
   JOB DONE.
=------------------------------------------------------------------------------=
