
     Program PWSCF v.6.2 (svn rev. 14038) starts on 26Mar2020 at  1:12:45 

     This program is part of the open-source Quantum ESPRESSO suite
     for quantum simulation of materials; please cite
         "P. Giannozzi et al., J. Phys.:Condens. Matter 21 395502 (2009);
         "P. Giannozzi et al., J. Phys.:Condens. Matter 29 465901 (2017);
          URL http://www.quantum-espresso.org", 
     in publications or presentations arising from this work. More details at
     http://www.quantum-espresso.org/quote

     Parallel version (MPI), running on    40 processors

     MPI processes distributed on     8 nodes
     K-points division:     npool     =      40
     Reading input from scf.in

     Current dimensions of program PWSCF are:
     Max number of different atomic species (ntypx) = 10
     Max number of k-points (npk) =  40000
     Max angular momentum in pseudopotentials (lmaxx) =  3

     Subspace diagonalization in iterative solution of the eigenvalue problem:
     a serial algorithm will be used

 
     G-vector sticks info
     --------------------
     sticks:   dense  smooth     PW     G-vecs:    dense   smooth      PW
     Sum        7765    7765   2091               505453   505453   70085
 


     bravais-lattice index     =            0
     lattice parameter (alat)  =      14.0006  a.u.
     unit-cell volume          =    2845.7813 (a.u.)^3
     number of atoms/cell      =           32
     number of atomic types    =            2
     number of electrons       =       369.00
     number of Kohn-Sham states=          222
     kinetic-energy cutoff     =     120.0000  Ry
     charge density cutoff     =     480.0000  Ry
     convergence threshold     =      1.0E-08
     mixing beta               =       0.7000
     number of iterations used =            8  plain     mixing
     Exchange-correlation      = SLA PW NOGX NOGC ( 1  4  0  0 0 0)

     celldm(1)=  14.000629  celldm(2)=   0.000000  celldm(3)=   0.000000
     celldm(4)=   0.000000  celldm(5)=   0.000000  celldm(6)=   0.000000

     crystal axes: (cart. coord. in units of alat)
               a(1) = (   1.000000   0.000000   0.000000 )  
               a(2) = (   0.000000   1.036768   0.000000 )  
               a(3) = (   0.000000   0.000000   1.000178 )  

     reciprocal axes: (cart. coord. in units 2 pi/alat)
               b(1) = (  1.000000  0.000000  0.000000 )  
               b(2) = (  0.000000  0.964536  0.000000 )  
               b(3) = (  0.000000  0.000000  0.999822 )  


     PseudoPot. # 1 for W  read from file:
     /cluster/scratch/mnoe/QE/pps/W_ONCV_LDA-4.0.upf
     MD5 check sum: ba0307d5d4cd419d6f1d13dc49d7c13a
     Pseudo is Norm-conserving + core correction, Zval = 28.0
     Generated using ONCVPSP code by D. R. Hamann
     Using radial grid of 1380 points,  8 beta functions with: 
                l(1) =   0
                l(2) =   0
                l(3) =   1
                l(4) =   1
                l(5) =   2
                l(6) =   2
                l(7) =   3
                l(8) =   3

     PseudoPot. # 2 for O  read from file:
     /cluster/scratch/mnoe/QE/pps/O_ONCV_LDA-3.0.upf
     MD5 check sum: a1bd6164e7280c17a38c229939bfbd54
     Pseudo is Norm-conserving + core correction, Zval =  6.0
     Generated using ONCVPSP code by D. R. Hamann
     Using radial grid of  926 points,  5 beta functions with: 
                l(1) =   0
                l(2) =   0
                l(3) =   1
                l(4) =   1
                l(5) =   2

     atomic species   valence    mass     pseudopotential
        W             28.00   183.84000     W ( 1.00)
        O              6.00    15.99940     O ( 1.00)

      4 Sym. Ops. (no inversion) found ( 3 have fractional translation)



   Cartesian axes

     site n.     atom                  positions (alat units)
         1           W   tau(   1) = (   0.2457471   0.2865990   0.0019767  )
         2           W   tau(   2) = (   0.7522165   0.7501693  -0.0041336  )
         3           W   tau(   3) = (   0.2542529   0.2317852   0.5020656  )
         4           W   tau(   4) = (   0.7477835   0.8049832   0.4959553  )
         5           W   tau(   5) = (   0.7542529   0.2865990   0.4981121  )
         6           W   tau(   6) = (   0.2477835   0.7501693   0.5042224  )
         7           W   tau(   7) = (   0.7457471   0.2317852  -0.0019767  )
         8           W   tau(   8) = (   0.2522165   0.8049832   0.0041336  )
         9           O   tau(   9) = (   0.2437159   0.0070936  -0.0010399  )
        10           O   tau(  10) = (   0.7556511  -0.0070937  -0.0029391  )
        11           O   tau(  11) = (   0.2562841   0.5112905   0.4990489  )
        12           O   tau(  12) = (   0.7443489   0.5254778   0.4971497  )
        13           O   tau(  13) = (   0.7562840   0.0070936   0.5011288  )
        14           O   tau(  14) = (   0.2443489  -0.0070937   0.5030280  )
        15           O   tau(  15) = (   0.7437159   0.5112905   0.0010399  )
        16           O   tau(  16) = (   0.2556511   0.5254778   0.0029391  )
        17           O   tau(  17) = (   0.5013318   0.2523839   0.4628875  )
        18           O   tau(  18) = (   0.4995623   0.7834611   0.5372903  )
        19           O   tau(  19) = (  -0.0013318   0.2660003   0.9629764  )
        20           O   tau(  20) = (   0.0004377   0.7716914   0.0372013  )
        21           O   tau(  21) = (   0.4986682   0.2523839   0.0372013  )
        22           O   tau(  22) = (   0.5004377   0.7834611   0.9629764  )
        23           O   tau(  23) = (   0.0013318   0.2660003   0.5372903  )
        24           O   tau(  24) = (  -0.0004377   0.7716914   0.4628875  )
        25           O   tau(  25) = (   0.7128052   0.2599226   0.7490869  )
        26           O   tau(  26) = (   0.2871947   0.7810767   0.2516807  )
        27           O   tau(  27) = (   0.7871948   0.2584615   0.2489981  )
        28           O   tau(  28) = (   0.2128053   0.7740758   0.7517696  )
        29           O   tau(  29) = (   0.2871947   0.2599226   0.7511796  )
        30           O   tau(  30) = (   0.7128052   0.7810767   0.2484082  )
        31           O   tau(  31) = (   0.2128053   0.2584615   0.2510908  )
        32           O   tau(  32) = (   0.7871948   0.7740758   0.7484970  )

     number of k points=    64  gaussian smearing, width (Ry)=  0.0007
                       cart. coord. in units 2pi/alat
        k(    1) = (   0.0000000   0.0000000   0.0000000), wk =   0.0092593
        k(    2) = (   0.0000000   0.0000000   0.1666370), wk =   0.0185185
        k(    3) = (   0.0000000   0.0000000   0.3332741), wk =   0.0185185
        k(    4) = (   0.0000000   0.0000000  -0.4999111), wk =   0.0092593
        k(    5) = (   0.0000000   0.1607559   0.0000000), wk =   0.0185185
        k(    6) = (   0.0000000   0.1607559   0.1666370), wk =   0.0370370
        k(    7) = (   0.0000000   0.1607559   0.3332741), wk =   0.0370370
        k(    8) = (   0.0000000   0.1607559  -0.4999111), wk =   0.0185185
        k(    9) = (   0.0000000   0.3215119   0.0000000), wk =   0.0185185
        k(   10) = (   0.0000000   0.3215119   0.1666370), wk =   0.0370370
        k(   11) = (   0.0000000   0.3215119   0.3332741), wk =   0.0370370
        k(   12) = (   0.0000000   0.3215119  -0.4999111), wk =   0.0185185
        k(   13) = (   0.0000000  -0.4822678   0.0000000), wk =   0.0092593
        k(   14) = (   0.0000000  -0.4822678   0.1666370), wk =   0.0185185
        k(   15) = (   0.0000000  -0.4822678   0.3332741), wk =   0.0185185
        k(   16) = (   0.0000000  -0.4822678  -0.4999111), wk =   0.0092593
        k(   17) = (   0.1666667   0.0000000   0.0000000), wk =   0.0185185
        k(   18) = (   0.1666667   0.0000000   0.1666370), wk =   0.0370370
        k(   19) = (   0.1666667   0.0000000   0.3332741), wk =   0.0370370
        k(   20) = (   0.1666667   0.0000000  -0.4999111), wk =   0.0185185
        k(   21) = (   0.1666667   0.1607559   0.0000000), wk =   0.0370370
        k(   22) = (   0.1666667   0.1607559   0.1666370), wk =   0.0740741
        k(   23) = (   0.1666667   0.1607559   0.3332741), wk =   0.0740741
        k(   24) = (   0.1666667   0.1607559  -0.4999111), wk =   0.0370370
        k(   25) = (   0.1666667   0.3215119   0.0000000), wk =   0.0370370
        k(   26) = (   0.1666667   0.3215119   0.1666370), wk =   0.0740741
        k(   27) = (   0.1666667   0.3215119   0.3332741), wk =   0.0740741
        k(   28) = (   0.1666667   0.3215119  -0.4999111), wk =   0.0370370
        k(   29) = (   0.1666667  -0.4822678   0.0000000), wk =   0.0185185
        k(   30) = (   0.1666667  -0.4822678   0.1666370), wk =   0.0370370
        k(   31) = (   0.1666667  -0.4822678   0.3332741), wk =   0.0370370
        k(   32) = (   0.1666667  -0.4822678  -0.4999111), wk =   0.0185185
        k(   33) = (   0.3333333   0.0000000   0.0000000), wk =   0.0185185
        k(   34) = (   0.3333333   0.0000000   0.1666370), wk =   0.0370370
        k(   35) = (   0.3333333   0.0000000   0.3332741), wk =   0.0370370
        k(   36) = (   0.3333333   0.0000000  -0.4999111), wk =   0.0185185
        k(   37) = (   0.3333333   0.1607559   0.0000000), wk =   0.0370370
        k(   38) = (   0.3333333   0.1607559   0.1666370), wk =   0.0740741
        k(   39) = (   0.3333333   0.1607559   0.3332741), wk =   0.0740741
        k(   40) = (   0.3333333   0.1607559  -0.4999111), wk =   0.0370370
        k(   41) = (   0.3333333   0.3215119   0.0000000), wk =   0.0370370
        k(   42) = (   0.3333333   0.3215119   0.1666370), wk =   0.0740741
        k(   43) = (   0.3333333   0.3215119   0.3332741), wk =   0.0740741
        k(   44) = (   0.3333333   0.3215119  -0.4999111), wk =   0.0370370
        k(   45) = (   0.3333333  -0.4822678   0.0000000), wk =   0.0185185
        k(   46) = (   0.3333333  -0.4822678   0.1666370), wk =   0.0370370
        k(   47) = (   0.3333333  -0.4822678   0.3332741), wk =   0.0370370
        k(   48) = (   0.3333333  -0.4822678  -0.4999111), wk =   0.0185185
        k(   49) = (  -0.5000000   0.0000000   0.0000000), wk =   0.0092593
        k(   50) = (  -0.5000000   0.0000000   0.1666370), wk =   0.0185185
        k(   51) = (  -0.5000000   0.0000000   0.3332741), wk =   0.0185185
        k(   52) = (  -0.5000000   0.0000000  -0.4999111), wk =   0.0092593
        k(   53) = (  -0.5000000   0.1607559   0.0000000), wk =   0.0185185
        k(   54) = (  -0.5000000   0.1607559   0.1666370), wk =   0.0370370
        k(   55) = (  -0.5000000   0.1607559   0.3332741), wk =   0.0370370
        k(   56) = (  -0.5000000   0.1607559  -0.4999111), wk =   0.0185185
        k(   57) = (  -0.5000000   0.3215119   0.0000000), wk =   0.0185185
        k(   58) = (  -0.5000000   0.3215119   0.1666370), wk =   0.0370370
        k(   59) = (  -0.5000000   0.3215119   0.3332741), wk =   0.0370370
        k(   60) = (  -0.5000000   0.3215119  -0.4999111), wk =   0.0185185
        k(   61) = (  -0.5000000  -0.4822678   0.0000000), wk =   0.0092593
        k(   62) = (  -0.5000000  -0.4822678   0.1666370), wk =   0.0185185
        k(   63) = (  -0.5000000  -0.4822678   0.3332741), wk =   0.0185185
        k(   64) = (  -0.5000000  -0.4822678  -0.4999111), wk =   0.0092593

     Dense  grid:   505453 G-vectors     FFT dimensions: ( 100, 108, 100)

     Estimated max dynamical RAM per process >       3.18 GB

     Estimated total dynamical RAM >     127.26 GB

     Initial potential from superposition of free atoms

     starting charge  367.99656, renormalised to  369.00000
     Starting wfc are  232 randomized atomic wfcs

     total cpu time spent up to now is       32.9 secs

     Self-consistent Calculation

     iteration #  1     ecut=   120.00 Ry     beta= 0.70
     Davidson diagonalization with overlap
     ethr =  1.00E-02,  avg # of iterations =  5.5

     total cpu time spent up to now is      139.8 secs

     total energy              =   -6253.07261592 Ry
     Harris-Foulkes estimate   =   -6264.10885931 Ry
     estimated scf accuracy    <      13.85410773 Ry

     iteration #  2     ecut=   120.00 Ry     beta= 0.70
     Davidson diagonalization with overlap
     ethr =  3.75E-03,  avg # of iterations =  3.7

     total cpu time spent up to now is      243.5 secs

     total energy              =   -6250.14481466 Ry
     Harris-Foulkes estimate   =   -6269.99069344 Ry
     estimated scf accuracy    <      52.36903596 Ry

     iteration #  3     ecut=   120.00 Ry     beta= 0.70
     Davidson diagonalization with overlap
     ethr =  3.75E-03,  avg # of iterations =  3.4

     total cpu time spent up to now is      342.0 secs

     total energy              =   -6260.41110305 Ry
     Harris-Foulkes estimate   =   -6260.66987213 Ry
     estimated scf accuracy    <       0.89007318 Ry

     iteration #  4     ecut=   120.00 Ry     beta= 0.70
     Davidson diagonalization with overlap
     ethr =  2.41E-04,  avg # of iterations =  3.6

     total cpu time spent up to now is      425.2 secs

     total energy              =   -6260.37771114 Ry
     Harris-Foulkes estimate   =   -6260.46683342 Ry
     estimated scf accuracy    <       0.23156398 Ry

     iteration #  5     ecut=   120.00 Ry     beta= 0.70
     Davidson diagonalization with overlap
     ethr =  6.28E-05,  avg # of iterations =  5.4

     total cpu time spent up to now is      518.3 secs

     total energy              =   -6260.39923668 Ry
     Harris-Foulkes estimate   =   -6260.42818304 Ry
     estimated scf accuracy    <       0.07685386 Ry

     iteration #  6     ecut=   120.00 Ry     beta= 0.70
     Davidson diagonalization with overlap
     ethr =  2.08E-05,  avg # of iterations =  5.9

     total cpu time spent up to now is      609.4 secs

     total energy              =   -6260.41033857 Ry
     Harris-Foulkes estimate   =   -6260.41702576 Ry
     estimated scf accuracy    <       0.02858970 Ry

     iteration #  7     ecut=   120.00 Ry     beta= 0.70
     Davidson diagonalization with overlap
     ethr =  7.75E-06,  avg # of iterations =  4.7

     total cpu time spent up to now is      703.7 secs

     total energy              =   -6260.41261593 Ry
     Harris-Foulkes estimate   =   -6260.41430048 Ry
     estimated scf accuracy    <       0.01105135 Ry

     iteration #  8     ecut=   120.00 Ry     beta= 0.70
     Davidson diagonalization with overlap
     ethr =  2.99E-06,  avg # of iterations =  2.1

     total cpu time spent up to now is      786.5 secs

     total energy              =   -6260.41192883 Ry
     Harris-Foulkes estimate   =   -6260.41292450 Ry
     estimated scf accuracy    <       0.00348543 Ry

     iteration #  9     ecut=   120.00 Ry     beta= 0.70
     Davidson diagonalization with overlap
     ethr =  9.45E-07,  avg # of iterations =  4.3

     total cpu time spent up to now is      872.8 secs

     total energy              =   -6260.41221367 Ry
     Harris-Foulkes estimate   =   -6260.41235531 Ry
     estimated scf accuracy    <       0.00068181 Ry

     iteration # 10     ecut=   120.00 Ry     beta= 0.70
     Davidson diagonalization with overlap
     ethr =  1.85E-07,  avg # of iterations =  2.2

     total cpu time spent up to now is      950.4 secs

     total energy              =   -6260.41228344 Ry
     Harris-Foulkes estimate   =   -6260.41234303 Ry
     estimated scf accuracy    <       0.00047402 Ry

     iteration # 11     ecut=   120.00 Ry     beta= 0.70
     Davidson diagonalization with overlap
     ethr =  1.28E-07,  avg # of iterations =  1.0

     total cpu time spent up to now is     1023.9 secs

     total energy              =   -6260.41230935 Ry
     Harris-Foulkes estimate   =   -6260.41231095 Ry
     estimated scf accuracy    <       0.00000508 Ry

     iteration # 12     ecut=   120.00 Ry     beta= 0.70
     Davidson diagonalization with overlap
     ethr =  1.38E-09,  avg # of iterations =  3.5

     total cpu time spent up to now is     1113.6 secs

     total energy              =   -6260.41231032 Ry
     Harris-Foulkes estimate   =   -6260.41231076 Ry
     estimated scf accuracy    <       0.00000089 Ry

     iteration # 13     ecut=   120.00 Ry     beta= 0.70
     Davidson diagonalization with overlap
     ethr =  2.41E-10,  avg # of iterations =  3.0

     total cpu time spent up to now is     1211.8 secs

     total energy              =   -6260.41231048 Ry
     Harris-Foulkes estimate   =   -6260.41231074 Ry
     estimated scf accuracy    <       0.00000256 Ry

     iteration # 14     ecut=   120.00 Ry     beta= 0.70
     Davidson diagonalization with overlap
     ethr =  2.41E-10,  avg # of iterations =  1.2

     total cpu time spent up to now is     1285.9 secs

     total energy              =   -6260.41231057 Ry
     Harris-Foulkes estimate   =   -6260.41231058 Ry
     estimated scf accuracy    <       0.00000007 Ry

     iteration # 15     ecut=   120.00 Ry     beta= 0.70
     Davidson diagonalization with overlap
     ethr =  1.82E-11,  avg # of iterations =  2.4

     total cpu time spent up to now is     1366.4 secs

     End of self-consistent calculation

          k = 0.0000 0.0000 0.0000 ( 63239 PWs)   bands (ev):

   -66.2089 -66.2084 -66.2081 -66.2080 -66.2076 -66.2076 -66.2072 -66.2067
   -30.6449 -30.6410 -30.6409 -30.6371 -30.5791 -30.5751 -30.5747 -30.5709
   -30.5508 -30.5494 -30.5459 -30.5450 -30.5450 -30.5444 -30.5410 -30.5400
   -30.4558 -30.4555 -30.4519 -30.4517 -30.4512 -30.4510 -30.4476 -30.4467
   -20.3601 -20.3597 -20.3596 -20.3592 -20.3551 -20.3550 -20.3549 -20.3548
   -20.3547 -20.3547 -20.3547 -20.3546 -20.3539 -20.3535 -20.3533 -20.3530
   -20.3496 -20.3495 -20.3494 -20.3494 -20.3483 -20.3482 -20.3481 -20.3481
   -20.3462 -20.3462 -20.3461 -20.3461 -20.3449 -20.3448 -20.3447 -20.3446
   -20.3355 -20.3354 -20.3349 -20.3348 -20.3348 -20.3347 -20.3342 -20.3341
   -20.3034 -20.3033 -20.3030 -20.3030 -20.3018 -20.3016 -20.3015 -20.3014
   -20.2979 -20.2978 -20.2977 -20.2976 -20.2964 -20.2963 -20.2960 -20.2960
   -10.1014  -9.7927  -9.7179  -9.7177  -9.4159  -9.4144  -9.3455  -9.1915
    -9.1741  -9.1169  -9.0892  -9.0888  -8.0147  -7.9589  -7.9578  -7.9089
    -7.8862  -7.8848  -7.8541  -7.8518  -7.7880  -7.7877  -7.7592  -7.7590
     1.0109   1.0147   1.0745   1.0760   1.1113   1.1218   1.1253   1.3096
     1.3641   1.3667   1.3930   1.6029   2.3259   2.3887   2.3920   2.4173
     2.5197   2.5226   4.0906   4.0951   4.2636   4.2710   4.5933   4.5969
     4.5998   4.6053   4.6389   4.6398   4.7360   4.7362   4.9225   5.2498
     5.2565   5.3233   5.3273   5.3931   5.4037   5.4119   5.4153   5.6290
     5.6302   5.6794   5.7274   5.7330   5.8164   5.9752   5.9759   6.0011
     6.0051   6.1956   6.1991   6.2843   6.2844   6.6624   6.6898   6.6953
     6.7473   6.7509   6.8712   6.9054   6.9335   6.9367   7.1495   7.1531
     7.1619   7.1652   7.8748   7.8857   7.9354   7.9432   7.9945   8.0032
     9.0662   9.0846   9.5819   9.5842   9.5924   9.5952  12.2192  12.2247
    12.2911  12.2919  12.3339  12.3371  12.3896  12.3962  12.8846  12.9332
    13.0886  13.0943  13.1384  13.1772  13.7803  13.9605  14.0015  14.0084
    14.0579  14.2555  14.2980  14.5710  15.0799  15.0897  15.4505  15.8797
    15.8853  16.7958  16.9341  16.9544  16.9601  17.2244

          k = 0.0000 0.0000 0.1666 ( 63179 PWs)   bands (ev):

   -66.2088 -66.2084 -66.2081 -66.2080 -66.2076 -66.2075 -66.2073 -66.2068
   -30.6447 -30.6413 -30.6407 -30.6374 -30.5789 -30.5754 -30.5746 -30.5712
   -30.5497 -30.5453 -30.5453 -30.5428 -30.5403 -30.5395 -30.5387 -30.5347
   -30.4622 -30.4581 -30.4579 -30.4552 -30.4539 -30.4513 -30.4509 -30.4472
   -20.3600 -20.3597 -20.3596 -20.3592 -20.3551 -20.3550 -20.3549 -20.3548
   -20.3548 -20.3547 -20.3547 -20.3546 -20.3539 -20.3535 -20.3533 -20.3530
   -20.3496 -20.3494 -20.3492 -20.3491 -20.3481 -20.3481 -20.3481 -20.3479
   -20.3464 -20.3463 -20.3462 -20.3460 -20.3451 -20.3448 -20.3448 -20.3447
   -20.3355 -20.3353 -20.3349 -20.3348 -20.3348 -20.3347 -20.3342 -20.3341
   -20.3031 -20.3030 -20.3029 -20.3028 -20.3016 -20.3015 -20.3014 -20.3013
   -20.2983 -20.2982 -20.2976 -20.2975 -20.2967 -20.2966 -20.2962 -20.2961
   -10.0580  -9.7402  -9.7315  -9.6621  -9.4249  -9.3532  -9.3255  -9.1578
    -9.1327  -9.0982  -9.0919  -9.0527  -8.0194  -8.0088  -7.9904  -7.9624
    -7.9486  -7.9207  -7.9120  -7.8946  -7.8774  -7.8468  -7.7941  -7.7653
     1.0723   1.0762   1.0995   1.1291   1.1951   1.2090   1.3050   1.3638
     1.3890   1.4994   1.5772   1.7358   2.3975   2.4105   2.4770   2.5044
     2.5113   2.6080   4.0069   4.0984   4.2007   4.2574   4.2898   4.2963
     4.3833   4.5160   4.5910   4.6710   4.6891   4.7359   4.9071   5.0920
     5.1662   5.2397   5.2979   5.3903   5.3975   5.4247   5.4464   5.4518
     5.5671   5.6803   5.6840   5.7280   5.8291   5.8709   5.9782   6.0559
     6.1920   6.2745   6.3347   6.3936   6.5523   6.5842   6.5898   6.6500
     6.6871   6.7450   6.7972   6.8127   6.8904   6.9194   6.9280   6.9424
     6.9817   7.0107   7.8494   7.8513   7.9029   7.9538   7.9578   7.9961
     9.4352   9.4379   9.5817   9.5955   9.8794   9.8905  12.1601  12.1970
    12.2113  12.2851  12.3424  12.3669  12.3957  12.4816  12.7340  12.8677
    12.8949  13.0904  13.1980  13.2224  13.8349  13.8768  13.8893  13.9590
    14.0825  14.2944  14.4100  14.6822  15.1469  15.1785  15.4180  15.8585
    16.2383  16.6177  16.9742  17.0230  17.1485  17.2717

          k = 0.0000 0.0000 0.3333 ( 63181 PWs)   bands (ev):

   -66.2087 -66.2083 -66.2082 -66.2078 -66.2078 -66.2074 -66.2074 -66.2070
   -30.6441 -30.6421 -30.6402 -30.6382 -30.5782 -30.5762 -30.5740 -30.5720
   -30.5487 -30.5462 -30.5437 -30.5412 -30.5263 -30.5224 -30.5217 -30.5176
   -30.4795 -30.4753 -30.4751 -30.4709 -30.4544 -30.4522 -30.4501 -30.4480
   -20.3600 -20.3598 -20.3596 -20.3593 -20.3550 -20.3549 -20.3549 -20.3548
   -20.3548 -20.3547 -20.3547 -20.3546 -20.3538 -20.3536 -20.3533 -20.3531
   -20.3495 -20.3495 -20.3487 -20.3485 -20.3481 -20.3480 -20.3475 -20.3473
   -20.3469 -20.3469 -20.3464 -20.3460 -20.3457 -20.3453 -20.3448 -20.3447
   -20.3353 -20.3352 -20.3350 -20.3349 -20.3346 -20.3345 -20.3343 -20.3342
   -20.3027 -20.3026 -20.3021 -20.3020 -20.3019 -20.3018 -20.3005 -20.3004
   -20.2994 -20.2992 -20.2978 -20.2977 -20.2973 -20.2972 -20.2965 -20.2964
    -9.9551  -9.7738  -9.6230  -9.5380  -9.4578  -9.3792  -9.1267  -9.1005
    -9.0678  -8.9827  -8.9600  -8.9141  -8.3235  -8.3133  -8.2597  -8.2496
    -7.9949  -7.9718  -7.9434  -7.9207  -7.8600  -7.8295  -7.8117  -7.7824
     1.0770   1.0799   1.1387   1.1491   1.2694   1.2948   1.3184   1.3579
     2.1074   2.1559   2.2592   2.3371   2.4202   2.4943   2.6561   2.7162
     2.7602   2.8438   3.6163   3.6756   3.7173   3.8923   3.9069   4.1648
     4.2224   4.3334   4.4034   4.5554   4.5638   4.6247   4.7665   4.8542
     4.9167   4.9284   4.9576   5.1838   5.1999   5.3173   5.4921   5.5456
     5.5892   5.6366   5.7002   5.7354   5.8607   6.0177   6.0701   6.1499
     6.1794   6.2150   6.2437   6.3328   6.3865   6.3909   6.4614   6.6079
     6.6680   6.7398   6.7471   6.8041   6.8982   6.9116   6.9382   6.9800
     7.0930   7.1400   7.6897   7.7302   7.7766   7.7996   7.9861   7.9975
     9.5815   9.5843  10.1766  10.2148  10.5521  10.5966  11.7234  11.7549
    11.9641  12.1903  12.4002  12.4738  12.5040  12.5162  12.5352  12.7227
    12.8706  13.0690  13.0991  13.1056  13.4952  13.5310  13.9432  13.9552
    14.1961  14.2828  14.7782  14.9843  15.3126  15.3758  15.6810  15.7741
    16.0226  17.1723  17.2076  17.2737  17.4063  17.5411

          k = 0.0000 0.0000-0.4999 ( 63136 PWs)   bands (ev):

   -66.2085 -66.2085 -66.2080 -66.2080 -66.2076 -66.2076 -66.2072 -66.2072
   -30.6432 -30.6432 -30.6392 -30.6392 -30.5772 -30.5772 -30.5730 -30.5730
   -30.5475 -30.5475 -30.5424 -30.5424 -30.5030 -30.5030 -30.4989 -30.4989
   -30.4984 -30.4984 -30.4943 -30.4943 -30.4533 -30.4533 -30.4491 -30.4491
   -20.3599 -20.3599 -20.3595 -20.3595 -20.3550 -20.3550 -20.3549 -20.3549
   -20.3548 -20.3548 -20.3546 -20.3546 -20.3538 -20.3538 -20.3532 -20.3532
   -20.3495 -20.3495 -20.3482 -20.3482 -20.3477 -20.3477 -20.3476 -20.3476
   -20.3468 -20.3468 -20.3465 -20.3465 -20.3458 -20.3458 -20.3448 -20.3448
   -20.3352 -20.3351 -20.3350 -20.3350 -20.3345 -20.3345 -20.3344 -20.3344
   -20.3023 -20.3023 -20.3022 -20.3022 -20.3008 -20.3008 -20.3006 -20.3006
   -20.2992 -20.2992 -20.2990 -20.2990 -20.2969 -20.2969 -20.2968 -20.2968
    -9.8492  -9.8492  -9.5202  -9.5202  -9.4348  -9.4348  -9.1124  -9.1124
    -8.6927  -8.6927  -8.6841  -8.6841  -8.6786  -8.6786  -8.6285  -8.6285
    -7.9842  -7.9842  -7.9323  -7.9323  -7.8357  -7.8357  -7.8058  -7.8058
     1.0786   1.0786   1.1492   1.1492   1.2838   1.2838   1.3489   1.3489
     2.4504   2.4504   2.8943   2.8943   2.9779   2.9779   3.0369   3.0369
     3.1279   3.1279   3.1984   3.1985   3.2937   3.2937   3.5885   3.5885
     3.6276   3.6276   4.2925   4.2925   4.5222   4.5222   4.7622   4.7622
     5.0383   5.0383   5.0756   5.0756   5.1345   5.1345   5.5967   5.5967
     5.6087   5.6087   5.7945   5.7945   5.9312   5.9312   6.0530   6.0530
     6.1494   6.1494   6.1867   6.1867   6.3011   6.3011   6.3992   6.3993
     6.6562   6.6562   6.7379   6.7379   6.9249   6.9249   7.3683   7.3683
     7.4400   7.4400   7.5105   7.5105   7.5240   7.5240   7.9964   7.9964
     9.5822   9.5822  11.0001  11.0001  11.0438  11.0438  11.3273  11.3273
    11.4266  11.4266  12.4226  12.4226  12.7163  12.7164  12.7901  12.7901
    12.7937  12.7937  13.0960  13.0960  13.1953  13.1953  13.9507  13.9508
    14.2586  14.2586  15.1085  15.1085  15.4462  15.4462  15.6174  15.6174
    16.5009  16.5009  17.5945  17.5945  17.6325  17.6325

          k = 0.0000 0.1608 0.0000 ( 63163 PWs)   bands (ev):

   -66.2089 -66.2085 -66.2080 -66.2080 -66.2076 -66.2076 -66.2072 -66.2068
   -30.6405 -30.6366 -30.6365 -30.6327 -30.5833 -30.5794 -30.5791 -30.5754
   -30.5506 -30.5493 -30.5461 -30.5449 -30.5448 -30.5448 -30.5412 -30.5403
   -30.4557 -30.4553 -30.4518 -30.4517 -30.4514 -30.4509 -30.4477 -30.4469
   -20.3597 -20.3593 -20.3592 -20.3588 -20.3551 -20.3550 -20.3548 -20.3548
   -20.3548 -20.3547 -20.3547 -20.3546 -20.3543 -20.3539 -20.3537 -20.3534
   -20.3495 -20.3494 -20.3493 -20.3493 -20.3483 -20.3483 -20.3482 -20.3482
   -20.3461 -20.3461 -20.3460 -20.3460 -20.3450 -20.3449 -20.3448 -20.3447
   -20.3355 -20.3354 -20.3349 -20.3348 -20.3348 -20.3347 -20.3342 -20.3341
   -20.3034 -20.3033 -20.3030 -20.3030 -20.3018 -20.3016 -20.3015 -20.3014
   -20.2979 -20.2978 -20.2977 -20.2976 -20.2964 -20.2963 -20.2960 -20.2960
   -10.0680  -9.8041  -9.6756  -9.6755  -9.4233  -9.4219  -9.2665  -9.1903
    -9.1753  -9.0699  -9.0511  -9.0508  -8.1195  -8.0689  -8.0680  -8.0259
    -7.8847  -7.8828  -7.8563  -7.8541  -7.7862  -7.7861  -7.7611  -7.7609
     1.0111   1.0144   1.1023   1.1047   1.1222   1.1257   1.2475   1.3927
     1.5228   1.5906   1.5926   1.7610   2.3319   2.4107   2.4634   2.4671
     2.5917   2.5950   3.9348   3.9403   3.9796   3.9856   4.5977   4.6026
     4.6092   4.6320   4.6362   4.6679   4.7034   4.7038   4.7354   5.1018
     5.1052   5.2112   5.2119   5.4498   5.4697   5.4716   5.5402   5.5482
     5.5729   5.5747   5.7223   5.8310   5.8346   5.9725   5.9735   6.0028
     6.0054   6.1817   6.1860   6.3097   6.3124   6.6756   6.6796   6.6840
     6.6998   6.7593   6.7621   6.8277   6.8297   6.8591   7.1522   7.1553
     7.1640   7.1670   7.8764   7.8848   7.8926   7.8989   7.9210   7.9264
     9.0683   9.0836   9.7962   9.7969   9.8249   9.8256  12.0788  12.0880
    12.2182  12.2244  12.2996  12.3031  12.3337  12.3359  12.9192  12.9721
    13.0990  13.1044  13.1382  13.1840  13.8628  13.8869  13.8915  13.9074
    14.1891  14.5279  14.5434  14.7510  15.0802  15.0883  15.8484  15.8533
    15.8655  16.4274  17.0041  17.1030  17.1087  17.3184

          k = 0.0000 0.1608 0.1666 ( 63217 PWs)   bands (ev):

   -66.2088 -66.2084 -66.2081 -66.2080 -66.2077 -66.2076 -66.2072 -66.2068
   -30.6403 -30.6369 -30.6363 -30.6330 -30.5831 -30.5797 -30.5790 -30.5757
   -30.5495 -30.5454 -30.5451 -30.5429 -30.5406 -30.5397 -30.5386 -30.5349
   -30.4620 -30.4582 -30.4578 -30.4550 -30.4540 -30.4511 -30.4511 -30.4474
   -20.3596 -20.3593 -20.3592 -20.3589 -20.3551 -20.3550 -20.3549 -20.3548
   -20.3548 -20.3547 -20.3547 -20.3546 -20.3542 -20.3539 -20.3537 -20.3534
   -20.3495 -20.3493 -20.3492 -20.3491 -20.3482 -20.3482 -20.3481 -20.3480
   -20.3463 -20.3462 -20.3462 -20.3460 -20.3452 -20.3449 -20.3449 -20.3448
   -20.3355 -20.3354 -20.3349 -20.3348 -20.3348 -20.3347 -20.3342 -20.3341
   -20.3031 -20.3030 -20.3029 -20.3028 -20.3016 -20.3015 -20.3014 -20.3013
   -20.2983 -20.2982 -20.2976 -20.2975 -20.2968 -20.2966 -20.2962 -20.2961
   -10.0232  -9.7517  -9.6892  -9.6146  -9.4326  -9.3330  -9.2742  -9.1532
    -9.1339  -9.0561  -9.0539  -9.0199  -8.1193  -8.0781  -8.0667  -8.0331
    -8.0092  -7.9794  -7.9193  -7.8942  -7.8758  -7.8489  -7.7925  -7.7672
     1.0941   1.1002   1.1073   1.1294   1.3224   1.3548   1.3892   1.5274
     1.5767   1.5898   1.6353   1.8368   2.4172   2.4719   2.4971   2.5535
     2.5846   2.6802   3.9041   3.9581   3.9733   4.0208   4.2329   4.2940
     4.4306   4.4466   4.5985   4.6628   4.6852   4.7091   4.7340   5.0164
     5.0676   5.1251   5.1577   5.2361   5.3365   5.4305   5.4728   5.5467
     5.5915   5.6337   5.6911   5.7630   5.8017   5.9171   5.9790   6.0490
     6.1018   6.3020   6.3144   6.3605   6.5357   6.5941   6.6289   6.6497
     6.6897   6.7686   6.7892   6.8121   6.8192   6.8380   6.9196   6.9244
     6.9905   7.0137   7.8452   7.8504   7.8650   7.8837   7.9014   7.9221
     9.4391   9.4414   9.8000   9.8246  10.0545  10.0732  12.0688  12.1505
    12.1768  12.2012  12.2265  12.2732  12.3556  12.4045  12.7770  12.8674
    12.9323  13.0978  13.1987  13.2249  13.7364  13.7727  13.8736  13.8852
    14.3019  14.5396  14.7139  14.8458  15.1464  15.1806  15.8254  15.8347
    16.2050  16.5745  16.7445  17.0884  17.2738  17.4004

          k = 0.0000 0.1608 0.3333 ( 63164 PWs)   bands (ev):

   -66.2087 -66.2082 -66.2082 -66.2078 -66.2078 -66.2074 -66.2074 -66.2070
   -30.6397 -30.6377 -30.6358 -30.6338 -30.5825 -30.5805 -30.5784 -30.5764
   -30.5485 -30.5460 -30.5440 -30.5415 -30.5262 -30.5225 -30.5216 -30.5178
   -30.4793 -30.4755 -30.4749 -30.4711 -30.4542 -30.4521 -30.4503 -30.4482
   -20.3596 -20.3594 -20.3592 -20.3589 -20.3551 -20.3550 -20.3549 -20.3548
   -20.3548 -20.3548 -20.3547 -20.3546 -20.3542 -20.3540 -20.3537 -20.3535
   -20.3495 -20.3494 -20.3486 -20.3485 -20.3482 -20.3481 -20.3475 -20.3474
   -20.3469 -20.3468 -20.3463 -20.3459 -20.3458 -20.3454 -20.3449 -20.3448
   -20.3353 -20.3352 -20.3350 -20.3349 -20.3346 -20.3345 -20.3343 -20.3342
   -20.3027 -20.3026 -20.3021 -20.3020 -20.3019 -20.3018 -20.3005 -20.3004
   -20.2994 -20.2992 -20.2978 -20.2977 -20.2973 -20.2972 -20.2965 -20.2964
    -9.9169  -9.7318  -9.6340  -9.4756  -9.4661  -9.3008  -9.0963  -9.0757
    -9.0626  -8.9846  -8.9470  -8.8962  -8.3246  -8.3179  -8.2749  -8.2481
    -8.0960  -8.0757  -8.0522  -8.0272  -7.8584  -7.8315  -7.8101  -7.7843
     1.1140   1.1251   1.1390   1.1495   1.4913   1.4973   1.5629   1.5863
     2.1065   2.1639   2.2596   2.3519   2.4942   2.5631   2.6661   2.7557
     2.7952   2.9114   3.6172   3.6998   3.7122   3.8495   3.9503   4.0014
     4.0271   4.1298   4.4202   4.5506   4.5568   4.6032   4.6338   4.6767
     4.7704   4.9116   4.9234   4.9697   5.1556   5.1769   5.3364   5.4785
     5.5478   5.6268   5.6454   5.7756   5.8019   5.9666   6.0428   6.1064
     6.1693   6.2697   6.3336   6.3766   6.4602   6.4986   6.5677   6.6367
     6.6721   6.6844   6.7578   6.7936   6.8277   6.8546   6.9541   6.9709
     7.0917   7.1395   7.6881   7.7265   7.7421   7.7542   7.9170   7.9236
     9.8010   9.8154  10.1851  10.2174  10.6754  10.7028  11.7248  11.7540
    11.9430  12.2294  12.2405  12.3736  12.4360  12.4458  12.5243  12.6246
    12.9011  13.0508  13.1032  13.1102  13.3783  13.4321  13.8749  13.8822
    14.4586  14.5295  15.1265  15.1365  15.3662  15.7117  15.7247  15.7468
    16.1495  16.9813  17.1298  17.2785  17.3257  17.7012

          k = 0.0000 0.1608-0.4999 ( 63142 PWs)   bands (ev):

   -66.2084 -66.2084 -66.2080 -66.2080 -66.2076 -66.2076 -66.2072 -66.2072
   -30.6387 -30.6387 -30.6348 -30.6348 -30.5816 -30.5815 -30.5775 -30.5775
   -30.5473 -30.5473 -30.5428 -30.5428 -30.5029 -30.5028 -30.4990 -30.4990
   -30.4983 -30.4983 -30.4944 -30.4944 -30.4531 -30.4531 -30.4492 -30.4492
   -20.3595 -20.3595 -20.3591 -20.3591 -20.3550 -20.3550 -20.3549 -20.3549
   -20.3548 -20.3548 -20.3546 -20.3546 -20.3541 -20.3541 -20.3536 -20.3536
   -20.3494 -20.3494 -20.3483 -20.3483 -20.3477 -20.3477 -20.3475 -20.3475
   -20.3468 -20.3468 -20.3466 -20.3466 -20.3458 -20.3458 -20.3449 -20.3449
   -20.3351 -20.3351 -20.3351 -20.3350 -20.3345 -20.3345 -20.3344 -20.3344
   -20.3023 -20.3023 -20.3022 -20.3022 -20.3008 -20.3008 -20.3006 -20.3006
   -20.2992 -20.2992 -20.2990 -20.2990 -20.2969 -20.2969 -20.2968 -20.2968
    -9.8083  -9.8083  -9.5297  -9.5297  -9.3600  -9.3599  -9.0756  -9.0756
    -8.6981  -8.6981  -8.6918  -8.6918  -8.6748  -8.6748  -8.6229  -8.6229
    -8.0884  -8.0884  -8.0418  -8.0418  -7.8342  -7.8342  -7.8078  -7.8078
     1.1222   1.1222   1.1496   1.1496   1.5044   1.5044   1.5830   1.5830
     2.5224   2.5224   2.9117   2.9117   3.0247   3.0247   3.0318   3.0318
     3.1360   3.1360   3.1946   3.1946   3.2854   3.2854   3.6079   3.6079
     3.6772   3.6772   4.0642   4.0642   4.4738   4.4738   4.5678   4.5678
     4.8375   4.8375   5.0456   5.0456   5.1344   5.1344   5.3098   5.3098
     5.5488   5.5488   5.7266   5.7266   5.9611   5.9611   6.1268   6.1268
     6.1713   6.1713   6.2160   6.2160   6.3845   6.3845   6.5064   6.5064
     6.7160   6.7160   6.7225   6.7225   6.8149   6.8149   7.3814   7.3814
     7.4344   7.4344   7.4855   7.4855   7.5037   7.5037   7.9236   7.9236
     9.8096   9.8096  11.0056  11.0056  11.0434  11.0434  11.4021  11.4021
    11.4941  11.4941  12.2598  12.2598  12.6843  12.6843  12.7350  12.7350
    12.8051  12.8051  12.9944  12.9944  13.1465  13.1465  13.8774  13.8774
    14.5094  14.5094  15.4843  15.4843  15.5916  15.5916  15.6044  15.6044
    16.5601  16.5601  17.3801  17.3801  17.6559  17.6559

          k = 0.0000 0.3215 0.0000 ( 63250 PWs)   bands (ev):

   -66.2088 -66.2085 -66.2079 -66.2079 -66.2077 -66.2077 -66.2071 -66.2069
   -30.6283 -30.6245 -30.6244 -30.6207 -30.5952 -30.5915 -30.5912 -30.5876
   -30.5500 -30.5491 -30.5464 -30.5456 -30.5447 -30.5443 -30.5416 -30.5410
   -30.4553 -30.4549 -30.4522 -30.4517 -30.4513 -30.4507 -30.4479 -30.4473
   -20.3586 -20.3582 -20.3582 -20.3577 -20.3557 -20.3554 -20.3552 -20.3550
   -20.3549 -20.3548 -20.3547 -20.3547 -20.3547 -20.3546 -20.3545 -20.3543
   -20.3493 -20.3492 -20.3491 -20.3491 -20.3485 -20.3485 -20.3484 -20.3484
   -20.3459 -20.3459 -20.3458 -20.3458 -20.3452 -20.3452 -20.3451 -20.3450
   -20.3355 -20.3354 -20.3349 -20.3348 -20.3348 -20.3347 -20.3342 -20.3341
   -20.3034 -20.3033 -20.3030 -20.3030 -20.3018 -20.3016 -20.3015 -20.3014
   -20.2979 -20.2978 -20.2977 -20.2976 -20.2964 -20.2963 -20.2960 -20.2960
    -9.9879  -9.8399  -9.5813  -9.5809  -9.4477  -9.4465  -9.1871  -9.1785
    -9.0425  -8.9209  -8.9175  -8.9173  -8.3853  -8.3448  -8.3440  -8.3216
    -7.8793  -7.8773  -7.8620  -7.8599  -7.7814  -7.7814  -7.7662  -7.7660
     1.0118   1.0137   1.1175   1.1206   1.1235   1.1268   1.3587   1.3909
     2.1433   2.2705   2.2734   2.3482   2.3937   2.4162   2.6828   2.6896
     2.8027   2.8083   3.4877   3.4941   3.5456   3.5525   3.9923   4.2872
     4.2920   4.5437   4.6047   4.6101   4.6304   4.6360   4.7909   4.7960
     4.8451   4.8499   5.1231   5.1256   5.3817   5.3827   5.5300   5.5322
     5.7901   5.7909   5.8024   5.8061   5.8457   5.9579   5.9596   6.0154
     6.0193   6.1179   6.1262   6.3432   6.3821   6.3852   6.6450   6.6484
     6.7177   6.8223   6.9314   6.9318   6.9593   6.9601   7.1549   7.1578
     7.1677   7.1706   7.6924   7.6961   7.7076   7.7110   7.8824   7.8851
     9.0722   9.0808  10.3398  10.3448  10.3937  10.3974  11.6516  11.6608
    11.7485  11.7545  12.3153  12.3191  12.3333  12.3358  13.0132  13.0784
    13.1524  13.1828  13.1883  13.2200  13.6243  13.6320  13.6475  13.6562
    14.7141  15.0811  15.0845  15.0855  15.0886  15.4350  15.7416  15.7453
    15.8345  16.9009  17.0714  17.2106  17.6055  17.6107

          k = 0.0000 0.3215 0.1666 ( 63231 PWs)   bands (ev):

   -66.2087 -66.2085 -66.2080 -66.2079 -66.2078 -66.2076 -66.2072 -66.2069
   -30.6281 -30.6248 -30.6242 -30.6210 -30.5951 -30.5917 -30.5911 -30.5879
   -30.5490 -30.5458 -30.5446 -30.5430 -30.5413 -30.5401 -30.5383 -30.5353
   -30.4617 -30.4586 -30.4574 -30.4546 -30.4544 -30.4515 -30.4508 -30.4477
   -20.3586 -20.3582 -20.3582 -20.3578 -20.3557 -20.3554 -20.3552 -20.3550
   -20.3549 -20.3548 -20.3548 -20.3547 -20.3547 -20.3546 -20.3544 -20.3543
   -20.3493 -20.3491 -20.3489 -20.3489 -20.3485 -20.3484 -20.3483 -20.3482
   -20.3461 -20.3460 -20.3459 -20.3458 -20.3454 -20.3452 -20.3452 -20.3451
   -20.3354 -20.3354 -20.3349 -20.3348 -20.3348 -20.3347 -20.3342 -20.3342
   -20.3031 -20.3030 -20.3029 -20.3028 -20.3016 -20.3015 -20.3014 -20.3013
   -20.2983 -20.2982 -20.2976 -20.2975 -20.2968 -20.2966 -20.2962 -20.2961
    -9.9397  -9.7877  -9.5942  -9.5068  -9.4578  -9.3583  -9.1474  -9.1372
    -9.0502  -8.9210  -8.9132  -8.8995  -8.3855  -8.3514  -8.3408  -8.3273
    -8.0041  -7.9875  -7.9146  -7.8996  -7.8708  -7.8545  -7.7878  -7.7723
     1.0985   1.1021   1.1240   1.1305   1.3785   1.3897   1.5309   1.5746
     2.1451   2.2582   2.2733   2.4120   2.4358   2.4799   2.6911   2.7845
     2.7961   2.8987   3.4950   3.5348   3.5444   3.5935   3.9848   4.2513
     4.2531   4.3039   4.3135   4.5153   4.5489   4.6117   4.6674   4.6838
     4.7971   4.8610   4.9186   5.1005   5.1689   5.2561   5.3901   5.4998
     5.5527   5.6204   5.6925   5.7690   5.9481   5.9744   6.0012   6.0166
     6.0423   6.2935   6.3203   6.3738   6.4118   6.6342   6.6360   6.7402
     6.7860   6.8182   6.8924   6.8989   6.9210   6.9243   6.9483   6.9831
     7.0216   7.0325   7.6676   7.6795   7.6947   7.6991   7.8566   7.8583
     9.4420   9.4450  10.3501  10.3950  10.5209  10.5663  11.6604  11.7398
    11.7533  11.8313  12.1863  12.2007  12.3713  12.3892  12.9060  12.9388
    13.0354  13.1767  13.2060  13.2340  13.4648  13.5305  13.6303  13.6457
    14.8339  15.0802  15.1428  15.1940  15.3438  15.5092  15.7206  15.9862
    16.0900  16.8660  17.1215  17.1580  17.2802  17.7146

          k = 0.0000 0.3215 0.3333 ( 63158 PWs)   bands (ev):

   -66.2086 -66.2083 -66.2081 -66.2079 -66.2077 -66.2075 -66.2073 -66.2071
   -30.6276 -30.6256 -30.6237 -30.6218 -30.5945 -30.5925 -30.5906 -30.5886
   -30.5481 -30.5456 -30.5447 -30.5422 -30.5260 -30.5229 -30.5213 -30.5181
   -30.4790 -30.4759 -30.4746 -30.4714 -30.4539 -30.4517 -30.4507 -30.4485
   -20.3585 -20.3583 -20.3581 -20.3579 -20.3556 -20.3554 -20.3553 -20.3551
   -20.3548 -20.3548 -20.3548 -20.3547 -20.3547 -20.3546 -20.3544 -20.3544
   -20.3492 -20.3491 -20.3485 -20.3484 -20.3483 -20.3482 -20.3477 -20.3476
   -20.3467 -20.3466 -20.3462 -20.3460 -20.3457 -20.3455 -20.3451 -20.3451
   -20.3353 -20.3352 -20.3350 -20.3349 -20.3346 -20.3346 -20.3343 -20.3343
   -20.3027 -20.3026 -20.3021 -20.3020 -20.3019 -20.3018 -20.3005 -20.3004
   -20.2994 -20.2992 -20.2978 -20.2977 -20.2973 -20.2972 -20.2965 -20.2964
    -9.8262  -9.6689  -9.6362  -9.4934  -9.3212  -9.1046  -9.0788  -9.0335
    -8.9908  -8.9319  -8.8681  -8.8222  -8.4241  -8.4072  -8.3449  -8.3320
    -8.3135  -8.2600  -8.2416  -8.1939  -7.8533  -7.8370  -7.8052  -7.7895
     1.1330   1.1401   1.1439   1.1508   1.9981   2.0717   2.1031   2.1574
     2.2549   2.2727   2.3196   2.5207   2.6874   2.7094   2.7179   2.7955
     3.0315   3.1194   3.4757   3.5151   3.6169   3.6478   3.6996   3.7087
     3.9617   4.0360   4.1362   4.2159   4.3042   4.3660   4.4724   4.5673
     4.6090   4.6228   4.7595   4.8180   4.9223   4.9718   5.0477   5.0978
     5.1931   5.4041   5.4531   5.7050   6.0291   6.0463   6.0683   6.1552
     6.2022   6.3401   6.4350   6.4550   6.4902   6.6110   6.6204   6.6462
     6.7310   6.8360   6.8608   6.8847   6.9044   6.9895   7.0074   7.0349
     7.1103   7.1375   7.5768   7.5774   7.6633   7.7012   7.7304   7.7614
    10.1906  10.1979  10.3721  10.3937  11.0151  11.0331  11.6474  11.7128
    11.7503  11.7904  12.0146  12.0830  12.3964  12.4367  12.5419  12.5611
    12.9002  12.9552  13.1226  13.1465  13.1798  13.2804  13.6279  13.6432
    14.9418  15.0564  15.3255  15.6229  15.6449  15.9313  15.9437  16.4461
    16.5401  16.7434  16.9824  17.4558  17.4686  17.4819

          k = 0.0000 0.3215-0.4999 ( 63130 PWs)   bands (ev):

   -66.2084 -66.2084 -66.2081 -66.2081 -66.2075 -66.2075 -66.2073 -66.2073
   -30.6266 -30.6266 -30.6228 -30.6228 -30.5935 -30.5935 -30.5897 -30.5896
   -30.5468 -30.5468 -30.5435 -30.5435 -30.5025 -30.5025 -30.4994 -30.4994
   -30.4980 -30.4980 -30.4948 -30.4948 -30.4528 -30.4528 -30.4496 -30.4496
   -20.3584 -20.3584 -20.3580 -20.3580 -20.3555 -20.3555 -20.3552 -20.3552
   -20.3548 -20.3548 -20.3547 -20.3547 -20.3546 -20.3546 -20.3544 -20.3544
   -20.3492 -20.3491 -20.3485 -20.3485 -20.3475 -20.3475 -20.3474 -20.3474
   -20.3469 -20.3469 -20.3468 -20.3468 -20.3457 -20.3457 -20.3451 -20.3451
   -20.3351 -20.3351 -20.3351 -20.3351 -20.3345 -20.3344 -20.3344 -20.3344
   -20.3023 -20.3023 -20.3022 -20.3022 -20.3008 -20.3008 -20.3006 -20.3006
   -20.2992 -20.2992 -20.2990 -20.2990 -20.2969 -20.2969 -20.2968 -20.2968
    -9.7131  -9.7131  -9.5607  -9.5607  -9.1533  -9.1533  -8.9552  -8.9552
    -8.7370  -8.7370  -8.7110  -8.7110  -8.6583  -8.6583  -8.6010  -8.6009
    -8.3413  -8.3413  -8.3048  -8.3048  -7.8292  -7.8292  -7.8132  -7.8132
     1.1431   1.1431   1.1507   1.1507   2.1465   2.1465   2.2624   2.2624
     2.7308   2.7308   2.9600   2.9600   3.0071   3.0071   3.1159   3.1159
     3.1762   3.1762   3.1828   3.1828   3.2539   3.2539   3.5163   3.5163
     3.8111   3.8111   3.8646   3.8646   3.9413   3.9413   4.1643   4.1643
     4.6333   4.6333   4.7114   4.7114   4.8857   4.8857   5.0168   5.0168
     5.2086   5.2086   5.5718   5.5718   6.1377   6.1377   6.1730   6.1730
     6.2871   6.2871   6.2981   6.2981   6.3745   6.3745   6.5775   6.5775
     6.8748   6.8748   6.8945   6.8945   6.9557   6.9557   7.3606   7.3606
     7.3950   7.3950   7.4138   7.4138   7.4652   7.4652   7.7122   7.7123
    10.3701  10.3701  11.0155  11.0155  11.0430  11.0430  11.5417  11.5417
    11.7079  11.7079  11.8933  11.8933  12.4550  12.4550  12.4787  12.4787
    12.8210  12.8210  12.8633  12.8633  13.1779  13.1779  13.6346  13.6346
    15.0104  15.0104  15.5123  15.5123  16.0239  16.0239  16.4615  16.4615
    16.8103  16.8103  16.9693  16.9693  17.7830  17.7831

          k = 0.0000-0.4823 0.0000 ( 63226 PWs)   bands (ev):

   -66.2087 -66.2087 -66.2078 -66.2078 -66.2078 -66.2078 -66.2070 -66.2070
   -30.6117 -30.6117 -30.6082 -30.6080 -30.6078 -30.6076 -30.6042 -30.6042
   -30.5494 -30.5493 -30.5464 -30.5463 -30.5445 -30.5440 -30.5419 -30.5414
   -30.4551 -30.4547 -30.4524 -30.4520 -30.4509 -30.4508 -30.4478 -30.4477
   -20.3571 -20.3571 -20.3568 -20.3567 -20.3566 -20.3566 -20.3562 -20.3562
   -20.3549 -20.3549 -20.3548 -20.3547 -20.3547 -20.3547 -20.3546 -20.3546
   -20.3490 -20.3490 -20.3488 -20.3488 -20.3488 -20.3487 -20.3487 -20.3486
   -20.3456 -20.3456 -20.3456 -20.3455 -20.3455 -20.3455 -20.3453 -20.3452
   -20.3355 -20.3355 -20.3348 -20.3348 -20.3348 -20.3348 -20.3342 -20.3342
   -20.3034 -20.3033 -20.3030 -20.3030 -20.3018 -20.3016 -20.3015 -20.3014
   -20.2979 -20.2978 -20.2977 -20.2976 -20.2964 -20.2963 -20.2960 -20.2960
    -9.9027  -9.9027  -9.5008  -9.4999  -9.4941  -9.4933  -9.1828  -9.1828
    -8.7188  -8.7188  -8.6661  -8.6656  -8.6655  -8.6650  -8.6626  -8.6626
    -7.8732  -7.8727  -7.8667  -7.8662  -7.7768  -7.7767  -7.7709  -7.7708
     1.0127   1.0127   1.1198   1.1231   1.1244   1.1277   1.3841   1.3842
     2.3707   2.3707   2.9937   2.9946   3.0367   3.0383   3.0880   3.0887
     3.1010   3.1055   3.1267   3.1330   3.2555   3.2632   3.2799   3.2857
     3.4384   3.4384   4.6161   4.6167   4.6211   4.6216   4.9654   4.9696
     4.9726   4.9766   5.1053   5.1054   5.1088   5.1089   5.6284   5.6284
     5.6310   5.6311   5.9104   5.9107   5.9239   5.9240   6.0255   6.0286
     6.0522   6.0589   6.0779   6.0813   6.4902   6.4935   6.4998   6.5032
     6.7704   6.7704   7.1513   7.1541   7.1614   7.1642   7.3369   7.3380
     7.3431   7.3442   7.3614   7.3630   7.3656   7.3673   7.8838   7.8838
     9.0767   9.0767  11.0160  11.0232  11.0241  11.0313  11.0866  11.0919
    11.0978  11.1030  12.3214  12.3247  12.3328  12.3360  13.0903  13.0907
    13.3303  13.3334  13.3705  13.3731  13.3772  13.3783  13.3835  13.3846
    15.0825  15.0828  15.2456  15.2459  15.5080  15.5108  15.5177  15.5205
    16.3684  16.3684  17.5384  17.5384  17.8931  17.9003

          k = 0.0000-0.4823 0.1666 ( 63214 PWs)   bands (ev):

   -66.2086 -66.2086 -66.2079 -66.2079 -66.2078 -66.2078 -66.2070 -66.2070
   -30.6116 -30.6115 -30.6084 -30.6081 -30.6078 -30.6075 -30.6045 -30.6044
   -30.5487 -30.5461 -30.5443 -30.5429 -30.5417 -30.5403 -30.5382 -30.5355
   -30.4615 -30.4588 -30.4572 -30.4546 -30.4544 -30.4517 -30.4505 -30.4480
   -20.3571 -20.3571 -20.3567 -20.3567 -20.3567 -20.3567 -20.3563 -20.3563
   -20.3549 -20.3549 -20.3548 -20.3547 -20.3547 -20.3547 -20.3546 -20.3546
   -20.3490 -20.3489 -20.3488 -20.3487 -20.3486 -20.3486 -20.3485 -20.3485
   -20.3458 -20.3458 -20.3457 -20.3457 -20.3455 -20.3455 -20.3453 -20.3453
   -20.3354 -20.3354 -20.3349 -20.3348 -20.3347 -20.3347 -20.3342 -20.3342
   -20.3031 -20.3030 -20.3029 -20.3028 -20.3016 -20.3015 -20.3014 -20.3013
   -20.2983 -20.2982 -20.2976 -20.2975 -20.2968 -20.2966 -20.2962 -20.2961
    -9.8522  -9.8514  -9.5122  -9.5056  -9.4153  -9.4087  -9.1424  -9.1417
    -8.7246  -8.7246  -8.6711  -8.6704  -8.6608  -8.6607  -8.6586  -8.6580
    -7.9990  -7.9929  -7.9100  -7.9044  -7.8656  -7.8599  -7.7830  -7.7771
     1.0990   1.1025   1.1267   1.1314   1.3854   1.3901   1.5644   1.5676
     2.4570   2.4570   2.9998   3.0067   3.0402   3.0453   3.0800   3.0869
     3.1082   3.1278   3.1467   3.1688   3.2581   3.2810   3.3175   3.3345
     3.4719   3.4729   4.2701   4.2706   4.6573   4.6719   4.7253   4.7428
     4.8810   4.8814   4.9655   4.9675   5.1193   5.1203   5.3384   5.3404
     5.6025   5.6030   5.6431   5.6440   5.9979   6.0065   6.0119   6.0203
     6.1879   6.1899   6.2941   6.3106   6.4820   6.4917   6.6893   6.6984
     6.8365   6.8388   6.9148   6.9194   6.9753   6.9865   7.3230   7.3294
     7.3435   7.3451   7.3502   7.3513   7.3545   7.3583   7.8571   7.8572
     9.4434   9.4455  11.0285  11.0355  11.0885  11.0946  11.1404  11.1451
    11.2070  11.2150  12.1896  12.1997  12.3768  12.3876  13.0491  13.0547
    13.1488  13.1553  13.2626  13.2725  13.3692  13.3705  13.3939  13.4028
    15.1168  15.1231  15.4273  15.4323  15.4925  15.5026  15.8310  15.8391
    16.4467  16.4472  17.5491  17.5510  17.5791  17.5795

          k = 0.0000-0.4823 0.3333 ( 63122 PWs)   bands (ev):

   -66.2085 -66.2084 -66.2080 -66.2080 -66.2076 -66.2076 -66.2072 -66.2072
   -30.6111 -30.6109 -30.6092 -30.6089 -30.6072 -30.6070 -30.6053 -30.6052
   -30.5477 -30.5452 -30.5451 -30.5427 -30.5258 -30.5232 -30.5211 -30.5184
   -30.4788 -30.4761 -30.4744 -30.4716 -30.4536 -30.4515 -30.4509 -30.4488
   -20.3570 -20.3570 -20.3568 -20.3568 -20.3567 -20.3566 -20.3564 -20.3564
   -20.3549 -20.3548 -20.3548 -20.3548 -20.3547 -20.3546 -20.3546 -20.3546
   -20.3489 -20.3488 -20.3488 -20.3487 -20.3480 -20.3480 -20.3479 -20.3479
   -20.3464 -20.3463 -20.3463 -20.3462 -20.3455 -20.3454 -20.3454 -20.3454
   -20.3353 -20.3353 -20.3350 -20.3349 -20.3346 -20.3346 -20.3343 -20.3343
   -20.3027 -20.3026 -20.3021 -20.3020 -20.3019 -20.3018 -20.3005 -20.3004
   -20.2994 -20.2992 -20.2978 -20.2977 -20.2973 -20.2972 -20.2965 -20.2964
    -9.7350  -9.7320  -9.5509  -9.5447  -9.1794  -9.1735  -9.0044  -9.0021
    -8.7557  -8.7553  -8.6902  -8.6896  -8.6490  -8.6487  -8.6312  -8.6301
    -8.3047  -8.2988  -8.2321  -8.2263  -7.8482  -7.8422  -7.8004  -7.7945
     1.1359   1.1410   1.1464   1.1518   2.0914   2.0957   2.2339   2.2378
     2.7077   2.7077   3.0045   3.0263   3.0439   3.0620   3.0727   3.0846
     3.1048   3.1130   3.2179   3.2310   3.2559   3.2735   3.4955   3.5007
     3.5673   3.5693   3.6901   3.6922   4.2335   4.2336   4.3797   4.3818
     4.6292   4.6412   4.6708   4.6829   4.9612   4.9663   4.9851   4.9858
     5.1732   5.1761   5.5067   5.5089   6.0557   6.0576   6.1279   6.1456
     6.3236   6.3280   6.4374   6.4584   6.4779   6.4855   6.6408   6.6526
     6.8613   6.8646   6.9912   6.9986   7.0322   7.0372   7.2917   7.2989
     7.3036   7.3097   7.3381   7.3405   7.3687   7.3738   7.7356   7.7364
    10.2002  10.2046  11.0421  11.0488  11.0735  11.0802  11.5022  11.5066
    11.5561  11.5631  11.7452  11.7530  12.5408  12.5494  12.6491  12.6519
    12.6727  12.6790  13.1255  13.1326  13.3554  13.3564  13.3813  13.3859
    15.2085  15.2182  15.4347  15.4445  15.9847  15.9910  16.6385  16.6435
    16.7502  16.7519  17.0476  17.0480  17.6860  17.6863

          k = 0.0000-0.4823-0.4999 ( 63220 PWs)   bands (ev):

   -66.2082 -66.2082 -66.2082 -66.2082 -66.2074 -66.2074 -66.2074 -66.2074
   -30.6102 -30.6102 -30.6099 -30.6099 -30.6063 -30.6063 -30.6062 -30.6062
   -30.5465 -30.5465 -30.5439 -30.5439 -30.5023 -30.5023 -30.4996 -30.4996
   -30.4978 -30.4978 -30.4950 -30.4950 -30.4526 -30.4526 -30.4498 -30.4498
   -20.3569 -20.3569 -20.3569 -20.3569 -20.3566 -20.3565 -20.3565 -20.3565
   -20.3548 -20.3548 -20.3548 -20.3548 -20.3546 -20.3546 -20.3546 -20.3546
   -20.3488 -20.3488 -20.3488 -20.3488 -20.3472 -20.3472 -20.3471 -20.3471
   -20.3471 -20.3471 -20.3470 -20.3470 -20.3455 -20.3454 -20.3454 -20.3454
   -20.3351 -20.3351 -20.3351 -20.3351 -20.3344 -20.3344 -20.3344 -20.3344
   -20.3023 -20.3023 -20.3022 -20.3022 -20.3008 -20.3008 -20.3006 -20.3006
   -20.2992 -20.2992 -20.2990 -20.2990 -20.2969 -20.2969 -20.2968 -20.2968
    -9.6233  -9.6233  -9.6182  -9.6182  -8.8915  -8.8914  -8.8877  -8.8877
    -8.7826  -8.7826  -8.7803  -8.7803  -8.5852  -8.5852  -8.5809  -8.5808
    -8.5305  -8.5305  -8.5259  -8.5259  -7.8242  -7.8242  -7.8183  -7.8183
     1.1462   1.1462   1.1516   1.1516   2.8888   2.8888   2.9088   2.9088
     2.9997   2.9997   3.0111   3.0111   3.0515   3.0515   3.0639   3.0639
     3.1356   3.1356   3.1436   3.1436   3.2747   3.2747   3.2882   3.2882
     3.3959   3.3959   3.4328   3.4328   4.0805   4.0805   4.0905   4.0905
     4.1710   4.1710   4.1844   4.1844   4.9574   4.9574   4.9620   4.9620
     5.3244   5.3244   5.3323   5.3323   6.1737   6.1737   6.1752   6.1752
     6.3434   6.3434   6.3511   6.3511   6.4236   6.4236   6.4306   6.4306
     7.1478   7.1478   7.1543   7.1543   7.1922   7.1922   7.2138   7.2138
     7.2912   7.2912   7.3030   7.3030   7.4947   7.4947   7.4978   7.4978
    10.9796  10.9796  10.9868  10.9868  11.1062  11.1062  11.1087  11.1087
    12.0479  12.0480  12.0604  12.0604  12.0833  12.0833  12.0956  12.0956
    12.8290  12.8290  12.8360  12.8360  13.3626  13.3626  13.3662  13.3662
    15.3340  15.3340  15.3441  15.3441  16.5343  16.5343  16.5416  16.5416
    17.3843  17.3843  17.3898  17.3898  17.5177  17.5177

          k = 0.1667 0.0000 0.0000 ( 63175 PWs)   bands (ev):

   -66.2088 -66.2084 -66.2081 -66.2080 -66.2076 -66.2075 -66.2073 -66.2068
   -30.6447 -30.6412 -30.6408 -30.6374 -30.5788 -30.5750 -30.5749 -30.5712
   -30.5498 -30.5457 -30.5454 -30.5433 -30.5413 -30.5389 -30.5382 -30.5338
   -30.4618 -30.4576 -30.4575 -30.4555 -30.4534 -30.4517 -30.4514 -30.4476
   -20.3600 -20.3597 -20.3596 -20.3592 -20.3551 -20.3550 -20.3548 -20.3548
   -20.3548 -20.3547 -20.3547 -20.3546 -20.3539 -20.3535 -20.3534 -20.3530
   -20.3495 -20.3494 -20.3494 -20.3492 -20.3483 -20.3481 -20.3479 -20.3478
   -20.3464 -20.3463 -20.3462 -20.3461 -20.3451 -20.3449 -20.3449 -20.3447
   -20.3355 -20.3353 -20.3349 -20.3348 -20.3348 -20.3347 -20.3342 -20.3341
   -20.3033 -20.3032 -20.3027 -20.3027 -20.3019 -20.3017 -20.3012 -20.3011
   -20.2981 -20.2980 -20.2978 -20.2977 -20.2966 -20.2965 -20.2964 -20.2963
   -10.0581  -9.7405  -9.7313  -9.6624  -9.4264  -9.3533  -9.3241  -9.1583
    -9.1325  -9.0975  -9.0924  -9.0522  -8.0244  -8.0013  -7.9915  -7.9613
    -7.9513  -7.9183  -7.9121  -7.8949  -7.8782  -7.8469  -7.7944  -7.7654
     1.0713   1.0748   1.0973   1.1255   1.1946   1.2092   1.3050   1.3612
     1.3920   1.5025   1.5794   1.7372   2.3987   2.4110   2.4750   2.5045
     2.5141   2.6056   4.0050   4.1018   4.1987   4.2520   4.2960   4.2960
     4.3805   4.5120   4.6006   4.6666   4.6961   4.7270   4.9029   5.1002
     5.1697   5.2333   5.3052   5.3896   5.3954   5.4176   5.4487   5.4558
     5.5676   5.6813   5.6870   5.7244   5.8322   5.8702   5.9773   6.0555
     6.1995   6.2742   6.3310   6.3879   6.5574   6.5795   6.5924   6.6445
     6.6940   6.7413   6.7904   6.8206   6.8921   6.9215   6.9289   6.9370
     6.9816   7.0079   7.8482   7.8516   7.8976   7.9470   7.9654   8.0034
     9.4352   9.4418   9.5841   9.5923   9.8808   9.8871  12.1715  12.1810
    12.2102  12.2905  12.3437  12.3646  12.3915  12.4849  12.7158  12.8631
    12.9312  13.0957  13.1821  13.2258  13.7934  13.8561  13.9770  14.0069
    14.0349  14.2518  14.4249  14.6826  15.1467  15.1761  15.4177  15.8530
    16.2428  16.6142  16.9735  17.0230  17.1544  17.2716

          k = 0.1667 0.0000 0.1666 ( 63153 PWs)   bands (ev):

   -66.2088 -66.2083 -66.2081 -66.2080 -66.2076 -66.2076 -66.2073 -66.2069
   -30.6445 -30.6411 -30.6410 -30.6377 -30.5786 -30.5752 -30.5749 -30.5715
   -30.5441 -30.5428 -30.5396 -30.5391 -30.5390 -30.5376 -30.5350 -30.5341
   -30.4619 -30.4616 -30.4587 -30.4581 -30.4574 -30.4570 -30.4541 -30.4533
   -20.3600 -20.3597 -20.3596 -20.3593 -20.3551 -20.3550 -20.3548 -20.3548
   -20.3548 -20.3547 -20.3547 -20.3546 -20.3539 -20.3535 -20.3534 -20.3531
   -20.3494 -20.3493 -20.3492 -20.3491 -20.3481 -20.3479 -20.3479 -20.3478
   -20.3464 -20.3464 -20.3463 -20.3462 -20.3451 -20.3450 -20.3449 -20.3448
   -20.3354 -20.3353 -20.3348 -20.3348 -20.3347 -20.3347 -20.3343 -20.3342
   -20.3029 -20.3029 -20.3026 -20.3025 -20.3015 -20.3014 -20.3013 -20.3012
   -20.2982 -20.2981 -20.2980 -20.2979 -20.2968 -20.2968 -20.2965 -20.2965
   -10.0126  -9.6823  -9.6758  -9.6756  -9.3613  -9.3361  -9.3347  -9.1144
    -9.0972  -9.0906  -9.0560  -9.0555  -8.0270  -8.0050  -7.9978  -7.9875
    -7.9849  -7.9572  -7.9501  -7.9414  -7.9212  -7.9154  -7.9038  -7.8776
     1.1694   1.2048   1.2049   1.2778   1.2830   1.3003   1.3930   1.3960
     1.5012   1.5042   1.6680   1.8217   2.4817   2.4851   2.4942   2.5854
     2.5941   2.6159   4.0044   4.0221   4.1961   4.1968   4.3162   4.3180
     4.3618   4.3641   4.4229   4.4274   4.4928   4.5389   4.8889   5.0419
     5.1100   5.1163   5.1771   5.3392   5.3439   5.3900   5.3930   5.5447
     5.5448   5.5959   5.5986   5.6688   5.7157   5.8407   6.0849   6.3327
     6.3611   6.3682   6.4096   6.4896   6.4993   6.5430   6.5590   6.5835
     6.5911   6.5974   6.6061   6.6732   6.7536   6.8279   6.8306   6.8871
     7.0639   7.0906   7.8260   7.8295   7.9037   7.9350   7.9475   7.9553
     9.6669   9.7086   9.8422   9.8785   9.8852   9.9521  12.2151  12.2247
    12.2323  12.2448  12.2551  12.2790  12.4667  12.4730  12.7178  12.7360
    12.8723  12.9020  13.1814  13.2686  13.8109  13.8240  13.8508  13.8981
    14.0904  14.4041  14.4191  14.8032  15.2751  15.2865  15.3864  16.2069
    16.2116  16.7698  16.7726  17.0795  17.1493  17.3159

          k = 0.1667 0.0000 0.3333 ( 63173 PWs)   bands (ev):

   -66.2086 -66.2082 -66.2082 -66.2079 -66.2077 -66.2075 -66.2074 -66.2070
   -30.6439 -30.6419 -30.6405 -30.6385 -30.5779 -30.5759 -30.5743 -30.5723
   -30.5424 -30.5399 -30.5376 -30.5351 -30.5260 -30.5221 -30.5219 -30.5179
   -30.4792 -30.4754 -30.4751 -30.4712 -30.4607 -30.4585 -30.4564 -30.4543
   -20.3600 -20.3597 -20.3596 -20.3594 -20.3550 -20.3550 -20.3549 -20.3548
   -20.3548 -20.3547 -20.3547 -20.3546 -20.3538 -20.3536 -20.3534 -20.3532
   -20.3493 -20.3492 -20.3486 -20.3485 -20.3479 -20.3478 -20.3475 -20.3473
   -20.3469 -20.3468 -20.3465 -20.3461 -20.3457 -20.3454 -20.3450 -20.3449
   -20.3353 -20.3352 -20.3349 -20.3348 -20.3347 -20.3346 -20.3344 -20.3343
   -20.3024 -20.3023 -20.3020 -20.3019 -20.3016 -20.3014 -20.3006 -20.3005
   -20.2993 -20.2991 -20.2979 -20.2978 -20.2977 -20.2975 -20.2969 -20.2968
    -9.9049  -9.7182  -9.5507  -9.5497  -9.3881  -9.3685  -9.0887  -9.0791
    -9.0644  -8.9620  -8.9521  -8.9189  -8.3171  -8.3067  -8.2724  -8.2595
    -8.0002  -7.9823  -7.9796  -7.9510  -7.9468  -7.9351  -7.9237  -7.9109
     1.1816   1.1960   1.2635   1.2897   1.4063   1.4106   1.4755   1.5088
     2.1118   2.1601   2.2536   2.3363   2.5042   2.5737   2.7216   2.7440
     2.8538   2.8602   3.6582   3.6926   3.7874   3.8769   3.8889   4.1867
     4.1894   4.3135   4.3177   4.3625   4.3938   4.5571   4.5676   4.7040
     4.8294   4.8418   4.8758   5.0324   5.0528   5.2116   5.4153   5.4269
     5.6089   5.6142   5.6307   5.6942   5.7188   5.8414   5.9391   6.0042
     6.2621   6.2744   6.3563   6.3698   6.3733   6.5240   6.5352   6.5581
     6.5708   6.7155   6.7200   6.7318   6.9330   6.9803   7.0053   7.0169
     7.1025   7.1656   7.6988   7.7203   7.7790   7.8011   7.9438   7.9503
     9.8619   9.8749  10.3123  10.3623  10.5548  10.6199  11.7820  11.8138
    11.9960  12.1941  12.3883  12.3957  12.4338  12.4687  12.5839  12.6985
    12.7139  12.9271  13.0073  13.1059  13.4833  13.5066  13.8278  13.8489
    14.2613  14.3997  14.7659  15.1232  15.2841  15.6255  15.8056  16.1181
    16.1576  17.1423  17.1642  17.3174  17.3430  17.6320

          k = 0.1667 0.0000-0.4999 ( 63186 PWs)   bands (ev):

   -66.2084 -66.2084 -66.2080 -66.2079 -66.2077 -66.2077 -66.2072 -66.2072
   -30.6430 -30.6430 -30.6395 -30.6395 -30.5770 -30.5770 -30.5733 -30.5733
   -30.5411 -30.5411 -30.5363 -30.5363 -30.5027 -30.5027 -30.4987 -30.4987
   -30.4986 -30.4986 -30.4946 -30.4946 -30.4596 -30.4596 -30.4554 -30.4554
   -20.3599 -20.3599 -20.3595 -20.3595 -20.3550 -20.3550 -20.3549 -20.3549
   -20.3548 -20.3548 -20.3547 -20.3546 -20.3538 -20.3537 -20.3533 -20.3533
   -20.3493 -20.3493 -20.3481 -20.3481 -20.3477 -20.3477 -20.3475 -20.3475
   -20.3469 -20.3469 -20.3465 -20.3465 -20.3459 -20.3459 -20.3450 -20.3450
   -20.3351 -20.3351 -20.3350 -20.3350 -20.3345 -20.3345 -20.3344 -20.3344
   -20.3020 -20.3020 -20.3019 -20.3019 -20.3007 -20.3006 -20.3005 -20.3005
   -20.2993 -20.2993 -20.2991 -20.2991 -20.2973 -20.2973 -20.2972 -20.2972
    -9.7950  -9.7950  -9.4454  -9.4454  -9.4347  -9.4347  -9.0766  -9.0766
    -8.7056  -8.7056  -8.6858  -8.6858  -8.6642  -8.6642  -8.6306  -8.6306
    -7.9889  -7.9889  -7.9600  -7.9599  -7.9355  -7.9355  -7.9321  -7.9321
     1.1876   1.1876   1.2783   1.2783   1.4173   1.4173   1.5096   1.5096
     2.5318   2.5318   2.9008   2.9008   2.9526   2.9526   3.0681   3.0681
     3.1408   3.1408   3.2753   3.2753   3.3554   3.3554   3.6058   3.6058
     3.6221   3.6221   4.2485   4.2485   4.3190   4.3190   4.7428   4.7428
     4.8259   4.8259   4.8503   4.8503   5.0390   5.0390   5.5209   5.5209
     5.5552   5.5552   5.6730   5.6730   5.7309   5.7309   5.8419   5.8419
     6.1638   6.1638   6.2650   6.2650   6.4685   6.4685   6.5627   6.5627
     6.6642   6.6642   6.7884   6.7884   6.8476   6.8476   7.4053   7.4053
     7.4524   7.4524   7.5163   7.5163   7.5284   7.5284   7.9506   7.9506
     9.8708   9.8708  11.0788  11.0788  11.1267  11.1267  11.3397  11.3397
    11.4403  11.4403  12.4810  12.4810  12.5727  12.5727  12.6798  12.6798
    12.7773  12.7773  13.0707  13.0708  13.1188  13.1188  13.8358  13.8358
    14.3574  14.3574  15.0866  15.0866  15.5861  15.5861  15.9372  15.9372
    16.6278  16.6278  17.5465  17.5465  17.6135  17.6137

          k = 0.1667 0.1608 0.0000 ( 63217 PWs)   bands (ev):

   -66.2088 -66.2084 -66.2081 -66.2080 -66.2077 -66.2076 -66.2072 -66.2068
   -30.6403 -30.6368 -30.6364 -30.6330 -30.5831 -30.5794 -30.5793 -30.5757
   -30.5497 -30.5459 -30.5453 -30.5431 -30.5415 -30.5390 -30.5383 -30.5341
   -30.4617 -30.4577 -30.4574 -30.4554 -30.4535 -30.4516 -30.4515 -30.4478
   -20.3596 -20.3593 -20.3592 -20.3588 -20.3551 -20.3550 -20.3548 -20.3548
   -20.3548 -20.3547 -20.3547 -20.3546 -20.3542 -20.3539 -20.3538 -20.3534
   -20.3494 -20.3493 -20.3493 -20.3491 -20.3483 -20.3482 -20.3480 -20.3479
   -20.3463 -20.3462 -20.3461 -20.3460 -20.3452 -20.3450 -20.3449 -20.3448
   -20.3354 -20.3354 -20.3349 -20.3348 -20.3348 -20.3347 -20.3342 -20.3341
   -20.3033 -20.3032 -20.3027 -20.3027 -20.3019 -20.3017 -20.3012 -20.3010
   -20.2981 -20.2980 -20.2978 -20.2977 -20.2966 -20.2965 -20.2964 -20.2963
   -10.0232  -9.7519  -9.6892  -9.6148  -9.4339  -9.3317  -9.2743  -9.1535
    -9.1337  -9.0557  -9.0543  -9.0195  -8.1195  -8.0775  -8.0673  -8.0332
    -8.0082  -7.9790  -7.9189  -7.8939  -7.8763  -7.8491  -7.7927  -7.7674
     1.0924   1.0980   1.1049   1.1259   1.3238   1.3553   1.3921   1.5277
     1.5775   1.5893   1.6377   1.8375   2.4169   2.4743   2.4968   2.5517
     2.5877   2.6774   3.8997   3.9551   3.9770   4.0254   4.2322   4.2940
     4.4281   4.4374   4.6399   4.6550   4.6818   4.7036   4.7141   5.0264
     5.0686   5.1166   5.1609   5.2388   5.3365   5.4283   5.4702   5.5525
     5.5883   5.6337   5.6952   5.7618   5.8042   5.9152   5.9802   6.0483
     6.1046   6.3006   6.3183   6.3520   6.5361   6.5933   6.6209   6.6538
     6.6898   6.7692   6.7836   6.8146   6.8224   6.8398   6.9224   6.9282
     6.9881   7.0112   7.8415   7.8494   7.8642   7.8800   7.9076   7.9267
     9.4397   9.4421   9.7994   9.8219  10.0578  10.0718  12.0606  12.1598
    12.1767  12.2023  12.2231  12.2759  12.3523  12.4040  12.7592  12.8624
    12.9707  13.1028  13.1805  13.2287  13.7273  13.7610  13.8885  13.9054
    14.2958  14.5254  14.7182  14.8460  15.1469  15.1779  15.8158  15.8392
    16.2089  16.5736  16.7420  17.0884  17.2779  17.4013

          k = 0.1667 0.1608 0.1666 ( 63203 PWs)   bands (ev):

   -66.2088 -66.2083 -66.2080 -66.2080 -66.2076 -66.2076 -66.2073 -66.2069
   -30.6401 -30.6367 -30.6366 -30.6333 -30.5829 -30.5795 -30.5793 -30.5760
   -30.5439 -30.5427 -30.5396 -30.5392 -30.5389 -30.5379 -30.5352 -30.5344
   -30.4618 -30.4614 -30.4586 -30.4581 -30.4574 -30.4570 -30.4542 -30.4534
   -20.3596 -20.3593 -20.3593 -20.3589 -20.3551 -20.3550 -20.3549 -20.3548
   -20.3548 -20.3547 -20.3547 -20.3546 -20.3542 -20.3539 -20.3538 -20.3535
   -20.3493 -20.3492 -20.3491 -20.3490 -20.3481 -20.3480 -20.3480 -20.3479
   -20.3463 -20.3463 -20.3462 -20.3461 -20.3452 -20.3451 -20.3450 -20.3449
   -20.3354 -20.3353 -20.3348 -20.3348 -20.3348 -20.3347 -20.3343 -20.3342
   -20.3029 -20.3029 -20.3026 -20.3025 -20.3015 -20.3014 -20.3013 -20.3012
   -20.2982 -20.2981 -20.2980 -20.2979 -20.2968 -20.2968 -20.2965 -20.2965
    -9.9760  -9.6939  -9.6284  -9.6282  -9.3439  -9.3425  -9.2823  -9.1132
    -9.0978  -9.0474  -9.0231  -9.0227  -8.1206  -8.0763  -8.0755  -8.0413
    -8.0031  -8.0020  -7.9742  -7.9721  -7.9454  -7.9184  -7.9026  -7.8796
     1.2775   1.2824   1.3237   1.3251   1.3686   1.3932   1.3963   1.5271
     1.6340   1.6365   1.6676   1.8993   2.5031   2.5579   2.5616   2.5864
     2.6622   2.6835   3.9148   3.9305   4.0019   4.0055   4.2875   4.2908
     4.3574   4.3615   4.4143   4.4405   4.4557   4.4955   4.6655   4.9695
     5.0216   5.0794   5.0882   5.1598   5.2061   5.3402   5.3412   5.4640
     5.5950   5.5966   5.6914   5.6956   5.7097   5.7885   6.1137   6.2357
     6.2488   6.3622   6.3959   6.4563   6.4955   6.5417   6.5615   6.5738
     6.5793   6.6899   6.7045   6.7096   6.7963   6.8034   6.8102   6.8960
     7.0647   7.0914   7.8224   7.8258   7.8526   7.8787   7.8834   7.8847
     9.6892   9.7076  10.0215  10.0646  10.0726  10.1097  12.1164  12.1524
    12.2193  12.2238  12.2330  12.2397  12.3209  12.3250  12.7618  12.7803
    12.8630  12.8957  13.1769  13.2700  13.7186  13.7268  13.7388  13.8005
    14.4116  14.7092  14.7151  14.9477  15.2764  15.2857  15.8016  16.1752
    16.1792  16.6902  16.8736  16.8755  17.1654  17.4779

          k = 0.1667 0.1608 0.3333 ( 63170 PWs)   bands (ev):

   -66.2086 -66.2082 -66.2082 -66.2079 -66.2078 -66.2075 -66.2074 -66.2070
   -30.6395 -30.6375 -30.6361 -30.6341 -30.5823 -30.5803 -30.5787 -30.5767
   -30.5422 -30.5398 -30.5379 -30.5354 -30.5259 -30.5222 -30.5219 -30.5181
   -30.4790 -30.4752 -30.4752 -30.4714 -30.4606 -30.4584 -30.4566 -30.4545
   -20.3596 -20.3593 -20.3592 -20.3590 -20.3551 -20.3550 -20.3549 -20.3548
   -20.3548 -20.3547 -20.3547 -20.3546 -20.3542 -20.3540 -20.3537 -20.3536
   -20.3492 -20.3491 -20.3485 -20.3485 -20.3480 -20.3479 -20.3476 -20.3474
   -20.3469 -20.3468 -20.3465 -20.3461 -20.3457 -20.3455 -20.3451 -20.3450
   -20.3353 -20.3352 -20.3349 -20.3348 -20.3347 -20.3346 -20.3344 -20.3343
   -20.3024 -20.3023 -20.3020 -20.3019 -20.3016 -20.3014 -20.3006 -20.3005
   -20.2993 -20.2991 -20.2979 -20.2978 -20.2977 -20.2975 -20.2969 -20.2968
    -9.8638  -9.6714  -9.5611  -9.4886  -9.3770  -9.3098  -9.0873  -9.0590
    -9.0314  -8.9635  -8.9413  -8.9005  -8.3183  -8.3114  -8.2887  -8.2576
    -8.0939  -8.0770  -8.0571  -8.0323  -7.9842  -7.9567  -7.9366  -7.9114
     1.3281   1.3381   1.4063   1.4107   1.4957   1.5082   1.5853   1.6353
     2.1110   2.1680   2.2536   2.3497   2.5795   2.6454   2.7618   2.8010
     2.8557   2.9128   3.6633   3.7164   3.7797   3.8286   3.9465   3.9983
     4.0739   4.1506   4.3456   4.3883   4.4098   4.4963   4.5496   4.6107
     4.6658   4.7037   4.7360   4.9541   4.9708   5.0728   5.1410   5.3907
     5.4729   5.5124   5.6034   5.6593   5.7404   5.7436   5.9414   5.9988
     6.1793   6.3235   6.3967   6.4466   6.5129   6.5178   6.5585   6.5936
     6.6371   6.7312   6.7537   6.7909   6.9253   6.9805   7.0039   7.0195
     7.1023   7.1647   7.6903   7.7158   7.7422   7.7502   7.8798   7.8830
    10.0368  10.0629  10.3275  10.3692  10.6778  10.7195  11.7828  11.8127
    11.9879  12.2424  12.2997  12.3361  12.3794  12.4034  12.4818  12.5687
    12.7574  12.8902  12.9954  13.1115  13.3615  13.3984  13.7293  13.7525
    14.5933  14.7007  15.1272  15.2426  15.6190  15.6999  15.8228  16.0888
    16.2636  17.0347  17.1033  17.2203  17.3714  17.3981

          k = 0.1667 0.1608-0.4999 ( 63166 PWs)   bands (ev):

   -66.2084 -66.2084 -66.2080 -66.2080 -66.2077 -66.2077 -66.2073 -66.2072
   -30.6385 -30.6385 -30.6351 -30.6351 -30.5813 -30.5813 -30.5778 -30.5778
   -30.5410 -30.5410 -30.5366 -30.5366 -30.5025 -30.5025 -30.4987 -30.4987
   -30.4986 -30.4986 -30.4947 -30.4947 -30.4595 -30.4595 -30.4555 -30.4555
   -20.3595 -20.3595 -20.3591 -20.3591 -20.3550 -20.3550 -20.3549 -20.3549
   -20.3548 -20.3548 -20.3547 -20.3546 -20.3541 -20.3541 -20.3537 -20.3537
   -20.3492 -20.3492 -20.3481 -20.3481 -20.3477 -20.3477 -20.3475 -20.3475
   -20.3469 -20.3469 -20.3466 -20.3465 -20.3459 -20.3459 -20.3451 -20.3451
   -20.3351 -20.3351 -20.3350 -20.3350 -20.3345 -20.3345 -20.3344 -20.3344
   -20.3020 -20.3020 -20.3019 -20.3019 -20.3007 -20.3007 -20.3005 -20.3005
   -20.2993 -20.2993 -20.2991 -20.2991 -20.2973 -20.2973 -20.2972 -20.2972
    -9.7500  -9.7500  -9.4446  -9.4446  -9.3707  -9.3707  -9.0437  -9.0437
    -8.7130  -8.7129  -8.6888  -8.6888  -8.6625  -8.6625  -8.6255  -8.6255
    -8.0874  -8.0873  -8.0479  -8.0479  -7.9606  -7.9606  -7.9342  -7.9342
     1.3334   1.3334   1.4172   1.4172   1.5087   1.5087   1.6298   1.6298
     2.6044   2.6044   2.9192   2.9193   2.9850   2.9850   3.0733   3.0733
     3.1435   3.1435   3.2800   3.2800   3.3496   3.3496   3.6250   3.6250
     3.6714   3.6714   4.0792   4.0792   4.3289   4.3289   4.5107   4.5107
     4.7360   4.7360   4.8140   4.8140   4.8733   4.8733   5.2702   5.2702
     5.5197   5.5197   5.5508   5.5508   5.7215   5.7215   5.7740   5.7740
     6.2988   6.2988   6.4520   6.4520   6.4702   6.4702   6.5458   6.5458
     6.7395   6.7395   6.7567   6.7567   6.8803   6.8803   7.4011   7.4011
     7.4461   7.4461   7.4923   7.4923   7.5082   7.5082   7.8835   7.8835
    10.0555  10.0555  11.0855  11.0855  11.1283  11.1283  11.4145  11.4145
    11.5062  11.5062  12.3210  12.3210  12.5693  12.5693  12.6589  12.6589
    12.7752  12.7752  12.9548  12.9548  13.0282  13.0282  13.7373  13.7373
    14.6693  14.6693  15.4772  15.4772  15.7073  15.7073  15.9161  15.9161
    16.6718  16.6718  17.3970  17.3970  17.5792  17.5792

          k = 0.1667 0.3215 0.0000 ( 63235 PWs)   bands (ev):

   -66.2087 -66.2085 -66.2080 -66.2079 -66.2078 -66.2076 -66.2072 -66.2069
   -30.6281 -30.6247 -30.6243 -30.6210 -30.5950 -30.5915 -30.5913 -30.5879
   -30.5493 -30.5464 -30.5450 -30.5426 -30.5419 -30.5396 -30.5380 -30.5347
   -30.4613 -30.4581 -30.4571 -30.4551 -30.4538 -30.4519 -30.4513 -30.4481
   -20.3586 -20.3582 -20.3581 -20.3578 -20.3557 -20.3554 -20.3552 -20.3550
   -20.3549 -20.3548 -20.3547 -20.3547 -20.3547 -20.3546 -20.3545 -20.3544
   -20.3492 -20.3491 -20.3491 -20.3488 -20.3485 -20.3484 -20.3483 -20.3482
   -20.3461 -20.3460 -20.3459 -20.3458 -20.3454 -20.3453 -20.3452 -20.3450
   -20.3354 -20.3354 -20.3348 -20.3348 -20.3348 -20.3347 -20.3342 -20.3342
   -20.3033 -20.3032 -20.3027 -20.3027 -20.3019 -20.3017 -20.3012 -20.3011
   -20.2981 -20.2980 -20.2978 -20.2977 -20.2966 -20.2965 -20.2964 -20.2963
    -9.9398  -9.7879  -9.5946  -9.5066  -9.4590  -9.3572  -9.1474  -9.1371
    -9.0502  -8.9210  -8.9131  -8.8995  -8.3854  -8.3507  -8.3415  -8.3274
    -8.0037  -7.9869  -7.9145  -7.8993  -7.8711  -7.8547  -7.7878  -7.7725
     1.0964   1.1001   1.1210   1.1272   1.3810   1.3925   1.5327   1.5766
     2.1452   2.2582   2.2729   2.4121   2.4348   2.4798   2.6957   2.7801
     2.8024   2.8937   3.4881   3.5332   3.5466   3.6003   3.9847   4.2482
     4.2534   4.3027   4.3202   4.5177   4.5470   4.6159   4.6576   4.6844
     4.7963   4.8572   4.9224   5.1006   5.1685   5.2594   5.3901   5.4979
     5.5540   5.6204   5.6926   5.7686   5.9562   5.9714   6.0000   6.0232
     6.0350   6.2838   6.3215   6.3730   6.4155   6.6329   6.6391   6.7383
     6.7876   6.8177   6.8917   6.9011   6.9194   6.9208   6.9607   6.9808
     7.0203   7.0303   7.6646   7.6766   7.6980   7.7029   7.8569   7.8585
     9.4424   9.4452  10.3451  10.3901  10.5271  10.5681  11.6511  11.7409
    11.7565  11.8354  12.1886  12.2025  12.3678  12.3873  12.8898  12.9278
    13.0898  13.1667  13.1899  13.2400  13.4697  13.5220  13.6276  13.6536
    14.8364  15.0779  15.1402  15.1888  15.3459  15.5087  15.7173  15.9852
    16.0923  16.8659  17.1111  17.1680  17.2802  17.7187

          k = 0.1667 0.3215 0.1666 ( 63171 PWs)   bands (ev):

   -66.2087 -66.2084 -66.2079 -66.2079 -66.2077 -66.2077 -66.2072 -66.2070
   -30.6279 -30.6246 -30.6245 -30.6213 -30.5949 -30.5916 -30.5914 -30.5882
   -30.5434 -30.5426 -30.5398 -30.5394 -30.5385 -30.5382 -30.5356 -30.5350
   -30.4614 -30.4610 -30.4586 -30.4583 -30.4574 -30.4570 -30.4544 -30.4539
   -20.3586 -20.3582 -20.3582 -20.3578 -20.3557 -20.3554 -20.3552 -20.3550
   -20.3549 -20.3548 -20.3547 -20.3547 -20.3547 -20.3546 -20.3545 -20.3544
   -20.3490 -20.3489 -20.3489 -20.3488 -20.3483 -20.3483 -20.3482 -20.3481
   -20.3461 -20.3461 -20.3460 -20.3459 -20.3454 -20.3454 -20.3453 -20.3452
   -20.3354 -20.3353 -20.3348 -20.3348 -20.3348 -20.3347 -20.3342 -20.3342
   -20.3029 -20.3029 -20.3026 -20.3025 -20.3015 -20.3014 -20.3013 -20.3012
   -20.2982 -20.2981 -20.2980 -20.2979 -20.2968 -20.2968 -20.2965 -20.2965
    -9.8882  -9.7305  -9.5205  -9.5201  -9.3699  -9.3687  -9.1100  -9.1012
    -9.0582  -8.9064  -8.9030  -8.9028  -8.3869  -8.3480  -8.3474  -8.3324
    -7.9987  -7.9970  -7.9817  -7.9798  -7.9408  -7.9258  -7.8981  -7.8847
     1.2786   1.2812   1.3822   1.3847   1.3937   1.3965   1.6056   1.6644
     2.1468   2.2586   2.2610   2.4061   2.5224   2.5723   2.7861   2.7923
     2.8874   2.8926   3.5334   3.5405   3.5655   3.6137   3.9779   4.2736
     4.2775   4.3054   4.3088   4.3686   4.3757   4.4867   4.5340   4.5958
     4.6235   4.6293   4.8760   4.9261   5.1722   5.1742   5.1952   5.2510
     5.5344   5.5417   5.6067   5.6081   5.7106   5.7123   6.2042   6.2415
     6.2537   6.3556   6.3806   6.4656   6.5229   6.5233   6.6216   6.6257
     6.7414   6.7441   6.8340   6.8354   6.9270   6.9400   6.9637   6.9678
     7.0816   7.1020   7.6565   7.6669   7.6704   7.6860   7.8325   7.8368
     9.7053   9.7083  10.4978  10.5485  10.5665  10.5767  11.7214  11.7658
    11.8285  11.8338  12.2360  12.2380  12.2611  12.2628  12.8939  12.9095
    12.9254  12.9679  13.1564  13.2763  13.4524  13.4622  13.4779  13.5689
    15.0114  15.2696  15.2828  15.3378  15.3456  15.5672  16.0634  16.0665
    16.1036  16.8325  17.1788  17.1913  17.2414  17.3426

          k = 0.1667 0.3215 0.3333 ( 63146 PWs)   bands (ev):

   -66.2085 -66.2083 -66.2081 -66.2079 -66.2078 -66.2075 -66.2074 -66.2071
   -30.6274 -30.6254 -30.6240 -30.6220 -30.5943 -30.5923 -30.5909 -30.5889
   -30.5418 -30.5393 -30.5385 -30.5360 -30.5256 -30.5226 -30.5216 -30.5184
   -30.4787 -30.4756 -30.4749 -30.4717 -30.4602 -30.4580 -30.4570 -30.4548
   -20.3585 -20.3583 -20.3581 -20.3579 -20.3556 -20.3554 -20.3553 -20.3551
   -20.3548 -20.3548 -20.3548 -20.3547 -20.3547 -20.3546 -20.3545 -20.3544
   -20.3490 -20.3489 -20.3484 -20.3483 -20.3482 -20.3481 -20.3477 -20.3476
   -20.3467 -20.3466 -20.3463 -20.3460 -20.3459 -20.3456 -20.3454 -20.3453
   -20.3352 -20.3352 -20.3349 -20.3349 -20.3347 -20.3346 -20.3343 -20.3343
   -20.3024 -20.3023 -20.3020 -20.3019 -20.3016 -20.3014 -20.3006 -20.3005
   -20.2993 -20.2991 -20.2979 -20.2978 -20.2977 -20.2975 -20.2969 -20.2968
    -9.7659  -9.5976  -9.5634  -9.4054  -9.3351  -9.1169  -9.0881  -9.0014
    -8.9684  -8.9129  -8.8648  -8.8258  -8.4354  -8.4017  -8.3443  -8.3378
    -8.3070  -8.2560  -8.2504  -8.1991  -7.9797  -7.9634  -7.9322  -7.9168
     1.3942   1.4024   1.4067   1.4118   2.0012   2.0641   2.1077   2.1560
     2.2487   2.2623   2.3211   2.5034   2.7805   2.8034   2.8318   2.8850
     3.0350   3.1155   3.5198   3.5470   3.6023   3.6542   3.7519   3.8100
     3.9564   4.0428   4.1305   4.2278   4.2938   4.3613   4.4245   4.4734
     4.5036   4.5396   4.6010   4.6495   4.6862   4.7569   4.8855   5.0235
     5.1419   5.1594   5.2176   5.4764   5.6305   5.7176   5.9840   5.9982
     6.3677   6.4165   6.4832   6.5738   6.5971   6.6330   6.7751   6.7899
     6.8276   6.8575   6.8753   6.9085   6.9490   7.0147   7.0282   7.0763
     7.1250   7.1602   7.5661   7.5806   7.6451   7.6749   7.7216   7.7479
    10.3265  10.3415  10.5517  10.5671  11.0227  11.0407  11.7267  11.7695
    11.7954  11.8885  12.0179  12.0782  12.3751  12.4264  12.4428  12.4607
    12.8548  12.9068  12.9234  13.0811  13.1333  13.1900  13.4663  13.5068
    15.1920  15.3166  15.5924  15.7116  15.9398  15.9514  15.9996  16.5075
    16.5999  16.7154  16.9710  17.3705  17.4553  17.4951

          k = 0.1667 0.3215-0.4999 ( 63148 PWs)   bands (ev):

   -66.2083 -66.2083 -66.2081 -66.2081 -66.2076 -66.2076 -66.2073 -66.2073
   -30.6264 -30.6264 -30.6231 -30.6231 -30.5934 -30.5934 -30.5899 -30.5899
   -30.5405 -30.5405 -30.5372 -30.5372 -30.5022 -30.5022 -30.4991 -30.4991
   -30.4983 -30.4983 -30.4951 -30.4951 -30.4591 -30.4591 -30.4559 -30.4559
   -20.3584 -20.3584 -20.3580 -20.3580 -20.3555 -20.3555 -20.3553 -20.3553
   -20.3548 -20.3548 -20.3547 -20.3547 -20.3547 -20.3547 -20.3544 -20.3544
   -20.3489 -20.3489 -20.3482 -20.3482 -20.3475 -20.3475 -20.3474 -20.3474
   -20.3469 -20.3469 -20.3468 -20.3468 -20.3459 -20.3459 -20.3453 -20.3453
   -20.3351 -20.3351 -20.3350 -20.3350 -20.3345 -20.3345 -20.3344 -20.3344
   -20.3020 -20.3020 -20.3019 -20.3019 -20.3007 -20.3007 -20.3005 -20.3005
   -20.2993 -20.2993 -20.2992 -20.2991 -20.2973 -20.2973 -20.2972 -20.2972
    -9.6443  -9.6443  -9.4771  -9.4771  -9.1652  -9.1652  -8.9330  -8.9330
    -8.7523  -8.7523  -8.7024  -8.7024  -8.6504  -8.6504  -8.6047  -8.6047
    -8.3386  -8.3386  -8.3093  -8.3093  -7.9561  -7.9561  -7.9403  -7.9403
     1.4052   1.4053   1.4178   1.4178   2.1484   2.1484   2.2511   2.2511
     2.8141   2.8141   2.9700   2.9700   3.0068   3.0068   3.1175   3.1175
     3.1507   3.1507   3.2943   3.2943   3.3285   3.3285   3.5608   3.5608
     3.8160   3.8160   3.8621   3.8621   3.9397   3.9397   4.1720   4.1720
     4.5184   4.5184   4.6267   4.6267   4.7787   4.7787   4.7890   4.7890
     4.9208   4.9208   5.3209   5.3209   5.7230   5.7230   5.7655   5.7655
     6.4859   6.4859   6.5870   6.5870   6.6471   6.6471   6.6861   6.6861
     6.8576   6.8576   6.8984   6.8984   7.0184   7.0184   7.3545   7.3545
     7.3968   7.3968   7.4311   7.4311   7.4767   7.4767   7.6884   7.6884
    10.5384  10.5384  11.0961  11.0961  11.1321  11.1321  11.5852  11.5852
    11.7181  11.7181  11.9351  11.9351  12.4404  12.4404  12.4665  12.4665
    12.7108  12.7108  12.7874  12.7875  13.0094  13.0094  13.4800  13.4800
    15.2743  15.2743  15.8350  15.8350  16.0958  16.0958  16.4489  16.4489
    16.8667  16.8667  17.0149  17.0149  17.5934  17.5935

          k = 0.1667-0.4823 0.0000 ( 63210 PWs)   bands (ev):

   -66.2086 -66.2086 -66.2079 -66.2079 -66.2078 -66.2078 -66.2070 -66.2070
   -30.6116 -30.6115 -30.6083 -30.6080 -30.6079 -30.6077 -30.6045 -30.6045
   -30.5491 -30.5468 -30.5448 -30.5423 -30.5422 -30.5400 -30.5377 -30.5351
   -30.4611 -30.4584 -30.4569 -30.4549 -30.4540 -30.4521 -30.4511 -30.4483
   -20.3571 -20.3571 -20.3568 -20.3567 -20.3566 -20.3566 -20.3563 -20.3563
   -20.3549 -20.3549 -20.3548 -20.3547 -20.3547 -20.3547 -20.3546 -20.3546
   -20.3489 -20.3489 -20.3488 -20.3488 -20.3485 -20.3485 -20.3485 -20.3485
   -20.3458 -20.3457 -20.3457 -20.3456 -20.3456 -20.3455 -20.3454 -20.3453
   -20.3354 -20.3354 -20.3348 -20.3348 -20.3348 -20.3348 -20.3342 -20.3342
   -20.3033 -20.3032 -20.3027 -20.3027 -20.3019 -20.3017 -20.3012 -20.3011
   -20.2981 -20.2980 -20.2978 -20.2977 -20.2966 -20.2965 -20.2964 -20.2963
    -9.8523  -9.8515  -9.5131  -9.5065  -9.4144  -9.4079  -9.1423  -9.1416
    -8.7247  -8.7247  -8.6710  -8.6703  -8.6607  -8.6606  -8.6586  -8.6581
    -7.9985  -7.9924  -7.9098  -7.9042  -7.8658  -7.8601  -7.7832  -7.7772
     1.0969   1.1005   1.1234   1.1282   1.3881   1.3928   1.5664   1.5696
     2.4569   2.4570   2.9957   3.0025   3.0414   3.0476   3.0828   3.0893
     3.1087   3.1252   3.1470   3.1723   3.2566   3.2806   3.3187   3.3356
     3.4712   3.4721   4.2719   4.2725   4.6447   4.6542   4.7413   4.7537
     4.8820   4.8823   4.9638   4.9659   5.1179   5.1189   5.3408   5.3427
     5.6011   5.6016   5.6432   5.6440   5.9982   6.0065   6.0126   6.0218
     6.1889   6.1910   6.2897   6.3066   6.4844   6.4941   6.6882   6.6972
     6.8374   6.8396   6.9177   6.9224   6.9730   6.9842   7.3221   7.3283
     7.3445   7.3449   7.3492   7.3502   7.3571   7.3610   7.8574   7.8575
     9.4436   9.4458  11.0208  11.0279  11.0805  11.0868  11.1484  11.1532
    11.2130  11.2210  12.1919  12.2020  12.3740  12.3848  13.0352  13.0397
    13.1581  13.1625  13.2929  13.3218  13.3399  13.3622  13.3841  13.3899
    15.1188  15.1249  15.4239  15.4288  15.4905  15.5006  15.8313  15.8393
    16.4464  16.4469  17.5508  17.5527  17.5789  17.5792

          k = 0.1667-0.4823 0.1666 ( 63164 PWs)   bands (ev):

   -66.2086 -66.2085 -66.2078 -66.2078 -66.2078 -66.2078 -66.2071 -66.2071
   -30.6114 -30.6114 -30.6082 -30.6081 -30.6080 -30.6078 -30.6047 -30.6047
   -30.5428 -30.5427 -30.5398 -30.5398 -30.5384 -30.5380 -30.5358 -30.5354
   -30.4612 -30.4608 -30.4587 -30.4584 -30.4571 -30.4571 -30.4544 -30.4543
   -20.3571 -20.3571 -20.3568 -20.3567 -20.3567 -20.3567 -20.3563 -20.3563
   -20.3549 -20.3548 -20.3548 -20.3547 -20.3547 -20.3547 -20.3546 -20.3546
   -20.3488 -20.3488 -20.3486 -20.3486 -20.3485 -20.3485 -20.3484 -20.3484
[...]
    11.8758  11.8758  11.8769  11.8769  11.9562  11.9562  11.9570  11.9570
    12.8170  12.8170  12.8196  12.8196  12.9856  12.9856  12.9879  12.9879
    15.2766  15.2766  15.2767  15.2767  16.5079  16.5079  16.5119  16.5119
    17.5074  17.5074  17.5113  17.5113  17.8288  17.8289

          k =-0.5000 0.3215 0.0000 ( 63130 PWs)   bands (ev):

   -66.2084 -66.2084 -66.2081 -66.2081 -66.2075 -66.2075 -66.2073 -66.2073
   -30.6265 -30.6265 -30.6228 -30.6228 -30.5934 -30.5934 -30.5897 -30.5897
   -30.5471 -30.5471 -30.5441 -30.5441 -30.5021 -30.5021 -30.4990 -30.4990
   -30.4976 -30.4976 -30.4943 -30.4943 -30.4532 -30.4532 -30.4500 -30.4500
   -20.3584 -20.3584 -20.3580 -20.3580 -20.3556 -20.3556 -20.3551 -20.3551
   -20.3548 -20.3548 -20.3547 -20.3547 -20.3547 -20.3547 -20.3546 -20.3546
   -20.3491 -20.3491 -20.3486 -20.3486 -20.3474 -20.3474 -20.3474 -20.3473
   -20.3468 -20.3468 -20.3467 -20.3467 -20.3458 -20.3458 -20.3451 -20.3451
   -20.3351 -20.3351 -20.3350 -20.3350 -20.3345 -20.3345 -20.3344 -20.3344
   -20.3026 -20.3026 -20.3024 -20.3024 -20.3005 -20.3005 -20.3004 -20.3004
   -20.2989 -20.2989 -20.2988 -20.2988 -20.2971 -20.2971 -20.2970 -20.2970
    -9.7136  -9.7136  -9.5618  -9.5618  -9.1537  -9.1537  -8.9557  -8.9557
    -8.7362  -8.7362  -8.7106  -8.7106  -8.6572  -8.6571  -8.6004  -8.6003
    -8.3407  -8.3407  -8.3049  -8.3049  -7.8294  -7.8294  -7.8134  -7.8134
     1.1401   1.1401   1.1474   1.1474   2.1463   2.1463   2.2615   2.2615
     2.7362   2.7362   2.9553   2.9553   3.0046   3.0047   3.1217   3.1217
     3.1531   3.1531   3.2111   3.2111   3.2500   3.2501   3.5144   3.5144
     3.8084   3.8085   3.8544   3.8544   3.9569   3.9569   4.1700   4.1700
     4.6323   4.6323   4.7039   4.7039   4.8857   4.8857   5.0179   5.0179
     5.2087   5.2088   5.5719   5.5719   6.1391   6.1391   6.1718   6.1718
     6.2834   6.2834   6.3020   6.3020   6.3755   6.3755   6.5796   6.5796
     6.8733   6.8733   6.8951   6.8951   6.9547   6.9547   7.3595   7.3596
     7.3906   7.3906   7.4199   7.4199   7.4663   7.4664   7.7147   7.7147
    10.3662  10.3662  11.0162  11.0163  11.0427  11.0428  11.5314  11.5314
    11.7089  11.7089  11.8953  11.8953  12.4625  12.4625  12.4796  12.4796
    12.8202  12.8202  12.8709  12.8709  13.1762  13.1762  13.6410  13.6410
    15.0081  15.0081  15.5081  15.5081  16.0235  16.0235  16.4594  16.4594
    16.7992  16.7992  16.9731  16.9731  17.7217  17.7217

          k =-0.5000 0.3215 0.1666 ( 63144 PWs)   bands (ev):

   -66.2083 -66.2083 -66.2081 -66.2081 -66.2076 -66.2076 -66.2073 -66.2073
   -30.6264 -30.6264 -30.6231 -30.6231 -30.5932 -30.5932 -30.5900 -30.5900
   -30.5409 -30.5409 -30.5378 -30.5378 -30.5018 -30.5018 -30.4987 -30.4987
   -30.4979 -30.4979 -30.4947 -30.4947 -30.4595 -30.4595 -30.4563 -30.4563
   -20.3584 -20.3584 -20.3580 -20.3580 -20.3556 -20.3556 -20.3551 -20.3551
   -20.3548 -20.3548 -20.3547 -20.3547 -20.3547 -20.3547 -20.3546 -20.3546
   -20.3489 -20.3489 -20.3484 -20.3484 -20.3474 -20.3474 -20.3473 -20.3473
   -20.3468 -20.3468 -20.3467 -20.3467 -20.3460 -20.3460 -20.3453 -20.3453
   -20.3351 -20.3351 -20.3350 -20.3350 -20.3345 -20.3345 -20.3345 -20.3345
   -20.3022 -20.3022 -20.3021 -20.3021 -20.3004 -20.3004 -20.3003 -20.3003
   -20.2991 -20.2991 -20.2989 -20.2989 -20.2975 -20.2975 -20.2974 -20.2974
    -9.6447  -9.6447  -9.4781  -9.4781  -9.1655  -9.1655  -8.9335  -8.9335
    -8.7516  -8.7515  -8.7018  -8.7018  -8.6493  -8.6493  -8.6041  -8.6040
    -8.3381  -8.3381  -8.3094  -8.3093  -7.9564  -7.9564  -7.9407  -7.9407
     1.4026   1.4026   1.4149   1.4149   2.1482   2.1482   2.2505   2.2505
     2.8193   2.8193   2.9659   2.9659   3.0039   3.0039   3.1199   3.1199
     3.1504   3.1504   3.3026   3.3026   3.3245   3.3245   3.5590   3.5590
     3.8126   3.8126   3.8533   3.8533   3.9553   3.9553   4.1764   4.1765
     4.5154   4.5154   4.6228   4.6228   4.7793   4.7793   4.7894   4.7894
     4.9211   4.9212   5.3209   5.3209   5.7224   5.7224   5.7649   5.7649
     6.4862   6.4863   6.5892   6.5892   6.6482   6.6482   6.6869   6.6869
     6.8555   6.8555   6.8990   6.8990   7.0172   7.0172   7.3536   7.3536
     7.3944   7.3944   7.4346   7.4346   7.4772   7.4773   7.6903   7.6903
    10.5355  10.5355  11.0961  11.0961  11.1317  11.1317  11.5763  11.5763
    11.7192  11.7192  11.9365  11.9365  12.4488  12.4488  12.4669  12.4669
    12.7122  12.7122  12.7925  12.7925  13.0062  13.0062  13.4835  13.4835
    15.2745  15.2745  15.8321  15.8321  16.0953  16.0953  16.4477  16.4477
    16.8568  16.8568  17.0183  17.0183  17.5905  17.5905

          k =-0.5000 0.3215 0.3333 ( 63146 PWs)   bands (ev):

   -66.2081 -66.2081 -66.2079 -66.2079 -66.2077 -66.2077 -66.2075 -66.2075
   -30.6258 -30.6258 -30.6239 -30.6239 -30.5927 -30.5927 -30.5908 -30.5908
   -30.5238 -30.5238 -30.5207 -30.5207 -30.5009 -30.5009 -30.4988 -30.4988
   -30.4978 -30.4978 -30.4955 -30.4955 -30.4767 -30.4767 -30.4735 -30.4735
   -20.3583 -20.3583 -20.3581 -20.3581 -20.3555 -20.3555 -20.3552 -20.3552
   -20.3548 -20.3548 -20.3547 -20.3547 -20.3546 -20.3546 -20.3546 -20.3546
   -20.3483 -20.3483 -20.3479 -20.3479 -20.3474 -20.3474 -20.3472 -20.3472
   -20.3468 -20.3468 -20.3468 -20.3468 -20.3465 -20.3465 -20.3459 -20.3459
   -20.3349 -20.3349 -20.3349 -20.3349 -20.3346 -20.3346 -20.3346 -20.3345
   -20.3013 -20.3013 -20.3012 -20.3012 -20.3001 -20.3001 -20.3000 -20.3000
   -20.2994 -20.2994 -20.2992 -20.2992 -20.2986 -20.2986 -20.2984 -20.2984
    -9.4727  -9.4727  -9.2488  -9.2487  -9.2069  -9.2069  -8.8502  -8.8502
    -8.8044  -8.8043  -8.6728  -8.6728  -8.6296  -8.6295  -8.6121  -8.6121
    -8.3470  -8.3470  -8.3239  -8.3239  -8.2633  -8.2633  -8.2256  -8.2256
     2.0244   2.0244   2.1267   2.1267   2.1558   2.1558   2.3057   2.3057
     2.9569   2.9569   3.0008   3.0008   3.0327   3.0327   3.1169   3.1170
     3.1772   3.1772   3.4957   3.4957   3.5614   3.5615   3.6567   3.6567
     3.8070   3.8070   3.8673   3.8673   3.9485   3.9485   4.0248   4.0248
     4.1363   4.1363   4.2962   4.2962   4.3828   4.3828   4.6360   4.6360
     4.7545   4.7545   4.8036   4.8036   4.8725   4.8725   5.1382   5.1382
     6.7013   6.7013   6.7588   6.7588   6.8158   6.8158   6.8657   6.8657
     6.9711   6.9711   7.0930   7.0931   7.2138   7.2138   7.3321   7.3321
     7.3865   7.3865   7.4574   7.4574   7.4806   7.4806   7.6201   7.6201
    10.9934  10.9934  11.3431  11.3431  11.4128  11.4128  11.6444  11.6444
    11.7634  11.7634  12.1043  12.1043  12.2240  12.2240  12.3190  12.3190
    12.5036  12.5036  12.5930  12.5930  12.6149  12.6149  13.0775  13.0775
    15.8852  15.8852  16.3135  16.3135  16.3922  16.3922  16.6582  16.6582
    17.0670  17.0670  17.1151  17.1151  17.3096  17.3096

          k =-0.5000 0.3215-0.4999 ( 63116 PWs)   bands (ev):

   -66.2079 -66.2079 -66.2079 -66.2079 -66.2077 -66.2077 -66.2077 -66.2077
   -30.6249 -30.6249 -30.6249 -30.6249 -30.5918 -30.5918 -30.5918 -30.5918
   -30.5013 -30.5013 -30.5012 -30.5012 -30.5002 -30.5002 -30.5000 -30.5000
   -30.4970 -30.4970 -30.4967 -30.4967 -30.4958 -30.4958 -30.4957 -30.4957
   -20.3582 -20.3582 -20.3582 -20.3582 -20.3554 -20.3554 -20.3554 -20.3554
   -20.3547 -20.3547 -20.3547 -20.3547 -20.3546 -20.3546 -20.3546 -20.3546
   -20.3476 -20.3476 -20.3476 -20.3476 -20.3474 -20.3474 -20.3473 -20.3473
   -20.3468 -20.3468 -20.3467 -20.3467 -20.3466 -20.3466 -20.3466 -20.3466
   -20.3348 -20.3348 -20.3347 -20.3347 -20.3347 -20.3347 -20.3347 -20.3347
   -20.3001 -20.3001 -20.3001 -20.3001 -20.3000 -20.3000 -20.3000 -20.3000
   -20.2996 -20.2996 -20.2996 -20.2996 -20.2995 -20.2995 -20.2995 -20.2995
    -9.3022  -9.3022  -9.3019  -9.3019  -8.9665  -8.9665  -8.9653  -8.9653
    -8.6894  -8.6894  -8.6873  -8.6872  -8.5604  -8.5604  -8.5593  -8.5592
    -8.5466  -8.5465  -8.5441  -8.5441  -8.3116  -8.3116  -8.3114  -8.3114
     2.1558   2.1558   2.1559   2.1559   2.9057   2.9057   2.9085   2.9085
     2.9799   2.9799   2.9803   2.9803   3.0945   3.0945   3.0994   3.0995
     3.1609   3.1609   3.1623   3.1623   3.7547   3.7547   3.7646   3.7647
     3.7941   3.7941   3.8075   3.8075   3.8745   3.8745   3.8766   3.8766
     4.1159   4.1159   4.1237   4.1237   4.1466   4.1466   4.1509   4.1510
     4.5038   4.5038   4.5038   4.5038   4.8412   4.8412   4.8416   4.8416
     6.7701   6.7701   6.7727   6.7727   6.8460   6.8460   6.8482   6.8482
     7.2237   7.2237   7.2250   7.2250   7.3019   7.3019   7.3046   7.3046
     7.4110   7.4110   7.4115   7.4115   7.5232   7.5232   7.5250   7.5250
    11.5560  11.5560  11.5597  11.5597  11.6280  11.6280  11.6313  11.6313
    11.8985  11.8985  11.8990  11.8990  12.0056  12.0056  12.0064  12.0064
    12.4676  12.4676  12.4697  12.4697  12.6435  12.6435  12.6452  12.6452
    16.2587  16.2587  16.2592  16.2592  16.6928  16.6929  16.6960  16.6960
    17.2440  17.2440  17.2496  17.2496  17.8598  17.8601

          k =-0.5000-0.4823 0.0000 ( 63228 PWs)   bands (ev):

   -66.2082 -66.2082 -66.2082 -66.2082 -66.2074 -66.2074 -66.2074 -66.2074
   -30.6101 -30.6101 -30.6098 -30.6098 -30.6064 -30.6064 -30.6062 -30.6062
   -30.5469 -30.5469 -30.5444 -30.5444 -30.5019 -30.5019 -30.4992 -30.4992
   -30.4974 -30.4974 -30.4946 -30.4946 -30.4530 -30.4530 -30.4502 -30.4502
   -20.3570 -20.3570 -20.3569 -20.3569 -20.3565 -20.3565 -20.3565 -20.3565
   -20.3548 -20.3548 -20.3548 -20.3548 -20.3547 -20.3547 -20.3547 -20.3547
   -20.3489 -20.3489 -20.3488 -20.3488 -20.3471 -20.3471 -20.3471 -20.3471
   -20.3471 -20.3471 -20.3470 -20.3470 -20.3455 -20.3455 -20.3454 -20.3454
   -20.3351 -20.3351 -20.3351 -20.3351 -20.3345 -20.3345 -20.3344 -20.3344
   -20.3026 -20.3026 -20.3024 -20.3024 -20.3005 -20.3005 -20.3004 -20.3004
   -20.2989 -20.2989 -20.2988 -20.2988 -20.2971 -20.2971 -20.2970 -20.2970
    -9.6242  -9.6242  -9.6189  -9.6189  -8.8930  -8.8929  -8.8863  -8.8863
    -8.7838  -8.7838  -8.7789  -8.7788  -8.5874  -8.5874  -8.5770  -8.5769
    -8.5328  -8.5328  -8.5227  -8.5227  -7.8245  -7.8244  -7.8185  -7.8185
     1.1429   1.1429   1.1484   1.1484   2.8735   2.8735   2.9250   2.9250
     2.9983   2.9983   3.0260   3.0260   3.0321   3.0321   3.0488   3.0488
     3.1575   3.1575   3.1628   3.1628   3.2525   3.2525   3.2961   3.2961
     3.3595   3.3595   3.4728   3.4728   4.0695   4.0695   4.0993   4.0993
     4.1558   4.1558   4.1955   4.1955   4.9527   4.9527   4.9661   4.9662
     5.3180   5.3180   5.3381   5.3382   6.1710   6.1710   6.1743   6.1743
     6.3471   6.3471   6.3550   6.3551   6.4192   6.4192   6.4346   6.4346
     7.1406   7.1407   7.1590   7.1590   7.1719   7.1719   7.2348   7.2348
     7.2812   7.2812   7.3175   7.3175   7.4947   7.4947   7.4979   7.4979
    10.9777  10.9777  10.9927  10.9927  11.0910  11.0910  11.1053  11.1053
    12.0357  12.0357  12.0668  12.0668  12.0847  12.0847  12.1117  12.1117
    12.8310  12.8311  12.8388  12.8388  13.3614  13.3614  13.3729  13.3729
    15.3322  15.3322  15.3423  15.3423  16.5259  16.5259  16.5459  16.5459
    17.3763  17.3764  17.3918  17.3918  17.5169  17.5170

          k =-0.5000-0.4823 0.1666 ( 63176 PWs)   bands (ev):

   -66.2082 -66.2082 -66.2082 -66.2082 -66.2075 -66.2075 -66.2075 -66.2075
   -30.6099 -30.6099 -30.6097 -30.6097 -30.6067 -30.6067 -30.6065 -30.6065
   -30.5407 -30.5407 -30.5381 -30.5381 -30.5016 -30.5016 -30.4989 -30.4989
   -30.4977 -30.4977 -30.4949 -30.4949 -30.4593 -30.4593 -30.4565 -30.4565
   -20.3570 -20.3570 -20.3569 -20.3569 -20.3565 -20.3565 -20.3565 -20.3565
   -20.3548 -20.3548 -20.3548 -20.3548 -20.3547 -20.3547 -20.3547 -20.3547
   -20.3486 -20.3486 -20.3486 -20.3486 -20.3471 -20.3471 -20.3471 -20.3471
   -20.3471 -20.3471 -20.3470 -20.3470 -20.3457 -20.3457 -20.3456 -20.3456
   -20.3350 -20.3350 -20.3350 -20.3350 -20.3345 -20.3345 -20.3345 -20.3345
   -20.3022 -20.3022 -20.3021 -20.3021 -20.3004 -20.3004 -20.3003 -20.3003
   -20.2991 -20.2991 -20.2989 -20.2989 -20.2975 -20.2975 -20.2974 -20.2974
    -9.5452  -9.5452  -9.5401  -9.5401  -8.9076  -8.9076  -8.9009  -8.9008
    -8.7692  -8.7692  -8.7636  -8.7635  -8.5851  -8.5851  -8.5746  -8.5746
    -8.5350  -8.5349  -8.5250  -8.5250  -7.9517  -7.9517  -7.9457  -7.9457
     1.4099   1.4099   1.4155   1.4155   2.8767   2.8767   2.9241   2.9241
     2.9870   2.9870   2.9954   2.9954   3.0649   3.0649   3.1035   3.1035
     3.1474   3.1474   3.2364   3.2364   3.3178   3.3178   3.3539   3.3539
     3.4014   3.4014   3.5049   3.5049   4.0731   4.0731   4.1008   4.1009
     4.1490   4.1490   4.1885   4.1886   4.6591   4.6592   4.7665   4.7665
     4.9817   4.9817   5.0849   5.0849   5.7271   5.7271   5.7408   5.7408
     6.5632   6.5632   6.6052   6.6052   6.6693   6.6693   6.7053   6.7053
     7.1362   7.1362   7.1458   7.1458   7.1915   7.1916   7.2382   7.2382
     7.2765   7.2765   7.3257   7.3257   7.4872   7.4872   7.5131   7.5131
    11.0477  11.0477  11.0932  11.0932  11.1806  11.1806  11.2471  11.2472
    12.0404  12.0404  12.0651  12.0651  12.0917  12.0917  12.1094  12.1094
    12.6954  12.6954  12.7665  12.7665  13.1714  13.1714  13.2261  13.2261
    15.6424  15.6424  15.6621  15.6621  16.5921  16.5921  16.6132  16.6132
    17.3499  17.3499  17.4016  17.4016  17.4984  17.4984

          k =-0.5000-0.4823 0.3333 ( 63172 PWs)   bands (ev):

   -66.2080 -66.2080 -66.2080 -66.2080 -66.2076 -66.2076 -66.2076 -66.2076
   -30.6093 -30.6093 -30.6092 -30.6092 -30.6074 -30.6074 -30.6073 -30.6073
   -30.5236 -30.5235 -30.5209 -30.5209 -30.5007 -30.5007 -30.4986 -30.4986
   -30.4981 -30.4981 -30.4957 -30.4957 -30.4765 -30.4765 -30.4737 -30.4737
   -20.3569 -20.3569 -20.3568 -20.3568 -20.3566 -20.3566 -20.3566 -20.3566
   -20.3548 -20.3548 -20.3548 -20.3548 -20.3547 -20.3547 -20.3547 -20.3547
   -20.3480 -20.3480 -20.3480 -20.3480 -20.3471 -20.3471 -20.3471 -20.3471
   -20.3471 -20.3471 -20.3470 -20.3470 -20.3463 -20.3463 -20.3462 -20.3462
   -20.3349 -20.3349 -20.3349 -20.3349 -20.3346 -20.3346 -20.3346 -20.3346
   -20.3013 -20.3013 -20.3012 -20.3012 -20.3001 -20.3001 -20.3000 -20.3000
   -20.2994 -20.2994 -20.2992 -20.2992 -20.2986 -20.2986 -20.2984 -20.2984
    -9.3344  -9.3344  -9.3303  -9.3303  -8.9602  -8.9602  -8.9540  -8.9540
    -8.7133  -8.7133  -8.7081  -8.7080  -8.5789  -8.5789  -8.5702  -8.5701
    -8.5392  -8.5391  -8.5310  -8.5310  -8.2568  -8.2568  -8.2512  -8.2512
     2.1168   2.1168   2.1228   2.1228   2.8849   2.8849   2.9121   2.9121
     2.9715   2.9715   2.9848   2.9848   3.1122   3.1122   3.1358   3.1358
     3.2143   3.2143   3.2406   3.2406   3.4796   3.4796   3.5051   3.5051
     3.6175   3.6175   3.6624   3.6624   4.0605   4.0605   4.0675   4.0675
     4.1038   4.1038   4.1576   4.1577   4.2315   4.2315   4.3067   4.3067
     4.4755   4.4755   4.5824   4.5824   4.8937   4.8937   4.9067   4.9067
     6.8529   6.8529   6.8935   6.8935   7.0031   7.0031   7.0081   7.0081
     7.1182   7.1182   7.1561   7.1562   7.1771   7.1771   7.2392   7.2392
     7.3124   7.3124   7.3689   7.3689   7.4816   7.4816   7.5056   7.5056
    11.3055  11.3055  11.3582  11.3582  11.5140  11.5140  11.6020  11.6020
    12.0232  12.0232  12.0674  12.0674  12.0869  12.0869  12.1129  12.1129
    12.3299  12.3299  12.4611  12.4611  12.7108  12.7108  12.8001  12.8001
    16.4234  16.4234  16.4773  16.4773  16.8100  16.8101  16.8211  16.8211
    17.2260  17.2261  17.3445  17.3445  17.4768  17.4768

          k =-0.5000-0.4823-0.4999 ( 63104 PWs)   bands (ev):

   -66.2078 -66.2078 -66.2078 -66.2078 -66.2078 -66.2078 -66.2078 -66.2078
   -30.6084 -30.6084 -30.6084 -30.6084 -30.6083 -30.6083 -30.6082 -30.6082
   -30.5010 -30.5010 -30.5009 -30.5009 -30.5002 -30.5002 -30.5001 -30.5001
   -30.4968 -30.4968 -30.4968 -30.4968 -30.4961 -30.4961 -30.4960 -30.4960
   -20.3568 -20.3568 -20.3568 -20.3568 -20.3567 -20.3567 -20.3567 -20.3567
   -20.3547 -20.3547 -20.3547 -20.3547 -20.3547 -20.3547 -20.3547 -20.3547
   -20.3474 -20.3474 -20.3474 -20.3474 -20.3473 -20.3473 -20.3472 -20.3472
   -20.3470 -20.3470 -20.3469 -20.3469 -20.3468 -20.3468 -20.3468 -20.3468
   -20.3347 -20.3347 -20.3347 -20.3347 -20.3347 -20.3347 -20.3347 -20.3347
   -20.3001 -20.3001 -20.3001 -20.3001 -20.3000 -20.3000 -20.3000 -20.3000
   -20.2996 -20.2996 -20.2996 -20.2996 -20.2995 -20.2995 -20.2995 -20.2995
    -9.0964  -9.0963  -9.0942  -9.0942  -9.0913  -9.0913  -9.0905  -9.0905
    -8.5825  -8.5825  -8.5758  -8.5757  -8.5695  -8.5695  -8.5694  -8.5693
    -8.5398  -8.5398  -8.5377  -8.5376  -8.5364  -8.5364  -8.5328  -8.5328
     2.8817   2.8817   2.8821   2.8822   2.8987   2.8987   2.9012   2.9012
     2.9908   2.9908   2.9942   2.9942   3.0159   3.0160   3.0215   3.0215
     3.2445   3.2445   3.2644   3.2644   3.2981   3.2981   3.3118   3.3119
     3.9840   3.9840   3.9889   3.9889   3.9960   3.9961   3.9973   3.9973
     4.1257   4.1257   4.1288   4.1288   4.1327   4.1327   4.1385   4.1385
     4.2281   4.2281   4.2356   4.2356   4.2482   4.2483   4.2497   4.2497
     7.0091   7.0091   7.0248   7.0248   7.0590   7.0590   7.0789   7.0789
     7.1678   7.1678   7.1695   7.1696   7.1729   7.1729   7.1741   7.1742
     7.4317   7.4317   7.4349   7.4349   7.4445   7.4445   7.4498   7.4499
    11.7238  11.7238  11.7240  11.7240  11.7290  11.7290  11.7307  11.7307
    12.0164  12.0164  12.0320  12.0320  12.0665  12.0665  12.0858  12.0858
    12.2466  12.2466  12.2570  12.2570  12.2745  12.2745  12.2811  12.2811
    16.9337  16.9338  16.9415  16.9415  16.9605  16.9605  16.9716  16.9716
    17.4032  17.4032  17.4038  17.4038  17.4148  17.4148

     the Fermi energy is     9.7046 ev

!    total energy              =   -6260.41231057 Ry
     Harris-Foulkes estimate   =   -6260.41231058 Ry
     estimated scf accuracy    <          3.2E-09 Ry

     The total energy is the sum of the following terms:

     one-electron contribution =   -4785.46135336 Ry
     hartree contribution      =    2629.11114754 Ry
     xc contribution           =    -966.76986411 Ry
     ewald contribution        =   -3137.29217707 Ry
     smearing contrib. (-TS)   =      -0.00006357 Ry

     convergence has been achieved in  15 iterations

     Writing output data file Landau_7.save
 
     init_run     :     26.36s CPU     28.06s WALL (       1 calls)
     electrons    :   1288.25s CPU   1333.59s WALL (       1 calls)

     Called by init_run:
     wfcinit      :     23.91s CPU     25.48s WALL (       1 calls)
     potinit      :      0.99s CPU      1.02s WALL (       1 calls)

     Called by electrons:
     c_bands      :   1127.33s CPU   1170.56s WALL (      15 calls)
     sum_band     :    155.17s CPU    156.43s WALL (      15 calls)
     v_of_rho     :      1.40s CPU      1.44s WALL (      16 calls)
     mix_rho      :      2.52s CPU      3.12s WALL (      15 calls)

     Called by c_bands:
     init_us_2    :      8.58s CPU      9.18s WALL (      62 calls)
     cegterg      :    923.15s CPU    964.70s WALL (      30 calls)

     Called by sum_band:

     Called by *egterg:
     h_psi        :    745.95s CPU    751.23s WALL (     128 calls)
     g_psi        :      1.90s CPU      1.91s WALL (      96 calls)
     cdiaghg      :     13.08s CPU     13.15s WALL (     126 calls)

     Called by h_psi:
     h_psi:pot    :    740.23s CPU    745.14s WALL (     128 calls)
     h_psi:calbec :     71.82s CPU     74.12s WALL (     128 calls)
     vloc_psi     :    589.73s CPU    591.85s WALL (     128 calls)
     add_vuspsi   :     78.67s CPU     79.17s WALL (     128 calls)

     General routines
     calbec       :     71.82s CPU     74.12s WALL (     128 calls)
     fft          :      1.01s CPU      1.02s WALL (      64 calls)
     fftw         :    610.59s CPU    612.39s WALL (   37648 calls)
 
     Parallel routines
 
     PWSCF        : 21m59.92s CPU    22m49.84s WALL

 
   This run was terminated on:   1:35:35  26Mar2020            

=------------------------------------------------------------------------------=
   JOB DONE.
=------------------------------------------------------------------------------=
