
     Program PWSCF v.6.4.1 starts on 21Nov2019 at 17:23:28 

     This program is part of the open-source Quantum ESPRESSO suite
     for quantum simulation of materials; please cite
         "P. Giannozzi et al., J. Phys.:Condens. Matter 21 395502 (2009);
         "P. Giannozzi et al., J. Phys.:Condens. Matter 29 465901 (2017);
          URL http://www.quantum-espresso.org", 
     in publications or presentations arising from this work. More details at
     http://www.quantum-espresso.org/quote

     Parallel version (MPI), running on    40 processors

     MPI processes distributed on     5 nodes
     K-points division:     npool     =      40
     Reading input from rscf.in

     Current dimensions of program PWSCF are:
     Max number of different atomic species (ntypx) = 10
     Max number of k-points (npk) =  40000
     Max angular momentum in pseudopotentials (lmaxx) =  3

     Subspace diagonalization in iterative solution of the eigenvalue problem:
     a serial algorithm will be used

     Message from routine setup:
     using ibrav=0 with symmetry is DISCOURAGED, use correct ibrav instead
 
     G-vector sticks info
     --------------------
     sticks:   dense  smooth     PW     G-vecs:    dense   smooth      PW
     Sum        3657    3657    989               248967   248967   35169
 


     bravais-lattice index     =            0
     lattice parameter (alat)  =       9.7849  a.u.
     unit-cell volume          =    1402.1515 (a.u.)^3
     number of atoms/cell      =           16
     number of atomic types    =            2
     number of electrons       =       184.00
     number of Kohn-Sham states=          110
     kinetic-energy cutoff     =     120.0000  Ry
     charge density cutoff     =     480.0000  Ry
     convergence threshold     =      1.0E-08
     mixing beta               =       0.7000
     number of iterations used =            8  plain     mixing
     Exchange-correlation      = SLA PW NOGX NOGC ( 1  4  0  0 0 0)
     nstep                     =           50


     celldm(1)=   9.784926  celldm(2)=   0.000000  celldm(3)=   0.000000
     celldm(4)=   0.000000  celldm(5)=   0.000000  celldm(6)=   0.000000

     crystal axes: (cart. coord. in units of alat)
               a(1) = (   1.000000   0.000000   0.000000 )  
               a(2) = (   0.000000   1.000000   0.000000 )  
               a(3) = (   0.000000   0.000000   1.496657 )  

     reciprocal axes: (cart. coord. in units 2 pi/alat)
               b(1) = (  1.000000  0.000000  0.000000 )  
               b(2) = (  0.000000  1.000000  0.000000 )  
               b(3) = (  0.000000  0.000000  0.668156 )  


     PseudoPot. # 1 for W  read from file:
     /cluster/scratch/mnoe/QE/pps/W_ONCV_LDA-4.0.upf
     MD5 check sum: ba0307d5d4cd419d6f1d13dc49d7c13a
     Pseudo is Norm-conserving + core correction, Zval = 28.0
     Generated using ONCVPSP code by D. R. Hamann
     Using radial grid of 1380 points,  8 beta functions with: 
                l(1) =   0
                l(2) =   0
                l(3) =   1
                l(4) =   1
                l(5) =   2
                l(6) =   2
                l(7) =   3
                l(8) =   3

     PseudoPot. # 2 for O  read from file:
     /cluster/scratch/mnoe/QE/pps/O_ONCV_LDA-3.0.upf
     MD5 check sum: b55cdb4f45ae2203d24ad12cf8d61a31
     Pseudo is Norm-conserving + core correction, Zval =  6.0
     Generated using ONCVPSP code by D. R. Hamann
     Using radial grid of  926 points,  5 beta functions with: 
                l(1) =   0
                l(2) =   0
                l(3) =   1
                l(4) =   1
                l(5) =   2

     atomic species   valence    mass     pseudopotential
        W             28.00   183.84000     W ( 1.00)
        O              6.00    15.99940     O ( 1.00)

     16 Sym. Ops., with inversion, found (14 have fractional translation)



   Cartesian axes

     site n.     atom                  positions (alat units)
         1           W   tau(   1) = (   0.2500000   0.2500000   0.3239103  )
         2           W   tau(   2) = (   0.7500000   0.7500000   1.1727468  )
         3           W   tau(   3) = (   0.7500000   0.7500000   0.4244183  )
         4           W   tau(   4) = (   0.2500000   0.2500000   1.0722387  )
         5           O   tau(   5) = (   0.2500000   0.2500000   0.7310536  )
         6           O   tau(   6) = (   0.7500000   0.7500000   0.7656034  )
         7           O   tau(   7) = (   0.7500000   0.7500000   0.0172749  )
         8           O   tau(   8) = (   0.2500000   0.2500000   1.4793821  )
         9           O   tau(   9) = (   0.4581870   0.5418129   0.3741643  )
        10           O   tau(  10) = (   0.5418130   0.4581871   1.1224928  )
        11           O   tau(  11) = (   0.0418129   0.9581871   0.3741643  )
        12           O   tau(  12) = (   0.9581870   0.0418130   1.1224928  )
        13           O   tau(  13) = (   0.9581871   0.4581870   0.3741643  )
        14           O   tau(  14) = (   0.0418130   0.5418130   1.1224928  )
        15           O   tau(  15) = (   0.5418129   0.0418129   0.3741643  )
        16           O   tau(  16) = (   0.4581871   0.9581870   1.1224928  )

     number of k points=    60  gaussian smearing, width (Ry)=  0.0007
                       cart. coord. in units 2pi/alat
        k(    1) = (   0.0000000   0.0000000   0.0000000), wk =   0.0041152
        k(    2) = (   0.0000000   0.0000000   0.1113593), wk =   0.0082305
        k(    3) = (   0.0000000   0.0000000   0.2227186), wk =   0.0082305
        k(    4) = (   0.0000000   0.0000000  -0.3340779), wk =   0.0041152
        k(    5) = (   0.0000000   0.1111111   0.0000000), wk =   0.0164609
        k(    6) = (   0.0000000   0.1111111   0.1113593), wk =   0.0329218
        k(    7) = (   0.0000000   0.1111111   0.2227186), wk =   0.0329218
        k(    8) = (   0.0000000   0.1111111  -0.3340779), wk =   0.0164609
        k(    9) = (   0.0000000   0.2222222   0.0000000), wk =   0.0164609
        k(   10) = (   0.0000000   0.2222222   0.1113593), wk =   0.0329218
        k(   11) = (   0.0000000   0.2222222   0.2227186), wk =   0.0329218
        k(   12) = (   0.0000000   0.2222222  -0.3340779), wk =   0.0164609
        k(   13) = (   0.0000000   0.3333333   0.0000000), wk =   0.0164609
        k(   14) = (   0.0000000   0.3333333   0.1113593), wk =   0.0329218
        k(   15) = (   0.0000000   0.3333333   0.2227186), wk =   0.0329218
        k(   16) = (   0.0000000   0.3333333  -0.3340779), wk =   0.0164609
        k(   17) = (   0.0000000   0.4444444   0.0000000), wk =   0.0164609
        k(   18) = (   0.0000000   0.4444444   0.1113593), wk =   0.0329218
        k(   19) = (   0.0000000   0.4444444   0.2227186), wk =   0.0329218
        k(   20) = (   0.0000000   0.4444444  -0.3340779), wk =   0.0164609
        k(   21) = (   0.1111111   0.1111111   0.0000000), wk =   0.0164609
        k(   22) = (   0.1111111   0.1111111   0.1113593), wk =   0.0329218
        k(   23) = (   0.1111111   0.1111111   0.2227186), wk =   0.0329218
        k(   24) = (   0.1111111   0.1111111  -0.3340779), wk =   0.0164609
        k(   25) = (   0.1111111   0.2222222   0.0000000), wk =   0.0329218
        k(   26) = (   0.1111111   0.2222222   0.1113593), wk =   0.0658436
        k(   27) = (   0.1111111   0.2222222   0.2227186), wk =   0.0658436
        k(   28) = (   0.1111111   0.2222222  -0.3340779), wk =   0.0329218
        k(   29) = (   0.1111111   0.3333333   0.0000000), wk =   0.0329218
        k(   30) = (   0.1111111   0.3333333   0.1113593), wk =   0.0658436
        k(   31) = (   0.1111111   0.3333333   0.2227186), wk =   0.0658436
        k(   32) = (   0.1111111   0.3333333  -0.3340779), wk =   0.0329218
        k(   33) = (   0.1111111   0.4444444   0.0000000), wk =   0.0329218
        k(   34) = (   0.1111111   0.4444444   0.1113593), wk =   0.0658436
        k(   35) = (   0.1111111   0.4444444   0.2227186), wk =   0.0658436
        k(   36) = (   0.1111111   0.4444444  -0.3340779), wk =   0.0329218
        k(   37) = (   0.2222222   0.2222222   0.0000000), wk =   0.0164609
        k(   38) = (   0.2222222   0.2222222   0.1113593), wk =   0.0329218
        k(   39) = (   0.2222222   0.2222222   0.2227186), wk =   0.0329218
        k(   40) = (   0.2222222   0.2222222  -0.3340779), wk =   0.0164609
        k(   41) = (   0.2222222   0.3333333   0.0000000), wk =   0.0329218
        k(   42) = (   0.2222222   0.3333333   0.1113593), wk =   0.0658436
        k(   43) = (   0.2222222   0.3333333   0.2227186), wk =   0.0658436
        k(   44) = (   0.2222222   0.3333333  -0.3340779), wk =   0.0329218
        k(   45) = (   0.2222222   0.4444444   0.0000000), wk =   0.0329218
        k(   46) = (   0.2222222   0.4444444   0.1113593), wk =   0.0658436
        k(   47) = (   0.2222222   0.4444444   0.2227186), wk =   0.0658436
        k(   48) = (   0.2222222   0.4444444  -0.3340779), wk =   0.0329218
        k(   49) = (   0.3333333   0.3333333   0.0000000), wk =   0.0164609
        k(   50) = (   0.3333333   0.3333333   0.1113593), wk =   0.0329218
        k(   51) = (   0.3333333   0.3333333   0.2227186), wk =   0.0329218
        k(   52) = (   0.3333333   0.3333333  -0.3340779), wk =   0.0164609
        k(   53) = (   0.3333333   0.4444444   0.0000000), wk =   0.0329218
        k(   54) = (   0.3333333   0.4444444   0.1113593), wk =   0.0658436
        k(   55) = (   0.3333333   0.4444444   0.2227186), wk =   0.0658436
        k(   56) = (   0.3333333   0.4444444  -0.3340779), wk =   0.0329218
        k(   57) = (   0.4444444   0.4444444   0.0000000), wk =   0.0164609
        k(   58) = (   0.4444444   0.4444444   0.1113593), wk =   0.0329218
        k(   59) = (   0.4444444   0.4444444   0.2227186), wk =   0.0329218
        k(   60) = (   0.4444444   0.4444444  -0.3340779), wk =   0.0164609

     Dense  grid:   248967 G-vectors     FFT dimensions: (  72,  72, 108)

     Estimated max dynamical RAM per process >     894.71 MB

     Estimated total dynamical RAM >      34.95 GB

     Initial potential from superposition of free atoms

     starting charge  183.99828, renormalised to  184.00000
     Starting wfcs are  116 randomized atomic wfcs

     total cpu time spent up to now is       19.4 secs

     Self-consistent Calculation

     iteration #  1     ecut=   120.00 Ry     beta= 0.70
     Davidson diagonalization with overlap
     ethr =  1.00E-02,  avg # of iterations =  4.3

     total cpu time spent up to now is       48.4 secs

     total energy              =   -3126.99848114 Ry
     Harris-Foulkes estimate   =   -3132.29279937 Ry
     estimated scf accuracy    <       6.70856229 Ry

     iteration #  2     ecut=   120.00 Ry     beta= 0.70
     Davidson diagonalization with overlap
     ethr =  3.65E-03,  avg # of iterations =  3.3

     total cpu time spent up to now is       76.6 secs

     total energy              =   -3125.47812620 Ry
     Harris-Foulkes estimate   =   -3135.34341886 Ry
     estimated scf accuracy    <      26.41302567 Ry

     iteration #  3     ecut=   120.00 Ry     beta= 0.70
     Davidson diagonalization with overlap
     ethr =  3.65E-03,  avg # of iterations =  3.2

     total cpu time spent up to now is      103.4 secs

     total energy              =   -3130.53735303 Ry
     Harris-Foulkes estimate   =   -3130.68896860 Ry
     estimated scf accuracy    <       0.49046099 Ry

     iteration #  4     ecut=   120.00 Ry     beta= 0.70
     Davidson diagonalization with overlap
     ethr =  2.67E-04,  avg # of iterations =  2.5

     total cpu time spent up to now is      125.9 secs

     total energy              =   -3130.54497735 Ry
     Harris-Foulkes estimate   =   -3130.58069530 Ry
     estimated scf accuracy    <       0.12206768 Ry

     iteration #  5     ecut=   120.00 Ry     beta= 0.70
     Davidson diagonalization with overlap
     ethr =  6.63E-05,  avg # of iterations =  4.1

     total cpu time spent up to now is      149.1 secs

     total energy              =   -3130.54187060 Ry
     Harris-Foulkes estimate   =   -3130.55944397 Ry
     estimated scf accuracy    <       0.03839748 Ry

     iteration #  6     ecut=   120.00 Ry     beta= 0.70
     Davidson diagonalization with overlap
     ethr =  2.09E-05,  avg # of iterations =  4.1

     total cpu time spent up to now is      173.9 secs

     total energy              =   -3130.55041417 Ry
     Harris-Foulkes estimate   =   -3130.55138786 Ry
     estimated scf accuracy    <       0.00262236 Ry

     iteration #  7     ecut=   120.00 Ry     beta= 0.70
     Davidson diagonalization with overlap
     ethr =  1.43E-06,  avg # of iterations =  2.9

     total cpu time spent up to now is      196.6 secs

     total energy              =   -3130.55074639 Ry
     Harris-Foulkes estimate   =   -3130.55078340 Ry
     estimated scf accuracy    <       0.00007668 Ry

     iteration #  8     ecut=   120.00 Ry     beta= 0.70
     Davidson diagonalization with overlap
     ethr =  4.17E-08,  avg # of iterations =  3.0

     total cpu time spent up to now is      224.4 secs

     total energy              =   -3130.55077443 Ry
     Harris-Foulkes estimate   =   -3130.55077628 Ry
     estimated scf accuracy    <       0.00000897 Ry

     iteration #  9     ecut=   120.00 Ry     beta= 0.70
     Davidson diagonalization with overlap
     ethr =  4.88E-09,  avg # of iterations =  2.0

     total cpu time spent up to now is      247.4 secs

     total energy              =   -3130.55077313 Ry
     Harris-Foulkes estimate   =   -3130.55077517 Ry
     estimated scf accuracy    <       0.00000543 Ry

     iteration # 10     ecut=   120.00 Ry     beta= 0.70
     Davidson diagonalization with overlap
     ethr =  2.95E-09,  avg # of iterations =  2.0

     total cpu time spent up to now is      269.2 secs

     total energy              =   -3130.55077387 Ry
     Harris-Foulkes estimate   =   -3130.55077392 Ry
     estimated scf accuracy    <       0.00000013 Ry

     iteration # 11     ecut=   120.00 Ry     beta= 0.70
     Davidson diagonalization with overlap
     ethr =  7.00E-11,  avg # of iterations =  3.0

     total cpu time spent up to now is      296.6 secs

     total energy              =   -3130.55077390 Ry
     Harris-Foulkes estimate   =   -3130.55077392 Ry
     estimated scf accuracy    <       0.00000002 Ry

     iteration # 12     ecut=   120.00 Ry     beta= 0.70
     Davidson diagonalization with overlap
     ethr =  1.23E-11,  avg # of iterations =  2.0

     total cpu time spent up to now is      321.2 secs

     End of self-consistent calculation

          k = 0.0000 0.0000 0.0000 ( 31095 PWs)   bands (ev):

   -66.1560 -66.1556 -66.1541 -66.1537 -30.5270 -30.5208 -30.5203 -30.5203
   -30.5171 -30.5171 -30.4677 -30.4627 -30.4240 -30.4240 -30.4214 -30.4214
   -20.3109 -20.3108 -20.3108 -20.3107 -20.2906 -20.2902 -20.2889 -20.2889
   -20.2886 -20.2886 -20.2878 -20.2878 -20.2877 -20.2877 -20.2850 -20.2845
   -20.2798 -20.2798 -20.2788 -20.2788 -20.2784 -20.2783 -20.2778 -20.2777
   -20.2730 -20.2730 -20.2722 -20.2722  -9.9944  -9.7333  -9.1108  -9.0965
    -9.0211  -8.8336  -7.7948  -7.6799  -7.6661  -7.6661  -7.6452  -7.6452
     1.0530   1.0533   1.3341   1.5154   1.6665   1.7746   2.3312   2.4107
     2.6745   2.6745   4.0946   4.0946   5.0362   5.0414   5.0414   5.5657
     5.5657   5.5712   5.5712   5.8634   5.8634   5.9301   6.0219   6.8000
     6.8000   6.8521   7.0244   7.0670   7.3077   7.3077   7.3429   7.3429
     7.9624   7.9728   8.1332   8.1332   9.1542   9.1597   9.9539   9.9539
    12.3311  12.3311  13.1594  13.1596  13.4735  13.4735  13.7430  14.2289
    14.2289  14.8636  15.3201  15.3294  15.4821  16.8409

          k = 0.0000 0.0000 0.1114 ( 31063 PWs)   bands (ev):

   -66.1560 -66.1556 -66.1540 -66.1537 -30.5231 -30.5201 -30.5201 -30.5173
   -30.5173 -30.5169 -30.4718 -30.4666 -30.4238 -30.4238 -30.4215 -30.4215
   -20.3109 -20.3108 -20.3108 -20.3107 -20.2902 -20.2898 -20.2888 -20.2888
   -20.2886 -20.2886 -20.2878 -20.2878 -20.2878 -20.2878 -20.2854 -20.2849
   -20.2798 -20.2798 -20.2789 -20.2789 -20.2784 -20.2783 -20.2778 -20.2777
   -20.2730 -20.2730 -20.2723 -20.2723  -9.9685  -9.7443  -9.1098  -9.0975
    -8.9473  -8.7841  -7.8909  -7.7871  -7.6648  -7.6648  -7.6466  -7.6466
     1.0530   1.0532   1.4216   1.5148   1.8225   2.0142   2.3364   2.4052
     2.7413   2.7413   3.9531   3.9531   4.8043   5.0306   5.0306   5.4902
     5.4902   5.6297   5.6297   5.6714   5.9536   5.9536   5.9696   6.8238
     6.8238   6.8639   6.8768   7.0132   7.3131   7.3131   7.3420   7.3420
     7.9661   7.9725   8.0822   8.0822   9.1545   9.1593  10.1363  10.1363
    12.1939  12.1939  13.1594  13.1596  13.4888  13.4888  14.0803  14.1419
    14.1419  15.0271  15.3205  15.3284  15.8866  16.5224

          k = 0.0000 0.0000 0.2227 ( 31059 PWs)   bands (ev):

   -66.1559 -66.1557 -66.1540 -66.1538 -30.5195 -30.5195 -30.5179 -30.5179
   -30.5123 -30.5063 -30.4827 -30.4773 -30.4234 -30.4234 -30.4220 -30.4220
   -20.3109 -20.3108 -20.3108 -20.3107 -20.2892 -20.2888 -20.2888 -20.2888
   -20.2886 -20.2886 -20.2878 -20.2878 -20.2878 -20.2878 -20.2864 -20.2860
   -20.2796 -20.2796 -20.2791 -20.2791 -20.2784 -20.2783 -20.2778 -20.2777
   -20.2728 -20.2728 -20.2724 -20.2724  -9.9050  -9.7780  -9.1072  -9.1001
    -8.7391  -8.6325  -8.1352  -8.0592  -7.6610  -7.6610  -7.6505  -7.6505
     1.0530   1.0532   1.4878   1.5123   2.3506   2.3903   2.3914   2.7071
     2.9366   2.9366   3.6134   3.6134   4.1451   4.7823   5.1115   5.1116
     5.4118   5.4118   5.6734   5.6734   5.9032   5.9032   6.0859   6.5447
     6.8960   6.9822   7.0909   7.0909   7.3206   7.3206   7.3441   7.3441
     7.8849   7.8849   7.9689   7.9715   9.1554   9.1582  10.6144  10.6144
    11.7983  11.7983  13.1594  13.1596  13.5611  13.5611  13.9356  13.9356
    14.7370  15.3218  15.3262  15.6113  15.9484  16.8930

          k = 0.0000 0.0000-0.3341 ( 31108 PWs)   bands (ev):

   -66.1558 -66.1558 -66.1539 -66.1539 -30.5187 -30.5187 -30.5187 -30.5187
   -30.4975 -30.4975 -30.4919 -30.4919 -30.4227 -30.4227 -30.4227 -30.4227
   -20.3109 -20.3108 -20.3107 -20.3107 -20.2887 -20.2887 -20.2887 -20.2887
   -20.2878 -20.2878 -20.2878 -20.2878 -20.2878 -20.2878 -20.2874 -20.2874
   -20.2793 -20.2793 -20.2793 -20.2793 -20.2784 -20.2784 -20.2778 -20.2777
   -20.2726 -20.2726 -20.2726 -20.2726  -9.8341  -9.8341  -9.1037  -9.1037
    -8.4420  -8.4420  -8.3794  -8.3793  -7.6557  -7.6557  -7.6557  -7.6557
     1.0531   1.0531   1.5060   1.5060   2.3703   2.3703   3.2416   3.2416
     3.2416   3.2416   3.2497   3.2497   3.6986   3.6986   5.2752   5.2752
     5.2752   5.2752   5.7565   5.7565   5.7565   5.7565   6.2761   6.2761
     6.9394   6.9394   7.3180   7.3180   7.3180   7.3180   7.5373   7.5373
     7.5373   7.5373   7.9703   7.9703   9.1567   9.1567  11.2249  11.2249
    11.2249  11.2249  13.1595  13.1595  13.7168  13.7168  13.7168  13.7168
    15.3238  15.3238  15.3451  15.3451  16.4880  16.4880

          k = 0.0000 0.1111 0.0000 ( 31068 PWs)   bands (ev):

   -66.1559 -66.1555 -66.1541 -66.1537 -30.5279 -30.5211 -30.5178 -30.5175
   -30.5142 -30.5132 -30.4673 -30.4633 -30.4269 -30.4266 -30.4243 -30.4242
   -20.3109 -20.3108 -20.3108 -20.3107 -20.2906 -20.2902 -20.2888 -20.2888
   -20.2886 -20.2886 -20.2879 -20.2878 -20.2878 -20.2878 -20.2850 -20.2846
   -20.2799 -20.2796 -20.2792 -20.2787 -20.2780 -20.2779 -20.2779 -20.2778
   -20.2733 -20.2731 -20.2724 -20.2723  -9.9494  -9.6826  -9.0754  -9.0611
    -9.0294  -8.8259  -7.8002  -7.7402  -7.7214  -7.7174  -7.7008  -7.6830
     1.1742   1.1746   1.3858   1.6387   1.6578   1.8473   2.4093   2.4919
     2.7058   2.7167   4.0732   4.0882   4.8554   4.9230   5.0214   5.4209
     5.4620   5.4627   5.5064   5.8384   5.8614   6.0308   6.1550   6.7266
     6.7427   6.8704   6.9344   6.9968   7.0193   7.0201   7.2567   7.3032
     7.9529   7.9556   8.1142   8.1353   9.4733   9.5039  10.0710  10.1153
    12.3481  12.3668  13.1414  13.2024  13.3519  13.4753  13.8701  14.1473
    14.1854  14.9670  15.3795  15.3899  15.4518  16.9855

          k = 0.0000 0.1111 0.1114 ( 31085 PWs)   bands (ev):

   -66.1559 -66.1556 -66.1541 -66.1538 -30.5244 -30.5176 -30.5173 -30.5172
   -30.5144 -30.5130 -30.4713 -30.4671 -30.4268 -30.4265 -30.4245 -30.4244
   -20.3109 -20.3108 -20.3108 -20.3107 -20.2902 -20.2898 -20.2888 -20.2888
   -20.2886 -20.2886 -20.2879 -20.2878 -20.2878 -20.2878 -20.2854 -20.2850
   -20.2799 -20.2795 -20.2793 -20.2787 -20.2780 -20.2779 -20.2779 -20.2779
   -20.2732 -20.2731 -20.2725 -20.2724  -9.9226  -9.6937  -9.0745  -9.0621
    -8.9557  -8.7774  -7.8926  -7.7970  -7.7388  -7.7200  -7.7155  -7.7022
     1.1742   1.1746   1.5068   1.6379   1.8301   2.0345   2.4151   2.4863
     2.7749   2.7824   3.9443   3.9630   4.7904   4.8498   4.9143   5.3749
     5.3833   5.4986   5.5085   5.6751   5.9014   5.9428   6.1884   6.7387
     6.7474   6.8561   6.9343   6.9461   7.0278   7.0292   7.2614   7.3007
     7.9543   7.9562   8.0573   8.0786   9.4789   9.5021  10.2396  10.2786
    12.2163  12.2361  13.1415  13.1996  13.3781  13.4877  14.0578  14.0991
    14.2021  15.1188  15.3801  15.3892  15.8571  16.6532

          k = 0.0000 0.1111 0.2227 ( 31085 PWs)   bands (ev):

   -66.1558 -66.1556 -66.1540 -66.1538 -30.5177 -30.5171 -30.5167 -30.5150
   -30.5096 -30.5067 -30.4821 -30.4778 -30.4263 -30.4261 -30.4249 -30.4248
   -20.3109 -20.3108 -20.3108 -20.3107 -20.2893 -20.2889 -20.2887 -20.2886
   -20.2886 -20.2886 -20.2878 -20.2878 -20.2878 -20.2878 -20.2864 -20.2860
   -20.2797 -20.2794 -20.2794 -20.2789 -20.2780 -20.2779 -20.2779 -20.2779
   -20.2731 -20.2730 -20.2726 -20.2725  -9.8571  -9.7276  -9.0719  -9.0647
    -8.7473  -8.6282  -8.1366  -8.0656  -7.7348  -7.7230  -7.7163  -7.7060
     1.1742   1.1745   1.6036   1.6351   2.3927   2.4303   2.4704   2.6825
     2.9750   2.9889   3.6176   3.6405   4.1385   4.7838   4.9442   4.9983
     5.2883   5.3054   5.5208   5.5468   5.7915   5.8016   6.2809   6.6118
     6.9291   6.9425   6.9951   7.0346   7.0902   7.0957   7.2786   7.3026
     7.8579   7.8740   7.9571   7.9599   9.4874   9.4984  10.6885  10.7199
    11.8316  11.8540  13.1528  13.1904  13.4577  13.5480  13.8454  13.8969
    14.8732  15.3817  15.3871  15.6762  16.0801  16.8611

          k = 0.0000 0.1111-0.3341 ( 31082 PWs)   bands (ev):

   -66.1557 -66.1557 -66.1539 -66.1539 -30.5166 -30.5166 -30.5158 -30.5158
   -30.4966 -30.4966 -30.4922 -30.4922 -30.4256 -30.4256 -30.4255 -30.4255
   -20.3108 -20.3108 -20.3108 -20.3107 -20.2887 -20.2887 -20.2887 -20.2887
   -20.2879 -20.2879 -20.2879 -20.2879 -20.2877 -20.2877 -20.2874 -20.2874
   -20.2796 -20.2795 -20.2791 -20.2791 -20.2780 -20.2779 -20.2779 -20.2779
   -20.2729 -20.2728 -20.2728 -20.2727  -9.7845  -9.7845  -9.0683  -9.0683
    -8.4478  -8.4478  -8.3796  -8.3796  -7.7292  -7.7292  -7.7111  -7.7111
     1.1743   1.1743   1.6273   1.6273   2.4504   2.4504   3.2398   3.2398
     3.2504   3.2504   3.2762   3.2762   3.7166   3.7167   5.1267   5.1267
     5.1721   5.1722   5.6018   5.6018   5.6283   5.6283   6.4286   6.4286
     6.9510   6.9510   7.0327   7.0327   7.2576   7.2576   7.5096   7.5096
     7.5362   7.5362   7.9577   7.9577   9.4937   9.4937  11.2740  11.2740
    11.3004  11.3004  13.1736  13.1736  13.6191  13.6191  13.6884  13.6884
    15.3842  15.3842  15.4830  15.4830  16.5467  16.5467

          k = 0.0000 0.2222 0.0000 ( 31120 PWs)   bands (ev):

   -66.1558 -66.1554 -66.1543 -66.1539 -30.5286 -30.5221 -30.5105 -30.5092
   -30.5060 -30.5039 -30.4661 -30.4650 -30.4354 -30.4340 -30.4327 -30.4323
   -20.3109 -20.3108 -20.3108 -20.3107 -20.2907 -20.2903 -20.2887 -20.2886
   -20.2885 -20.2885 -20.2879 -20.2879 -20.2878 -20.2878 -20.2850 -20.2847
   -20.2801 -20.2795 -20.2790 -20.2783 -20.2782 -20.2781 -20.2773 -20.2769
   -20.2738 -20.2734 -20.2731 -20.2727  -9.8202  -9.5338  -9.0578  -8.9718
    -8.9568  -8.8008  -7.9624  -7.9401  -7.8746  -7.8547  -7.7687  -7.6920
     1.4663   1.5207   1.5227   1.6353   1.9762   2.1073   2.6442   2.7422
     2.7952   2.8455   3.9852   4.0180   4.5450   4.6457   4.9772   5.0151
     5.1019   5.1888   5.3242   5.7918   5.8845   6.0427   6.2419   6.2555
     6.5224   6.5983   6.6465   6.7032   6.8307   7.2072   7.2301   7.2840
     7.8897   7.8965   8.0649   8.1200  10.0879  10.1792  10.3943  10.5504
    12.3854  12.4504  12.9797  13.0934  13.1458  13.4032  13.9229  14.0376
    14.1366  15.2801  15.3606  15.7116  15.7272  17.3667

          k = 0.0000 0.2222 0.1114 ( 31095 PWs)   bands (ev):

   -66.1557 -66.1554 -66.1543 -66.1539 -30.5251 -30.5182 -30.5104 -30.5090
   -30.5062 -30.5037 -30.4699 -30.4687 -30.4352 -30.4340 -30.4328 -30.4325
   -20.3109 -20.3108 -20.3108 -20.3107 -20.2903 -20.2899 -20.2887 -20.2886
   -20.2885 -20.2885 -20.2879 -20.2878 -20.2878 -20.2878 -20.2854 -20.2850
   -20.2800 -20.2796 -20.2789 -20.2783 -20.2782 -20.2781 -20.2772 -20.2770
   -20.2738 -20.2734 -20.2731 -20.2727  -9.7904  -9.5450  -8.9854  -8.9708
    -8.9569  -8.7554  -7.9883  -7.9381  -7.8734  -7.8561  -7.8552  -7.7839
     1.5208   1.5226   1.6625   1.8414   1.9754   2.1785   2.6541   2.7366
     2.8687   2.9047   3.8975   3.9516   4.5325   4.6422   4.7498   5.0117
     5.0586   5.1412   5.2262   5.6829   5.7587   5.9143   6.2372   6.2493
     6.5336   6.6205   6.6902   6.8249   6.8801   7.1916   7.2428   7.2883
     7.8899   7.8936   8.0016   8.0587  10.1090  10.1738  10.5326  10.6674
    12.2794  12.3498  12.9671  13.0974  13.1414  13.4112  13.8277  13.9527
    14.4868  15.3994  15.7122  15.7261  15.7707  16.9948

          k = 0.0000 0.2222 0.2227 ( 31114 PWs)   bands (ev):

   -66.1557 -66.1555 -66.1542 -66.1540 -30.5168 -30.5103 -30.5084 -30.5077
   -30.5068 -30.5018 -30.4803 -30.4791 -30.4347 -30.4338 -30.4333 -30.4329
   -20.3109 -20.3108 -20.3108 -20.3107 -20.2894 -20.2890 -20.2887 -20.2886
   -20.2885 -20.2884 -20.2879 -20.2879 -20.2878 -20.2878 -20.2864 -20.2861
   -20.2799 -20.2797 -20.2788 -20.2784 -20.2782 -20.2782 -20.2772 -20.2770
   -20.2736 -20.2733 -20.2733 -20.2729  -9.7180  -9.5797  -8.9682  -8.9610
    -8.7766  -8.6139  -8.1664  -8.0837  -7.9323  -7.8969  -7.8696  -7.8597
     1.5210   1.5221   1.9109   1.9716   2.3968   2.6291   2.6739   2.7431
     3.0850   3.1043   3.6216   3.7016   4.1192   4.6232   4.6847   4.8055
     4.9855   4.9875   5.1588   5.1717   5.5073   5.5699   6.2396   6.2530
     6.6277   6.7548   6.9929   7.0026   7.0507   7.1715   7.2736   7.3135
     7.7982   7.8353   7.8966   7.9167  10.1384  10.1658  10.9102  11.0180
    11.9369  12.0170  12.9850  13.0968  13.1831  13.4499  13.6034  13.7569
    15.2300  15.7142  15.7230  15.8730  16.4347  16.7635

          k = 0.0000 0.2222-0.3341 ( 31108 PWs)   bands (ev):

   -66.1556 -66.1556 -66.1541 -66.1541 -30.5113 -30.5113 -30.5076 -30.5076
   -30.4934 -30.4934 -30.4934 -30.4934 -30.4340 -30.4340 -30.4334 -30.4334
   -20.3108 -20.3108 -20.3108 -20.3108 -20.2887 -20.2887 -20.2886 -20.2886
   -20.2880 -20.2880 -20.2880 -20.2879 -20.2876 -20.2876 -20.2874 -20.2874
   -20.2798 -20.2798 -20.2786 -20.2786 -20.2782 -20.2782 -20.2771 -20.2771
   -20.2735 -20.2735 -20.2731 -20.2731  -9.6394  -9.6394  -8.9646  -8.9646
    -8.4771  -8.4771  -8.3763  -8.3763  -7.9219  -7.9219  -7.8647  -7.8647
     1.5215   1.5215   1.9594   1.9594   2.6941   2.6941   3.2325   3.2325
     3.2578   3.2578   3.3696   3.3696   3.7617   3.7617   4.8020   4.8020
     4.9044   4.9044   5.2344   5.2344   5.2828   5.2828   6.2482   6.2482
     6.7086   6.7086   7.1329   7.1329   7.2008   7.2008   7.4700   7.4700
     7.5366   7.5366   7.8992   7.8992  10.1556  10.1556  11.4271  11.4271
    11.5203  11.5203  13.0461  13.0461  13.3493  13.3493  13.5706  13.5706
    15.7181  15.7181  15.8594  15.8594  16.7142  16.7142

          k = 0.0000 0.3333 0.0000 ( 31158 PWs)   bands (ev):

   -66.1555 -66.1551 -66.1545 -66.1542 -30.5282 -30.5235 -30.4995 -30.4965
   -30.4933 -30.4910 -30.4684 -30.4639 -30.4483 -30.4455 -30.4447 -30.4443
   -20.3109 -20.3108 -20.3108 -20.3107 -20.2907 -20.2904 -20.2886 -20.2884
   -20.2884 -20.2884 -20.2880 -20.2879 -20.2879 -20.2878 -20.2850 -20.2848
   -20.2800 -20.2796 -20.2788 -20.2787 -20.2781 -20.2773 -20.2764 -20.2760
   -20.2747 -20.2740 -20.2739 -20.2733  -9.6266  -9.2972  -9.1165  -8.8078
    -8.7916  -8.7495  -8.2756  -8.2066  -8.0941  -8.0752  -7.7580  -7.7059
     1.5145   1.6060   2.0431   2.0543   2.4356   2.5221   2.9264   2.9576
     3.1419   3.1786   3.7760   3.8029   4.1787   4.2946   4.4832   4.5060
     4.9069   4.9348   5.1939   5.4278   5.4369   5.6950   5.9396   6.0806
     6.4453   6.4765   6.4863   6.6543   7.0185   7.2617   7.3571   7.5078
     7.7669   7.7725   7.9478   8.0589  10.7305  10.8587  10.9089  11.1575
    12.2998  12.3791  12.8173  12.8249  12.9441  13.0679  13.6088  13.7699
    14.4431  15.2084  15.7879  16.4187  16.4600  17.7548

          k = 0.0000 0.3333 0.1114 ( 31139 PWs)   bands (ev):

   -66.1555 -66.1551 -66.1545 -66.1542 -30.5246 -30.5197 -30.4996 -30.4962
   -30.4935 -30.4909 -30.4717 -30.4675 -30.4481 -30.4457 -30.4448 -30.4448
   -20.3109 -20.3108 -20.3108 -20.3107 -20.2904 -20.2901 -20.2886 -20.2884
   -20.2884 -20.2884 -20.2880 -20.2879 -20.2879 -20.2878 -20.2854 -20.2852
   -20.2800 -20.2796 -20.2788 -20.2787 -20.2780 -20.2774 -20.2764 -20.2760
   -20.2747 -20.2740 -20.2739 -20.2733  -9.5903  -9.3086  -9.0458  -8.8068
    -8.7924  -8.7106  -8.2902  -8.2022  -8.0929  -8.0765  -7.8518  -7.8017
     1.7409   1.8304   2.0438   2.0537   2.4363   2.5375   2.9997   3.0017
     3.1577   3.1752   3.7435   3.7953   4.1954   4.3155   4.4948   4.5137
     4.7034   4.7559   4.9959   5.4153   5.4214   5.5489   5.7057   5.8660
     6.5494   6.5613   6.7410   6.7443   7.0309   7.2524   7.3612   7.4953
     7.7653   7.7677   7.8922   8.0021  10.7698  10.8832  10.9830  11.2248
    12.2866  12.3918  12.7423  12.8067  12.8537  13.0687  13.5056  13.6773
    14.8155  15.5956  15.8988  16.4219  16.4566  17.4082

          k = 0.0000 0.3333 0.2227 ( 31107 PWs)   bands (ev):

   -66.1554 -66.1552 -66.1544 -66.1542 -30.5153 -30.5093 -30.5007 -30.4957
   -30.4941 -30.4901 -30.4813 -30.4768 -30.4476 -30.4462 -30.4453 -30.4451
   -20.3108 -20.3108 -20.3108 -20.3108 -20.2895 -20.2892 -20.2885 -20.2885
   -20.2884 -20.2883 -20.2880 -20.2880 -20.2878 -20.2878 -20.2863 -20.2862
   -20.2799 -20.2797 -20.2788 -20.2787 -20.2779 -20.2775 -20.2763 -20.2761
   -20.2746 -20.2742 -20.2738 -20.2734  -9.5028  -9.3448  -8.8519  -8.8042
    -8.7911  -8.5847  -8.3626  -8.1867  -8.0937  -8.0818  -8.0799  -8.0123
     2.0459   2.0516   2.2595   2.4039   2.4338   2.6915   3.0787   3.1700
     3.2323   3.2508   3.5829   3.6909   4.0925   4.2976   4.3617   4.4881
     4.5453   4.6043   4.7396   4.9255   5.1585   5.2944   5.4423   5.4615
     6.8551   6.8956   6.9812   7.0352   7.0896   7.2339   7.3860   7.4513
     7.6959   7.7376   7.7870   7.8499  10.8322  10.8808  11.2692  11.4647
    12.1074  12.2588  12.6509  12.7319  12.8225  13.0989  13.2651  13.4601
    15.6732  16.2162  16.4300  16.4472  16.5995  16.9127

          k = 0.0000 0.3333-0.3341 ( 31132 PWs)   bands (ev):

   -66.1553 -66.1553 -66.1543 -66.1543 -30.5052 -30.5052 -30.4952 -30.4952
   -30.4949 -30.4949 -30.4862 -30.4862 -30.4469 -30.4469 -30.4454 -30.4454
   -20.3108 -20.3108 -20.3108 -20.3108 -20.2887 -20.2887 -20.2885 -20.2885
   -20.2882 -20.2882 -20.2880 -20.2880 -20.2875 -20.2875 -20.2874 -20.2874
   -20.2798 -20.2798 -20.2787 -20.2787 -20.2777 -20.2777 -20.2762 -20.2762
   -20.2744 -20.2744 -20.2736 -20.2736  -9.4107  -9.4107  -8.8012  -8.8012
    -8.5749  -8.5748  -8.3632  -8.3632  -8.1446  -8.1446  -8.0845  -8.0845
     2.0488   2.0488   2.4137   2.4137   3.0767   3.0767   3.2304   3.2304
     3.2982   3.2982   3.4669   3.4669   3.7790   3.7790   4.4493   4.4493
     4.5449   4.5449   4.7725   4.7725   4.8842   4.8842   5.4373   5.4373
     6.9628   6.9628   7.1836   7.1836   7.2907   7.2907   7.4178   7.4178
     7.5400   7.5400   7.7866   7.7866  10.8664  10.8664  11.6903  11.6903
    11.8637  11.8637  12.6970  12.6970  12.9648  12.9648  13.2514  13.2514
    16.3741  16.3741  16.4478  16.4478  16.9631  16.9631

          k = 0.0000 0.4444 0.0000 ( 31158 PWs)   bands (ev):

   -66.1552 -66.1549 -66.1548 -66.1545 -30.5269 -30.5253 -30.4867 -30.4808
   -30.4778 -30.4758 -30.4753 -30.4641 -30.4612 -30.4603 -30.4598 -30.4541
   -20.3108 -20.3108 -20.3108 -20.3108 -20.2907 -20.2906 -20.2884 -20.2884
   -20.2883 -20.2883 -20.2880 -20.2880 -20.2879 -20.2879 -20.2850 -20.2849
   -20.2798 -20.2795 -20.2793 -20.2791 -20.2770 -20.2762 -20.2758 -20.2755
   -20.2751 -20.2750 -20.2746 -20.2740  -9.4093  -9.2280  -8.9909  -8.6609
    -8.6513  -8.5851  -8.5659  -8.4547  -8.3421  -8.3235  -7.7413  -7.7231
     1.5466   1.5758   2.6388   2.7039   2.8628   2.9261   3.0439   3.1442
     3.3585   3.4407   3.7345   3.7564   3.9140   3.9427   3.9598   3.9866
     4.4792   4.6067   4.8939   4.9311   5.2878   5.4982   6.0096   6.0668
     6.3763   6.3793   6.4522   6.5174   7.3674   7.4072   7.5190   7.5910
     7.5964   7.7524   7.7569   7.9389  11.3431  11.3920  11.6033  11.8297
    11.8962  11.9638  12.2852  12.4793  12.9943  13.1363  13.2743  13.4450
    14.7382  14.9981  16.4203  16.9785  17.4227  17.6356

          k = 0.0000 0.4444 0.1114 ( 31149 PWs)   bands (ev):

   -66.1552 -66.1548 -66.1548 -66.1545 -30.5232 -30.5215 -30.4875 -30.4806
   -30.4780 -30.4774 -30.4758 -30.4639 -30.4633 -30.4613 -30.4599 -30.4557
   -20.3108 -20.3108 -20.3108 -20.3108 -20.2903 -20.2902 -20.2884 -20.2883
   -20.2883 -20.2883 -20.2881 -20.2880 -20.2879 -20.2879 -20.2854 -20.2853
   -20.2798 -20.2795 -20.2793 -20.2791 -20.2769 -20.2763 -20.2758 -20.2754
   -20.2751 -20.2750 -20.2746 -20.2741  -9.3612  -9.1657  -9.0027  -8.6702
    -8.6242  -8.5842  -8.5680  -8.4437  -8.3410  -8.3246  -7.8366  -7.8190
     1.7774   1.8057   2.6449   2.7013   2.8771   2.9364   3.1007   3.1603
     3.3538   3.4290   3.7345   3.7690   3.9413   3.9745   4.0103   4.0255
     4.4351   4.6065   4.6626   4.7627   5.0460   5.2671   5.7433   5.8005
     6.5781   6.5818   6.6473   6.6518   7.3623   7.3983   7.5090   7.5805
     7.5941   7.7163   7.7311   7.8944  11.3885  11.4564  11.6130  11.8648
    11.9355  12.0193  12.2858  12.4979  12.8677  13.0148  13.1584  13.3376
    15.1234  15.3894  16.4997  17.0210  17.4016  17.6471

          k = 0.0000 0.4444 0.2227 ( 31132 PWs)   bands (ev):

   -66.1551 -66.1549 -66.1548 -66.1546 -30.5133 -30.5113 -30.4912 -30.4850
   -30.4800 -30.4785 -30.4756 -30.4698 -30.4633 -30.4619 -30.4600 -30.4584
   -20.3108 -20.3108 -20.3108 -20.3108 -20.2895 -20.2893 -20.2884 -20.2884
   -20.2882 -20.2882 -20.2881 -20.2881 -20.2878 -20.2878 -20.2863 -20.2862
   -20.2797 -20.2795 -20.2793 -20.2792 -20.2768 -20.2764 -20.2757 -20.2754
   -20.2753 -20.2751 -20.2745 -20.2742  -9.2433  -9.0421  -9.0018  -8.7098
    -8.5819  -8.5730  -8.5289  -8.3993  -8.3382  -8.3274  -8.0718  -8.0502
     2.3923   2.4089   2.6601   2.6933   2.8967   2.9800   3.2094   3.2555
     3.3329   3.3694   3.7260   3.7842   4.0502   4.0621   4.0767   4.1776
     4.1790   4.1987   4.5869   4.6023   4.6545   4.8607   5.0184   5.1536
     6.9217   6.9625   6.9819   7.0225   7.3247   7.3699   7.4909   7.5300
     7.5468   7.6485   7.6634   7.7673  11.4813  11.5488  11.7306  12.0031
    12.0269  12.1563  12.3071  12.5256  12.5971  12.7058  12.8747  13.0735
    16.0575  16.3575  16.7299  17.1308  17.3108  17.4132

          k = 0.0000 0.4444-0.3341 ( 31098 PWs)   bands (ev):

   -66.1550 -66.1550 -66.1547 -66.1547 -30.5008 -30.5008 -30.4976 -30.4976
   -30.4793 -30.4793 -30.4743 -30.4742 -30.4626 -30.4626 -30.4598 -30.4598
   -20.3108 -20.3108 -20.3108 -20.3108 -20.2886 -20.2886 -20.2885 -20.2884
   -20.2882 -20.2882 -20.2881 -20.2881 -20.2874 -20.2874 -20.2874 -20.2874
   -20.2796 -20.2796 -20.2792 -20.2792 -20.2766 -20.2766 -20.2755 -20.2755
   -20.2752 -20.2752 -20.2744 -20.2743  -9.1215  -9.1214  -8.8176  -8.8176
    -8.5782  -8.5782  -8.3502  -8.3502  -8.3193  -8.3193  -8.2780  -8.2780
     2.6775   2.6775   2.8602   2.8602   3.1281   3.1282   3.2528   3.2528
     3.3531   3.3531   3.5499   3.5499   3.8122   3.8122   4.2533   4.2533
     4.3421   4.3421   4.4566   4.4566   4.5486   4.5486   4.6702   4.6702
     7.1629   7.1629   7.2635   7.2635   7.3130   7.3130   7.3588   7.3588
     7.5681   7.5681   7.6564   7.6564  11.5412  11.5412  11.9972  11.9972
    12.2303  12.2303  12.3173  12.3173  12.5344  12.5345  12.7924  12.7924
    16.9445  16.9445  17.2311  17.2311  17.2721  17.2721

          k = 0.1111 0.1111 0.0000 ( 31114 PWs)   bands (ev):

   -66.1559 -66.1555 -66.1542 -66.1538 -30.5278 -30.5214 -30.5210 -30.5177
   -30.5092 -30.5043 -30.4669 -30.4639 -30.4352 -30.4330 -30.4235 -30.4208
   -20.3109 -20.3108 -20.3108 -20.3107 -20.2906 -20.2902 -20.2890 -20.2888
   -20.2886 -20.2883 -20.2880 -20.2880 -20.2877 -20.2875 -20.2850 -20.2846
   -20.2798 -20.2797 -20.2792 -20.2789 -20.2780 -20.2780 -20.2776 -20.2773
   -20.2737 -20.2730 -20.2729 -20.2722  -9.9117  -9.6423  -9.0392  -9.0387
    -9.0181  -8.8150  -7.9002  -7.8951  -7.7775  -7.6863  -7.6795  -7.6586
     1.1692   1.1813   1.4710   1.6513   1.8602   1.9952   2.4855   2.5706
     2.6619   2.8278   4.0156   4.0707   4.6094   5.0050   5.0121   5.0970
     5.3009   5.5243   5.5332   5.8222   5.8631   6.0399   6.2070   6.5690
     6.7385   6.7535   6.9142   6.9160   7.0217   7.0665   7.1123   7.1193
     7.9236   7.9303   8.0629   8.1610   9.7520   9.7929   9.9551  10.4582
    12.2868  12.4726  12.9566  13.1860  13.3685  13.4728  13.9648  13.9945
    14.2279  15.0572  15.4196  15.4318  15.5051  17.1578

          k = 0.1111 0.1111 0.1114 ( 31089 PWs)   bands (ev):

   -66.1559 -66.1555 -66.1541 -66.1538 -30.5241 -30.5208 -30.5179 -30.5176
   -30.5091 -30.5043 -30.4708 -30.4677 -30.4351 -30.4332 -30.4233 -30.4210
   -20.3109 -20.3108 -20.3108 -20.3107 -20.2903 -20.2899 -20.2890 -20.2888
   -20.2885 -20.2883 -20.2880 -20.2880 -20.2877 -20.2876 -20.2854 -20.2850
   -20.2798 -20.2796 -20.2792 -20.2789 -20.2780 -20.2780 -20.2776 -20.2774
   -20.2736 -20.2730 -20.2729 -20.2723  -9.8842  -9.6533  -9.0370  -9.0192
    -8.9651  -8.7684  -7.9306  -7.8935  -7.8556  -7.7821  -7.6785  -7.6601
     1.1753   1.1812   1.6412   1.8458   1.8593   2.1034   2.4919   2.5642
     2.7298   2.8945   3.9143   3.9623   4.5736   4.7741   5.0347   5.1066
     5.1728   5.4850   5.5502   5.6798   5.8464   5.9343   6.2403   6.6398
     6.7491   6.7886   6.8801   6.9174   6.9959   7.0340   7.1248   7.1336
     7.9258   7.9301   8.0154   8.0916   9.7578   9.7893  10.1429  10.5870
    12.1700  12.3443  12.9701  13.1789  13.3746  13.4855  13.9074  14.1399
    14.2919  15.2009  15.4290  15.5102  15.8253  16.8053

          k = 0.1111 0.1111 0.2227 ( 31112 PWs)   bands (ev):

   -66.1558 -66.1556 -66.1541 -66.1539 -30.5202 -30.5185 -30.5149 -30.5088
   -30.5070 -30.5033 -30.4814 -30.4782 -30.4348 -30.4337 -30.4228 -30.4215
   -20.3109 -20.3108 -20.3108 -20.3107 -20.2893 -20.2889 -20.2889 -20.2888
   -20.2884 -20.2884 -20.2880 -20.2880 -20.2877 -20.2876 -20.2864 -20.2860
   -20.2796 -20.2795 -20.2793 -20.2791 -20.2780 -20.2780 -20.2776 -20.2774
   -20.2735 -20.2731 -20.2728 -20.2724  -9.8175  -9.6870  -9.0322  -9.0224
    -8.7570  -8.6230  -8.1442  -8.0749  -7.8890  -7.8688  -7.6746  -7.6640
     1.1791   1.1809   1.8135   1.8559   2.3949   2.5068   2.5487   2.6815
     2.9262   3.1030   3.6016   3.6726   4.1310   4.6588   4.7754   5.0411
     5.1317   5.1321   5.4313   5.5137   5.6379   5.8768   6.3284   6.6362
     6.8731   6.8815   6.9586   6.9924   7.0211   7.0542   7.1889   7.1962
     7.8346   7.8617   7.9300   7.9404   9.7686   9.7844  10.6250  10.9521
    11.7984  11.9775  13.0195  13.1530  13.4098  13.5539  13.7073  13.9319
    14.9350  15.4153  15.5392  15.7447  16.2478  16.8251

          k = 0.1111 0.1111-0.3341 ( 31088 PWs)   bands (ev):

   -66.1557 -66.1557 -66.1540 -66.1540 -30.5194 -30.5193 -30.5091 -30.5091
   -30.4951 -30.4951 -30.4926 -30.4926 -30.4343 -30.4343 -30.4222 -30.4221
   -20.3108 -20.3108 -20.3108 -20.3107 -20.2889 -20.2888 -20.2885 -20.2885
   -20.2881 -20.2881 -20.2878 -20.2878 -20.2875 -20.2875 -20.2874 -20.2874
   -20.2794 -20.2794 -20.2793 -20.2793 -20.2780 -20.2780 -20.2775 -20.2775
   -20.2733 -20.2733 -20.2726 -20.2726  -9.7439  -9.7439  -9.0270  -9.0270
    -8.4569  -8.4569  -8.3792  -8.3792  -7.8818  -7.8818  -7.6693  -7.6693
     1.1804   1.1804   1.8463   1.8463   2.5281   2.5281   3.2311   3.2312
     3.2459   3.2460   3.3114   3.3114   3.7360   3.7360   4.8649   4.8649
     5.1815   5.1815   5.3727   5.3727   5.7037   5.7037   6.4636   6.4636
     6.8906   6.8906   7.0151   7.0151   7.1040   7.1040   7.5045   7.5045
     7.5211   7.5211   7.9326   7.9326   9.7778   9.7778  11.2341  11.2342
    11.4640  11.4640  13.0967  13.0967  13.5123  13.5123  13.7132  13.7132
    15.3374  15.3374  15.7384  15.7384  16.6145  16.6145

          k = 0.1111 0.2222 0.0000 ( 31131 PWs)   bands (ev):

   -66.1557 -66.1553 -66.1543 -66.1539 -30.5280 -30.5223 -30.5188 -30.5149
   -30.4969 -30.4911 -30.4662 -30.4655 -30.4470 -30.4461 -30.4258 -30.4232
   -20.3109 -20.3108 -20.3108 -20.3107 -20.2906 -20.2903 -20.2891 -20.2889
   -20.2883 -20.2882 -20.2882 -20.2881 -20.2876 -20.2874 -20.2850 -20.2847
   -20.2800 -20.2794 -20.2792 -20.2785 -20.2783 -20.2783 -20.2768 -20.2764
   -20.2744 -20.2736 -20.2731 -20.2723  -9.8026  -9.5238  -9.0700  -8.9435
    -8.8928  -8.7713  -8.1587  -8.1325  -7.7768  -7.7546  -7.7311  -7.6943
     1.2949   1.3305   1.5588   1.6330   2.3461   2.4155   2.6887   2.7237
     2.8151   2.9915   3.8633   3.8886   4.4044   4.5565   4.7853   4.9595
     5.1451   5.3224   5.3954   5.7868   5.8658   6.0555   6.2399   6.3361
     6.4065   6.5386   6.5664   6.7358   6.9356   7.0220   7.0908   7.3771
     7.8245   7.8461   7.9791   8.1632  10.0762  10.3494  10.3998  10.9657
    12.1909  12.6379  12.7232  13.0715  13.2003  13.4069  13.7248  14.1555
    14.1629  15.3222  15.3364  15.6868  15.9239  17.5871

          k = 0.1111 0.2222 0.1114 ( 31129 PWs)   bands (ev):

   -66.1557 -66.1554 -66.1543 -66.1540 -30.5245 -30.5186 -30.5185 -30.5149
   -30.4969 -30.4911 -30.4697 -30.4692 -30.4472 -30.4463 -30.4256 -30.4234
   -20.3109 -20.3108 -20.3108 -20.3107 -20.2903 -20.2900 -20.2890 -20.2889
   -20.2883 -20.2882 -20.2882 -20.2881 -20.2876 -20.2874 -20.2854 -20.2851
   -20.2799 -20.2794 -20.2791 -20.2786 -20.2783 -20.2783 -20.2768 -20.2765
   -20.2743 -20.2737 -20.2731 -20.2724  -9.7730  -9.5344  -8.9975  -8.9344
    -8.8943  -8.7337  -8.1700  -8.1299  -7.8673  -7.7973  -7.7530  -7.7324
     1.3147   1.3303   1.7558   1.8673   2.3464   2.4388   2.7237   2.7605
     2.8142   3.0514   3.8219   3.8512   4.3060   4.5720   4.7285   4.8135
     4.9698   5.3223   5.3420   5.6695   5.7201   5.9186   6.2673   6.3345
     6.4516   6.6154   6.7053   6.7368   6.9402   6.9852   7.1128   7.3707
     7.8266   7.8429   7.9331   8.0888  10.2337  10.3629  10.4074  11.0599
    12.1353  12.5291  12.6865  13.0559  13.1992  13.4205  13.6365  14.0742
    14.4788  15.4550  15.6769  15.7337  15.9402  17.1719

          k = 0.1111 0.2222 0.2227 ( 31117 PWs)   bands (ev):

   -66.1556 -66.1554 -66.1542 -66.1540 -30.5181 -30.5179 -30.5121 -30.5080
   -30.4975 -30.4909 -30.4797 -30.4790 -30.4474 -30.4467 -30.4252 -30.4239
   -20.3109 -20.3108 -20.3108 -20.3107 -20.2894 -20.2891 -20.2889 -20.2889
   -20.2883 -20.2882 -20.2881 -20.2881 -20.2876 -20.2874 -20.2864 -20.2861
   -20.2798 -20.2795 -20.2790 -20.2787 -20.2783 -20.2783 -20.2768 -20.2765
   -20.2742 -20.2738 -20.2729 -20.2725  -9.7017  -9.5675  -8.9189  -8.8994
    -8.7924  -8.6042  -8.2462  -8.1215  -8.0936  -8.0113  -7.7492  -7.7381
     1.3254   1.3298   2.2306   2.3431   2.4030   2.6823   2.7488   2.8079
     2.9679   3.2399   3.5947   3.6664   4.1119   4.3273   4.5865   4.6298
     4.8805   4.9984   5.2002   5.2719   5.4303   5.7514   6.3101   6.3363
     6.5387   6.7371   6.8970   6.9315   7.0173   7.0658   7.2123   7.3499
     7.7603   7.8067   7.8437   7.8947  10.3572  10.3820  10.7277  11.3395
    11.8361  12.2061  12.7126  12.9939  13.2148  13.4368  13.4950  13.8649
    15.1128  15.6354  15.9375  16.0311  16.6581  16.7149

          k = 0.1111 0.2222-0.3341 ( 31086 PWs)   bands (ev):

   -66.1555 -66.1555 -66.1541 -66.1541 -30.5175 -30.5174 -30.5019 -30.5019
   -30.4938 -30.4938 -30.4884 -30.4884 -30.4472 -30.4472 -30.4245 -30.4245
   -20.3108 -20.3108 -20.3108 -20.3108 -20.2890 -20.2890 -20.2884 -20.2884
   -20.2883 -20.2883 -20.2877 -20.2877 -20.2875 -20.2875 -20.2874 -20.2873
   -20.2796 -20.2796 -20.2789 -20.2789 -20.2783 -20.2783 -20.2767 -20.2767
   -20.2740 -20.2740 -20.2727 -20.2727  -9.6250  -9.6250  -8.9071  -8.9071
    -8.5029  -8.5025  -8.3743  -8.3736  -8.1006  -8.1001  -7.7439  -7.7436
     1.3282   1.3289   2.3266   2.3273   2.7641   2.7665   3.2122   3.2312
     3.2429   3.2485   3.3641   3.3937   3.7541   3.7619   4.5084   4.5398
     4.7940   4.8171   5.1389   5.2177   5.4710   5.5469   6.3303   6.3310
     6.6274   6.6521   6.9501   6.9689   7.2197   7.2243   7.4612   7.4832
     7.4954   7.5171   7.8477   7.8492  10.3729  10.3754  11.2984  11.3089
    11.7551  11.7647  12.8453  12.8681  13.2502  13.3192  13.6214  13.6667
    15.4922  15.5055  16.2150  16.2357  16.8176  16.8215

          k = 0.1111 0.3333 0.0000 ( 31118 PWs)   bands (ev):

   -66.1555 -66.1551 -66.1546 -66.1542 -30.5278 -30.5237 -30.5114 -30.5064
   -30.4828 -30.4753 -30.4728 -30.4626 -30.4619 -30.4579 -30.4333 -30.4311
   -20.3109 -20.3108 -20.3108 -20.3107 -20.2907 -20.2905 -20.2890 -20.2889
   -20.2884 -20.2884 -20.2880 -20.2879 -20.2875 -20.2873 -20.2850 -20.2848
   -20.2800 -20.2795 -20.2789 -20.2787 -20.2784 -20.2777 -20.2759 -20.2754
   -20.2753 -20.2746 -20.2735 -20.2728  -9.6358  -9.3336  -9.1359  -8.8403
    -8.6974  -8.6501  -8.4640  -8.3870  -7.9334  -7.9242  -7.7559  -7.7074
     1.4814   1.6068   1.6804   1.7524   2.7315   2.8759   2.9079   3.0763
     3.2417   3.2430   3.4421   3.7172   4.0250   4.2628   4.4639   4.8116
     4.9384   4.9658   5.1944   5.6319   5.6379   5.6940   5.9022   6.0547
     6.3767   6.4408   6.5929   6.7726   6.8546   7.0748   7.1786   7.6444
     7.6676   7.6899   7.8374   8.1186  10.4235  11.0134  11.0728  11.5404
    11.8958  12.6613  12.6955  12.7817  12.9653  13.2389  13.3846  13.9690
    14.3881  15.1593  15.8155  16.2431  16.6304  17.8240

          k = 0.1111 0.3333 0.1114 ( 31146 PWs)   bands (ev):

   -66.1555 -66.1551 -66.1545 -66.1542 -30.5243 -30.5199 -30.5113 -30.5064
   -30.4834 -30.4754 -30.4748 -30.4658 -30.4620 -30.4595 -30.4332 -30.4313
   -20.3109 -20.3108 -20.3108 -20.3107 -20.2903 -20.2901 -20.2890 -20.2889
   -20.2884 -20.2884 -20.2880 -20.2879 -20.2875 -20.2873 -20.2854 -20.2852
   -20.2799 -20.2795 -20.2789 -20.2787 -20.2783 -20.2778 -20.2759 -20.2754
   -20.2752 -20.2747 -20.2735 -20.2728  -9.6014  -9.3437  -9.0676  -8.8144
    -8.6994  -8.6344  -8.4733  -8.3805  -7.9344  -7.9319  -7.8474  -7.8016
     1.6116   1.6800   1.8033   1.8908   2.7803   2.8835   2.9406   3.1010
     3.2423   3.2481   3.4309   3.7363   4.0597   4.1666   4.5001   4.6581
     4.8320   4.8659   5.0219   5.4917   5.6050   5.6502   5.7258   5.8882
     6.5467   6.5879   6.6348   6.8559   6.8837   7.0619   7.1922   7.6166
     7.6682   7.6852   7.7983   8.0482  10.5604  11.0207  11.0744  11.6091
    11.9403  12.5405  12.6715  12.7686  12.9301  13.2092  13.2846  13.8758
    14.7325  15.5436  15.9298  16.2267  16.6483  17.5429

          k = 0.1111 0.3333 0.2227 ( 31104 PWs)   bands (ev):

   -66.1554 -66.1552 -66.1545 -66.1543 -30.5158 -30.5110 -30.5096 -30.5051
   -30.4870 -30.4826 -30.4756 -30.4721 -30.4623 -30.4618 -30.4329 -30.4317
   -20.3108 -20.3108 -20.3108 -20.3108 -20.2895 -20.2892 -20.2889 -20.2889
   -20.2885 -20.2883 -20.2879 -20.2879 -20.2875 -20.2874 -20.2863 -20.2862
   -20.2798 -20.2796 -20.2788 -20.2787 -20.2782 -20.2779 -20.2758 -20.2755
   -20.2751 -20.2748 -20.2733 -20.2730  -9.5197  -9.3762  -8.8818  -8.7589
    -8.7055  -8.5584  -8.5114  -8.3551  -8.0929  -8.0614  -7.9274  -7.9081
     1.6669   1.6787   2.3952   2.4708   2.8507   2.9158   3.0976   3.1604
     3.2427   3.2799   3.3910   3.6323   4.0955   4.1016   4.1875   4.3882
     4.6379   4.8288   4.8991   4.9734   5.0578   5.4469   5.6520   5.6955
     6.7812   6.8391   6.9372   6.9729   7.0424   7.0870   7.2654   7.5309
     7.6300   7.6644   7.7091   7.8503  10.9009  11.0344  11.1117  11.8180
    11.9222  12.3457  12.5010  12.6940  12.8600  13.0717  13.2500  13.6541
    15.4589  16.1539  16.2860  16.5250  16.7366  17.1406

          k = 0.1111 0.3333-0.3341 ( 31110 PWs)   bands (ev):

   -66.1553 -66.1553 -66.1544 -66.1544 -30.5112 -30.5112 -30.4970 -30.4970
   -30.4956 -30.4956 -30.4752 -30.4752 -30.4625 -30.4625 -30.4323 -30.4323
   -20.3108 -20.3108 -20.3108 -20.3108 -20.2890 -20.2890 -20.2886 -20.2886
   -20.2882 -20.2882 -20.2877 -20.2877 -20.2874 -20.2874 -20.2873 -20.2873
   -20.2797 -20.2797 -20.2788 -20.2788 -20.2781 -20.2781 -20.2757 -20.2757
   -20.2750 -20.2750 -20.2731 -20.2731  -9.4356  -9.4355  -8.7285  -8.7268
    -8.6463  -8.6436  -8.3584  -8.3556  -8.2748  -8.2721  -7.9210  -7.9203
     1.6750   1.6765   2.8407   2.8450   3.0914   3.1323   3.1641   3.2263
     3.3004   3.3017   3.3932   3.4419   3.6507   3.6861   4.3367   4.3750
     4.4523   4.4772   4.7412   4.9160   5.0363   5.1853   5.6548   5.6630
     6.8584   6.8805   7.0102   7.0366   7.2999   7.3262   7.3959   7.4330
     7.4711   7.5127   7.7047   7.7166  11.0241  11.0332  11.4795  11.5188
    12.1392  12.1604  12.4738  12.5234  12.8508  12.9693  13.3809  13.4488
    15.9385  15.9679  16.7589  16.7984  17.1854  17.1913

          k = 0.1111 0.4444 0.0000 ( 31139 PWs)   bands (ev):

   -66.1552 -66.1549 -66.1548 -66.1545 -30.5268 -30.5253 -30.4998 -30.4938
   -30.4857 -30.4784 -30.4708 -30.4642 -30.4588 -30.4561 -30.4446 -30.4435
   -20.3108 -20.3108 -20.3108 -20.3108 -20.2907 -20.2906 -20.2889 -20.2889
   -20.2886 -20.2885 -20.2879 -20.2878 -20.2874 -20.2873 -20.2850 -20.2849
   -20.2798 -20.2794 -20.2793 -20.2791 -20.2774 -20.2768 -20.2763 -20.2757
   -20.2750 -20.2744 -20.2741 -20.2735  -9.4388  -9.2582  -9.0829  -8.7906
    -8.7438  -8.6091  -8.4407  -8.4265  -8.1741  -8.1738  -7.7405  -7.7234
     1.5434   1.5771   2.1934   2.2181   2.7487   2.7953   2.9042   3.0485
     3.4468   3.6743   3.8529   3.8887   3.9508   4.1177   4.2368   4.2450
     4.5356   4.8716   4.9322   5.0662   5.3313   5.5122   5.9521   6.0116
     6.4223   6.4274   6.4925   6.5842   7.2002   7.2463   7.3573   7.4610
     7.4782   7.6185   7.8652   8.0216  10.8995  11.4139  11.6656  11.7329
    12.1115  12.2635  12.3296  12.6383  12.8069  13.0547  13.3746  13.6823
    14.6658  14.9353  16.4412  16.8998  17.3494  17.4818

          k = 0.1111 0.4444 0.1114 ( 31144 PWs)   bands (ev):

   -66.1552 -66.1548 -66.1548 -66.1545 -30.5232 -30.5216 -30.4998 -30.4938
   -30.4861 -30.4785 -30.4731 -30.4672 -30.4590 -30.4575 -30.4448 -30.4436
   -20.3108 -20.3108 -20.3108 -20.3108 -20.2903 -20.2902 -20.2889 -20.2889
   -20.2886 -20.2885 -20.2878 -20.2878 -20.2875 -20.2874 -20.2853 -20.2853
   -20.2797 -20.2794 -20.2793 -20.2791 -20.2773 -20.2768 -20.2763 -20.2757
   -20.2749 -20.2744 -20.2741 -20.2735  -9.3952  -9.2008  -9.0925  -8.7993
    -8.7160  -8.5924  -8.4436  -8.4222  -8.1788  -8.1717  -7.8356  -7.8192
     1.7673   1.8030   2.1923   2.2327   2.7580   2.7920   2.9704   3.1012
     3.4387   3.6699   3.8309   3.8867   3.9909   4.1522   4.2423   4.2666
     4.4548   4.6880   4.9010   4.9310   5.1187   5.2789   5.7672   5.8283
     6.5253   6.5329   6.6698   6.7614   7.2046   7.2371   7.3543   7.4587
     7.4735   7.5963   7.8220   7.9622  11.0053  11.4914  11.6722  11.7342
    12.1580  12.2703  12.3295  12.6546  12.6959  12.9344  13.2615  13.5793
    15.0332  15.3170  16.5221  16.9075  17.3546  17.4816

          k = 0.1111 0.4444 0.2227 ( 31131 PWs)   bands (ev):

   -66.1551 -66.1549 -66.1548 -66.1546 -30.5136 -30.5115 -30.5001 -30.4935
   -30.4890 -30.4808 -30.4786 -30.4739 -30.4593 -30.4591 -30.4449 -30.4441
   -20.3108 -20.3108 -20.3108 -20.3108 -20.2895 -20.2894 -20.2889 -20.2888
   -20.2885 -20.2884 -20.2877 -20.2877 -20.2875 -20.2874 -20.2863 -20.2862
   -20.2797 -20.2795 -20.2793 -20.2792 -20.2772 -20.2769 -20.2762 -20.2759
   -20.2748 -20.2745 -20.2740 -20.2736  -9.2917  -9.1250  -9.0569  -8.8325
    -8.6236  -8.5289  -8.4534  -8.4028  -8.2077  -8.1652  -8.0681  -8.0384
     2.1387   2.1886   2.3886   2.5044   2.7810   2.7989   3.1591   3.2476
     3.4049   3.5815   3.7646   3.8534   4.1150   4.1505   4.2029   4.2495
     4.3337   4.4047   4.5618   4.7932   4.9099   4.9271   5.1075   5.3175
     6.8641   6.8964   6.9934   7.0341   7.2062   7.2170   7.3633   7.4364
     7.4571   7.5431   7.6918   7.7881  11.2967  11.6573  11.7157  11.7571
    12.2351  12.2831  12.3388  12.3662  12.6486  12.7920  12.9915  13.3285
    15.8781  16.2408  16.7665  16.8662  17.3690  17.4794

          k = 0.1111 0.4444-0.3341 ( 31096 PWs)   bands (ev):

   -66.1550 -66.1550 -66.1547 -66.1547 -30.5035 -30.5035 -30.4985 -30.4985
   -30.4902 -30.4902 -30.4779 -30.4779 -30.4595 -30.4595 -30.4446 -30.4445
   -20.3108 -20.3108 -20.3108 -20.3108 -20.2890 -20.2890 -20.2888 -20.2888
   -20.2880 -20.2880 -20.2878 -20.2878 -20.2873 -20.2873 -20.2873 -20.2873
   -20.2796 -20.2796 -20.2792 -20.2792 -20.2771 -20.2771 -20.2760 -20.2760
   -20.2747 -20.2747 -20.2738 -20.2738  -9.1899  -9.1896  -8.9128  -8.9122
    -8.5054  -8.5030  -8.3689  -8.3684  -8.3062  -8.3058  -8.1476  -8.1461
     2.1790   2.1809   2.7461   2.7465   3.1679   3.1713   3.2193   3.2356
     3.4423   3.4558   3.6234   3.6299   3.8585   3.8636   4.1993   4.2692
     4.3621   4.4610   4.5545   4.5830   4.6744   4.7779   4.9822   4.9920
     7.0678   7.0947   7.1471   7.1525   7.2740   7.2863   7.3165   7.3804
     7.4749   7.5317   7.5579   7.5943  11.5800  11.6625  11.7730  11.8733
    12.0903  12.1369  12.2967  12.4604  12.5982  12.6531  13.0161  13.0824
    16.5589  16.6062  17.0832  17.2090  17.2201  17.3741

          k = 0.2222 0.2222 0.0000 ( 31144 PWs)   bands (ev):

   -66.1556 -66.1552 -66.1545 -66.1541 -30.5269 -30.5231 -30.5226 -30.5193
   -30.4825 -30.4748 -30.4727 -30.4632 -30.4624 -30.4574 -30.4221 -30.4195
   -20.3109 -20.3108 -20.3108 -20.3107 -20.2906 -20.2904 -20.2894 -20.2892
   -20.2886 -20.2885 -20.2879 -20.2877 -20.2873 -20.2871 -20.2850 -20.2847
   -20.2798 -20.2792 -20.2790 -20.2789 -20.2786 -20.2785 -20.2760 -20.2755
   -20.2752 -20.2745 -20.2729 -20.2721  -9.7458  -9.4795  -9.1123  -8.8949
    -8.7210  -8.6566  -8.4419  -8.3751  -7.7661  -7.7154  -7.7007  -7.6929
     1.1946   1.2177   1.5780   1.6244   2.6109   2.8933   2.9405   3.0193
     3.0214   3.1268   3.4413   3.7039   4.0387   4.3320   4.8247   4.9086
     5.2189   5.3278   5.3676   5.7762   5.8131   6.0224   6.2368   6.2479
     6.3681   6.4162   6.4756   6.5881   6.8115   6.8549   7.0828   7.6275
     7.6302   7.6833   7.8306   8.1896   9.9578  10.8373  10.8964  11.5172
    11.8503  12.5503  12.8919  12.8998  13.0081  13.4309  13.4884  14.1953
    14.2256  15.2058  15.5612  15.7318  16.3978  17.7521

          k = 0.2222 0.2222 0.1114 ( 31119 PWs)   bands (ev):

   -66.1556 -66.1552 -66.1544 -66.1541 -30.5231 -30.5224 -30.5195 -30.5193
   -30.4832 -30.4749 -30.4745 -30.4662 -30.4626 -30.4594 -30.4219 -30.4197
   -20.3109 -20.3108 -20.3108 -20.3107 -20.2902 -20.2901 -20.2893 -20.2892
   -20.2886 -20.2885 -20.2879 -20.2877 -20.2873 -20.2871 -20.2853 -20.2851
   -20.2798 -20.2792 -20.2791 -20.2790 -20.2786 -20.2785 -20.2759 -20.2755
   -20.2751 -20.2746 -20.2729 -20.2722  -9.7163  -9.4891  -9.0431  -8.8650
    -8.7237  -8.6398  -8.4505  -8.3691  -7.8610  -7.8018  -7.7134  -7.6944
     1.2057   1.2176   1.7818   1.8786   2.6760   2.9076   2.9596   3.0114
     3.0196   3.1563   3.4281   3.7201   4.0732   4.1746   4.6756   4.7741
     5.0855   5.3177   5.3228   5.5698   5.7318   5.9130   6.2384   6.3605
     6.3747   6.4363   6.5736   6.6548   6.8356   6.9156   6.9836   7.5997
     7.6426   7.6781   7.7983   8.1090  10.1508  10.8422  10.8946  11.5873
    11.8843  12.4382  12.7962  12.8727  13.0197  13.3425  13.4893  14.1364
    14.4909  15.5676  15.7096  15.7248  16.4345  17.4851

          k = 0.2222 0.2222 0.2227 ( 31142 PWs)   bands (ev):

   -66.1555 -66.1553 -66.1544 -66.1542 -30.5218 -30.5201 -30.5127 -30.5089
   -30.4876 -30.4820 -30.4751 -30.4722 -30.4628 -30.4621 -30.4215 -30.4201
   -20.3108 -20.3108 -20.3108 -20.3107 -20.2893 -20.2893 -20.2893 -20.2892
   -20.2887 -20.2884 -20.2878 -20.2878 -20.2873 -20.2872 -20.2863 -20.2861
   -20.2796 -20.2792 -20.2791 -20.2791 -20.2786 -20.2786 -20.2759 -20.2756
   -20.2750 -20.2747 -20.2727 -20.2723  -9.6461  -9.5192  -8.8540  -8.7979
    -8.7329  -8.5603  -8.4886  -8.3454  -8.0954  -8.0463  -7.7095  -7.6985
     1.2135   1.2172   2.3913   2.5054   2.8519   2.9386   2.9925   3.0203
     3.0337   3.2435   3.3820   3.5766   4.0974   4.1025   4.1970   4.3816
     4.9091   4.9624   5.1607   5.2864   5.4265   5.8084   6.3218   6.3684
     6.5036   6.5157   6.5857   6.7588   7.0408   7.0488   7.1426   7.5173
     7.6363   7.6564   7.7015   7.8815  10.6354  10.8542  10.8946  11.7699
    11.8014  12.3199  12.5128  12.7501  13.0424  13.1746  13.5482  13.9256
    15.0605  15.6287  16.1499  16.5424  16.6141  17.0515

          k = 0.2222 0.2222-0.3341 ( 31106 PWs)   bands (ev):

   -66.1554 -66.1554 -66.1543 -66.1543 -30.5210 -30.5210 -30.4990 -30.4990
   -30.4950 -30.4950 -30.4748 -30.4748 -30.4630 -30.4630 -30.4208 -30.4208
   -20.3108 -20.3108 -20.3108 -20.3108 -20.2893 -20.2892 -20.2888 -20.2888
   -20.2882 -20.2882 -20.2875 -20.2875 -20.2875 -20.2875 -20.2872 -20.2872
   -20.2794 -20.2794 -20.2791 -20.2791 -20.2786 -20.2786 -20.2757 -20.2757
   -20.2749 -20.2749 -20.2725 -20.2725  -9.5727  -9.5727  -8.7530  -8.7530
    -8.6194  -8.6194  -8.3626  -8.3625  -8.2663  -8.2663  -7.7040  -7.7040
     1.2162   1.2162   2.9079   2.9079   2.9651   2.9651   3.1616   3.1616
     3.2221   3.2221   3.3912   3.3912   3.6277   3.6277   4.3625   4.3626
     4.4718   4.4718   5.2466   5.2466   5.5568   5.5568   6.3599   6.3599
     6.5645   6.5645   6.6280   6.6280   7.3040   7.3040   7.4292   7.4292
     7.4777   7.4777   7.7030   7.7030  10.8645  10.8645  11.2629  11.2629
    12.1348  12.1348  12.5089  12.5089  13.0802  13.0802  13.7033  13.7033
    15.4414  15.4414  16.6518  16.6518  17.1635  17.1635

          k = 0.2222 0.3333 0.0000 ( 31140 PWs)   bands (ev):

   -66.1554 -66.1550 -66.1547 -66.1543 -30.5268 -30.5242 -30.5207 -30.5165
   -30.4865 -30.4794 -30.4716 -30.4619 -30.4578 -30.4560 -30.4242 -30.4217
   -20.3109 -20.3108 -20.3108 -20.3107 -20.2906 -20.2905 -20.2895 -20.2894
   -20.2890 -20.2888 -20.2877 -20.2874 -20.2872 -20.2869 -20.2849 -20.2848
   -20.2799 -20.2792 -20.2790 -20.2788 -20.2787 -20.2783 -20.2761 -20.2755
   -20.2750 -20.2744 -20.2730 -20.2722  -9.6444  -9.3804  -9.2003  -8.8545
    -8.7324  -8.5867  -8.4796  -8.4533  -7.7942  -7.7813  -7.7480  -7.7115
     1.2969   1.3335   1.6064   1.6125   2.6350   2.7360   2.7834   3.0614
     3.3408   3.4288   3.6961   3.9373   3.9735   4.3590   4.7281   4.8541
     5.0414   5.0646   5.2829   5.6835   5.8067   5.8679   5.9814   5.9927
     6.3128   6.4639   6.6023   6.6119   6.7360   6.8564   7.0025   7.3902
     7.4392   7.6226   7.8475   8.1748  10.0892  11.3939  11.4045  11.4573
    12.0754  12.5329  12.6843  12.7427  13.1093  13.1117  13.4923  14.1550
    14.2932  15.0131  15.9744  15.9961  17.0008  17.8110

          k = 0.2222 0.3333 0.1114 ( 31131 PWs)   bands (ev):

   -66.1554 -66.1550 -66.1546 -66.1543 -30.5234 -30.5205 -30.5204 -30.5162
   -30.4868 -30.4795 -30.4743 -30.4653 -30.4579 -30.4571 -30.4241 -30.4219
   -20.3108 -20.3108 -20.3108 -20.3107 -20.2902 -20.2902 -20.2895 -20.2894
   -20.2890 -20.2888 -20.2876 -20.2874 -20.2872 -20.2869 -20.2853 -20.2852
   -20.2798 -20.2793 -20.2790 -20.2788 -20.2787 -20.2783 -20.2760 -20.2756
   -20.2750 -20.2745 -20.2730 -20.2723  -9.6133  -9.3892  -9.1406  -8.8149
    -8.7402  -8.5714  -8.4834  -8.4479  -7.8538  -7.8160  -7.7924  -7.7690
     1.3159   1.3333   1.7959   1.8736   2.7017   2.7455   2.7808   3.1212
     3.3422   3.4273   3.6704   3.9097   3.9970   4.2519   4.6436   4.7451
     4.9971   5.0204   5.1113   5.4316   5.7669   5.8642   5.9108   6.0017
     6.3331   6.5618   6.6090   6.7145   6.7641   6.8978   6.9661   7.3969
     7.4320   7.5998   7.8031   8.0948  10.2695  11.4058  11.4480  11.4838
    12.1300  12.3901  12.6516  12.7489  13.0106  13.0856  13.4446  14.0635
    14.5948  15.3858  15.9663  16.0998  17.0445  17.6852

          k = 0.2222 0.3333 0.2227 ( 31134 PWs)   bands (ev):

   -66.1553 -66.1551 -66.1546 -66.1544 -30.5199 -30.5190 -30.5106 -30.5104
   -30.4890 -30.4833 -30.4795 -30.4733 -30.4583 -30.4583 -30.4236 -30.4223
   -20.3108 -20.3108 -20.3108 -20.3108 -20.2895 -20.2895 -20.2894 -20.2892
   -20.2890 -20.2886 -20.2875 -20.2875 -20.2872 -20.2870 -20.2863 -20.2862
   -20.2797 -20.2793 -20.2790 -20.2789 -20.2786 -20.2784 -20.2760 -20.2757
   -20.2749 -20.2746 -20.2728 -20.2724  -9.5408  -9.4170  -8.9907  -8.7704
    -8.6942  -8.5137  -8.4934  -8.4240  -8.0880  -8.0614  -7.7885  -7.7768
     1.3277   1.3328   2.3804   2.5257   2.7632   2.7876   2.9121   3.2806
     3.3402   3.4332   3.5575   3.6385   4.1407   4.1646   4.2530   4.3992
     4.7516   4.8826   5.0480   5.1306   5.1641   5.6559   5.9986   6.0100
     6.4931   6.5940   6.6902   6.8075   6.9897   7.0710   7.1186   7.4128
     7.4195   7.5248   7.6650   7.8639  10.7342  11.4124  11.4457  11.6626
    12.0374  12.2953  12.4771  12.7518  12.8553  12.9049  13.4589  13.8462
    15.2016  15.8634  16.2858  16.5028  17.2177  17.3871

          k = 0.2222 0.3333-0.3341 ( 31128 PWs)   bands (ev):

   -66.1552 -66.1552 -66.1545 -66.1545 -30.5192 -30.5192 -30.4976 -30.4976
   -30.4970 -30.4970 -30.4785 -30.4785 -30.4586 -30.4586 -30.4230 -30.4230
   -20.3108 -20.3108 -20.3108 -20.3108 -20.2894 -20.2894 -20.2891 -20.2891
   -20.2880 -20.2880 -20.2875 -20.2875 -20.2873 -20.2873 -20.2871 -20.2870
   -20.2795 -20.2795 -20.2789 -20.2789 -20.2785 -20.2785 -20.2758 -20.2758
   -20.2747 -20.2747 -20.2726 -20.2726  -9.4679  -9.4678  -8.8446  -8.8441
    -8.5542  -8.5527  -8.3451  -8.3413  -8.3202  -8.3171  -7.7830  -7.7827
     1.3311   1.3318   2.7286   2.7296   3.1645   3.1712   3.1999   3.2338
     3.3649   3.4134   3.4716   3.4739   3.6559   3.6687   4.3320   4.3361
     4.5396   4.5442   4.9598   5.0649   5.3011   5.4059   6.0045   6.0147
     6.5663   6.5816   6.7484   6.7622   7.2574   7.2961   7.3289   7.3569
     7.4302   7.4570   7.5491   7.5755  11.2833  11.3222  11.4264  11.4827
    12.1319  12.1443  12.5606  12.5607  12.7897  12.8199  13.6019  13.6283
    15.6323  15.6461  17.0023  17.0183  17.2511  17.2817

          k = 0.2222 0.4444 0.0000 ( 31138 PWs)   bands (ev):

   -66.1552 -66.1549 -66.1548 -66.1545 -30.5264 -30.5254 -30.5132 -30.5079
   -30.5012 -30.4952 -30.4670 -30.4644 -30.4435 -30.4421 -30.4318 -30.4296
   -20.3108 -20.3108 -20.3108 -20.3108 -20.2906 -20.2906 -20.2895 -20.2895
   -20.2892 -20.2891 -20.2875 -20.2874 -20.2870 -20.2869 -20.2849 -20.2849
   -20.2798 -20.2795 -20.2792 -20.2791 -20.2779 -20.2775 -20.2770 -20.2765
   -20.2741 -20.2735 -20.2734 -20.2727  -9.5020  -9.3404  -9.2188  -8.9986
    -8.8057  -8.7263  -8.2132  -8.2088  -7.9726  -7.9634  -7.7385  -7.7246
     1.5003   1.5754   1.6689   1.7638   2.1769   2.2070   2.7319   2.8909
     3.7637   3.8934   4.1209   4.1644   4.2425   4.4393   4.4582   4.6169
     4.8246   5.0535   5.3712   5.4629   5.4974   5.5424   5.8409   5.8908
     6.4853   6.5089   6.6058   6.6870   6.8951   6.9166   7.0176   7.1581
     7.1591   7.3420   8.0103   8.1168  10.4357  10.9009  11.9413  11.9725
    12.3867  12.3963  12.5905  12.6243  12.8204  12.9790  13.6845  13.9572
    14.4945  14.7601  16.5102  16.5405  17.2527  17.2714

          k = 0.2222 0.4444 0.1114 ( 31134 PWs)   bands (ev):

   -66.1551 -66.1549 -66.1548 -66.1545 -30.5229 -30.5218 -30.5130 -30.5077
   -30.5012 -30.4951 -30.4706 -30.4681 -30.4436 -30.4423 -30.4317 -30.4297
   -20.3108 -20.3108 -20.3108 -20.3108 -20.2903 -20.2903 -20.2895 -20.2894
   -20.2892 -20.2891 -20.2874 -20.2873 -20.2870 -20.2869 -20.2853 -20.2852
   -20.2797 -20.2794 -20.2792 -20.2791 -20.2779 -20.2775 -20.2770 -20.2766
   -20.2741 -20.2735 -20.2734 -20.2728  -9.4661  -9.2945  -9.2269  -9.0065
    -8.7675  -8.6972  -8.2185  -8.2065  -7.9719  -7.9709  -7.8325  -7.8189
     1.6058   1.6685   1.7844   1.9046   2.1756   2.2240   2.8036   2.9627
     3.7524   3.8819   4.0022   4.1219   4.2527   4.4145   4.4665   4.6038
     4.8313   4.9090   5.1369   5.2982   5.4383   5.4677   5.8205   5.8685
     6.4098   6.5200   6.7349   6.8379   6.8761   6.9495   7.0282   7.1516
     7.1567   7.3335   7.9489   8.0432  10.5819  11.0128  11.9411  11.9686
    12.3695  12.3970  12.4825  12.6372  12.6997  13.0204  13.5797  13.8596
    14.8226  15.1149  16.4766  16.6350  17.2063  17.3323

          k = 0.2222 0.4444 0.2227 ( 31138 PWs)   bands (ev):

   -66.1551 -66.1549 -66.1548 -66.1546 -30.5154 -30.5127 -30.5124 -30.5053
   -30.5013 -30.4945 -30.4808 -30.4780 -30.4435 -30.4427 -30.4313 -30.4302
   -20.3108 -20.3108 -20.3108 -20.3108 -20.2897 -20.2896 -20.2894 -20.2893
   -20.2889 -20.2887 -20.2873 -20.2873 -20.2871 -20.2870 -20.2862 -20.2862
   -20.2796 -20.2794 -20.2793 -20.2792 -20.2778 -20.2776 -20.2769 -20.2767
   -20.2740 -20.2736 -20.2733 -20.2729  -9.3837  -9.2536  -9.1879  -9.0333
    -8.6411  -8.5914  -8.2500  -8.1988  -8.1031  -8.0527  -7.9662  -7.9429
     1.6547   1.6672   2.1201   2.1713   2.5039   2.5113   3.0232   3.1812
     3.6151   3.6594   3.8726   3.9504   4.3684   4.3788   4.4234   4.4663
     4.5430   4.7661   4.8668   4.8988   5.3158   5.3404   5.4834   5.6363
     6.6362   6.7417   6.8457   6.9455   6.9851   7.0501   7.1045   7.1789
     7.2015   7.3105   7.7635   7.8266  10.9768  11.3234  11.9281  11.9411
    12.1237  12.2138  12.3966  12.4979  12.7775  13.1290  13.3348  13.6248
    15.5251  15.9280  16.3569  16.9085  17.0852  17.5124

          k = 0.2222 0.4444-0.3341 ( 31134 PWs)   bands (ev):

   -66.1550 -66.1550 -66.1547 -66.1547 -30.5126 -30.5126 -30.5036 -30.5035
   -30.4944 -30.4944 -30.4896 -30.4896 -30.4432 -30.4432 -30.4308 -30.4308
   -20.3108 -20.3108 -20.3108 -20.3108 -20.2895 -20.2895 -20.2894 -20.2894
   -20.2878 -20.2878 -20.2877 -20.2876 -20.2871 -20.2871 -20.2870 -20.2870
   -20.2795 -20.2795 -20.2793 -20.2793 -20.2777 -20.2777 -20.2768 -20.2768
   -20.2738 -20.2738 -20.2731 -20.2731  -9.3049  -9.3047  -9.0903  -9.0899
    -8.4253  -8.4235  -8.3788  -8.3785  -8.1770  -8.1762  -7.9592  -7.9585
     1.6635   1.6646   2.1615   2.1623   3.1993   3.2027   3.2111   3.2257
     3.5231   3.5619   3.6328   3.6390   3.8788   3.9472   4.3840   4.4490
     4.6882   4.6942   4.9327   4.9692   5.0496   5.0831   5.5043   5.5191
     6.7560   6.7635   6.9398   6.9539   7.0407   7.1087   7.1773   7.2085
     7.4534   7.4836   7.4888   7.5185  11.4881  11.5110  11.7644  11.7890
    11.9506  12.0151  12.3950  12.4632  12.9873  13.0221  13.3523  13.3879
    16.0679  16.0920  16.6432  16.6760  17.4124  17.4612

          k = 0.3333 0.3333 0.0000 ( 31140 PWs)   bands (ev):

   -66.1553 -66.1549 -66.1548 -66.1544 -30.5252 -30.5248 -30.5244 -30.5211
   -30.5018 -30.4957 -30.4677 -30.4634 -30.4430 -30.4415 -30.4206 -30.4179
   -20.3108 -20.3108 -20.3108 -20.3107 -20.2905 -20.2905 -20.2898 -20.2897
   -20.2894 -20.2892 -20.2874 -20.2872 -20.2869 -20.2867 -20.2849 -20.2848
   -20.2799 -20.2794 -20.2790 -20.2788 -20.2786 -20.2786 -20.2768 -20.2764
   -20.2741 -20.2735 -20.2728 -20.2720  -9.6221  -9.3783  -9.3118  -8.9752
    -8.8497  -8.7183  -8.2278  -8.2224  -7.7555  -7.7476  -7.7325  -7.7181
     1.1875   1.2039   1.5941   1.6107   2.1681   2.1985   2.5793   2.8853
     3.6801   3.7640   4.1646   4.1996   4.2039   4.7759   4.8834   4.9173
     5.0702   5.1253   5.3685   5.6678   5.7147   5.7629   6.0101   6.1326
     6.2671   6.2943   6.4804   6.5402   6.7464   6.8128   7.0144   7.1007
     7.1016   7.3358   8.0066   8.1938   9.9608  10.8917  11.8348  11.8728
    12.4827  12.5622  12.5769  12.5939  12.8641  13.2935  13.7198  14.2240
    14.2606  14.7857  15.9382  16.2947  17.2835  17.4209

          k = 0.3333 0.3333 0.1114 ( 31142 PWs)   bands (ev):

   -66.1552 -66.1549 -66.1548 -66.1544 -30.5242 -30.5214 -30.5213 -30.5212
   -30.5017 -30.4956 -30.4714 -30.4672 -30.4431 -30.4417 -30.4204 -30.4181
   -20.3108 -20.3108 -20.3108 -20.3108 -20.2902 -20.2901 -20.2898 -20.2897
   -20.2894 -20.2892 -20.2873 -20.2872 -20.2869 -20.2867 -20.2852 -20.2852
   -20.2798 -20.2793 -20.2790 -20.2789 -20.2786 -20.2786 -20.2768 -20.2765
   -20.2741 -20.2735 -20.2727 -20.2721  -9.5925  -9.3862  -9.2655  -8.9826
    -8.8053  -8.6895  -8.2332  -8.2200  -7.8439  -7.8181  -7.7538  -7.7340
     1.1949   1.2038   1.7868   1.8698   2.1667   2.2162   2.6489   2.9587
     3.6791   3.7595   4.0190   4.0432   4.2605   4.7506   4.8186   4.9153
     5.0499   5.0602   5.1715   5.3752   5.7986   5.8826   5.9666   6.1087
     6.1641   6.2630   6.5036   6.6990   6.7815   6.8426   7.0011   7.0646
     7.0883   7.3279   7.9447   8.1101  10.1611  11.0051  11.8360  11.8705
    12.3335  12.5106  12.5965  12.6336  12.7762  13.3084  13.6323  14.1324
    14.5448  15.1351  15.9049  16.4214  17.2356  17.4752

          k = 0.3333 0.3333 0.2227 ( 31138 PWs)   bands (ev):

   -66.1552 -66.1550 -66.1547 -66.1545 -30.5236 -30.5220 -30.5120 -30.5107
   -30.5018 -30.4948 -30.4818 -30.4773 -30.4430 -30.4421 -30.4199 -30.4186
   -20.3108 -20.3108 -20.3108 -20.3108 -20.2898 -20.2897 -20.2897 -20.2895
   -20.2891 -20.2887 -20.2872 -20.2871 -20.2870 -20.2868 -20.2862 -20.2862
   -20.2796 -20.2793 -20.2791 -20.2790 -20.2786 -20.2786 -20.2768 -20.2766
   -20.2740 -20.2736 -20.2726 -20.2722  -9.5246  -9.4114  -9.1586  -9.0081
    -8.6648  -8.5832  -8.2645  -8.2118  -8.0816  -8.0552  -7.7497  -7.7383
     1.2007   1.2036   2.1125   2.1623   2.5060   2.5448   2.8523   3.1830
     3.5576   3.6984   3.7508   3.7606   4.3963   4.4357   4.4950   4.7485
     4.7978   5.0000   5.0678   5.1968   5.3768   5.7238   6.1144   6.1493
     6.2053   6.2712   6.5704   6.8024   6.8712   6.9810   7.0563   7.1218
     7.1899   7.2983   7.7573   7.8678  10.6649  11.3121  11.8303  11.8641
    11.9321  12.2389  12.6265  12.6791  12.7636  13.2383  13.5466  13.9152
    15.1198  15.7924  15.9388  16.8191  17.0687  17.6786

          k = 0.3333 0.3333-0.3341 ( 31136 PWs)   bands (ev):

   -66.1551 -66.1551 -66.1546 -66.1546 -30.5228 -30.5228 -30.5037 -30.5037
   -30.4962 -30.4962 -30.4893 -30.4893 -30.4426 -30.4426 -30.4193 -30.4192
   -20.3108 -20.3108 -20.3108 -20.3108 -20.2897 -20.2897 -20.2895 -20.2895
   -20.2878 -20.2878 -20.2875 -20.2875 -20.2871 -20.2871 -20.2869 -20.2869
   -20.2794 -20.2794 -20.2791 -20.2791 -20.2786 -20.2786 -20.2767 -20.2767
   -20.2738 -20.2738 -20.2724 -20.2724  -9.4575  -9.4575  -9.0625  -9.0625
    -8.4378  -8.4378  -8.3665  -8.3665  -8.1884  -8.1884  -7.7440  -7.7440
     1.2028   1.2028   2.1528   2.1528   3.1708   3.1708   3.2224   3.2224
     3.4659   3.4659   3.6635   3.6635   3.7442   3.7442   4.6595   4.6595
     4.8317   4.8317   5.1147   5.1147   5.4422   5.4422   6.1500   6.1500
     6.2634   6.2634   6.6736   6.6736   6.9863   6.9863   7.1993   7.1993
     7.4513   7.4513   7.5159   7.5159  11.2814  11.2814  11.7965  11.7965
    11.8578  11.8578  12.6478  12.6478  12.9867  12.9867  13.6861  13.6861
    15.5568  15.5568  16.6793  16.6793  17.3559  17.3559

          k = 0.3333 0.4444 0.0000 ( 31139 PWs)   bands (ev):

   -66.1551 -66.1549 -66.1547 -66.1545 -30.5255 -30.5254 -30.5223 -30.5177
   -30.5144 -30.5089 -30.4660 -30.4647 -30.4308 -30.4285 -30.4229 -30.4203
   -20.3108 -20.3108 -20.3108 -20.3108 -20.2905 -20.2905 -20.2899 -20.2899
   -20.2897 -20.2896 -20.2872 -20.2871 -20.2867 -20.2866 -20.2848 -20.2848
   -20.2798 -20.2796 -20.2790 -20.2790 -20.2781 -20.2780 -20.2775 -20.2773
   -20.2734 -20.2729 -20.2726 -20.2722  -9.5538  -9.4428  -9.3094  -9.1726
    -8.8304  -8.7918  -7.9985  -7.9890  -7.8294  -7.8115  -7.7361  -7.7267
     1.2914   1.3164   1.5199   1.6378   1.6538   1.7611   2.6049   2.7123
     4.0944   4.1983   4.2441   4.3144   4.5312   4.6365   4.6815   4.8322
     5.4422   5.4579   5.4636   5.5719   5.7066   5.7157   5.8431   5.9099
     6.3465   6.3821   6.6227   6.6351   6.6546   6.6739   6.7615   6.9463
     7.0032   7.0563   8.1132   8.1738  10.0925  10.4337  12.1879  12.2171
    12.4252  12.4316  12.5160  12.6501  12.9853  13.2453  13.9634  14.1539
    14.3380  14.5318  16.1476  16.6148  16.7600  17.3132

          k = 0.3333 0.4444 0.1114 ( 31146 PWs)   bands (ev):

   -66.1551 -66.1549 -66.1547 -66.1546 -30.5226 -30.5221 -30.5220 -30.5170
   -30.5142 -30.5085 -30.4699 -30.4686 -30.4307 -30.4287 -30.4227 -30.4205
   -20.3108 -20.3108 -20.3108 -20.3108 -20.2903 -20.2902 -20.2899 -20.2899
   -20.2896 -20.2895 -20.2871 -20.2871 -20.2867 -20.2866 -20.2852 -20.2852
   -20.2798 -20.2796 -20.2791 -20.2790 -20.2781 -20.2780 -20.2775 -20.2773
   -20.2733 -20.2729 -20.2727 -20.2722  -9.5230  -9.4068  -9.3169  -9.1799
    -8.7863  -8.7527  -7.9969  -7.9967  -7.8462  -7.8283  -7.8248  -7.7989
     1.3033   1.3163   1.6013   1.6533   1.8716   1.9124   2.6761   2.7858
     4.0000   4.0545   4.1779   4.2165   4.5806   4.6309   4.6809   4.8764
     5.2174   5.2701   5.4182   5.4502   5.7697   5.8243   5.8525   5.9146
     6.2545   6.3260   6.5676   6.6254   6.6760   6.7916   6.8546   6.9434
     6.9932   7.0124   8.0385   8.0918  10.2771  10.5825  12.1905  12.2105
    12.3697  12.3835  12.4354  12.5518  13.0263  13.2814  13.8644  14.0595
    14.6320  14.8518  16.1118  16.5802  16.8698  17.4067

          k = 0.3333 0.4444 0.2227 ( 31149 PWs)   bands (ev):

   -66.1550 -66.1548 -66.1548 -66.1546 -30.5215 -30.5204 -30.5155 -30.5138
   -30.5092 -30.5051 -30.4805 -30.4791 -30.4303 -30.4292 -30.4223 -30.4210
   -20.3108 -20.3108 -20.3108 -20.3108 -20.2899 -20.2899 -20.2898 -20.2898
   -20.2890 -20.2889 -20.2870 -20.2870 -20.2868 -20.2867 -20.2862 -20.2862
   -20.2796 -20.2795 -20.2792 -20.2792 -20.2781 -20.2781 -20.2775 -20.2774
   -20.2732 -20.2729 -20.2727 -20.2724  -9.4530  -9.3409  -9.3258  -9.2040
    -8.6442  -8.6207  -8.1159  -8.0877  -7.9919  -7.9653  -7.8237  -7.8114
     1.3118   1.3158   1.6407   1.6520   2.5028   2.5295   2.8907   3.0130
     3.6022   3.6572   4.1622   4.1939   4.4712   4.4929   4.6244   4.6783
     4.7833   5.0516   5.2958   5.4583   5.6040   5.6502   5.9188   5.9457
     6.2719   6.3424   6.5613   6.6499   6.7251   6.8795   6.9656   7.0027
     7.0926   7.1239   7.8172   7.8526  10.7520  10.9821  11.9359  12.0501
    12.1986  12.2250  12.4498  12.4850  13.1476  13.3871  13.6294  13.8342
    15.2437  15.5476  15.9898  16.4437  17.2325  17.7102

          k = 0.3333 0.4444-0.3341 ( 31140 PWs)   bands (ev):

   -66.1549 -66.1549 -66.1547 -66.1547 -30.5208 -30.5208 -30.5136 -30.5136
   -30.4950 -30.4950 -30.4932 -30.4932 -30.4298 -30.4298 -30.4216 -30.4216
   -20.3108 -20.3108 -20.3108 -20.3108 -20.2899 -20.2899 -20.2898 -20.2898
   -20.2877 -20.2877 -20.2876 -20.2876 -20.2869 -20.2869 -20.2868 -20.2868
   -20.2794 -20.2794 -20.2793 -20.2793 -20.2781 -20.2781 -20.2774 -20.2774
   -20.2730 -20.2730 -20.2725 -20.2725  -9.3858  -9.3858  -9.2510  -9.2509
    -8.4017  -8.4013  -8.3832  -8.3830  -7.9841  -7.9839  -7.8179  -7.8177
     1.3146   1.3149   1.6489   1.6492   3.1753   3.1794   3.1975   3.2029
     3.4942   3.5002   3.5636   3.5677   4.1700   4.1991   4.6287   4.6679
     5.0285   5.0461   5.2798   5.3384   5.4940   5.5263   5.9236   5.9445
     6.3290   6.3394   6.6116   6.6297   6.7936   6.8064   7.0031   7.0110
     7.4666   7.4749   7.4885   7.4974  11.3504  11.3529  11.5265  11.5296
    12.2015  12.2190  12.4562  12.4755  13.3412  13.3531  13.5881  13.6001
    15.7243  15.7335  16.1282  16.1381  17.7121  17.7272

          k = 0.4444 0.4444 0.0000 ( 31174 PWs)   bands (ev):

   -66.1551 -66.1550 -66.1547 -66.1546 -30.5257 -30.5251 -30.5240 -30.5229
   -30.5223 -30.5181 -30.4654 -30.4650 -30.4223 -30.4199 -30.4195 -30.4169
   -20.3108 -20.3108 -20.3108 -20.3108 -20.2905 -20.2904 -20.2902 -20.2901
   -20.2899 -20.2899 -20.2870 -20.2870 -20.2865 -20.2865 -20.2848 -20.2848
   -20.2799 -20.2798 -20.2789 -20.2789 -20.2782 -20.2781 -20.2779 -20.2778
   -20.2729 -20.2727 -20.2721 -20.2719  -9.5649  -9.5257  -9.3341  -9.2876
    -8.8345  -8.8231  -7.8439  -7.8254  -7.7817  -7.7585  -7.7352  -7.7300
     1.1801   1.1900   1.2888   1.3084   1.6365   1.6523   2.5549   2.5925
     4.2675   4.2870   4.4827   4.5535   4.7482   4.7705   4.8250   4.9164
     5.4880   5.5727   5.5794   5.5954   5.8180   5.8897   5.9617   6.0814
     6.0971   6.2518   6.2950   6.3745   6.5162   6.6802   6.7590   6.8212
     7.0389   7.1023   8.1724   8.1920   9.9638  10.0932  12.3300  12.3801
    12.3929  12.4310  12.4752  12.5320  13.2549  13.3481  14.1586  14.2272
    14.2823  14.3503  16.0279  16.1930  17.0007  17.2246

          k = 0.4444 0.4444 0.1114 ( 31137 PWs)   bands (ev):

   -66.1550 -66.1550 -66.1547 -66.1546 -30.5254 -30.5228 -30.5225 -30.5224
   -30.5201 -30.5171 -30.4694 -30.4690 -30.4222 -30.4200 -30.4193 -30.4171
   -20.3108 -20.3108 -20.3108 -20.3108 -20.2902 -20.2902 -20.2901 -20.2900
   -20.2900 -20.2898 -20.2870 -20.2869 -20.2865 -20.2865 -20.2851 -20.2851
   -20.2798 -20.2798 -20.2790 -20.2789 -20.2782 -20.2781 -20.2779 -20.2778
   -20.2728 -20.2727 -20.2722 -20.2720  -9.5358  -9.4951  -9.3412  -9.2948
    -8.7886  -8.7786  -7.8503  -7.8423  -7.8341  -7.8089  -7.7803  -7.7601
     1.1842   1.1899   1.2976   1.3083   1.8755   1.8841   2.6255   2.6643
     4.0286   4.0505   4.4986   4.5501   4.7441   4.7649   4.8812   4.9761
     5.2660   5.2881   5.6836   5.7564   5.7865   5.8597   5.9276   6.0829
     6.1035   6.2085   6.2803   6.3467   6.5389   6.6941   6.8110   6.8663
     6.9813   7.0075   8.0899   8.1072  10.1660  10.2785  12.3202  12.3402
    12.3428  12.3791  12.4082  12.4703  13.2905  13.3814  14.0633  14.1337
    14.5629  14.6414  15.9922  16.1560  17.1314  17.3528

          k = 0.4444 0.4444 0.2227 ( 31129 PWs)   bands (ev):

   -66.1550 -66.1549 -66.1548 -66.1547 -30.5248 -30.5232 -30.5221 -30.5209
   -30.5095 -30.5086 -30.4802 -30.4797 -30.4217 -30.4204 -30.4189 -30.4176
   -20.3108 -20.3108 -20.3108 -20.3108 -20.2901 -20.2901 -20.2900 -20.2900
   -20.2890 -20.2890 -20.2869 -20.2868 -20.2866 -20.2866 -20.2862 -20.2862
   -20.2796 -20.2796 -20.2791 -20.2791 -20.2781 -20.2781 -20.2779 -20.2779
   -20.2727 -20.2725 -20.2723 -20.2721  -9.4700  -9.4261  -9.3642  -9.3177
    -8.6415  -8.6345  -8.0925  -8.0869  -7.8379  -7.8253  -7.7763  -7.7646
     1.1878   1.1898   1.3045   1.3079   2.5282   2.5446   2.8329   2.8816
     3.5865   3.6078   4.4552   4.4862   4.5173   4.5748   4.7471   4.7750
     5.0476   5.1511   5.5865   5.6759   5.8740   5.9145   5.9937   6.0868
     6.1157   6.1262   6.2737   6.2872   6.6041   6.7401   6.8366   6.8834
     7.0879   7.0994   7.8488   7.8606  10.6739  10.7545  11.8999  11.9380
    12.3574  12.3751  12.4304  12.4538  13.3997  13.4860  13.8358  13.9107
    15.1459  15.2553  15.8712  16.0292  17.5511  17.7933

          k = 0.4444 0.4444-0.3341 ( 31138 PWs)   bands (ev):

   -66.1549 -66.1549 -66.1548 -66.1548 -30.5240 -30.5240 -30.5214 -30.5214
   -30.4948 -30.4948 -30.4943 -30.4943 -30.4211 -30.4211 -30.4182 -30.4182
   -20.3108 -20.3108 -20.3108 -20.3108 -20.2901 -20.2901 -20.2901 -20.2900
   -20.2876 -20.2876 -20.2876 -20.2876 -20.2867 -20.2867 -20.2867 -20.2867
   -20.2794 -20.2794 -20.2794 -20.2794 -20.2781 -20.2781 -20.2779 -20.2779
   -20.2725 -20.2725 -20.2723 -20.2723  -9.4067  -9.4067  -9.3608  -9.3608
    -8.3926  -8.3926  -8.3873  -8.3872  -7.8318  -7.8318  -7.7705  -7.7705
     1.1892   1.1892   1.3069   1.3070   3.1629   3.1629   3.1737   3.1737
[...]
    12.2073  12.2269  12.3880  12.4658  12.5889  12.8408  13.4434  13.7131
    14.6987  15.0068  16.2249  16.4848  16.9599  17.1667

          k = 0.2211 0.4422 0.2234 ( 31359 PWs)   bands (ev):

   -66.2886 -66.2884 -66.2884 -66.2881 -30.6547 -30.6540 -30.6269 -30.6251
   -30.6178 -30.6170 -30.6060 -30.6057 -30.5566 -30.5553 -30.5448 -30.5434
   -20.4508 -20.4508 -20.4508 -20.4508 -20.4300 -20.4300 -20.4299 -20.4298
   -20.4290 -20.4289 -20.4278 -20.4278 -20.4275 -20.4275 -20.4262 -20.4261
   -20.4192 -20.4191 -20.4190 -20.4190 -20.4175 -20.4171 -20.4166 -20.4162
   -20.4136 -20.4132 -20.4129 -20.4125  -9.4489  -9.2890  -9.2730  -9.0757
    -8.7744  -8.7157  -8.3347  -8.2682  -8.2462  -8.1834  -8.0415  -8.0245
     1.6187   1.6355   2.0517   2.1272   2.3559   2.3820   2.9301   3.0850
     3.5542   3.5925   3.8444   3.9179   4.2676   4.2920   4.3256   4.3779
     4.4668   4.6319   4.7637   4.7937   5.1859   5.2134   5.3850   5.5191
     6.5604   6.6599   6.7746   6.8441   6.8914   6.9476   7.0223   7.0921
     7.1084   7.2148   7.6558   7.7201  10.8504  11.1896  11.7790  11.7809
    12.0069  12.0879  12.2264  12.3417  12.6106  12.9567  13.1853  13.4683
    15.3627  15.7926  16.1157  16.7389  16.9039  17.3713

          k = 0.2211 0.4422-0.3351 ( 31354 PWs)   bands (ev):

   -66.2885 -66.2885 -66.2883 -66.2882 -30.6400 -30.6400 -30.6392 -30.6392
   -30.6183 -30.6183 -30.6062 -30.6062 -30.5560 -30.5560 -30.5441 -30.5441
   -20.4508 -20.4508 -20.4508 -20.4508 -20.4299 -20.4299 -20.4298 -20.4298
   -20.4279 -20.4279 -20.4278 -20.4278 -20.4274 -20.4274 -20.4274 -20.4274
   -20.4191 -20.4191 -20.4190 -20.4190 -20.4173 -20.4173 -20.4164 -20.4164
   -20.4134 -20.4134 -20.4127 -20.4127  -9.3501  -9.3499  -9.1463  -9.1459
    -8.5632  -8.5617  -8.5240  -8.5238  -8.2531  -8.2524  -8.0349  -8.0344
     1.6312   1.6323   2.1157   2.1165   3.1040   3.1061   3.1108   3.1200
     3.3998   3.4360   3.5184   3.5307   3.8460   3.9189   4.3365   4.4038
     4.5718   4.5718   4.8138   4.8625   4.9211   4.9463   5.4041   5.4188
     6.6917   6.6959   6.8504   6.8610   6.9642   7.0294   7.0729   7.1110
     7.3482   7.3809   7.3849   7.4169  11.3713  11.3964  11.6373  11.6641
    11.7912  11.8584  12.2243  12.2931  12.8302  12.8642  13.1850  13.2201
    15.8537  15.8778  16.4482  16.4827  17.2984  17.3582

          k = 0.3317 0.3317 0.0000 ( 31340 PWs)   bands (ev):

   -66.2888 -66.2884 -66.2883 -66.2879 -30.6696 -30.6684 -30.6320 -30.6286
   -30.6145 -30.6088 -30.6057 -30.6020 -30.5567 -30.5541 -30.5345 -30.5318
   -20.4509 -20.4508 -20.4508 -20.4508 -20.4306 -20.4305 -20.4303 -20.4302
   -20.4299 -20.4297 -20.4278 -20.4277 -20.4273 -20.4272 -20.4247 -20.4246
   -20.4190 -20.4190 -20.4188 -20.4187 -20.4186 -20.4179 -20.4166 -20.4160
   -20.4138 -20.4130 -20.4125 -20.4116  -9.6994  -9.4346  -9.4042  -9.0128
    -8.9736  -8.8132  -8.2898  -8.2888  -7.8937  -7.8655  -7.8395  -7.8158
     1.1514   1.1844   1.4194   1.4535   2.1245   2.1517   2.4895   2.7867
     3.6592   3.7507   4.0651   4.1036   4.1703   4.6921   4.7085   4.8660
     5.0162   5.0577   5.2740   5.5655   5.5699   5.6421   5.8709   6.0257
     6.2056   6.2161   6.3974   6.4106   6.6577   6.6847   6.9407   7.0172
     7.0313   7.2316   7.8939   8.0846   9.8295  10.7488  11.6746  11.7121
    12.3923  12.4025  12.4044  12.4242  12.7487  13.1087  13.5821  14.0716
    14.1295  14.6810  15.6838  16.1448  17.0337  17.1975

          k = 0.3317 0.3317 0.1117 ( 31359 PWs)   bands (ev):

   -66.2888 -66.2884 -66.2883 -66.2880 -30.6655 -30.6644 -30.6318 -30.6288
   -30.6164 -30.6129 -30.6058 -30.6040 -30.5565 -30.5543 -30.5343 -30.5320
   -20.4509 -20.4508 -20.4508 -20.4508 -20.4304 -20.4303 -20.4302 -20.4302
   -20.4299 -20.4295 -20.4278 -20.4276 -20.4274 -20.4272 -20.4251 -20.4250
   -20.4190 -20.4189 -20.4188 -20.4187 -20.4186 -20.4180 -20.4166 -20.4160
   -20.4138 -20.4131 -20.4124 -20.4117  -9.6625  -9.4128  -9.3792  -9.0211
    -8.9345  -8.7919  -8.2964  -8.2867  -7.9917  -7.9669  -7.8381  -7.8174
     1.1692   1.1843   1.6242   1.7049   2.1229   2.1641   2.5604   2.8608
     3.6578   3.7458   3.9738   3.9799   4.1261   4.6640   4.7255   4.7711
     4.9879   5.0019   5.0595   5.2609   5.6636   5.7374   5.8393   6.0167
     6.0765   6.2090   6.4342   6.5842   6.6701   6.7441   6.9232   6.9829
     7.0195   7.2241   7.8335   8.0022  10.0332  10.8646  11.6760  11.7099
    12.2456  12.3665  12.4216  12.4601  12.6412  13.1297  13.4862  13.9761
    14.4015  15.0255  15.6531  16.2835  16.9903  17.2548

          k = 0.3317 0.3317 0.2234 ( 31359 PWs)   bands (ev):

   -66.2887 -66.2885 -66.2882 -66.2880 -30.6544 -30.6535 -30.6311 -30.6294
   -30.6246 -30.6240 -30.6064 -30.6063 -30.5561 -30.5548 -30.5338 -30.5325
   -20.4509 -20.4508 -20.4508 -20.4508 -20.4302 -20.4302 -20.4301 -20.4299
   -20.4291 -20.4288 -20.4277 -20.4276 -20.4274 -20.4273 -20.4262 -20.4261
   -20.4189 -20.4188 -20.4187 -20.4187 -20.4186 -20.4182 -20.4165 -20.4161
   -20.4136 -20.4132 -20.4123 -20.4119  -9.5773  -9.4410  -9.2447  -9.0504
    -8.8048  -8.7085  -8.3477  -8.2800  -8.2328  -8.1891  -7.8338  -7.8219
     1.1798   1.1840   2.0444   2.1181   2.3751   2.3873   2.7681   3.0852
     3.4988   3.6290   3.7269   3.7406   4.2796   4.3018   4.3765   4.6627
     4.7014   4.8811   5.0055   5.0687   5.2506   5.5632   6.0046   6.0449
     6.1452   6.2144   6.5016   6.7255   6.7872   6.8985   6.9559   7.0346
     7.0927   7.1976   7.6494   7.7626  10.5454  11.1799  11.6752  11.7037
    11.8287  12.1228  12.4486  12.5060  12.5972  13.0856  13.3696  13.7494
    14.9372  15.5498  15.8033  16.7121  16.8395  17.4707

          k = 0.3317 0.3317-0.3351 ( 31360 PWs)   bands (ev):

   -66.2886 -66.2886 -66.2881 -66.2881 -30.6393 -30.6393 -30.6387 -30.6387
   -30.6303 -30.6303 -30.6067 -30.6067 -30.5555 -30.5554 -30.5332 -30.5332
   -20.4508 -20.4508 -20.4508 -20.4508 -20.4302 -20.4302 -20.4300 -20.4300
   -20.4279 -20.4279 -20.4275 -20.4275 -20.4275 -20.4275 -20.4273 -20.4273
   -20.4189 -20.4189 -20.4187 -20.4187 -20.4184 -20.4184 -20.4163 -20.4163
   -20.4134 -20.4134 -20.4121 -20.4121  -9.4949  -9.4949  -9.1184  -9.1184
    -8.5772  -8.5772  -8.5147  -8.5147  -8.2652  -8.2652  -7.8279  -7.8279
     1.1830   1.1830   2.1069   2.1069   3.0943   3.0943   3.1150   3.1150
     3.3243   3.3243   3.5452   3.5452   3.7268   3.7268   4.5402   4.5402
     4.7379   4.7379   5.0403   5.0403   5.2777   5.2777   6.0443   6.0443
     6.2056   6.2056   6.6044   6.6045   6.9173   6.9173   7.0964   7.0965
     7.3468   7.3468   7.4127   7.4127  11.1731  11.1731  11.6696  11.6696
    11.7015  11.7015  12.4695  12.4695  12.8297  12.8297  13.5099  13.5099
    15.3349  15.3349  16.4888  16.4888  17.2484  17.2484

          k = 0.3317 0.4422 0.0000 ( 31331 PWs)   bands (ev):

   -66.2887 -66.2885 -66.2882 -66.2881 -30.6691 -30.6687 -30.6301 -30.6263
   -30.6233 -30.6182 -30.6078 -30.6061 -30.5445 -30.5418 -30.5368 -30.5340
   -20.4509 -20.4509 -20.4508 -20.4508 -20.4307 -20.4306 -20.4304 -20.4303
   -20.4301 -20.4299 -20.4276 -20.4276 -20.4271 -20.4271 -20.4247 -20.4246
   -20.4191 -20.4191 -20.4187 -20.4187 -20.4181 -20.4176 -20.4174 -20.4168
   -20.4131 -20.4126 -20.4122 -20.4118  -9.6365  -9.5405  -9.3367  -9.2039
    -8.9533  -8.9050  -8.0728  -8.0620  -7.9107  -7.9005  -7.8736  -7.8728
     1.2403   1.2935   1.3796   1.4907   1.6221   1.6929   2.5140   2.6179
     4.0598   4.1742   4.2141   4.2711   4.3939   4.5538   4.6452   4.7085
     5.3395   5.3517   5.3644   5.4606   5.5844   5.5857   5.7071   5.8037
     6.2905   6.3071   6.4942   6.5482   6.5857   6.5912   6.6405   6.8608
     6.9074   6.9707   8.0022   8.0641   9.9597  10.2967  12.0196  12.0490
    12.2521  12.2684  12.4300  12.5492  12.8039  13.0573  13.8208  14.0041
    14.2104  14.4145  15.8939  16.3652  16.5877  17.1180

          k = 0.3317 0.4422 0.1117 ( 31350 PWs)   bands (ev):

   -66.2886 -66.2885 -66.2883 -66.2881 -30.6650 -30.6647 -30.6299 -30.6265
   -30.6235 -30.6184 -30.6118 -30.6098 -30.5443 -30.5420 -30.5366 -30.5342
   -20.4509 -20.4508 -20.4508 -20.4508 -20.4305 -20.4305 -20.4303 -20.4302
   -20.4300 -20.4298 -20.4276 -20.4275 -20.4272 -20.4271 -20.4251 -20.4250
   -20.4191 -20.4190 -20.4188 -20.4187 -20.4181 -20.4176 -20.4174 -20.4169
   -20.4130 -20.4126 -20.4123 -20.4118  -9.5976  -9.4955  -9.3449  -9.2119
    -8.9156  -8.8733  -8.0751  -8.0711  -7.9880  -7.9678  -7.9090  -7.8865
     1.2710   1.2934   1.5239   1.6217   1.7113   1.7852   2.5862   2.6920
     3.9547   4.0062   4.1432   4.1900   4.4440   4.5657   4.6409   4.7328
     5.1124   5.1652   5.2978   5.3475   5.6377   5.6905   5.7211   5.8082
     6.1779   6.2674   6.4894   6.5492   6.5950   6.6886   6.7486   6.8545
     6.9114   6.9161   7.9289   7.9835  10.1473  10.4482  12.0224  12.0447
    12.2412  12.2614  12.2785  12.4250  12.8460  13.0948  13.7178  13.9059
    14.4937  14.7261  15.8609  16.3309  16.7124  17.2222

          k = 0.3317 0.4422 0.2234 ( 31362 PWs)   bands (ev):

   -66.2885 -66.2884 -66.2883 -66.2882 -30.6540 -30.6538 -30.6299 -30.6270
   -30.6266 -30.6224 -30.6189 -30.6173 -30.5438 -30.5425 -30.5361 -30.5347
   -20.4508 -20.4508 -20.4508 -20.4508 -20.4304 -20.4304 -20.4303 -20.4302
   -20.4290 -20.4289 -20.4275 -20.4274 -20.4273 -20.4272 -20.4261 -20.4261
   -20.4190 -20.4189 -20.4188 -20.4187 -20.4180 -20.4177 -20.4173 -20.4170
   -20.4129 -20.4125 -20.4124 -20.4120  -9.5086  -9.3914  -9.3719  -9.2391
    -8.7875  -8.7597  -8.2595  -8.2404  -8.0663  -8.0478  -7.9047  -7.8924
     1.2871   1.2929   1.6045   1.6201   2.3529   2.3732   2.8023   2.9185
     3.5359   3.5877   4.1346   4.1673   4.3501   4.3717   4.5694   4.6158
     4.6674   4.8902   5.1624   5.3526   5.4548   5.5278   5.8133   5.8347
     6.2124   6.2848   6.4973   6.5874   6.6447   6.7993   6.8753   6.9059
     6.9861   7.0207   7.7106   7.7470  10.6306  10.8558  11.8355  11.9445
    12.0302  12.0586  12.2751  12.3123  12.9721  13.2061  13.4724  13.6712
    15.0685  15.3883  15.7490  16.2057  17.1101  17.5634

          k = 0.3317 0.4422-0.3351 ( 31358 PWs)   bands (ev):

   -66.2885 -66.2884 -66.2883 -66.2883 -30.6391 -30.6391 -30.6391 -30.6391
   -30.6276 -30.6276 -30.6192 -30.6192 -30.5432 -30.5432 -30.5354 -30.5354
   -20.4508 -20.4508 -20.4508 -20.4508 -20.4303 -20.4303 -20.4303 -20.4303
   -20.4277 -20.4277 -20.4276 -20.4276 -20.4273 -20.4273 -20.4272 -20.4272
   -20.4189 -20.4189 -20.4188 -20.4188 -20.4179 -20.4179 -20.4172 -20.4172
   -20.4127 -20.4127 -20.4122 -20.4122  -9.4248  -9.4247  -9.2957  -9.2956
    -8.5532  -8.5528  -8.5356  -8.5355  -8.0593  -8.0591  -7.8988  -7.8986
     1.2912   1.2916   1.6163   1.6167   3.0936   3.0967   3.1034   3.1076
     3.3537   3.3598   3.4328   3.4372   4.1442   4.1750   4.5867   4.6324
     4.8806   4.9028   5.1178   5.1779   5.3905   5.4200   5.8188   5.8378
     6.2720   6.2823   6.5514   6.5675   6.7142   6.7284   6.9088   6.9172
     7.3616   7.3704   7.3840   7.3933  11.2402  11.2430  11.4112  11.4147
    12.0327  12.0505  12.2811  12.3005  13.1744  13.1862  13.4145  13.4264
    15.5069  15.5160  15.9199  15.9300  17.5964  17.6167

          k = 0.4422 0.4422 0.0000 ( 31380 PWs)   bands (ev):

   -66.2886 -66.2885 -66.2882 -66.2881 -30.6686 -30.6685 -30.6331 -30.6307
   -30.6296 -30.6268 -30.6077 -30.6072 -30.5363 -30.5337 -30.5334 -30.5308
   -20.4509 -20.4509 -20.4508 -20.4508 -20.4307 -20.4306 -20.4305 -20.4304
   -20.4304 -20.4302 -20.4274 -20.4274 -20.4270 -20.4269 -20.4246 -20.4246
   -20.4190 -20.4190 -20.4185 -20.4184 -20.4183 -20.4180 -20.4179 -20.4175
   -20.4126 -20.4124 -20.4117 -20.4116  -9.6437  -9.6092  -9.3602  -9.3151
    -8.9613  -8.9468  -7.9246  -7.9089  -7.8820  -7.8730  -7.8650  -7.8408
     1.1477   1.1703   1.2419   1.2855   1.4721   1.4987   2.4655   2.5017
     4.2390   4.2567   4.4382   4.5239   4.6656   4.7132   4.7372   4.7381
     5.3714   5.4440   5.4802   5.4892   5.6791   5.7631   5.8341   5.9724
     6.0494   6.1997   6.2171   6.3046   6.4475   6.5986   6.6253   6.6921
     6.9533   7.0177   8.0627   8.0829   9.8323   9.9603  12.1580  12.2054
    12.2197  12.2666  12.3919  12.4349  13.0666  13.1569  14.0088  14.0748
    14.1503  14.2222  15.7753  15.9402  16.8141  17.0201

          k = 0.4422 0.4422 0.1117 ( 31349 PWs)   bands (ev):

   -66.2886 -66.2885 -66.2882 -66.2882 -30.6646 -30.6645 -30.6329 -30.6305
   -30.6299 -30.6270 -30.6118 -30.6112 -30.5361 -30.5338 -30.5334 -30.5310
   -20.4509 -20.4508 -20.4508 -20.4508 -20.4306 -20.4306 -20.4305 -20.4304
   -20.4300 -20.4300 -20.4274 -20.4274 -20.4270 -20.4270 -20.4250 -20.4250
   -20.4190 -20.4189 -20.4185 -20.4184 -20.4183 -20.4180 -20.4179 -20.4175
   -20.4125 -20.4124 -20.4118 -20.4116  -9.6067  -9.5703  -9.3680  -9.3229
    -8.9216  -8.9091  -7.9887  -7.9831  -7.9229  -7.8997  -7.8635  -7.8425
     1.1591   1.1703   1.2660   1.2854   1.7090   1.7188   2.5373   2.5745
     3.9812   4.0020   4.4599   4.5209   4.7063   4.7204   4.7290   4.8003
     5.1566   5.1784   5.5741   5.6433   5.6459   5.7139   5.8173   5.9742
     6.0491   6.1369   6.2157   6.2727   6.4705   6.6121   6.6933   6.7479
     6.8981   6.9283   7.9816   7.9994  10.0378  10.1487  12.1674  12.2039
    12.2306  12.2339  12.2360  12.3154  13.1037  13.1918  13.9098  13.9776
    14.4201  14.5032  15.7424  15.9061  16.9577  17.1599

          k = 0.4422 0.4422 0.2234 ( 31353 PWs)   bands (ev):

   -66.2885 -66.2884 -66.2883 -66.2882 -30.6535 -30.6535 -30.6323 -30.6306
   -30.6303 -30.6276 -30.6230 -30.6220 -30.5356 -30.5342 -30.5329 -30.5315
   -20.4508 -20.4508 -20.4508 -20.4508 -20.4306 -20.4306 -20.4305 -20.4305
   -20.4290 -20.4290 -20.4273 -20.4273 -20.4271 -20.4271 -20.4261 -20.4261
   -20.4188 -20.4187 -20.4186 -20.4183 -20.4183 -20.4182 -20.4179 -20.4177
   -20.4124 -20.4122 -20.4120 -20.4118  -9.5225  -9.4817  -9.3937  -9.3487
    -8.7881  -8.7799  -8.2456  -8.2409  -7.9184  -7.9059  -7.8594  -7.8472
     1.1668   1.1700   1.2797   1.2849   2.3714   2.3838   2.7486   2.7929
     3.5204   3.5406   4.3418   4.3602   4.4848   4.5304   4.7116   4.7368
     4.8815   4.9759   5.4298   5.5153   5.7725   5.8093   5.8939   5.9792
     6.0554   6.0575   6.2150   6.2174   6.5364   6.6600   6.7654   6.8060
     6.9798   6.9915   7.7433   7.7555  10.5541  10.6331  11.8034  11.8397
    12.1838  12.2007  12.2548  12.2775  13.2177  13.3016  13.6730  13.7453
    14.9679  15.0824  15.6311  15.7899  17.4152  17.6356

          k = 0.4422 0.4422-0.3351 ( 31346 PWs)   bands (ev):

   -66.2884 -66.2884 -66.2883 -66.2883 -30.6387 -30.6387 -30.6383 -30.6383
   -30.6314 -30.6314 -30.6281 -30.6281 -30.5349 -30.5349 -30.5322 -30.5322
   -20.4508 -20.4508 -20.4508 -20.4508 -20.4305 -20.4305 -20.4305 -20.4305
   -20.4276 -20.4276 -20.4276 -20.4275 -20.4272 -20.4272 -20.4272 -20.4272
   -20.4187 -20.4187 -20.4184 -20.4184 -20.4183 -20.4183 -20.4178 -20.4178
   -20.4122 -20.4122 -20.4120 -20.4120  -9.4437  -9.4437  -9.3997  -9.3997
    -8.5473  -8.5473  -8.5421  -8.5420  -7.9122  -7.9122  -7.8534  -7.8534
     1.1693   1.1693   1.2836   1.2836   3.0855   3.0856   3.0913   3.0913
     3.3361   3.3361   3.3615   3.3615   4.5047   4.5047   4.7212   4.7212
     5.1376   5.1376   5.2359   5.2359   5.8081   5.8081   5.9701   5.9701
     6.0615   6.0615   6.2045   6.2045   6.6374   6.6374   6.7307   6.7307
     7.3766   7.3766   7.3862   7.3862  11.1950  11.1950  11.2530  11.2530
    12.1942  12.1942  12.2683  12.2683  13.4118  13.4118  13.4968  13.4968
    15.3968  15.3968  15.5414  15.5415  17.9388  17.9388

     the Fermi energy is     8.7420 ev

!    total energy              =   -3130.55268170 Ry
     Harris-Foulkes estimate   =   -3130.55268170 Ry
     estimated scf accuracy    <          1.4E-12 Ry

     The total energy is the sum of the following terms:

     one-electron contribution =   -2374.68227392 Ry
     hartree contribution      =    1304.96074317 Ry
     xc contribution           =    -482.84000355 Ry
     ewald contribution        =   -1577.99114740 Ry
     smearing contrib. (-TS)   =      -0.00000000 Ry

     convergence has been achieved in  14 iterations

     Forces acting on atoms (cartesian axes, Ry/au):

     atom    1 type  1   force =     0.00000000    0.00000000   -0.00255848
     atom    2 type  1   force =     0.00000000    0.00000000    0.00255848
     atom    3 type  1   force =     0.00000000    0.00000000    0.00255848
     atom    4 type  1   force =     0.00000000    0.00000000   -0.00255848
     atom    5 type  2   force =     0.00000000    0.00000000    0.01454051
     atom    6 type  2   force =     0.00000000    0.00000000   -0.01454051
     atom    7 type  2   force =     0.00000000    0.00000000   -0.01454051
     atom    8 type  2   force =     0.00000000    0.00000000    0.01454051
     atom    9 type  2   force =    -0.00105902    0.00105902    0.00000000
     atom   10 type  2   force =     0.00105902   -0.00105902    0.00000000
     atom   11 type  2   force =     0.00105902   -0.00105902    0.00000000
     atom   12 type  2   force =    -0.00105902    0.00105902    0.00000000
     atom   13 type  2   force =    -0.00105902   -0.00105902    0.00000000
     atom   14 type  2   force =     0.00105902    0.00105902    0.00000000
     atom   15 type  2   force =     0.00105902    0.00105902    0.00000000
     atom   16 type  2   force =    -0.00105902   -0.00105902    0.00000000

     Total force =     0.000000     Total SCF correction =     0.000000


     Computing stress (Cartesian axis) and pressure

          total   stress  (Ry/bohr**3)                   (kbar)     P=    0.16
   0.00000167   0.00000000   0.00000000          0.25      0.00      0.00
   0.00000000   0.00000167   0.00000000          0.00      0.25      0.00
   0.00000000   0.00000000  -0.00000005          0.00      0.00     -0.01


     Writing output data file Landau_5.save/
 
     init_run     :     37.54s CPU     38.25s WALL (       2 calls)
     electrons    :   1991.33s CPU   2016.51s WALL (       6 calls)
     update_pot   :     57.34s CPU     57.38s WALL (       4 calls)
     forces       :     59.56s CPU     60.04s WALL (       6 calls)
     stress       :    227.60s CPU    228.77s WALL (       6 calls)

     Called by init_run:
     wfcinit      :     15.79s CPU     16.35s WALL (       2 calls)
     potinit      :      9.92s CPU      9.96s WALL (       2 calls)
     hinit0       :     11.62s CPU     11.68s WALL (       2 calls)

     Called by electrons:
     c_bands      :   1678.56s CPU   1701.87s WALL (      79 calls)
     sum_band     :    288.92s CPU    289.49s WALL (      79 calls)
     v_of_rho     :      6.33s CPU      6.40s WALL (      84 calls)
     mix_rho      :     11.14s CPU     11.87s WALL (      79 calls)

     Called by c_bands:
     init_us_2    :     20.96s CPU     21.35s WALL (     344 calls)
     cegterg      :   1484.70s CPU   1507.52s WALL (     158 calls)

     Called by sum_band:

     Called by *egterg:
     h_psi        :   1249.31s CPU   1259.25s WALL (     598 calls)
     g_psi        :      5.91s CPU      5.92s WALL (     436 calls)
     cdiaghg      :     13.04s CPU     13.09s WALL (     584 calls)

     Called by h_psi:
     h_psi:pot    :   1245.14s CPU   1246.54s WALL (     598 calls)
     h_psi:calbec :     85.73s CPU     86.12s WALL (     598 calls)
     vloc_psi     :   1061.14s CPU   1062.03s WALL (     598 calls)
     add_vuspsi   :     98.27s CPU     98.39s WALL (     598 calls)

     General routines
     calbec       :     98.53s CPU     98.93s WALL (     658 calls)
     fft          :      2.89s CPU      2.90s WALL (     299 calls)
     ffts         :      0.78s CPU      0.78s WALL (      79 calls)
     fftw         :   1063.42s CPU   1064.02s WALL (  102102 calls)
 
     Parallel routines
 
     PWSCF        :  39m35.19s CPU  40m 3.63s WALL

 
   This run was terminated on:  18: 3:32  21Nov2019            

=------------------------------------------------------------------------------=
   JOB DONE.
=------------------------------------------------------------------------------=
