
     Program PWSCF v.6.2 (svn rev. 14038) starts on 21Mar2020 at 20:30:35 

     This program is part of the open-source Quantum ESPRESSO suite
     for quantum simulation of materials; please cite
         "P. Giannozzi et al., J. Phys.:Condens. Matter 21 395502 (2009);
         "P. Giannozzi et al., J. Phys.:Condens. Matter 29 465901 (2017);
          URL http://www.quantum-espresso.org", 
     in publications or presentations arising from this work. More details at
     http://www.quantum-espresso.org/quote

     Parallel version (MPI), running on    40 processors

     MPI processes distributed on     5 nodes
     K-points division:     npool     =      40
     Reading input from scf.in

     Current dimensions of program PWSCF are:
     Max number of different atomic species (ntypx) = 10
     Max number of k-points (npk) =  40000
     Max angular momentum in pseudopotentials (lmaxx) =  3

     Subspace diagonalization in iterative solution of the eigenvalue problem:
     a serial algorithm will be used

 
     G-vector sticks info
     --------------------
     sticks:   dense  smooth     PW     G-vecs:    dense   smooth      PW
     Sum        7633    7633   2045               493077   493077   68311
 


     bravais-lattice index     =            0
     lattice parameter (alat)  =      13.8218  a.u.
     unit-cell volume          =    2775.7858 (a.u.)^3
     number of atoms/cell      =           32
     number of atomic types    =            2
     number of electrons       =       369.00
     number of Kohn-Sham states=          222
     kinetic-energy cutoff     =     120.0000  Ry
     charge density cutoff     =     480.0000  Ry
     convergence threshold     =      1.0E-08
     mixing beta               =       0.7000
     number of iterations used =            8  plain     mixing
     Exchange-correlation      = SLA PW NOGX NOGC ( 1  4  0  0 0 0)

     celldm(1)=  13.821839  celldm(2)=   0.000000  celldm(3)=   0.000000
     celldm(4)=   0.000000  celldm(5)=   0.000000  celldm(6)=   0.000000

     crystal axes: (cart. coord. in units of alat)
               a(1) = (   1.000000   0.000000   0.000000 )  
               a(2) = (   0.000000   1.044840   0.000000 )  
               a(3) = (   0.000000   0.000000   1.006095 )  

     reciprocal axes: (cart. coord. in units 2 pi/alat)
               b(1) = (  1.000000  0.000000  0.000000 )  
               b(2) = (  0.000000  0.957085  0.000000 )  
               b(3) = (  0.000000  0.000000  0.993942 )  


     PseudoPot. # 1 for W  read from file:
     /cluster/scratch/mnoe/QE/pps/W_ONCV_LDA-4.0.upf
     MD5 check sum: ba0307d5d4cd419d6f1d13dc49d7c13a
     Pseudo is Norm-conserving + core correction, Zval = 28.0
     Generated using ONCVPSP code by D. R. Hamann
     Using radial grid of 1380 points,  8 beta functions with: 
                l(1) =   0
                l(2) =   0
                l(3) =   1
                l(4) =   1
                l(5) =   2
                l(6) =   2
                l(7) =   3
                l(8) =   3

     PseudoPot. # 2 for O  read from file:
     /cluster/scratch/mnoe/QE/pps/O_ONCV_LDA-3.0.upf
     MD5 check sum: a1bd6164e7280c17a38c229939bfbd54
     Pseudo is Norm-conserving + core correction, Zval =  6.0
     Generated using ONCVPSP code by D. R. Hamann
     Using radial grid of  926 points,  5 beta functions with: 
                l(1) =   0
                l(2) =   0
                l(3) =   1
                l(4) =   1
                l(5) =   2

     atomic species   valence    mass     pseudopotential
        W             28.00   183.84000     W ( 1.00)
        O              6.00    15.99940     O ( 1.00)

      8 Sym. Ops., with inversion, found ( 6 have fractional translation)



   Cartesian axes

     site n.     atom                  positions (alat units)
         1           W   tau(   1) = (   0.2342800   0.2944985   0.0149405  )
         2           W   tau(   2) = (   0.7657200   0.7503412   0.9911540  )
         3           W   tau(   3) = (   0.2657200   0.2279214   0.5179878  )
         4           W   tau(   4) = (   0.7342800   0.8169184   0.4881068  )
         5           W   tau(   5) = (   0.7657200   0.2944985   0.4881068  )
         6           W   tau(   6) = (   0.2342800   0.7503412   0.5179878  )
         7           W   tau(   7) = (   0.7342800   0.2279214   0.9911540  )
         8           W   tau(   8) = (   0.2657200   0.8169184   0.0149405  )
         9           O   tau(   9) = (   0.2209900   0.0086931   0.0046482  )
        10           O   tau(  10) = (   0.7790100   1.0361467   1.0014464  )
        11           O   tau(  11) = (   0.2790100   0.5137268   0.5076954  )
        12           O   tau(  12) = (   0.7209900   0.5311129   0.4983991  )
        13           O   tau(  13) = (   0.7790100   0.0086931   0.4983991  )
        14           O   tau(  14) = (   0.2209900   1.0361467   0.5076954  )
        15           O   tau(  15) = (   0.7209900   0.5137268   1.0014464  )
        16           O   tau(  16) = (   0.2790100   0.5311129   0.0046482  )
        17           O   tau(  17) = (   0.5043000   0.2301155   0.4522797  )
        18           O   tau(  18) = (   0.4957000   0.8147242   0.5538148  )
        19           O   tau(  19) = (   0.9957000   0.2923044   0.9553270  )
        20           O   tau(  20) = (   0.0043000   0.7525353   0.0507675  )
        21           O   tau(  21) = (   0.4957000   0.2301155   0.0507675  )
        22           O   tau(  22) = (   0.5043000   0.8147242   0.9553270  )
        23           O   tau(  23) = (   0.0043000   0.2923044   0.5538148  )
        24           O   tau(  24) = (   0.9957000   0.7525353   0.4522797  )
        25           O   tau(  25) = (   0.6995400   0.2544185   0.7480112  )
        26           O   tau(  26) = (   0.3004600   0.7904213   0.2580834  )
        27           O   tau(  27) = (   0.8004600   0.2680014   0.2449639  )
        28           O   tau(  28) = (   0.1995400   0.7768384   0.7611306  )
        29           O   tau(  29) = (   0.3004600   0.2544185   0.7611306  )
        30           O   tau(  30) = (   0.6995400   0.7904213   0.2449639  )
        31           O   tau(  31) = (   0.1995400   0.2680014   0.2580834  )
        32           O   tau(  32) = (   0.8004600   0.7768384   0.7480112  )

     number of k points=    64  gaussian smearing, width (Ry)=  0.0007
                       cart. coord. in units 2pi/alat
        k(    1) = (   0.0000000   0.0000000   0.0000000), wk =   0.0092593
        k(    2) = (   0.0000000   0.0000000   0.1656571), wk =   0.0185185
        k(    3) = (   0.0000000   0.0000000   0.3313141), wk =   0.0185185
        k(    4) = (   0.0000000   0.0000000  -0.4969712), wk =   0.0092593
        k(    5) = (   0.0000000   0.1595141   0.0000000), wk =   0.0185185
        k(    6) = (   0.0000000   0.1595141   0.1656571), wk =   0.0370370
        k(    7) = (   0.0000000   0.1595141   0.3313141), wk =   0.0370370
        k(    8) = (   0.0000000   0.1595141  -0.4969712), wk =   0.0185185
        k(    9) = (   0.0000000   0.3190282   0.0000000), wk =   0.0185185
        k(   10) = (   0.0000000   0.3190282   0.1656571), wk =   0.0370370
        k(   11) = (   0.0000000   0.3190282   0.3313141), wk =   0.0370370
        k(   12) = (   0.0000000   0.3190282  -0.4969712), wk =   0.0185185
        k(   13) = (   0.0000000  -0.4785423   0.0000000), wk =   0.0092593
        k(   14) = (   0.0000000  -0.4785423   0.1656571), wk =   0.0185185
        k(   15) = (   0.0000000  -0.4785423   0.3313141), wk =   0.0185185
        k(   16) = (   0.0000000  -0.4785423  -0.4969712), wk =   0.0092593
        k(   17) = (   0.1666667   0.0000000   0.0000000), wk =   0.0185185
        k(   18) = (   0.1666667   0.0000000   0.1656571), wk =   0.0370370
        k(   19) = (   0.1666667   0.0000000   0.3313141), wk =   0.0370370
        k(   20) = (   0.1666667   0.0000000  -0.4969712), wk =   0.0185185
        k(   21) = (   0.1666667   0.1595141   0.0000000), wk =   0.0370370
        k(   22) = (   0.1666667   0.1595141   0.1656571), wk =   0.0740741
        k(   23) = (   0.1666667   0.1595141   0.3313141), wk =   0.0740741
        k(   24) = (   0.1666667   0.1595141  -0.4969712), wk =   0.0370370
        k(   25) = (   0.1666667   0.3190282   0.0000000), wk =   0.0370370
        k(   26) = (   0.1666667   0.3190282   0.1656571), wk =   0.0740741
        k(   27) = (   0.1666667   0.3190282   0.3313141), wk =   0.0740741
        k(   28) = (   0.1666667   0.3190282  -0.4969712), wk =   0.0370370
        k(   29) = (   0.1666667  -0.4785423   0.0000000), wk =   0.0185185
        k(   30) = (   0.1666667  -0.4785423   0.1656571), wk =   0.0370370
        k(   31) = (   0.1666667  -0.4785423   0.3313141), wk =   0.0370370
        k(   32) = (   0.1666667  -0.4785423  -0.4969712), wk =   0.0185185
        k(   33) = (   0.3333333   0.0000000   0.0000000), wk =   0.0185185
        k(   34) = (   0.3333333   0.0000000   0.1656571), wk =   0.0370370
        k(   35) = (   0.3333333   0.0000000   0.3313141), wk =   0.0370370
        k(   36) = (   0.3333333   0.0000000  -0.4969712), wk =   0.0185185
        k(   37) = (   0.3333333   0.1595141   0.0000000), wk =   0.0370370
        k(   38) = (   0.3333333   0.1595141   0.1656571), wk =   0.0740741
        k(   39) = (   0.3333333   0.1595141   0.3313141), wk =   0.0740741
        k(   40) = (   0.3333333   0.1595141  -0.4969712), wk =   0.0370370
        k(   41) = (   0.3333333   0.3190282   0.0000000), wk =   0.0370370
        k(   42) = (   0.3333333   0.3190282   0.1656571), wk =   0.0740741
        k(   43) = (   0.3333333   0.3190282   0.3313141), wk =   0.0740741
        k(   44) = (   0.3333333   0.3190282  -0.4969712), wk =   0.0370370
        k(   45) = (   0.3333333  -0.4785423   0.0000000), wk =   0.0185185
        k(   46) = (   0.3333333  -0.4785423   0.1656571), wk =   0.0370370
        k(   47) = (   0.3333333  -0.4785423   0.3313141), wk =   0.0370370
        k(   48) = (   0.3333333  -0.4785423  -0.4969712), wk =   0.0185185
        k(   49) = (  -0.5000000   0.0000000   0.0000000), wk =   0.0092593
        k(   50) = (  -0.5000000   0.0000000   0.1656571), wk =   0.0185185
        k(   51) = (  -0.5000000   0.0000000   0.3313141), wk =   0.0185185
        k(   52) = (  -0.5000000   0.0000000  -0.4969712), wk =   0.0092593
        k(   53) = (  -0.5000000   0.1595141   0.0000000), wk =   0.0185185
        k(   54) = (  -0.5000000   0.1595141   0.1656571), wk =   0.0370370
        k(   55) = (  -0.5000000   0.1595141   0.3313141), wk =   0.0370370
        k(   56) = (  -0.5000000   0.1595141  -0.4969712), wk =   0.0185185
        k(   57) = (  -0.5000000   0.3190282   0.0000000), wk =   0.0185185
        k(   58) = (  -0.5000000   0.3190282   0.1656571), wk =   0.0370370
        k(   59) = (  -0.5000000   0.3190282   0.3313141), wk =   0.0370370
        k(   60) = (  -0.5000000   0.3190282  -0.4969712), wk =   0.0185185
        k(   61) = (  -0.5000000  -0.4785423   0.0000000), wk =   0.0092593
        k(   62) = (  -0.5000000  -0.4785423   0.1656571), wk =   0.0185185
        k(   63) = (  -0.5000000  -0.4785423   0.3313141), wk =   0.0185185
        k(   64) = (  -0.5000000  -0.4785423  -0.4969712), wk =   0.0092593

     Dense  grid:   493077 G-vectors     FFT dimensions: ( 100, 108, 100)

     Estimated max dynamical RAM per process >       3.11 GB

     Estimated total dynamical RAM >     124.25 GB

     Initial potential from superposition of free atoms

     starting charge  367.99656, renormalised to  369.00000
     Starting wfc are  232 randomized atomic wfcs

     total cpu time spent up to now is       42.8 secs

     Self-consistent Calculation

     iteration #  1     ecut=   120.00 Ry     beta= 0.70
     Davidson diagonalization with overlap
     ethr =  1.00E-02,  avg # of iterations =  5.3

     total cpu time spent up to now is      186.4 secs

     total energy              =   -6253.08266034 Ry
     Harris-Foulkes estimate   =   -6263.98394905 Ry
     estimated scf accuracy    <      13.68892966 Ry

     iteration #  2     ecut=   120.00 Ry     beta= 0.70
     Davidson diagonalization with overlap
     ethr =  3.71E-03,  avg # of iterations =  3.7

     total cpu time spent up to now is      327.7 secs

     total energy              =   -6250.15589360 Ry
     Harris-Foulkes estimate   =   -6269.84049096 Ry
     estimated scf accuracy    <      51.99336523 Ry

     iteration #  3     ecut=   120.00 Ry     beta= 0.70
     Davidson diagonalization with overlap
     ethr =  3.71E-03,  avg # of iterations =  3.4

     total cpu time spent up to now is      458.0 secs

     total energy              =   -6260.34825119 Ry
     Harris-Foulkes estimate   =   -6260.60548202 Ry
     estimated scf accuracy    <       0.86420959 Ry

     iteration #  4     ecut=   120.00 Ry     beta= 0.70
     Davidson diagonalization with overlap
     ethr =  2.34E-04,  avg # of iterations =  3.0

     total cpu time spent up to now is      563.6 secs

     total energy              =   -6260.33724251 Ry
     Harris-Foulkes estimate   =   -6260.41066073 Ry
     estimated scf accuracy    <       0.22020846 Ry

     iteration #  5     ecut=   120.00 Ry     beta= 0.70
     Davidson diagonalization with overlap
     ethr =  5.97E-05,  avg # of iterations =  5.2

     total cpu time spent up to now is      682.8 secs

     total energy              =   -6260.34311188 Ry
     Harris-Foulkes estimate   =   -6260.37128248 Ry
     estimated scf accuracy    <       0.06274129 Ry

     iteration #  6     ecut=   120.00 Ry     beta= 0.70
     Davidson diagonalization with overlap
     ethr =  1.70E-05,  avg # of iterations =  5.3

     total cpu time spent up to now is      807.4 secs

     total energy              =   -6260.35669960 Ry
     Harris-Foulkes estimate   =   -6260.35930232 Ry
     estimated scf accuracy    <       0.00706027 Ry

     iteration #  7     ecut=   120.00 Ry     beta= 0.70
     Davidson diagonalization with overlap
     ethr =  1.91E-06,  avg # of iterations =  5.4

     total cpu time spent up to now is      923.8 secs

     total energy              =   -6260.35747373 Ry
     Harris-Foulkes estimate   =   -6260.35763995 Ry
     estimated scf accuracy    <       0.00030911 Ry

     iteration #  8     ecut=   120.00 Ry     beta= 0.70
     Davidson diagonalization with overlap
     ethr =  8.38E-08,  avg # of iterations =  3.0

     total cpu time spent up to now is     1051.7 secs

     total energy              =   -6260.35758090 Ry
     Harris-Foulkes estimate   =   -6260.35760050 Ry
     estimated scf accuracy    <       0.00007665 Ry

     iteration #  9     ecut=   120.00 Ry     beta= 0.70
     Davidson diagonalization with overlap
     ethr =  2.08E-08,  avg # of iterations =  2.0

     total cpu time spent up to now is     1157.3 secs

     total energy              =   -6260.35758235 Ry
     Harris-Foulkes estimate   =   -6260.35759053 Ry
     estimated scf accuracy    <       0.00003183 Ry

     iteration # 10     ecut=   120.00 Ry     beta= 0.70
     Davidson diagonalization with overlap
     ethr =  8.63E-09,  avg # of iterations =  1.2

     total cpu time spent up to now is     1256.5 secs

     total energy              =   -6260.35758117 Ry
     Harris-Foulkes estimate   =   -6260.35758438 Ry
     estimated scf accuracy    <       0.00000751 Ry

     iteration # 11     ecut=   120.00 Ry     beta= 0.70
     Davidson diagonalization with overlap
     ethr =  2.04E-09,  avg # of iterations =  3.0

     total cpu time spent up to now is     1367.4 secs

     total energy              =   -6260.35758277 Ry
     Harris-Foulkes estimate   =   -6260.35758282 Ry
     estimated scf accuracy    <       0.00000012 Ry

     iteration # 12     ecut=   120.00 Ry     beta= 0.70
     Davidson diagonalization with overlap
     ethr =  3.18E-11,  avg # of iterations =  2.0

     total cpu time spent up to now is     1496.9 secs

     total energy              =   -6260.35758279 Ry
     Harris-Foulkes estimate   =   -6260.35758281 Ry
     estimated scf accuracy    <       0.00000003 Ry

     iteration # 13     ecut=   120.00 Ry     beta= 0.70
     Davidson diagonalization with overlap
     ethr =  6.93E-12,  avg # of iterations =  2.2

     total cpu time spent up to now is     1619.0 secs

     End of self-consistent calculation

          k = 0.0000 0.0000 0.0000 ( 61647 PWs)   bands (ev):

   -65.7444 -65.7439 -65.7435 -65.7433 -65.7429 -65.7428 -65.7424 -65.7419
   -30.2009 -30.1931 -30.1926 -30.1847 -30.1542 -30.1449 -30.1410 -30.1247
   -30.1243 -30.1229 -30.1086 -30.0981 -30.0961 -30.0872 -30.0843 -30.0647
   -30.0266 -30.0250 -30.0188 -30.0159 -30.0034 -29.9965 -29.9950 -29.9882
   -19.8890 -19.8888 -19.8883 -19.8881 -19.8867 -19.8866 -19.8858 -19.8858
   -19.8764 -19.8761 -19.8760 -19.8754 -19.8753 -19.8753 -19.8746 -19.8743
   -19.8731 -19.8728 -19.8713 -19.8712 -19.8711 -19.8703 -19.8693 -19.8689
   -19.8669 -19.8663 -19.8657 -19.8656 -19.8655 -19.8651 -19.8647 -19.8645
   -19.8574 -19.8573 -19.8572 -19.8571 -19.8552 -19.8549 -19.8548 -19.8547
   -19.8371 -19.8370 -19.8359 -19.8358 -19.8318 -19.8317 -19.8307 -19.8306
   -19.8283 -19.8282 -19.8270 -19.8270 -19.8241 -19.8240 -19.8228 -19.8228
    -9.7295  -9.4036  -9.2808  -9.2751  -8.9711  -8.9316  -8.8666  -8.7467
    -8.7247  -8.6529  -8.6072  -8.6002  -7.7013  -7.6158  -7.5987  -7.5633
    -7.5615  -7.5455  -7.5403  -7.5018  -7.4527  -7.4249  -7.4171  -7.4035
     1.5738   1.5873   1.6286   1.6305   1.6606   1.6658   1.7141   1.8508
     1.8603   1.9343   1.9649   2.1626   2.6144   2.7125   2.7433   2.7840
     2.8893   2.9610   4.3229   4.4122   4.5688   4.7702   4.8587   4.9735
     5.0239   5.0246   5.0524   5.0540   5.2929   5.3366   5.4118   5.5652
     5.6982   5.7300   5.7678   5.7770   5.8555   5.8673   5.9621   6.0007
     6.0065   6.0403   6.0615   6.0941   6.1441   6.1857   6.2096   6.3258
     6.3572   6.4389   6.4758   6.6974   6.7234   6.9402   6.9681   7.0368
     7.0463   7.1356   7.1399   7.1509   7.1525   7.2345   7.4049   7.4477
     7.5219   7.5597   7.9153   7.9435   8.1110   8.1763   8.2979   8.3481
     9.9642   9.9946  10.3959  10.4061  10.4563  10.4713  12.4139  12.5281
    12.6394  12.6976  12.7697  12.7936  12.8134  12.9040  12.9825  13.0138
    13.4974  13.5233  13.5676  13.6271  13.8723  13.9759  14.3406  14.3438
    14.8378  14.8402  15.0568  15.1075  15.7063  15.7461  15.8800  16.2131
    16.3307  16.9846  17.1160  17.2681  17.6936  17.7451

          k = 0.0000 0.0000 0.1657 ( 61573 PWs)   bands (ev):

   -65.7443 -65.7438 -65.7435 -65.7433 -65.7430 -65.7428 -65.7425 -65.7420
   -30.2002 -30.1936 -30.1919 -30.1851 -30.1522 -30.1420 -30.1415 -30.1236
   -30.1213 -30.1204 -30.1031 -30.0987 -30.0928 -30.0857 -30.0848 -30.0632
   -30.0317 -30.0303 -30.0245 -30.0209 -30.0031 -29.9963 -29.9962 -29.9893
   -19.8889 -19.8887 -19.8883 -19.8882 -19.8867 -19.8865 -19.8859 -19.8858
   -19.8764 -19.8760 -19.8760 -19.8754 -19.8753 -19.8752 -19.8747 -19.8743
   -19.8730 -19.8727 -19.8714 -19.8713 -19.8710 -19.8702 -19.8695 -19.8690
   -19.8668 -19.8663 -19.8657 -19.8655 -19.8655 -19.8651 -19.8647 -19.8645
   -19.8574 -19.8572 -19.8572 -19.8571 -19.8551 -19.8549 -19.8548 -19.8547
   -19.8367 -19.8366 -19.8356 -19.8355 -19.8321 -19.8321 -19.8310 -19.8310
   -19.8282 -19.8281 -19.8271 -19.8270 -19.8240 -19.8239 -19.8229 -19.8228
    -9.6839  -9.3483  -9.2986  -9.2192  -8.9473  -8.8861  -8.8756  -8.7088
    -8.6889  -8.6436  -8.6050  -8.5757  -7.7399  -7.7225  -7.6406  -7.6030
    -7.5820  -7.5746  -7.5404  -7.5319  -7.5125  -7.5049  -7.4333  -7.4125
     1.6430   1.6573   1.6823   1.7170   1.7526   1.7681   1.8452   1.8783
     1.9302   1.9722   2.1039   2.2684   2.7043   2.7520   2.8043   2.8706
     2.8811   3.0465   4.3036   4.3231   4.5828   4.6029   4.6653   4.7540
     4.8258   4.8483   5.0600   5.0945   5.1147   5.3087   5.4250   5.5288
     5.5672   5.6615   5.6632   5.8041   5.8106   5.8162   5.8738   5.9061
     5.9290   6.0084   6.0968   6.1119   6.1210   6.1906   6.2778   6.3415
     6.3597   6.6057   6.6570   6.7113   6.8498   6.9182   6.9374   6.9503
     7.0397   7.0668   7.1415   7.1441   7.1817   7.2321   7.2930   7.3194
     7.3503   7.4061   7.9395   7.9529   8.1277   8.1812   8.2499   8.3039
    10.1827  10.2494  10.4018  10.4654  10.6716  10.7296  12.4613  12.4783
    12.5747  12.7336  12.7598  12.8110  12.8319  12.9871  12.9941  13.0194
    13.3639  13.5313  13.5344  13.5774  13.9449  13.9761  14.2149  14.2445
    14.8628  14.9492  15.1030  15.1695  15.7245  15.7936  15.8488  16.3010
    16.4874  16.9906  17.1464  17.2868  17.7810  17.7933

          k = 0.0000 0.0000 0.3313 ( 61654 PWs)   bands (ev):

   -65.7442 -65.7437 -65.7436 -65.7432 -65.7431 -65.7427 -65.7426 -65.7421
   -30.1986 -30.1948 -30.1902 -30.1864 -30.1484 -30.1429 -30.1356 -30.1258
   -30.1119 -30.1116 -30.1009 -30.0903 -30.0879 -30.0823 -30.0760 -30.0581
   -30.0460 -30.0455 -30.0396 -30.0336 -30.0021 -29.9985 -29.9951 -29.9915
   -19.8888 -19.8886 -19.8885 -19.8883 -19.8865 -19.8864 -19.8861 -19.8860
   -19.8763 -19.8760 -19.8759 -19.8755 -19.8751 -19.8750 -19.8748 -19.8745
   -19.8727 -19.8724 -19.8718 -19.8716 -19.8707 -19.8700 -19.8699 -19.8693
   -19.8667 -19.8664 -19.8656 -19.8655 -19.8655 -19.8652 -19.8646 -19.8645
   -19.8574 -19.8572 -19.8572 -19.8571 -19.8551 -19.8549 -19.8549 -19.8547
   -19.8358 -19.8357 -19.8347 -19.8346 -19.8332 -19.8331 -19.8321 -19.8320
   -19.8280 -19.8279 -19.8273 -19.8273 -19.8238 -19.8237 -19.8231 -19.8231
    -9.5714  -9.3533  -9.2158  -9.0890  -8.9958  -8.9061  -8.6545  -8.6454
    -8.6176  -8.5624  -8.5475  -8.4577  -7.9965  -7.9948  -7.8899  -7.8709
    -7.6433  -7.6147  -7.5346  -7.5182  -7.5136  -7.5076  -7.4562  -7.4374
     1.6477   1.6516   1.7270   1.7460   1.8106   1.8332   1.8910   1.9240
     2.5419   2.5900   2.6934   2.7761   2.7931   2.8790   2.9572   3.0668
     3.1085   3.2797   3.9389   4.0675   4.0823   4.1720   4.3468   4.5002
     4.6742   4.7422   4.8127   4.9018   4.9078   5.0545   5.1520   5.3736
     5.3847   5.4505   5.4830   5.5396   5.6848   5.7349   5.7876   5.8671
     5.9930   6.0273   6.0711   6.1428   6.2262   6.2741   6.3699   6.4106
     6.4630   6.5876   6.6266   6.6619   6.7652   6.7678   6.7719   6.9759
     7.0087   7.1230   7.1282   7.1476   7.1746   7.2365   7.3079   7.3642
     7.4263   7.5367   7.9080   7.9163   8.0927   8.1591   8.1632   8.1826
    10.3284  10.3875  10.8460  10.9743  11.2310  11.3351  12.1611  12.2602
    12.4586  12.5894  12.7035  12.8064  12.9373  12.9479  13.0098  13.1303
    13.2246  13.3879  13.4640  13.5838  13.9129  13.9802  13.9953  14.0202
    14.9630  15.0872  15.2463  15.4640  15.7469  15.8555  16.1522  16.2102
    16.4446  17.2711  17.5975  17.6606  17.8184  17.9271

          k = 0.0000 0.0000-0.4970 ( 61536 PWs)   bands (ev):

   -65.7439 -65.7439 -65.7434 -65.7434 -65.7429 -65.7429 -65.7424 -65.7424
   -30.1966 -30.1966 -30.1882 -30.1882 -30.1451 -30.1451 -30.1297 -30.1297
   -30.1049 -30.1049 -30.0994 -30.0993 -30.0668 -30.0668 -30.0651 -30.0651
   -30.0593 -30.0593 -30.0479 -30.0479 -30.0006 -30.0006 -29.9935 -29.9935
   -19.8886 -19.8886 -19.8885 -19.8885 -19.8863 -19.8863 -19.8862 -19.8862
   -19.8762 -19.8761 -19.8757 -19.8757 -19.8749 -19.8749 -19.8747 -19.8747
   -19.8722 -19.8722 -19.8721 -19.8720 -19.8703 -19.8703 -19.8697 -19.8697
   -19.8666 -19.8666 -19.8656 -19.8656 -19.8653 -19.8653 -19.8645 -19.8645
   -19.8573 -19.8573 -19.8571 -19.8571 -19.8550 -19.8550 -19.8548 -19.8548
   -19.8345 -19.8345 -19.8344 -19.8344 -19.8334 -19.8334 -19.8334 -19.8333
   -19.8277 -19.8276 -19.8276 -19.8276 -19.8234 -19.8234 -19.8234 -19.8234
    -9.4474  -9.4474  -9.0838  -9.0838  -8.9717  -8.9717  -8.6346  -8.6346
    -8.3251  -8.3251  -8.3066  -8.3066  -8.2799  -8.2799  -8.2093  -8.2093
    -7.6307  -7.6307  -7.5249  -7.5249  -7.4874  -7.4874  -7.4722  -7.4721
     1.6484   1.6484   1.7417   1.7417   1.8217   1.8217   1.9185   1.9185
     2.8068   2.8068   3.2266   3.2266   3.3387   3.3387   3.3644   3.3644
     3.4919   3.4919   3.5300   3.5300   3.7811   3.7811   3.9964   3.9964
     4.0778   4.0778   4.7765   4.7765   4.8425   4.8425   5.2144   5.2144
     5.4380   5.4380   5.5733   5.5733   5.5980   5.5980   5.8274   5.8274
     6.0561   6.0561   6.1773   6.1773   6.2648   6.2648   6.4271   6.4271
     6.4523   6.4523   6.5375   6.5375   6.7087   6.7087   6.7879   6.7879
     6.9570   6.9570   7.1356   7.1356   7.2079   7.2079   7.6892   7.6892
     7.7220   7.7220   7.8107   7.8107   7.9097   7.9097   8.1765   8.1765
    10.3636  10.3636  11.5498  11.5498  11.6740  11.6740  11.8993  11.8993
    12.0605  12.0605  12.7359  12.7359  13.0252  13.0252  13.1776  13.1776
    13.1915  13.1915  13.5580  13.5580  13.7257  13.7257  13.9983  13.9983
    15.0496  15.0496  15.5505  15.5505  15.8969  15.8969  16.0550  16.0550
    16.8856  16.8856  18.0462  18.0462  18.3525  18.3525

          k = 0.0000 0.1595 0.0000 ( 61643 PWs)   bands (ev):

   -65.7444 -65.7439 -65.7434 -65.7433 -65.7430 -65.7429 -65.7424 -65.7419
   -30.1972 -30.1893 -30.1887 -30.1805 -30.1566 -30.1471 -30.1439 -30.1270
   -30.1247 -30.1243 -30.1084 -30.0980 -30.0975 -30.0862 -30.0857 -30.0669
   -30.0265 -30.0251 -30.0188 -30.0164 -30.0031 -29.9971 -29.9947 -29.9888
   -19.8888 -19.8886 -19.8881 -19.8880 -19.8868 -19.8867 -19.8860 -19.8859
   -19.8764 -19.8761 -19.8759 -19.8755 -19.8753 -19.8752 -19.8746 -19.8743
   -19.8729 -19.8726 -19.8712 -19.8712 -19.8711 -19.8705 -19.8694 -19.8690
   -19.8668 -19.8663 -19.8659 -19.8656 -19.8656 -19.8651 -19.8648 -19.8646
   -19.8574 -19.8573 -19.8572 -19.8571 -19.8552 -19.8549 -19.8548 -19.8547
   -19.8370 -19.8370 -19.8359 -19.8358 -19.8318 -19.8317 -19.8307 -19.8306
   -19.8283 -19.8282 -19.8270 -19.8270 -19.8241 -19.8240 -19.8228 -19.8228
    -9.6969  -9.4170  -9.2374  -9.2350  -8.9793  -8.9414  -8.7912  -8.7447
    -8.7260  -8.6082  -8.5707  -8.5654  -7.7647  -7.6906  -7.6580  -7.6149
    -7.6113  -7.5905  -7.5499  -7.5422  -7.4510  -7.4311  -7.4240  -7.4062
     1.5741   1.5856   1.6311   1.6359   1.6920   1.7141   1.7998   1.9639
     2.0398   2.0802   2.1393   2.3010   2.6231   2.7055   2.8191   2.8659
     2.9606   3.0415   4.1817   4.2923   4.2939   4.4493   4.7897   4.9535
     4.9954   5.0482   5.0688   5.0858   5.2218   5.2305   5.3446   5.5179
     5.6015   5.7749   5.7770   5.7857   5.7900   5.8944   5.9327   5.9370
     5.9500   6.0169   6.0440   6.1017   6.1200   6.1744   6.2221   6.3158
     6.3338   6.4211   6.5139   6.7153   6.7836   6.9191   6.9569   7.0037
     7.1035   7.1060   7.1185   7.1252   7.1421   7.1581   7.4154   7.4456
     7.5359   7.5571   7.9149   7.9411   8.1001   8.1402   8.2566   8.2689
     9.9837   9.9968  10.5891  10.5969  10.6008  10.6183  12.3422  12.5281
    12.6429  12.6967  12.7145  12.7714  12.7818  12.7849  12.8158  13.0123
    13.5064  13.5079  13.5844  13.5901  13.9857  13.9857  14.2430  14.2494
    14.9183  15.0821  15.2302  15.2471  15.7021  15.7387  16.1922  16.2662
    16.2954  16.7139  17.2556  17.4046  17.7491  17.7517

          k = 0.0000 0.1595 0.1657 ( 61603 PWs)   bands (ev):

   -65.7443 -65.7438 -65.7435 -65.7432 -65.7430 -65.7428 -65.7424 -65.7420
   -30.1965 -30.1897 -30.1880 -30.1809 -30.1547 -30.1446 -30.1441 -30.1276
   -30.1213 -30.1205 -30.1029 -30.0981 -30.0944 -30.0869 -30.0839 -30.0653
   -30.0316 -30.0304 -30.0244 -30.0214 -30.0027 -29.9968 -29.9959 -29.9899
   -19.8887 -19.8886 -19.8881 -19.8880 -19.8868 -19.8866 -19.8860 -19.8859
   -19.8764 -19.8761 -19.8760 -19.8755 -19.8753 -19.8752 -19.8747 -19.8743
   -19.8728 -19.8725 -19.8713 -19.8712 -19.8711 -19.8704 -19.8696 -19.8692
   -19.8668 -19.8663 -19.8658 -19.8656 -19.8655 -19.8651 -19.8648 -19.8646
   -19.8574 -19.8572 -19.8572 -19.8571 -19.8551 -19.8549 -19.8548 -19.8547
   -19.8367 -19.8366 -19.8356 -19.8355 -19.8321 -19.8321 -19.8310 -19.8310
   -19.8282 -19.8281 -19.8271 -19.8270 -19.8240 -19.8239 -19.8229 -19.8229
    -9.6500  -9.3619  -9.2552  -9.1750  -8.9574  -8.8944  -8.8002  -8.7074
    -8.6902  -8.5996  -8.5706  -8.5430  -7.7797  -7.7209  -7.7044  -7.6766
    -7.6516  -7.6195  -7.5731  -7.5556  -7.5348  -7.5343  -7.4399  -7.4152
     1.6768   1.6822   1.6926   1.7169   1.8499   1.8788   1.8836   2.0467
     2.1031   2.1088   2.1349   2.3628   2.7136   2.7967   2.8276   2.9530
     2.9536   3.1259   4.1915   4.2338   4.3440   4.4326   4.6099   4.6511
     4.7844   4.8716   4.9878   5.0397   5.0961   5.2310   5.3465   5.4347
     5.5055   5.5726   5.7078   5.7384   5.7483   5.8216   5.8952   5.9043
     5.9287   5.9960   6.0332   6.0777   6.0928   6.1672   6.2680   6.3228
     6.3949   6.5426   6.6663   6.7639   6.8868   6.9403   6.9664   7.0004
     7.0050   7.0745   7.1138   7.1347   7.1596   7.1757   7.2981   7.3248
     7.3758   7.4035   7.9379   7.9506   8.1077   8.1467   8.2113   8.2316
    10.2412  10.2571  10.5940  10.6197  10.7998  10.8472  12.4010  12.4742
    12.5787  12.6769  12.7379  12.8077  12.8169  12.8251  12.8788  13.0292
    13.3534  13.4937  13.5148  13.5819  13.9857  14.0313  14.1135  14.1544
    14.9827  15.1945  15.2602  15.3201  15.7178  15.7907  16.2351  16.2652
    16.4649  16.8703  17.1150  17.4071  17.8111  17.8340

          k = 0.0000 0.1595 0.3313 ( 61587 PWs)   bands (ev):

   -65.7441 -65.7437 -65.7437 -65.7432 -65.7431 -65.7426 -65.7426 -65.7422
   -30.1948 -30.1909 -30.1862 -30.1822 -30.1511 -30.1457 -30.1386 -30.1296
   -30.1119 -30.1115 -30.1003 -30.0913 -30.0879 -30.0832 -30.0754 -30.0600
   -30.0460 -30.0456 -30.0395 -30.0344 -30.0017 -29.9982 -29.9957 -29.9921
   -19.8886 -19.8885 -19.8883 -19.8881 -19.8866 -19.8865 -19.8862 -19.8861
   -19.8762 -19.8760 -19.8759 -19.8756 -19.8751 -19.8750 -19.8747 -19.8745
   -19.8725 -19.8723 -19.8716 -19.8715 -19.8708 -19.8702 -19.8699 -19.8695
   -19.8667 -19.8664 -19.8658 -19.8657 -19.8654 -19.8652 -19.8647 -19.8646
   -19.8573 -19.8572 -19.8572 -19.8571 -19.8551 -19.8549 -19.8549 -19.8547
   -19.8358 -19.8357 -19.8347 -19.8346 -19.8332 -19.8331 -19.8321 -19.8320
   -19.8280 -19.8279 -19.8273 -19.8273 -19.8237 -19.8237 -19.8231 -19.8231
    -9.5343  -9.3108  -9.2292  -9.0317  -9.0067  -8.8314  -8.6539  -8.6298
    -8.5829  -8.5641  -8.5300  -8.4382  -8.0031  -7.9926  -7.9046  -7.8686
    -7.7199  -7.6992  -7.6358  -7.6124  -7.5317  -7.5103  -7.4642  -7.4402
     1.6952   1.7090   1.7268   1.7455   2.0022   2.0195   2.0948   2.1294
     2.5411   2.5949   2.6982   2.8070   2.8512   2.9421   2.9691   3.0615
     3.1925   3.3514   3.9487   4.0615   4.0772   4.1222   4.3627   4.3963
     4.4635   4.6785   4.7262   4.7656   4.8418   4.9898   5.0084   5.2345
     5.2561   5.3860   5.4463   5.4594   5.6516   5.7123   5.7701   5.8925
     5.9447   5.9849   6.0315   6.0432   6.1040   6.2860   6.2996   6.3638
     6.5243   6.6164   6.7227   6.7576   6.7625   6.8447   6.9279   6.9565
     7.0061   7.0980   7.0983   7.1480   7.1506   7.2010   7.3360   7.3610
     7.4354   7.5292   7.9068   7.9140   8.0640   8.1089   8.1271   8.1481
    10.5261  10.5860  10.8583  10.9864  11.3233  11.4086  12.1650  12.2574
    12.4681  12.5718  12.7309  12.8275  12.8431  12.8786  12.9453  13.0437
    13.1064  13.3673  13.4302  13.5560  13.8016  13.9274  13.9903  14.0525
    15.1180  15.2172  15.5543  15.6024  15.8385  16.1095  16.1756  16.1932
    16.5699  17.2397  17.3434  17.6511  17.8922  18.0072

          k = 0.0000 0.1595-0.4970 ( 61584 PWs)   bands (ev):

   -65.7439 -65.7439 -65.7434 -65.7434 -65.7429 -65.7428 -65.7424 -65.7424
   -30.1927 -30.1927 -30.1841 -30.1841 -30.1480 -30.1480 -30.1333 -30.1332
   -30.1046 -30.1046 -30.0997 -30.0997 -30.0669 -30.0668 -30.0654 -30.0654
   -30.0590 -30.0590 -30.0493 -30.0493 -30.0002 -30.0002 -29.9941 -29.9941
   -19.8885 -19.8884 -19.8883 -19.8883 -19.8864 -19.8864 -19.8863 -19.8863
   -19.8761 -19.8761 -19.8757 -19.8757 -19.8749 -19.8749 -19.8747 -19.8747
   -19.8721 -19.8721 -19.8719 -19.8719 -19.8704 -19.8704 -19.8698 -19.8698
   -19.8666 -19.8665 -19.8657 -19.8657 -19.8653 -19.8653 -19.8646 -19.8646
   -19.8573 -19.8573 -19.8572 -19.8571 -19.8550 -19.8550 -19.8548 -19.8548
   -19.8345 -19.8345 -19.8345 -19.8344 -19.8334 -19.8334 -19.8334 -19.8334
   -19.8277 -19.8276 -19.8276 -19.8276 -19.8234 -19.8234 -19.8234 -19.8234
    -9.4069  -9.4069  -9.0961  -9.0961  -8.9015  -8.9015  -8.6004  -8.6004
    -8.3294  -8.3294  -8.3019  -8.3019  -8.2885  -8.2885  -8.2026  -8.2026
    -7.7130  -7.7130  -7.6262  -7.6261  -7.4978  -7.4978  -7.4749  -7.4749
     1.7033   1.7033   1.7413   1.7413   2.0180   2.0180   2.1217   2.1217
     2.8778   2.8778   3.2418   3.2418   3.3565   3.3565   3.3707   3.3707
     3.4884   3.4884   3.5622   3.5622   3.7693   3.7693   4.0067   4.0067
     4.1297   4.1297   4.5873   4.5873   4.6670   4.6670   4.9983   4.9983
     5.3166   5.3167   5.5422   5.5422   5.5918   5.5918   5.8051   5.8051
     5.9742   5.9742   6.0180   6.0180   6.2536   6.2536   6.4278   6.4278
     6.5271   6.5271   6.5873   6.5873   6.7798   6.7798   6.8678   6.8678
     7.0130   7.0130   7.1211   7.1211   7.1498   7.1498   7.6910   7.6910
     7.7192   7.7192   7.7982   7.7982   7.8807   7.8807   8.1411   8.1411
    10.5682  10.5682  11.5581  11.5581  11.6733  11.6733  11.9601  11.9601
    12.1087  12.1087  12.7563  12.7563  12.8789  12.8789  13.1178  13.1178
    13.1748  13.1748  13.4401  13.4402  13.6837  13.6837  14.0109  14.0109
    15.1895  15.1895  15.8932  15.8932  16.0257  16.0258  16.0408  16.0408
    16.9333  16.9333  17.8506  17.8506  18.2878  18.2878

          k = 0.0000 0.3190 0.0000 ( 61620 PWs)   bands (ev):

   -65.7443 -65.7440 -65.7433 -65.7432 -65.7431 -65.7429 -65.7423 -65.7420
   -30.1874 -30.1789 -30.1782 -30.1690 -30.1637 -30.1540 -30.1522 -30.1381
   -30.1249 -30.1246 -30.1076 -30.1020 -30.0956 -30.0889 -30.0833 -30.0723
   -30.0262 -30.0255 -30.0186 -30.0173 -30.0020 -29.9986 -29.9937 -29.9903
   -19.8883 -19.8881 -19.8876 -19.8875 -19.8872 -19.8870 -19.8864 -19.8863
   -19.8763 -19.8762 -19.8759 -19.8756 -19.8753 -19.8753 -19.8746 -19.8744
   -19.8725 -19.8722 -19.8716 -19.8709 -19.8707 -19.8706 -19.8697 -19.8694
   -19.8667 -19.8663 -19.8662 -19.8659 -19.8655 -19.8651 -19.8650 -19.8648
   -19.8574 -19.8573 -19.8571 -19.8571 -19.8551 -19.8550 -19.8548 -19.8547
   -19.8370 -19.8370 -19.8359 -19.8359 -19.8318 -19.8317 -19.8307 -19.8306
   -19.8283 -19.8282 -19.8270 -19.8270 -19.8241 -19.8240 -19.8228 -19.8228
    -9.6168  -9.4581  -9.1443  -9.1348  -9.0062  -8.9736  -8.7404  -8.7299
    -8.5788  -8.4667  -8.4497  -8.4409  -7.9856  -7.9361  -7.9098  -7.8890
    -7.6129  -7.6088  -7.5515  -7.5467  -7.4464  -7.4323  -7.4307  -7.4134
     1.5753   1.5817   1.6328   1.6375   1.7098   1.7141   1.9234   1.9607
     2.5547   2.6489   2.6816   2.6862   2.7575   2.8824   3.0370   3.1332
     3.1643   3.2994   3.7972   3.8170   3.9501   3.9621   4.3241   4.6486
     4.7717   4.9400   4.9937   5.0041   5.0753   5.1298   5.2597   5.2731
     5.3532   5.3559   5.6544   5.7096   5.7768   5.8087   5.9297   5.9949
     6.0069   6.0299   6.1012   6.1100   6.1349   6.1963   6.2386   6.3283
     6.3540   6.3868   6.5324   6.6861   6.7747   6.8383   6.9927   7.0243
     7.0354   7.1051   7.2813   7.2903   7.3142   7.3351   7.4383   7.4433
     7.5558   7.5572   7.8847   7.9290   7.9964   8.0103   8.0437   8.0829
    10.0003  10.0013  10.9900  11.0686  11.0924  11.1004  12.0465  12.2817
    12.2939  12.3789  12.6370  12.6481  12.7609  12.7916  12.8186  12.9907
    13.5283  13.5623  13.6070  13.6312  13.8654  13.9808  14.0096  14.0342
    15.1797  15.5688  15.6234  15.6886  15.7269  15.9063  16.1145  16.1830
    16.1986  17.2087  17.4636  17.7371  17.8662  17.9177

          k = 0.0000 0.3190 0.1657 ( 61572 PWs)   bands (ev):

   -65.7442 -65.7439 -65.7434 -65.7432 -65.7431 -65.7429 -65.7424 -65.7421
   -30.1865 -30.1792 -30.1775 -30.1695 -30.1622 -30.1530 -30.1517 -30.1387
   -30.1212 -30.1207 -30.1023 -30.0978 -30.0963 -30.0900 -30.0811 -30.0705
   -30.0314 -30.0307 -30.0242 -30.0226 -30.0017 -29.9983 -29.9948 -29.9914
   -19.8883 -19.8881 -19.8876 -19.8875 -19.8872 -19.8870 -19.8864 -19.8863
   -19.8763 -19.8761 -19.8759 -19.8756 -19.8752 -19.8752 -19.8746 -19.8744
   -19.8724 -19.8721 -19.8715 -19.8709 -19.8708 -19.8707 -19.8699 -19.8696
   -19.8667 -19.8663 -19.8662 -19.8659 -19.8654 -19.8651 -19.8650 -19.8648
   -19.8574 -19.8573 -19.8572 -19.8571 -19.8551 -19.8550 -19.8548 -19.8547
   -19.8367 -19.8367 -19.8356 -19.8355 -19.8321 -19.8321 -19.8310 -19.8310
   -19.8282 -19.8281 -19.8271 -19.8271 -19.8240 -19.8239 -19.8229 -19.8229
    -9.5668  -9.4036  -9.1533  -9.0730  -8.9903  -8.9220  -8.7037  -8.6938
    -8.5876  -8.4611  -8.4524  -8.4265  -7.9871  -7.9432  -7.9094  -7.8952
    -7.7165  -7.6999  -7.5693  -7.5630  -7.5460  -7.5403  -7.4397  -7.4225
     1.6823   1.6836   1.7119   1.7168   1.8799   1.8800   2.0545   2.1003
     2.5695   2.6755   2.7276   2.7555   2.7770   2.8860   3.0441   3.1573
     3.2179   3.3810   3.8151   3.8893   3.9462   3.9567   4.2993   4.6043
     4.6338   4.6622   4.7817   4.9625   4.9989   5.0680   5.1202   5.1423
     5.2988   5.3813   5.4839   5.5614   5.6143   5.7201   5.7988   5.8867
     5.9383   5.9620   6.0071   6.0906   6.1700   6.1996   6.2105   6.3311
     6.4824   6.5661   6.6550   6.7388   6.7969   6.9653   7.0150   7.0930
     7.1039   7.1373   7.2378   7.2593   7.2670   7.2815   7.3137   7.3728
     7.4272   7.4423   7.9035   7.9335   7.9911   8.0207   8.0217   8.0551
    10.2707  10.2753  11.0934  11.1118  11.1519  11.2323  12.1323  12.2695
    12.3663  12.3810  12.5797  12.5809  12.8008  12.8297  12.8915  13.0393
    13.3944  13.4773  13.5325  13.5768  13.8651  13.8692  13.9702  14.0023
    15.2769  15.5977  15.6937  15.7766  15.8070  15.9615  16.1502  16.3511
    16.4009  17.1743  17.5198  17.5247  17.8275  18.0007

          k = 0.0000 0.3190 0.3313 ( 61643 PWs)   bands (ev):

   -65.7440 -65.7438 -65.7436 -65.7433 -65.7430 -65.7427 -65.7425 -65.7423
   -30.1846 -30.1805 -30.1753 -30.1708 -30.1592 -30.1542 -30.1475 -30.1404
   -30.1117 -30.1115 -30.0988 -30.0937 -30.0876 -30.0851 -30.0732 -30.0645
   -30.0461 -30.0458 -30.0390 -30.0362 -30.0007 -29.9972 -29.9971 -29.9936
   -19.8882 -19.8880 -19.8878 -19.8877 -19.8870 -19.8869 -19.8866 -19.8865
   -19.8762 -19.8760 -19.8759 -19.8757 -19.8751 -19.8750 -19.8747 -19.8745
   -19.8721 -19.8718 -19.8712 -19.8712 -19.8711 -19.8706 -19.8702 -19.8699
   -19.8666 -19.8664 -19.8661 -19.8659 -19.8653 -19.8652 -19.8649 -19.8648
   -19.8573 -19.8572 -19.8572 -19.8571 -19.8550 -19.8549 -19.8549 -19.8548
   -19.8358 -19.8357 -19.8347 -19.8346 -19.8332 -19.8331 -19.8321 -19.8320
   -19.8279 -19.8279 -19.8273 -19.8273 -19.8237 -19.8237 -19.8231 -19.8231
    -9.4435  -9.2712  -9.2101  -9.0420  -8.8910  -8.6844  -8.6218  -8.5925
    -8.5692  -8.4657  -8.4319  -8.3610  -8.0564  -8.0129  -7.9858  -7.9359
    -7.9069  -7.8801  -7.8612  -7.7933  -7.5345  -7.5177  -7.4647  -7.4475
     1.7191   1.7262   1.7374   1.7445   2.4467   2.5274   2.5386   2.6114
     2.6993   2.7243   2.7566   2.9446   3.0215   3.0289   3.0669   3.1494
     3.4414   3.5741   3.8529   3.8881   3.9378   3.9927   4.0507   4.0914
     4.3033   4.5032   4.5248   4.6195   4.6396   4.8146   4.8406   4.9883
     4.9976   5.1308   5.2939   5.3908   5.4397   5.4580   5.4821   5.6099
     5.6519   5.8441   5.8685   6.0445   6.2685   6.3212   6.3273   6.3661
     6.6293   6.6970   6.7355   6.8236   6.8282   6.9452   6.9722   6.9761
     7.1580   7.1682   7.2205   7.2634   7.2836   7.3278   7.3997   7.4067
     7.4467   7.5204   7.8811   7.8918   7.9504   7.9509   7.9854   8.0110
    10.8581  10.8836  11.0928  11.1763  11.5922  11.6703  12.1360  12.2458
    12.3499  12.4016  12.4043  12.5729  12.8177  12.9145  12.9202  12.9567
    12.9907  13.2882  13.3193  13.5290  13.5639  13.8346  13.8711  13.9746
    15.4229  15.5691  15.7800  16.0677  16.1396  16.2777  16.2958  16.8672
    16.9843  17.0543  17.1455  17.7322  17.8388  18.0016

          k = 0.0000 0.3190-0.4970 ( 61634 PWs)   bands (ev):

   -65.7438 -65.7438 -65.7435 -65.7435 -65.7428 -65.7427 -65.7425 -65.7425
   -30.1824 -30.1824 -30.1729 -30.1729 -30.1563 -30.1563 -30.1434 -30.1434
   -30.1036 -30.1036 -30.1008 -30.1008 -30.0669 -30.0669 -30.0662 -30.0662
   -30.0579 -30.0579 -30.0525 -30.0525 -29.9991 -29.9991 -29.9957 -29.9956
   -19.8880 -19.8880 -19.8878 -19.8878 -19.8868 -19.8868 -19.8867 -19.8867
   -19.8761 -19.8760 -19.8758 -19.8758 -19.8749 -19.8749 -19.8748 -19.8748
   -19.8717 -19.8717 -19.8715 -19.8715 -19.8707 -19.8707 -19.8703 -19.8703
   -19.8665 -19.8665 -19.8660 -19.8660 -19.8652 -19.8652 -19.8649 -19.8649
   -19.8573 -19.8573 -19.8572 -19.8572 -19.8550 -19.8549 -19.8548 -19.8548
   -19.8345 -19.8345 -19.8345 -19.8345 -19.8334 -19.8334 -19.8334 -19.8334
   -19.8276 -19.8276 -19.8276 -19.8276 -19.8234 -19.8234 -19.8234 -19.8234
    -9.3093  -9.3093  -9.1353  -9.1353  -8.7101  -8.7101  -8.4945  -8.4945
    -8.3522  -8.3522  -8.3192  -8.3192  -8.2802  -8.2802  -8.1765  -8.1765
    -7.9368  -7.9368  -7.8711  -7.8711  -7.4994  -7.4994  -7.4823  -7.4823
     1.7321   1.7321   1.7403   1.7403   2.5837   2.5837   2.7315   2.7315
     3.0734   3.0734   3.2860   3.2860   3.3351   3.3351   3.4287   3.4287
     3.4757   3.4757   3.6650   3.6650   3.7195   3.7195   3.9237   3.9237
     4.2348   4.2348   4.2818   4.2818   4.3502   4.3502   4.5214   4.5214
     5.0787   5.0787   5.2497   5.2497   5.4009   5.4009   5.5247   5.5247
     5.6900   5.6900   5.9590   5.9590   6.3570   6.3570   6.4356   6.4356
     6.6513   6.6513   6.6800   6.6800   6.7711   6.7711   6.9109   6.9109
     7.2272   7.2272   7.2736   7.2736   7.3130   7.3130   7.6797   7.6797
     7.7100   7.7100   7.7346   7.7347   7.7950   7.7950   7.9919   7.9919
    11.0757  11.0758  11.5762  11.5762  11.6774  11.6774  12.1231  12.1231
    12.2681  12.2681  12.4925  12.4925  12.7645  12.7645  12.8743  12.8743
    13.1583  13.1583  13.1883  13.1883  13.6562  13.6562  13.9022  13.9023
    15.5141  15.5141  15.9336  15.9336  16.4847  16.4847  16.7854  16.7854
    17.1056  17.1056  17.4756  17.4756  18.0793  18.0793

          k = 0.0000-0.4785 0.0000 ( 61594 PWs)   bands (ev):

   -65.7441 -65.7441 -65.7432 -65.7432 -65.7431 -65.7431 -65.7422 -65.7422
   -30.1749 -30.1749 -30.1656 -30.1656 -30.1647 -30.1647 -30.1535 -30.1535
   -30.1248 -30.1248 -30.1056 -30.1056 -30.0926 -30.0926 -30.0784 -30.0784
   -30.0259 -30.0259 -30.0182 -30.0182 -30.0004 -30.0004 -29.9921 -29.9921
   -19.8877 -19.8877 -19.8876 -19.8876 -19.8870 -19.8869 -19.8868 -19.8868
   -19.8763 -19.8762 -19.8757 -19.8757 -19.8753 -19.8753 -19.8745 -19.8745
   -19.8720 -19.8720 -19.8715 -19.8715 -19.8702 -19.8702 -19.8700 -19.8700
   -19.8665 -19.8665 -19.8662 -19.8661 -19.8653 -19.8653 -19.8650 -19.8650
   -19.8574 -19.8573 -19.8571 -19.8571 -19.8551 -19.8550 -19.8548 -19.8547
   -19.8370 -19.8370 -19.8359 -19.8359 -19.8318 -19.8317 -19.8306 -19.8306
   -19.8282 -19.8282 -19.8270 -19.8270 -19.8240 -19.8240 -19.8228 -19.8228
    -9.5276  -9.5276  -9.0593  -9.0593  -9.0363  -9.0363  -8.7351  -8.7351
    -8.2812  -8.2812  -8.2254  -8.2254  -8.2178  -8.2178  -8.2067  -8.2067
    -7.6114  -7.6114  -7.5506  -7.5506  -7.4398  -7.4398  -7.4229  -7.4229
     1.5779   1.5779   1.6353   1.6353   1.7136   1.7136   1.9524   1.9524
     2.6598   2.6598   3.2063   3.2063   3.3423   3.3423   3.3980   3.3981
     3.4072   3.4072   3.5794   3.5795   3.8000   3.8000   3.9071   3.9071
     3.9991   3.9991   4.9587   4.9587   5.0857   5.0857   5.4171   5.4171
     5.4913   5.4913   5.5815   5.5815   5.5862   5.5863   5.9851   5.9851
     6.0421   6.0421   6.0587   6.0587   6.2204   6.2204   6.2887   6.2887
     6.3790   6.3790   6.5171   6.5171   6.8677   6.8677   6.9201   6.9201
     7.0731   7.0731   7.4344   7.4344   7.5294   7.5294   7.6384   7.6384
     7.6631   7.6632   7.7278   7.7278   7.7666   7.7666   7.9534   7.9534
    10.0039  10.0039  11.5326  11.5326  11.6208  11.6208  11.7218  11.7219
    11.8244  11.8244  12.6437  12.6438  12.7784  12.7785  12.9203  12.9203
    13.6561  13.6561  13.6615  13.6615  13.7641  13.7641  13.8903  13.8903
    15.5707  15.5707  15.7771  15.7771  15.9323  15.9323  15.9697  15.9697
    16.7817  16.7817  18.1916  18.1916  18.2624  18.2624

          k = 0.0000-0.4785 0.1657 ( 61564 PWs)   bands (ev):

   -65.7441 -65.7441 -65.7433 -65.7433 -65.7430 -65.7430 -65.7422 -65.7422
   -30.1738 -30.1738 -30.1656 -30.1656 -30.1639 -30.1639 -30.1540 -30.1540
   -30.1210 -30.1209 -30.1008 -30.1008 -30.0935 -30.0935 -30.0764 -30.0764
   -30.0311 -30.0311 -30.0236 -30.0236 -30.0001 -30.0001 -29.9932 -29.9932
   -19.8877 -19.8877 -19.8875 -19.8875 -19.8870 -19.8870 -19.8869 -19.8869
   -19.8762 -19.8762 -19.8758 -19.8757 -19.8752 -19.8752 -19.8745 -19.8745
   -19.8719 -19.8719 -19.8715 -19.8715 -19.8703 -19.8703 -19.8702 -19.8702
   -19.8665 -19.8665 -19.8662 -19.8662 -19.8653 -19.8652 -19.8650 -19.8650
   -19.8573 -19.8573 -19.8571 -19.8571 -19.8550 -19.8550 -19.8548 -19.8548
   -19.8367 -19.8367 -19.8356 -19.8356 -19.8321 -19.8321 -19.8310 -19.8310
   -19.8282 -19.8282 -19.8271 -19.8271 -19.8240 -19.8239 -19.8229 -19.8229
    -9.4747  -9.4746  -9.0542  -9.0542  -8.9786  -8.9786  -8.6988  -8.6988
    -8.2865  -8.2864  -8.2303  -8.2303  -8.2189  -8.2189  -8.2004  -8.2004
    -7.7100  -7.7100  -7.5650  -7.5650  -7.5462  -7.5462  -7.4319  -7.4319
     1.6830   1.6830   1.7161   1.7161   1.8814   1.8814   2.0913   2.0913
     2.7498   2.7498   3.2270   3.2270   3.3343   3.3343   3.3902   3.3902
     3.4774   3.4774   3.5675   3.5675   3.8123   3.8124   3.9247   3.9247
     4.0316   4.0317   4.6288   4.6289   5.0692   5.0692   5.2245   5.2245
     5.3299   5.3299   5.4929   5.4929   5.5720   5.5720   5.7370   5.7371
     5.9657   5.9657   6.0113   6.0113   6.1915   6.1916   6.3028   6.3028
     6.5571   6.5571   6.6298   6.6298   6.8621   6.8621   7.0677   7.0677
     7.1499   7.1499   7.2893   7.2893   7.3507   7.3507   7.6541   7.6541
     7.6587   7.6587   7.7140   7.7140   7.7506   7.7506   7.9695   7.9695
    10.2787  10.2787  11.6411  11.6411  11.7084  11.7084  11.7340  11.7340
    11.8497  11.8497  12.5758  12.5758  12.8152  12.8152  12.9973  12.9973
    13.5032  13.5032  13.6081  13.6081  13.6651  13.6651  13.9060  13.9060
    15.5908  15.5908  15.8985  15.8985  15.9776  15.9776  16.1855  16.1855
    16.8389  16.8389  18.0438  18.0438  18.2055  18.2055

          k = 0.0000-0.4785 0.3313 ( 61624 PWs)   bands (ev):

   -65.7439 -65.7439 -65.7434 -65.7434 -65.7429 -65.7428 -65.7424 -65.7424
   -30.1714 -30.1714 -30.1668 -30.1668 -30.1610 -30.1610 -30.1555 -30.1555
   -30.1115 -30.1115 -30.0965 -30.0965 -30.0867 -30.0867 -30.0695 -30.0695
   -30.0461 -30.0460 -30.0380 -30.0379 -29.9991 -29.9990 -29.9955 -29.9955
   -19.8876 -19.8875 -19.8874 -19.8874 -19.8872 -19.8872 -19.8870 -19.8870
   -19.8761 -19.8761 -19.8758 -19.8758 -19.8750 -19.8750 -19.8746 -19.8746
   -19.8716 -19.8716 -19.8712 -19.8712 -19.8707 -19.8707 -19.8705 -19.8705
   -19.8664 -19.8664 -19.8662 -19.8662 -19.8652 -19.8652 -19.8650 -19.8650
   -19.8573 -19.8573 -19.8572 -19.8572 -19.8550 -19.8550 -19.8548 -19.8548
   -19.8358 -19.8358 -19.8347 -19.8347 -19.8331 -19.8331 -19.8321 -19.8320
   -19.8279 -19.8279 -19.8273 -19.8273 -19.8237 -19.8237 -19.8231 -19.8231
    -9.3448  -9.3448  -9.1092  -9.1092  -8.7564  -8.7564  -8.5778  -8.5777
    -8.3215  -8.3214  -8.2528  -8.2528  -8.2142  -8.2142  -8.1759  -8.1758
    -7.9703  -7.9703  -7.8459  -7.8459  -7.5271  -7.5271  -7.4570  -7.4570
     1.7247   1.7247   1.7429   1.7429   2.5307   2.5307   2.6806   2.6806
     3.0046   3.0046   3.2635   3.2636   3.3294   3.3294   3.4169   3.4170
     3.4957   3.4957   3.6433   3.6433   3.7819   3.7819   4.0072   4.0072
     4.0673   4.0673   4.0999   4.0999   4.6754   4.6754   4.8396   4.8397
     5.0017   5.0018   5.1014   5.1014   5.4747   5.4747   5.5207   5.5208
     5.6323   5.6323   5.9130   5.9130   6.3286   6.3286   6.3633   6.3633
     6.6777   6.6777   6.7701   6.7701   6.8642   6.8642   6.9985   6.9985
     7.2639   7.2639   7.3379   7.3379   7.3784   7.3784   7.6287   7.6287
     7.6687   7.6687   7.6875   7.6875   7.7300   7.7300   7.9326   7.9326
    10.8983  10.8983  11.7067  11.7067  11.7783  11.7783  12.0027  12.0027
    12.1086  12.1086  12.2615  12.2615  12.9260  12.9260  12.9687  12.9687
    13.0993  13.0993  13.2975  13.2975  13.6774  13.6774  13.8551  13.8551
    15.6502  15.6502  15.8733  15.8733  16.4771  16.4771  16.8707  16.8707
    17.0496  17.0496  17.5552  17.5552  18.0758  18.0758

          k = 0.0000-0.4785-0.4970 ( 61608 PWs)   bands (ev):

   -65.7437 -65.7437 -65.7437 -65.7437 -65.7426 -65.7426 -65.7426 -65.7426
   -30.1689 -30.1689 -30.1689 -30.1689 -30.1579 -30.1579 -30.1579 -30.1579
   -30.1022 -30.1022 -30.1022 -30.1022 -30.0667 -30.0667 -30.0667 -30.0667
   -30.0557 -30.0557 -30.0557 -30.0557 -29.9975 -29.9975 -29.9975 -29.9975
   -19.8874 -19.8874 -19.8874 -19.8874 -19.8872 -19.8872 -19.8872 -19.8872
   -19.8759 -19.8759 -19.8759 -19.8759 -19.8748 -19.8748 -19.8748 -19.8748
   -19.8712 -19.8712 -19.8712 -19.8712 -19.8709 -19.8709 -19.8709 -19.8709
   -19.8663 -19.8663 -19.8663 -19.8663 -19.8651 -19.8651 -19.8651 -19.8651
   -19.8572 -19.8572 -19.8572 -19.8572 -19.8549 -19.8549 -19.8549 -19.8549
   -19.8345 -19.8345 -19.8345 -19.8345 -19.8334 -19.8334 -19.8334 -19.8334
   -19.8276 -19.8276 -19.8276 -19.8276 -19.8234 -19.8234 -19.8234 -19.8234
    -9.2072  -9.2072  -9.2072  -9.2072  -8.4761  -8.4761  -8.4761  -8.4761
    -8.3705  -8.3705  -8.3705  -8.3705  -8.1763  -8.1763  -8.1763  -8.1763
    -8.0925  -8.0925  -8.0925  -8.0925  -7.4918  -7.4918  -7.4918  -7.4918
     1.7385   1.7385   1.7385   1.7385   3.1861   3.1861   3.1862   3.1862
     3.2985   3.2985   3.2985   3.2985   3.4262   3.4262   3.4262   3.4262
     3.5055   3.5055   3.5055   3.5055   3.7600   3.7600   3.7600   3.7600
     3.9046   3.9046   3.9047   3.9047   4.5468   4.5468   4.5468   4.5468
     4.6664   4.6664   4.6664   4.6664   5.4776   5.4776   5.4776   5.4776
     5.7669   5.7669   5.7669   5.7670   6.4202   6.4202   6.4202   6.4202
     6.6932   6.6932   6.6932   6.6932   6.8181   6.8181   6.8181   6.8181
     7.4668   7.4668   7.4668   7.4668   7.5675   7.5675   7.5676   7.5676
     7.6649   7.6649   7.6649   7.6649   7.7783   7.7783   7.7783   7.7783
    11.5428  11.5428  11.5428  11.5428  11.8339  11.8340  11.8340  11.8340
    12.5127  12.5127  12.5127  12.5127  12.5787  12.5787  12.5787  12.5787
    13.1154  13.1154  13.1154  13.1154  13.7362  13.7362  13.7362  13.7362
    15.7677  15.7677  15.7677  15.7677  17.0724  17.0724  17.0724  17.0724
    17.5492  17.5492  17.5494  17.5494  17.7025  17.7025

          k = 0.1667 0.0000 0.0000 ( 61584 PWs)   bands (ev):

   -65.7443 -65.7438 -65.7434 -65.7434 -65.7429 -65.7429 -65.7425 -65.7420
   -30.2001 -30.1930 -30.1924 -30.1851 -30.1531 -30.1453 -30.1388 -30.1236
   -30.1220 -30.1217 -30.1091 -30.0972 -30.0923 -30.0834 -30.0799 -30.0618
   -30.0288 -30.0272 -30.0184 -30.0153 -30.0096 -30.0023 -29.9995 -29.9925
   -19.8889 -19.8888 -19.8883 -19.8882 -19.8867 -19.8866 -19.8858 -19.8858
   -19.8763 -19.8760 -19.8759 -19.8754 -19.8753 -19.8753 -19.8747 -19.8743
   -19.8731 -19.8728 -19.8714 -19.8713 -19.8710 -19.8703 -19.8693 -19.8689
   -19.8668 -19.8662 -19.8657 -19.8656 -19.8654 -19.8652 -19.8647 -19.8645
   -19.8573 -19.8571 -19.8570 -19.8569 -19.8553 -19.8551 -19.8550 -19.8548
   -19.8370 -19.8369 -19.8360 -19.8359 -19.8317 -19.8317 -19.8308 -19.8307
   -19.8280 -19.8279 -19.8268 -19.8267 -19.8244 -19.8243 -19.8232 -19.8231
    -9.6850  -9.3538  -9.2944  -9.2273  -8.9871  -8.8776  -8.8474  -8.7168
    -8.6834  -8.6324  -8.6129  -8.5657  -7.7494  -7.6683  -7.6277  -7.6057
    -7.5885  -7.5668  -7.5540  -7.5219  -7.5110  -7.5065  -7.4626  -7.4266
     1.6276   1.6281   1.6302   1.6341   1.7328   1.7699   1.8463   1.8563
     1.9480   2.0573   2.1589   2.3032   2.6926   2.7924   2.8018   2.8331
     2.9493   2.9910   4.2565   4.3878   4.5379   4.5866   4.6857   4.7788
     4.7816   4.9820   4.9903   5.0127   5.0365   5.3111   5.4133   5.6119
     5.6552   5.7067   5.7244   5.7437   5.8064   5.8309   5.8484   5.9282
     5.9927   6.0059   6.0696   6.0904   6.1444   6.1810   6.2853   6.3114
     6.4476   6.5614   6.6130   6.6723   6.9056   6.9159   6.9836   6.9942
     7.0269   7.0562   7.0677   7.0972   7.1104   7.1674   7.3159   7.3226
     7.4063   7.4074   7.9395   7.9554   8.0878   8.1551   8.3096   8.3491
    10.2313  10.2684  10.4343  10.4707  10.6162  10.7087  12.3641  12.5881
    12.5897  12.6704  12.7229  12.8222  12.8381  12.9135  13.0563  13.0906
    13.3735  13.4751  13.5587  13.6302  13.8876  13.9530  14.3375  14.3382
    14.7957  14.8367  15.1154  15.1779  15.7305  15.7436  15.8370  16.1901
    16.5997  16.8767  17.1318  17.4419  17.7792  17.7816

          k = 0.1667 0.0000 0.1657 ( 61590 PWs)   bands (ev):

   -65.7443 -65.7437 -65.7435 -65.7434 -65.7429 -65.7428 -65.7426 -65.7420
   -30.1995 -30.1928 -30.1924 -30.1856 -30.1509 -30.1424 -30.1393 -30.1243
   -30.1184 -30.1178 -30.1036 -30.0940 -30.0929 -30.0827 -30.0801 -30.0604
   -30.0335 -30.0320 -30.0240 -30.0203 -30.0092 -30.0020 -30.0011 -29.9939
   -19.8889 -19.8888 -19.8883 -19.8882 -19.8867 -19.8865 -19.8859 -19.8858
   -19.8763 -19.8760 -19.8759 -19.8754 -19.8753 -19.8752 -19.8747 -19.8744
   -19.8730 -19.8727 -19.8715 -19.8714 -19.8709 -19.8703 -19.8695 -19.8691
   -19.8667 -19.8663 -19.8656 -19.8656 -19.8654 -19.8652 -19.8647 -19.8645
   -19.8573 -19.8571 -19.8570 -19.8569 -19.8553 -19.8551 -19.8550 -19.8548
   -19.8367 -19.8366 -19.8357 -19.8356 -19.8321 -19.8321 -19.8311 -19.8311
   -19.8279 -19.8278 -19.8269 -19.8268 -19.8243 -19.8242 -19.8232 -19.8231
    -9.6378  -9.2944  -9.2448  -9.2384  -8.9024  -8.8870  -8.8633  -8.6763
    -8.6519  -8.6278  -8.5816  -8.5710  -7.7633  -7.7168  -7.6603  -7.6514
    -7.6291  -7.6103  -7.5800  -7.5784  -7.5379  -7.5147  -7.5093  -7.5077
     1.7134   1.7557   1.7596   1.8214   1.8288   1.8402   1.8833   1.9510
     1.9789   2.0589   2.2125   2.3610   2.7844   2.8411   2.8737   2.8985
     2.9842   3.0427   4.2519   4.3005   4.5507   4.5601   4.6740   4.6921
     4.7273   4.7506   4.8292   4.8560   5.0134   5.1240   5.3923   5.4637
     5.5256   5.5872   5.5925   5.7265   5.7626   5.7896   5.8278   5.9250
     5.9338   5.9492   5.9695   6.0113   6.0580   6.2843   6.3230   6.3684
     6.5507   6.6586   6.7660   6.8364   6.8398   6.8649   6.9111   6.9596
     6.9756   6.9817   7.0479   7.0998   7.1091   7.1378   7.1744   7.2492
     7.4155   7.4638   7.9482   7.9561   8.1055   8.1590   8.2680   8.3050
    10.3899  10.4359  10.6284  10.6742  10.6909  10.8048  12.4080  12.5416
    12.6120  12.6264  12.7536  12.7829  12.8714  12.9851  13.0558  13.0810
    13.3147  13.4682  13.4922  13.5879  13.9258  13.9483  14.2102  14.2408
    14.8289  14.9439  15.1094  15.2973  15.7849  15.8034  15.8127  16.4555
    16.5653  17.0382  17.1207  17.2983  17.8290  17.8614

          k = 0.1667 0.0000 0.3313 ( 61628 PWs)   bands (ev):

   -65.7441 -65.7436 -65.7436 -65.7432 -65.7431 -65.7427 -65.7427 -65.7422
   -30.1978 -30.1941 -30.1907 -30.1868 -30.1467 -30.1407 -30.1360 -30.1264
   -30.1087 -30.1081 -30.0953 -30.0886 -30.0866 -30.0833 -30.0734 -30.0558
   -30.0473 -30.0465 -30.0391 -30.0327 -30.0082 -30.0041 -30.0007 -29.9966
   -19.8888 -19.8886 -19.8885 -19.8883 -19.8865 -19.8864 -19.8861 -19.8860
   -19.8762 -19.8760 -19.8758 -19.8755 -19.8752 -19.8750 -19.8748 -19.8745
   -19.8726 -19.8724 -19.8718 -19.8717 -19.8707 -19.8701 -19.8698 -19.8694
   -19.8666 -19.8664 -19.8656 -19.8656 -19.8654 -19.8653 -19.8647 -19.8646
   -19.8572 -19.8571 -19.8570 -19.8569 -19.8552 -19.8551 -19.8550 -19.8549
   -19.8357 -19.8357 -19.8348 -19.8347 -19.8331 -19.8331 -19.8322 -19.8321
   -19.8277 -19.8276 -19.8271 -19.8270 -19.8240 -19.8240 -19.8234 -19.8234
    -9.5215  -9.2991  -9.1498  -9.1071  -8.9189  -8.9128  -8.6621  -8.6197
    -8.5851  -8.5385  -8.5377  -8.4656  -7.9875  -7.9843  -7.9058  -7.8836
    -7.6885  -7.6461  -7.6192  -7.5794  -7.5494  -7.5382  -7.5326  -7.5180
     1.7238   1.7450   1.8026   1.8272   1.9624   1.9819   2.0438   2.0638
     2.5482   2.5963   2.6789   2.7821   2.8636   2.9547   3.0569   3.1282
     3.1766   3.2835   3.9596   4.1021   4.1406   4.1415   4.3392   4.5201
     4.5472   4.6820   4.7197   4.7556   4.8986   5.0081   5.0310   5.1182
     5.2034   5.3089   5.3760   5.4627   5.5079   5.5720   5.8162   5.8374
     5.8982   5.9537   6.0461   6.0545   6.0841   6.2014   6.2841   6.3079
     6.5883   6.6109   6.6636   6.7345   6.7400   6.8429   6.9322   6.9601
     6.9620   7.0772   7.0777   7.0973   7.2501   7.2583   7.4018   7.4034
     7.4666   7.5410   7.9182   7.9296   8.0918   8.1567   8.1588   8.1654
    10.5603  10.5787  10.9980  11.1106  11.2409  11.3646  12.2287  12.3133
    12.4722  12.5444  12.6887  12.7206  12.8844  12.9678  13.0650  13.1758
    13.2055  13.3629  13.3979  13.5569  13.8742  13.9082  13.9701  14.0351
    14.9449  15.0901  15.2350  15.6052  15.7157  16.0049  16.1757  16.4745
    16.5794  17.2350  17.5079  17.6463  17.7517  17.9623

          k = 0.1667 0.0000-0.4970 ( 61616 PWs)   bands (ev):

   -65.7439 -65.7439 -65.7433 -65.7433 -65.7430 -65.7429 -65.7424 -65.7424
   -30.1959 -30.1959 -30.1887 -30.1886 -30.1431 -30.1431 -30.1302 -30.1302
   -30.0999 -30.0999 -30.0961 -30.0961 -30.0674 -30.0674 -30.0661 -30.0661
   -30.0582 -30.0582 -30.0464 -30.0463 -30.0065 -30.0065 -29.9990 -29.9990
   -19.8886 -19.8886 -19.8885 -19.8885 -19.8863 -19.8863 -19.8862 -19.8862
   -19.8761 -19.8761 -19.8756 -19.8756 -19.8750 -19.8750 -19.8748 -19.8748
   -19.8722 -19.8722 -19.8721 -19.8721 -19.8703 -19.8703 -19.8697 -19.8697
   -19.8665 -19.8665 -19.8655 -19.8655 -19.8654 -19.8654 -19.8646 -19.8646
   -19.8571 -19.8571 -19.8570 -19.8570 -19.8551 -19.8551 -19.8549 -19.8549
   -19.8345 -19.8344 -19.8344 -19.8344 -19.8335 -19.8335 -19.8334 -19.8334
   -19.8274 -19.8274 -19.8273 -19.8273 -19.8237 -19.8237 -19.8237 -19.8237
    -9.3942  -9.3942  -9.0057  -9.0057  -8.9870  -8.9870  -8.6026  -8.6026
    -8.3346  -8.3346  -8.3117  -8.3117  -8.2655  -8.2655  -8.2110  -8.2110
    -7.6676  -7.6676  -7.5899  -7.5899  -7.5524  -7.5524  -7.5294  -7.5294
     1.7322   1.7322   1.8147   1.8147   1.9817   1.9817   2.0718   2.0718
     2.8855   2.8855   3.2464   3.2464   3.3136   3.3136   3.4158   3.4158
     3.4898   3.4898   3.5979   3.5979   3.8316   3.8316   4.0192   4.0192
     4.0707   4.0707   4.6068   4.6068   4.8091   4.8091   5.1580   5.1580
     5.2271   5.2271   5.3135   5.3135   5.4535   5.4535   5.8495   5.8495
     5.9441   5.9441   6.0199   6.0199   6.1097   6.1097   6.2369   6.2369
     6.5282   6.5282   6.6699   6.6699   6.7721   6.7721   6.9604   6.9604
     7.0574   7.0574   7.1036   7.1036   7.1720   7.1720   7.7210   7.7210
     7.7525   7.7525   7.8311   7.8311   7.9114   7.9114   8.1544   8.1545
    10.5864  10.5864  11.6349  11.6349  11.7560  11.7560  11.9133  11.9133
    12.0788  12.0788  12.6590  12.6590  13.0589  13.0589  13.1073  13.1073
    13.2332  13.2332  13.5458  13.5458  13.6395  13.6395  13.9751  13.9752
    15.0443  15.0443  15.5279  15.5279  16.0350  16.0350  16.2722  16.2722
    16.9452  16.9452  17.9930  17.9930  18.1467  18.1467

          k = 0.1667 0.1595 0.0000 ( 61588 PWs)   bands (ev):

   -65.7443 -65.7438 -65.7434 -65.7434 -65.7429 -65.7429 -65.7425 -65.7420
   -30.1964 -30.1892 -30.1884 -30.1809 -30.1554 -30.1475 -30.1418 -30.1276
   -30.1221 -30.1219 -30.1089 -30.0989 -30.0917 -30.0830 -30.0805 -30.0638
   -30.0287 -30.0273 -30.0183 -30.0158 -30.0092 -30.0029 -29.9991 -29.9932
   -19.8888 -19.8886 -19.8881 -19.8880 -19.8868 -19.8867 -19.8860 -19.8859
   -19.8763 -19.8761 -19.8758 -19.8754 -19.8754 -19.8753 -19.8747 -19.8744
   -19.8729 -19.8726 -19.8714 -19.8711 -19.8710 -19.8705 -19.8694 -19.8691
   -19.8667 -19.8662 -19.8658 -19.8656 -19.8656 -19.8652 -19.8648 -19.8646
   -19.8573 -19.8571 -19.8570 -19.8569 -19.8553 -19.8551 -19.8550 -19.8548
   -19.8370 -19.8369 -19.8360 -19.8359 -19.8317 -19.8317 -19.8307 -19.8307
   -19.8280 -19.8279 -19.8268 -19.8267 -19.8244 -19.8243 -19.8231 -19.8231
    -9.6514  -9.3671  -9.2547  -9.1795  -8.9955  -8.8575  -8.8021  -8.7110
    -8.6849  -8.5927  -8.5758  -8.5357  -7.7849  -7.7005  -7.6818  -7.6541
    -7.6470  -7.6225  -7.5918  -7.5647  -7.5362  -7.5184  -7.4609  -7.4336
     1.6301   1.6344   1.6394   1.6405   1.8769   1.8898   1.9465   2.0546
     2.0729   2.1604   2.1799   2.3836   2.7032   2.7943   2.8745   2.9108
     3.0307   3.0606   4.1467   4.2460   4.3481   4.4849   4.5613   4.6796
     4.7663   4.9115   4.9586   5.0087   5.0890   5.2293   5.2711   5.4878
     5.5775   5.6421   5.6727   5.7369   5.7622   5.7986   5.8627   5.8993
     5.9838   6.0325   6.0726   6.0815   6.1209   6.1782   6.1839   6.3126
     6.4334   6.5332   6.6245   6.7044   6.8748   6.9096   6.9832   6.9923
     7.0083   7.0605   7.1050   7.1537   7.1566   7.1718   7.3135   7.3199
     7.4062   7.4164   7.9359   7.9547   8.0773   8.1247   8.2574   8.2701
    10.2520  10.2824  10.5950  10.6006  10.7826  10.8543  12.3078  12.5926
    12.6080  12.6579  12.7054  12.7270  12.7753  12.8540  12.9028  13.0785
    13.3611  13.4867  13.5648  13.5890  13.9361  13.9447  14.2403  14.2449
    14.9473  15.0820  15.2940  15.3265  15.7343  15.7359  16.1296  16.2616
    16.5643  16.8521  17.0190  17.5357  17.8187  17.8304

          k = 0.1667 0.1595 0.1657 ( 61596 PWs)   bands (ev):

   -65.7442 -65.7438 -65.7434 -65.7433 -65.7430 -65.7429 -65.7425 -65.7421
   -30.1957 -30.1889 -30.1884 -30.1814 -30.1534 -30.1448 -30.1423 -30.1282
   -30.1185 -30.1179 -30.1035 -30.0954 -30.0924 -30.0833 -30.0796 -30.0624
   -30.0335 -30.0321 -30.0239 -30.0208 -30.0088 -30.0025 -30.0008 -29.9945
   -19.8887 -19.8886 -19.8881 -19.8880 -19.8868 -19.8867 -19.8860 -19.8860
   -19.8763 -19.8760 -19.8759 -19.8754 -19.8753 -19.8752 -19.8747 -19.8744
   -19.8728 -19.8725 -19.8714 -19.8712 -19.8710 -19.8704 -19.8696 -19.8692
   -19.8667 -19.8663 -19.8657 -19.8656 -19.8655 -19.8652 -19.8648 -19.8646
   -19.8572 -19.8571 -19.8570 -19.8569 -19.8553 -19.8551 -19.8550 -19.8548
   -19.8367 -19.8366 -19.8357 -19.8356 -19.8321 -19.8321 -19.8311 -19.8311
   -19.8279 -19.8278 -19.8269 -19.8268 -19.8243 -19.8242 -19.8232 -19.8232
    -9.6026  -9.3079  -9.1975  -9.1942  -8.9108  -8.8736  -8.8116  -8.6731
    -8.6532  -8.5869  -8.5490  -8.5404  -7.7954  -7.7171  -7.7063  -7.6869
    -7.6544  -7.6461  -7.6410  -7.6269  -7.5862  -7.5514  -7.5366  -7.5176
     1.8073   1.8241   1.8529   1.8758   1.8885   1.8969   1.9547   2.0516
     2.1075   2.1753   2.2143   2.4270   2.7967   2.8904   2.9196   2.9574
     3.0563   3.1191   4.1553   4.2239   4.3567   4.4589   4.5789   4.6492
     4.6908   4.7296   4.8089   4.8607   4.9338   5.0377   5.2577   5.3760
     5.4742   5.4961   5.5970   5.6089   5.6901   5.7314   5.7481   5.8298
     5.9514   5.9708   6.0094   6.0509   6.0788   6.1127   6.3103   6.3664
     6.5661   6.5896   6.7653   6.7988   6.8726   6.8950   6.9428   6.9571
     7.0079   7.0275   7.0822   7.1017   7.1263   7.1688   7.2115   7.2642
     7.4249   7.4620   7.9448   7.9559   8.0856   8.1291   8.2179   8.2328
    10.4345  10.4811  10.7625  10.7912  10.8288  10.9237  12.3633  12.5398
    12.6070  12.6444  12.7126  12.7256  12.8428  12.8971  12.9032  13.0841
    13.2913  13.4213  13.4956  13.5707  13.9228  13.9663  14.1097  14.1554
    15.0135  15.2088  15.2946  15.4258  15.7873  15.7987  16.1887  16.4416
    16.5316  16.9800  17.1582  17.2474  17.8551  17.9112

          k = 0.1667 0.1595 0.3313 ( 61591 PWs)   bands (ev):

   -65.7441 -65.7436 -65.7436 -65.7431 -65.7431 -65.7427 -65.7427 -65.7422
   -30.1940 -30.1901 -30.1867 -30.1827 -30.1495 -30.1437 -30.1391 -30.1302
   -30.1086 -30.1081 -30.0948 -30.0887 -30.0872 -30.0841 -30.0727 -30.0576
   -30.0473 -30.0466 -30.0389 -30.0335 -30.0078 -30.0038 -30.0014 -29.9972
   -19.8886 -19.8885 -19.8883 -19.8881 -19.8866 -19.8865 -19.8862 -19.8861
   -19.8762 -19.8759 -19.8758 -19.8755 -19.8752 -19.8750 -19.8748 -19.8746
   -19.8725 -19.8723 -19.8716 -19.8715 -19.8708 -19.8702 -19.8699 -19.8695
   -19.8666 -19.8663 -19.8657 -19.8656 -19.8655 -19.8653 -19.8648 -19.8647
   -19.8572 -19.8571 -19.8570 -19.8569 -19.8552 -19.8550 -19.8550 -19.8549
   -19.8357 -19.8357 -19.8348 -19.8347 -19.8331 -19.8331 -19.8322 -19.8321
   -19.8277 -19.8276 -19.8271 -19.8270 -19.8240 -19.8240 -19.8234 -19.8234
    -9.4823  -9.2530  -9.1635  -9.0503  -8.9241  -8.8444  -8.6710  -8.5939
    -8.5545  -8.5387  -8.5241  -8.4457  -7.9946  -7.9822  -7.9207  -7.8812
    -7.7299  -7.7061  -7.6527  -7.6251  -7.6221  -7.6097  -7.5634  -7.5486
     1.8716   1.8811   1.9556   1.9731   2.0191   2.0357   2.1243   2.1749
     2.5477   2.6013   2.6824   2.7934   2.9395   3.0179   3.0827   3.1715
     3.2072   3.3508   3.9686   4.0788   4.1161   4.1388   4.3709   4.3999
     4.4755   4.5834   4.6626   4.7262   4.7858   4.9275   4.9672   5.0534
     5.0794   5.1870   5.2628   5.3555   5.4265   5.4986   5.6725   5.7993
     5.8473   5.8965   6.0277   6.0403   6.0477   6.0740   6.2156   6.2720
     6.5474   6.7012   6.7346   6.8158   6.8517   6.8682   6.9207   6.9779
     7.0073   7.0675   7.1155   7.1817   7.2493   7.2781   7.3947   7.4162
     7.4707   7.5338   7.9187   7.9267   8.0558   8.1071   8.1255   8.1286
    10.7222  10.7384  11.0262  11.1243  11.3341  11.4324  12.2318  12.3090
    12.4794  12.5454  12.7156  12.7532  12.8290  12.9052  12.9790  13.0650
    13.0895  13.3028  13.3792  13.5401  13.7898  13.8091  13.9730  14.0044
    15.1580  15.2722  15.5588  15.7069  15.9931  16.0903  16.1971  16.4459
    16.6852  17.2131  17.3916  17.5807  17.7156  18.0317

          k = 0.1667 0.1595-0.4970 ( 61610 PWs)   bands (ev):

   -65.7438 -65.7438 -65.7434 -65.7434 -65.7429 -65.7429 -65.7425 -65.7425
   -30.1920 -30.1919 -30.1845 -30.1845 -30.1461 -30.1461 -30.1338 -30.1338
   -30.0996 -30.0996 -30.0963 -30.0963 -30.0675 -30.0675 -30.0664 -30.0664
   -30.0578 -30.0578 -30.0477 -30.0477 -30.0061 -30.0061 -29.9996 -29.9996
   -19.8885 -19.8884 -19.8883 -19.8883 -19.8864 -19.8864 -19.8863 -19.8863
   -19.8760 -19.8760 -19.8757 -19.8757 -19.8750 -19.8750 -19.8748 -19.8748
   -19.8721 -19.8721 -19.8719 -19.8719 -19.8704 -19.8704 -19.8699 -19.8699
   -19.8665 -19.8665 -19.8656 -19.8656 -19.8654 -19.8654 -19.8647 -19.8647
   -19.8571 -19.8571 -19.8570 -19.8570 -19.8551 -19.8551 -19.8550 -19.8549
   -19.8345 -19.8344 -19.8344 -19.8344 -19.8335 -19.8335 -19.8334 -19.8334
   -19.8274 -19.8274 -19.8273 -19.8273 -19.8237 -19.8237 -19.8237 -19.8237
    -9.3507  -9.3507  -9.0184  -9.0184  -8.9172  -8.9172  -8.5712  -8.5712
    -8.3398  -8.3398  -8.3120  -8.3120  -8.2676  -8.2676  -8.2051  -8.2051
    -7.7214  -7.7214  -7.6383  -7.6383  -7.5972  -7.5972  -7.5784  -7.5784
     1.8763   1.8763   1.9733   1.9733   2.0305   2.0305   2.1710   2.1710
     2.9561   2.9561   3.2637   3.2637   3.3348   3.3348   3.4190   3.4190
     3.4904   3.4904   3.6267   3.6267   3.8203   3.8203   4.0329   4.0329
     4.1197   4.1197   4.5556   4.5556   4.6146   4.6146   4.9626   4.9626
     5.1118   5.1118   5.2663   5.2663   5.3516   5.3516   5.7477   5.7477
     5.9245   5.9245   5.9363   5.9363   6.0624   6.0624   6.1090   6.1090
     6.6436   6.6436   6.7897   6.7897   6.8322   6.8322   6.9522   6.9522
     7.0655   7.0655   7.1227   7.1227   7.2257   7.2257   7.7208   7.7208
     7.7497   7.7497   7.8099   7.8099   7.8814   7.8814   8.1225   8.1225
    10.7591  10.7591  11.6434  11.6434  11.7567  11.7567  11.9746  11.9746
    12.1257  12.1257  12.6843  12.6843  12.9332  12.9332  13.0530  13.0530
    13.2000  13.2000  13.4288  13.4288  13.5779  13.5780  13.9625  13.9625
    15.2403  15.2403  15.8804  15.8805  16.1388  16.1388  16.2579  16.2579
    16.9848  16.9848  17.8452  17.8452  18.1223  18.1223

          k = 0.1667 0.3190 0.0000 ( 61614 PWs)   bands (ev):

   -65.7442 -65.7439 -65.7433 -65.7433 -65.7430 -65.7430 -65.7424 -65.7421
   -30.1865 -30.1789 -30.1778 -30.1695 -30.1626 -30.1543 -30.1506 -30.1387
   -30.1223 -30.1223 -30.1082 -30.1028 -30.0901 -30.0846 -30.0790 -30.0689
   -30.0284 -30.0276 -30.0181 -30.0168 -30.0081 -30.0045 -29.9982 -29.9947
   -19.8883 -19.8882 -19.8876 -19.8875 -19.8872 -19.8871 -19.8864 -19.8863
   -19.8763 -19.8761 -19.8758 -19.8755 -19.8754 -19.8753 -19.8746 -19.8744
   -19.8725 -19.8722 -19.8715 -19.8710 -19.8707 -19.8706 -19.8697 -19.8695
   -19.8666 -19.8662 -19.8661 -19.8658 -19.8655 -19.8652 -19.8651 -19.8649
   -19.8572 -19.8571 -19.8570 -19.8569 -19.8553 -19.8551 -19.8549 -19.8549
   -19.8370 -19.8369 -19.8360 -19.8359 -19.8317 -19.8317 -19.8307 -19.8307
   -19.8280 -19.8279 -19.8268 -19.8267 -19.8243 -19.8243 -19.8231 -19.8231
    -9.5690  -9.4081  -9.1635  -9.0662  -9.0232  -8.8905  -8.7026  -8.6892
    -8.5893  -8.4584  -8.4497  -8.4282  -7.9860  -7.9331  -7.9184  -7.8978
    -7.6857  -7.6714  -7.5894  -7.5740  -7.5421  -7.5260  -7.4562  -7.4420
     1.6319   1.6352   1.6405   1.6419   1.9352   1.9454   2.0982   2.1511
     2.5706   2.6715   2.7271   2.7459   2.7754   2.8650   3.1355   3.1446
     3.2667   3.2932   3.7953   3.8059   4.0019   4.0147   4.3054   4.5690
     4.6579   4.7381   4.8107   4.8938   4.9725   5.0205   5.1283   5.1945
     5.2597   5.2694   5.5530   5.6021   5.6291   5.7700   5.8091   5.8650
     5.9462   5.9902   6.0124   6.0773   6.1548   6.1793   6.2581   6.3094
     6.4407   6.5170   6.5994   6.7322   6.8082   7.0078   7.0337   7.0676
     7.1167   7.1318   7.2173   7.2813   7.2846   7.2849   7.3551   7.3593
     7.4293   7.4681   7.8952   7.9437   7.9813   8.0116   8.0452   8.0772
    10.2777  10.2926  10.9935  11.0466  11.2323  11.2708  12.0391  12.2925
    12.3711  12.4306  12.6514  12.6757  12.6889  12.7186  12.9106  13.0449
    13.3923  13.5220  13.6008  13.6033  13.7785  13.8651  14.0066  14.0279
    15.3253  15.5647  15.6547  15.7115  15.8344  15.9564  16.0837  16.3339
    16.4510  17.1712  17.4185  17.5642  17.9616  17.9844

          k = 0.1667 0.3190 0.1657 ( 61625 PWs)   bands (ev):

   -65.7441 -65.7439 -65.7433 -65.7432 -65.7431 -65.7430 -65.7424 -65.7422
   -30.1857 -30.1784 -30.1778 -30.1700 -30.1610 -30.1524 -30.1511 -30.1392
   -30.1185 -30.1181 -30.1029 -30.0987 -30.0909 -30.0856 -30.0772 -30.0673
   -30.0332 -30.0324 -30.0237 -30.0220 -30.0077 -30.0041 -29.9997 -29.9962
   -19.8883 -19.8881 -19.8876 -19.8875 -19.8871 -19.8870 -19.8864 -19.8863
   -19.8762 -19.8761 -19.8758 -19.8755 -19.8753 -19.8752 -19.8747 -19.8745
   -19.8724 -19.8721 -19.8715 -19.8710 -19.8708 -19.8707 -19.8699 -19.8696
   -19.8666 -19.8662 -19.8660 -19.8658 -19.8655 -19.8652 -19.8651 -19.8649
   -19.8572 -19.8571 -19.8570 -19.8569 -19.8552 -19.8551 -19.8550 -19.8549
   -19.8366 -19.8366 -19.8357 -19.8356 -19.8321 -19.8321 -19.8311 -19.8311
   -19.8279 -19.8279 -19.8268 -19.8268 -19.8243 -19.8242 -19.8232 -19.8232
    -9.5165  -9.3498  -9.0926  -9.0846  -8.9393  -8.9074  -8.6680  -8.6574
    -8.5984  -8.4532  -8.4363  -8.4299  -7.9889  -7.9390  -7.9184  -7.9039
    -7.7126  -7.7021  -7.6535  -7.6472  -7.5867  -7.5703  -7.5408  -7.5256
     1.8124   1.8214   1.8819   1.8856   1.9415   1.9519   2.1426   2.2060
     2.5797   2.6718   2.7340   2.8123   2.8476   2.8962   3.1444   3.2261
     3.2641   3.3734   3.8092   3.8726   4.0050   4.0075   4.2852   4.5887
     4.6147   4.6672   4.7154   4.7616   4.8618   4.9652   5.0107   5.0639
     5.1135   5.2007   5.3922   5.4148   5.6070   5.6178   5.6279   5.6861
     5.8765   5.9032   5.9289   5.9670   6.0470   6.0524   6.3379   6.3578
     6.5947   6.6483   6.7433   6.7995   6.9385   6.9963   7.0114   7.0548
     7.0819   7.1206   7.1774   7.2022   7.2723   7.2918   7.3299   7.3616
     7.4757   7.4797   7.9052   7.9446   7.9729   8.0137   8.0227   8.0540
    10.4837  10.5059  11.1522  11.1785  11.2482  11.3093  12.1226  12.3338
    12.3879  12.4282  12.6304  12.6578  12.6861  12.7311  12.9653  13.0803
    13.3235  13.4270  13.5020  13.5507  13.7411  13.8610  13.8876  13.9678
    15.4377  15.6827  15.7622  15.7838  15.8521  16.0091  16.3438  16.4166
    16.4827  17.1397  17.4838  17.5959  17.6419  18.0457

          k = 0.1667 0.3190 0.3313 ( 61615 PWs)   bands (ev):

   -65.7440 -65.7437 -65.7435 -65.7432 -65.7431 -65.7428 -65.7426 -65.7423
   -30.1837 -30.1796 -30.1758 -30.1713 -30.1578 -30.1526 -30.1480 -30.1410
   -30.1084 -30.1082 -30.0936 -30.0897 -30.0879 -30.0858 -30.0706 -30.0620
   -30.0473 -30.0469 -30.0384 -30.0354 -30.0067 -30.0031 -30.0026 -29.9989
   -19.8881 -19.8880 -19.8878 -19.8877 -19.8870 -19.8869 -19.8866 -19.8865
   -19.8761 -19.8759 -19.8758 -19.8756 -19.8751 -19.8751 -19.8748 -19.8746
   -19.8721 -19.8719 -19.8713 -19.8711 -19.8711 -19.8707 -19.8702 -19.8699
   -19.8665 -19.8663 -19.8660 -19.8659 -19.8654 -19.8652 -19.8650 -19.8649
   -19.8572 -19.8571 -19.8570 -19.8570 -19.8552 -19.8551 -19.8550 -19.8549
   -19.8357 -19.8357 -19.8348 -19.8347 -19.8331 -19.8331 -19.8321 -19.8321
   -19.8277 -19.8276 -19.8271 -19.8270 -19.8240 -19.8240 -19.8234 -19.8234
    -9.3864  -9.2065  -9.1424  -8.9606  -8.9108  -8.7027  -8.6352  -8.5621
    -8.5429  -8.4466  -8.4264  -8.3676  -8.0594  -8.0151  -7.9757  -7.9354
    -7.9098  -7.8825  -7.8703  -7.8000  -7.6418  -7.6258  -7.5734  -7.5576
     1.9438   1.9577   1.9690   1.9799   2.4520   2.5181   2.5450   2.6106
     2.6845   2.7216   2.7440   2.9241   3.0925   3.1389   3.1835   3.2543
     3.4523   3.5693   3.8440   3.9010   3.9804   4.0174   4.0952   4.1689
     4.2978   4.4876   4.5273   4.6109   4.6365   4.7338   4.8377   4.9251
     4.9399   5.0502   5.0990   5.1394   5.1935   5.2841   5.3847   5.4276
     5.5680   5.5917   5.6785   5.8663   5.9872   6.0508   6.2484   6.2669
     6.7111   6.7842   6.8025   6.9071   6.9737   7.0112   7.1036   7.1310
     7.1761   7.2082   7.2482   7.2655   7.3195   7.3979   7.4119   7.4408
     7.4988   7.5214   7.8943   7.9033   7.9292   7.9507   7.9903   8.0041
    10.9815  11.0068  11.2556  11.3088  11.6060  11.6837  12.2110  12.2707
    12.3721  12.4341  12.4979  12.5723  12.7832  12.8429  12.8947  12.9356
    13.0284  13.2304  13.2797  13.5218  13.5299  13.6422  13.8488  13.8689
    15.5966  15.7182  15.9606  16.1744  16.2330  16.2816  16.3975  16.9190
    16.9867  17.0396  17.1711  17.7084  17.8188  17.8903

          k = 0.1667 0.3190-0.4970 ( 61620 PWs)   bands (ev):

   -65.7437 -65.7437 -65.7435 -65.7435 -65.7428 -65.7428 -65.7426 -65.7426
   -30.1815 -30.1815 -30.1734 -30.1734 -30.1548 -30.1548 -30.1439 -30.1439
   -30.0989 -30.0989 -30.0970 -30.0970 -30.0676 -30.0675 -30.0671 -30.0670
   -30.0566 -30.0566 -30.0509 -30.0509 -30.0050 -30.0050 -30.0013 -30.0013
   -19.8880 -19.8880 -19.8878 -19.8878 -19.8868 -19.8868 -19.8867 -19.8867
   -19.8760 -19.8760 -19.8757 -19.8757 -19.8749 -19.8749 -19.8748 -19.8748
   -19.8717 -19.8717 -19.8715 -19.8715 -19.8707 -19.8707 -19.8703 -19.8703
   -19.8664 -19.8664 -19.8659 -19.8659 -19.8653 -19.8653 -19.8649 -19.8649
   -19.8571 -19.8571 -19.8570 -19.8570 -19.8551 -19.8551 -19.8550 -19.8550
   -19.8344 -19.8344 -19.8344 -19.8344 -19.8335 -19.8335 -19.8335 -19.8334
   -19.8274 -19.8274 -19.8273 -19.8273 -19.8237 -19.8237 -19.8237 -19.8237
    -9.2452  -9.2452  -9.0590  -9.0590  -8.7275  -8.7275  -8.4727  -8.4727
    -8.3690  -8.3690  -8.3175  -8.3175  -8.2628  -8.2628  -8.1805  -8.1805
    -7.9330  -7.9330  -7.8780  -7.8780  -7.6079  -7.6079  -7.5915  -7.5915
     1.9629   1.9629   1.9778   1.9778   2.5887   2.5887   2.7113   2.7113
     3.1433   3.1433   3.3131   3.3131   3.3556   3.3556   3.4452   3.4452
     3.4898   3.4898   3.7157   3.7157   3.7704   3.7704   3.9722   3.9722
     4.2229   4.2229   4.2862   4.2862   4.3416   4.3416   4.5447   4.5447
     4.9789   4.9789   5.1078   5.1078   5.2558   5.2558   5.3055   5.3055
     5.3936   5.3936   5.7558   5.7558   6.0574   6.0574   6.0992   6.0992
     6.8088   6.8088   6.9207   6.9208   6.9757   6.9757   7.0443   7.0443
     7.2272   7.2272   7.2735   7.2735   7.3859   7.3859   7.7043   7.7043
     7.7270   7.7270   7.7455   7.7455   7.7995   7.7995   7.9844   7.9844
    11.2030  11.2030  11.6616  11.6616  11.7670  11.7670  12.1511  12.1511
    12.2838  12.2838  12.5374  12.5374  12.7251  12.7251  12.8733  12.8733
    13.1086  13.1086  13.1785  13.1785  13.5316  13.5316  13.8130  13.8130
    15.6818  15.6818  16.1492  16.1492  16.5539  16.5539  16.7688  16.7688
    17.1315  17.1315  17.5052  17.5052  18.0338  18.0338

          k = 0.1667-0.4785 0.0000 ( 61672 PWs)   bands (ev):

   -65.7441 -65.7441 -65.7432 -65.7431 -65.7431 -65.7431 -65.7422 -65.7422
   -30.1739 -30.1739 -30.1658 -30.1658 -30.1638 -30.1637 -30.1540 -30.1540
   -30.1224 -30.1224 -30.1063 -30.1063 -30.0876 -30.0875 -30.0746 -30.0746
   -30.0280 -30.0280 -30.0176 -30.0176 -30.0064 -30.0064 -29.9966 -29.9966
   -19.8877 -19.8877 -19.8876 -19.8876 -19.8870 -19.8869 -19.8869 -19.8868
   -19.8762 -19.8762 -19.8757 -19.8757 -19.8753 -19.8753 -19.8746 -19.8745
   -19.8720 -19.8720 -19.8716 -19.8716 -19.8702 -19.8702 -19.8701 -19.8700
   -19.8664 -19.8664 -19.8661 -19.8661 -19.8654 -19.8653 -19.8651 -19.8650
   -19.8572 -19.8572 -19.8570 -19.8569 -19.8552 -19.8552 -19.8549 -19.8549
   -19.8369 -19.8369 -19.8360 -19.8360 -19.8317 -19.8317 -19.8307 -19.8307
   -19.8280 -19.8280 -19.8267 -19.8267 -19.8243 -19.8243 -19.8231 -19.8231
    -9.4780  -9.4780  -9.0775  -9.0775  -8.9573  -8.9573  -8.6954  -8.6954
    -8.2888  -8.2887  -8.2321  -8.2321  -8.2092  -8.2092  -8.2055  -8.2055
    -7.6815  -7.6815  -7.5823  -7.5823  -7.5351  -7.5351  -7.4496  -7.4496
     1.6342   1.6342   1.6405   1.6405   1.9441   1.9441   2.1408   2.1408
     2.7471   2.7471   3.2083   3.2083   3.3262   3.3263   3.3950   3.3950
     3.4895   3.4895   3.5923   3.5923   3.8114   3.8114   3.9337   3.9337
     4.0209   4.0209   4.6846   4.6846   4.9169   4.9169   5.2846   5.2846
     5.3731   5.3731   5.4773   5.4773   5.5522   5.5522   5.7995   5.7995
     5.9640   5.9640   5.9892   5.9892   6.1692   6.1692   6.3054   6.3054
     6.5495   6.5495   6.5840   6.5840   6.8895   6.8895   7.0780   7.0780
     7.1574   7.1574   7.2814   7.2814   7.3791   7.3791   7.6407   7.6407
     7.6742   7.6742   7.7229   7.7229   7.7623   7.7624   7.9699   7.9699
    10.2905  10.2905  11.5348  11.5348  11.6130  11.6130  11.8378  11.8378
    11.9139  11.9139  12.6754  12.6754  12.6988  12.6988  12.9907  12.9907
    13.5231  13.5231  13.6251  13.6251  13.7575  13.7575  13.8299  13.8299
    15.7029  15.7029  15.7859  15.7859  15.9147  15.9147  16.2042  16.2042
    16.8395  16.8395  18.0348  18.0348  18.2277  18.2277

          k = 0.1667-0.4785 0.1657 ( 61622 PWs)   bands (ev):

   -65.7440 -65.7440 -65.7432 -65.7432 -65.7431 -65.7431 -65.7423 -65.7423
   -30.1728 -30.1728 -30.1648 -30.1646 -30.1641 -30.1639 -30.1545 -30.1545
   -30.1184 -30.1184 -30.1015 -30.1014 -30.0885 -30.0884 -30.0729 -30.0729
   -30.0329 -30.0328 -30.0231 -30.0230 -30.0060 -30.0060 -29.9981 -29.9981
   -19.8877 -19.8877 -19.8875 -19.8875 -19.8870 -19.8870 -19.8869 -19.8869
   -19.8761 -19.8761 -19.8757 -19.8757 -19.8753 -19.8753 -19.8746 -19.8746
   -19.8719 -19.8719 -19.8715 -19.8715 -19.8703 -19.8703 -19.8702 -19.8702
   -19.8664 -19.8664 -19.8661 -19.8661 -19.8653 -19.8653 -19.8651 -19.8651
   -19.8572 -19.8572 -19.8570 -19.8570 -19.8552 -19.8552 -19.8549 -19.8549
   -19.8366 -19.8366 -19.8356 -19.8356 -19.8321 -19.8321 -19.8311 -19.8311
   -19.8279 -19.8279 -19.8268 -19.8268 -19.8242 -19.8242 -19.8232 -19.8232
    -9.4219  -9.4218  -8.9977  -8.9971  -8.9754  -8.9752  -8.6625  -8.6625
    -8.2964  -8.2955  -8.2313  -8.2302  -8.2142  -8.2127  -8.2018  -8.1993
    -7.7103  -7.7089  -7.6522  -7.6521  -7.5800  -7.5799  -7.5343  -7.5340
     1.8134   1.8196   1.8834   1.8873   1.9492   1.9520   2.1924   2.1969
     2.8388   2.8420   3.2278   3.2301   3.3189   3.3590   3.3786   3.4056
[...]
    12.3905  12.3906  12.3906  12.3906  12.6025  12.6025  12.6025  12.6025
    13.3033  13.3034  13.3034  13.3034  13.5055  13.5055  13.5055  13.5055
    15.6687  15.6687  15.6687  15.6687  16.9594  16.9594  16.9594  16.9594
    17.6829  17.6829  17.6829  17.6829  17.9109  17.9109

          k =-0.5000 0.3190 0.0000 ( 61662 PWs)   bands (ev):

   -65.7437 -65.7437 -65.7435 -65.7435 -65.7428 -65.7428 -65.7426 -65.7426
   -30.1822 -30.1822 -30.1731 -30.1731 -30.1576 -30.1576 -30.1432 -30.1432
   -30.1131 -30.1131 -30.1099 -30.1099 -30.0545 -30.0545 -30.0533 -30.0533
   -30.0457 -30.0457 -30.0402 -30.0402 -30.0135 -30.0135 -30.0113 -30.0113
   -19.8882 -19.8882 -19.8875 -19.8875 -19.8871 -19.8871 -19.8863 -19.8863
   -19.8758 -19.8758 -19.8757 -19.8757 -19.8752 -19.8752 -19.8749 -19.8749
   -19.8724 -19.8724 -19.8714 -19.8714 -19.8706 -19.8706 -19.8697 -19.8697
   -19.8660 -19.8660 -19.8657 -19.8657 -19.8655 -19.8655 -19.8653 -19.8653
   -19.8562 -19.8562 -19.8561 -19.8561 -19.8559 -19.8559 -19.8559 -19.8559
   -19.8365 -19.8365 -19.8365 -19.8365 -19.8313 -19.8313 -19.8313 -19.8313
   -19.8262 -19.8262 -19.8261 -19.8261 -19.8250 -19.8250 -19.8250 -19.8250
    -9.3211  -9.3211  -9.1635  -9.1635  -8.7198  -8.7198  -8.5043  -8.5043
    -8.3238  -8.3237  -8.3038  -8.3038  -8.2428  -8.2428  -8.1596  -8.1596
    -7.9154  -7.9154  -7.8740  -7.8740  -7.5210  -7.5210  -7.5062  -7.5062
     1.6577   1.6577   1.6657   1.6657   2.5675   2.5675   2.7153   2.7154
     3.1772   3.1772   3.2134   3.2134   3.2935   3.2936   3.4273   3.4273
     3.5120   3.5120   3.6944   3.6944   3.8117   3.8117   3.9120   3.9120
     4.1635   4.1635   4.2647   4.2647   4.4876   4.4876   4.6331   4.6331
     5.0771   5.0771   5.1024   5.1024   5.3783   5.3783   5.5470   5.5470
     5.6943   5.6943   5.9560   5.9560   6.3564   6.3564   6.3917   6.3917
     6.6444   6.6444   6.7489   6.7489   6.7692   6.7692   6.9299   6.9299
     7.2242   7.2242   7.2580   7.2580   7.2872   7.2872   7.6476   7.6476
     7.6807   7.6807   7.8066   7.8066   7.8465   7.8465   8.0486   8.0486
    11.0204  11.0204  11.6060  11.6060  11.6939  11.6939  11.8757  11.8757
    12.3104  12.3104  12.5081  12.5081  12.8351  12.8351  13.0039  13.0039
    13.1304  13.1304  13.2960  13.2960  13.5922  13.5922  13.9914  13.9914
    15.4964  15.4964  15.8574  15.8574  16.4755  16.4755  16.7640  16.7640
    16.9076  16.9076  17.4805  17.4805  18.0452  18.0452

          k =-0.5000 0.3190 0.1657 ( 61620 PWs)   bands (ev):

   -65.7437 -65.7437 -65.7434 -65.7434 -65.7429 -65.7429 -65.7426 -65.7426
   -30.1813 -30.1813 -30.1735 -30.1735 -30.1558 -30.1558 -30.1438 -30.1438
   -30.1080 -30.1080 -30.1057 -30.1057 -30.0561 -30.0561 -30.0551 -30.0551
   -30.0453 -30.0453 -30.0396 -30.0396 -30.0183 -30.0183 -30.0155 -30.0155
   -19.8882 -19.8882 -19.8876 -19.8876 -19.8871 -19.8871 -19.8864 -19.8864
   -19.8758 -19.8758 -19.8756 -19.8756 -19.8752 -19.8752 -19.8750 -19.8750
   -19.8723 -19.8723 -19.8713 -19.8713 -19.8707 -19.8707 -19.8698 -19.8698
   -19.8660 -19.8660 -19.8658 -19.8658 -19.8655 -19.8655 -19.8653 -19.8653
   -19.8562 -19.8562 -19.8561 -19.8561 -19.8559 -19.8559 -19.8559 -19.8559
   -19.8362 -19.8362 -19.8361 -19.8361 -19.8317 -19.8317 -19.8317 -19.8317
   -19.8261 -19.8261 -19.8261 -19.8261 -19.8251 -19.8251 -19.8250 -19.8250
    -9.2552  -9.2552  -9.0853  -9.0853  -8.7351  -8.7351  -8.4848  -8.4848
    -8.3438  -8.3437  -8.2963  -8.2962  -8.2315  -8.2315  -8.1630  -8.1630
    -7.9128  -7.9128  -7.8791  -7.8791  -7.6325  -7.6325  -7.6167  -7.6167
     1.8999   1.8999   1.9100   1.9100   2.5764   2.5764   2.7008   2.7008
     3.2089   3.2090   3.2717   3.2717   3.3032   3.3032   3.4586   3.4586
     3.5322   3.5322   3.7405   3.7405   3.8434   3.8434   3.9653   3.9653
     4.1536   4.1537   4.2764   4.2764   4.4801   4.4801   4.6208   4.6208
     4.9439   4.9439   5.0545   5.0545   5.2474   5.2474   5.2946   5.2946
     5.4173   5.4173   5.7402   5.7403   6.0296   6.0296   6.0738   6.0738
     6.8143   6.8143   6.9690   6.9690   7.0109   7.0109   7.0494   7.0494
     7.1996   7.1996   7.2876   7.2876   7.3364   7.3364   7.6539   7.6539
     7.6923   7.6923   7.8141   7.8141   7.8485   7.8485   8.0255   8.0255
    11.1730  11.1730  11.6704  11.6704  11.7687  11.7687  11.9278  11.9278
    12.3314  12.3314  12.5464  12.5464  12.8250  12.8250  12.9700  12.9700
    13.1195  13.1195  13.2653  13.2653  13.4533  13.4533  13.8644  13.8644
    15.6914  15.6914  16.0820  16.0820  16.5373  16.5373  16.7612  16.7612
    16.9623  16.9623  17.5191  17.5191  17.9747  17.9747

          k =-0.5000 0.3190 0.3313 ( 61610 PWs)   bands (ev):

   -65.7435 -65.7435 -65.7432 -65.7432 -65.7430 -65.7430 -65.7428 -65.7428
   -30.1792 -30.1792 -30.1749 -30.1749 -30.1518 -30.1518 -30.1454 -30.1454
   -30.0941 -30.0941 -30.0936 -30.0936 -30.0623 -30.0623 -30.0621 -30.0621
   -30.0434 -30.0434 -30.0376 -30.0376 -30.0292 -30.0292 -30.0249 -30.0249
   -19.8881 -19.8881 -19.8877 -19.8877 -19.8869 -19.8869 -19.8865 -19.8865
   -19.8756 -19.8756 -19.8755 -19.8755 -19.8753 -19.8753 -19.8751 -19.8751
   -19.8720 -19.8720 -19.8713 -19.8713 -19.8708 -19.8708 -19.8701 -19.8701
   -19.8660 -19.8660 -19.8658 -19.8658 -19.8654 -19.8654 -19.8653 -19.8653
   -19.8562 -19.8562 -19.8561 -19.8561 -19.8559 -19.8559 -19.8559 -19.8559
   -19.8353 -19.8353 -19.8352 -19.8352 -19.8327 -19.8327 -19.8326 -19.8326
   -19.8259 -19.8259 -19.8258 -19.8258 -19.8253 -19.8253 -19.8252 -19.8252
    -9.0864  -9.0864  -8.8718  -8.8718  -8.7876  -8.7876  -8.4363  -8.4363
    -8.3903  -8.3903  -8.2708  -8.2708  -8.2080  -8.2080  -8.1687  -8.1687
    -7.9369  -7.9369  -7.9092  -7.9092  -7.8875  -7.8875  -7.8394  -7.8394
     2.4598   2.4598   2.5600   2.5600   2.6073   2.6073   2.7434   2.7434
     3.2545   3.2545   3.2912   3.2913   3.4306   3.4306   3.5092   3.5092
     3.6008   3.6008   3.8820   3.8820   3.9588   3.9588   4.0690   4.0690
     4.1299   4.1299   4.3093   4.3093   4.4245   4.4245   4.4596   4.4596
     4.6086   4.6086   4.7454   4.7454   4.9071   4.9071   5.0807   5.0807
     5.1651   5.1651   5.2771   5.2771   5.3109   5.3109   5.5648   5.5648
     7.0144   7.0145   7.0828   7.0828   7.1840   7.1840   7.2090   7.2090
     7.3713   7.3713   7.4686   7.4686   7.5113   7.5113   7.6670   7.6670
     7.7222   7.7222   7.8230   7.8230   7.8400   7.8400   7.9567   7.9567
    11.5749  11.5749  11.8636  11.8636  11.9866  11.9866  12.0399  12.0399
    12.4104  12.4104  12.6385  12.6385  12.6978  12.6978  12.7405  12.7405
    13.0516  13.0516  13.1425  13.1425  13.1641  13.1641  13.5373  13.5373
    16.2035  16.2035  16.5734  16.5734  16.7511  16.7511  16.8890  16.8890
    17.1628  17.1628  17.5797  17.5797  17.7880  17.7880

          k =-0.5000 0.3190-0.4970 ( 61604 PWs)   bands (ev):

   -65.7433 -65.7433 -65.7433 -65.7433 -65.7430 -65.7430 -65.7430 -65.7430
   -30.1769 -30.1769 -30.1769 -30.1769 -30.1481 -30.1481 -30.1481 -30.1481
   -30.0777 -30.0777 -30.0777 -30.0777 -30.0750 -30.0750 -30.0750 -30.0750
   -30.0390 -30.0390 -30.0390 -30.0390 -30.0328 -30.0328 -30.0328 -30.0328
   -19.8879 -19.8879 -19.8879 -19.8879 -19.8868 -19.8868 -19.8867 -19.8867
   -19.8755 -19.8755 -19.8755 -19.8754 -19.8753 -19.8752 -19.8752 -19.8752
   -19.8716 -19.8716 -19.8716 -19.8716 -19.8706 -19.8705 -19.8705 -19.8705
   -19.8659 -19.8659 -19.8659 -19.8659 -19.8654 -19.8654 -19.8654 -19.8653
   -19.8562 -19.8562 -19.8561 -19.8561 -19.8559 -19.8559 -19.8559 -19.8559
   -19.8341 -19.8340 -19.8340 -19.8340 -19.8339 -19.8339 -19.8339 -19.8339
   -19.8257 -19.8256 -19.8256 -19.8256 -19.8255 -19.8255 -19.8255 -19.8255
    -8.9037  -8.9037  -8.9037  -8.9037  -8.5998  -8.5998  -8.5998  -8.5998
    -8.2784  -8.2784  -8.2784  -8.2784  -8.1520  -8.1520  -8.1520  -8.1520
    -8.1160  -8.1160  -8.1160  -8.1160  -7.8845  -7.8845  -7.8845  -7.8845
     2.5953   2.5953   2.5953   2.5953   3.2030   3.2030   3.2030   3.2030
     3.3230   3.3230   3.3230   3.3230   3.4695   3.4695   3.4695   3.4695
     3.6503   3.6503   3.6503   3.6503   4.0476   4.0476   4.0476   4.0476
     4.2214   4.2214   4.2214   4.2214   4.3303   4.3303   4.3303   4.3303
     4.5673   4.5673   4.5673   4.5673   4.6883   4.6883   4.6883   4.6883
     4.9626   4.9626   4.9626   4.9626   5.3308   5.3308   5.3308   5.3308
     7.0836   7.0836   7.0836   7.0836   7.2153   7.2153   7.2153   7.2153
     7.5558   7.5558   7.5558   7.5558   7.6675   7.6675   7.6675   7.6675
     7.7637   7.7637   7.7637   7.7637   7.8733   7.8733   7.8733   7.8733
    11.9842  11.9842  11.9842  11.9842  12.1639  12.1639  12.1639  12.1639
    12.3847  12.3847  12.3847  12.3847  12.6604  12.6604  12.6604  12.6604
    12.9761  12.9761  12.9761  12.9761  13.2084  13.2084  13.2084  13.2084
    16.5331  16.5332  16.5332  16.5332  17.1117  17.1117  17.1117  17.1117
    17.5823  17.5823  17.5824  17.5824  17.9109  17.9109

          k =-0.5000-0.4785 0.0000 ( 61692 PWs)   bands (ev):

   -65.7436 -65.7436 -65.7436 -65.7436 -65.7427 -65.7427 -65.7427 -65.7427
   -30.1694 -30.1694 -30.1689 -30.1689 -30.1584 -30.1584 -30.1575 -30.1575
   -30.1123 -30.1123 -30.1118 -30.1118 -30.0541 -30.0541 -30.0535 -30.0535
   -30.0441 -30.0441 -30.0427 -30.0427 -30.0128 -30.0128 -30.0124 -30.0124
   -19.8877 -19.8877 -19.8876 -19.8876 -19.8869 -19.8869 -19.8869 -19.8869
   -19.8758 -19.8758 -19.8757 -19.8757 -19.8751 -19.8751 -19.8750 -19.8750
   -19.8719 -19.8719 -19.8718 -19.8718 -19.8702 -19.8702 -19.8701 -19.8701
   -19.8659 -19.8659 -19.8658 -19.8658 -19.8656 -19.8656 -19.8655 -19.8655
   -19.8562 -19.8562 -19.8562 -19.8562 -19.8559 -19.8559 -19.8559 -19.8559
   -19.8365 -19.8365 -19.8365 -19.8365 -19.8313 -19.8313 -19.8313 -19.8313
   -19.8262 -19.8262 -19.8262 -19.8261 -19.8250 -19.8250 -19.8250 -19.8250
    -9.2328  -9.2328  -9.2231  -9.2231  -8.4903  -8.4903  -8.4583  -8.4582
    -8.3740  -8.3740  -8.3454  -8.3454  -8.1864  -8.1864  -8.1190  -8.1190
    -8.1091  -8.1090  -8.0510  -8.0509  -7.5143  -7.5143  -7.5137  -7.5137
     1.6583   1.6583   1.6663   1.6663   3.1038   3.1038   3.2058   3.2058
     3.2482   3.2482   3.2627   3.2627   3.4539   3.4539   3.4956   3.4956
     3.5369   3.5369   3.6592   3.6593   3.6886   3.6886   3.8097   3.8097
     3.8106   3.8106   4.1553   4.1553   4.4746   4.4746   4.5625   4.5625
     4.5873   4.5873   4.6817   4.6817   5.4289   5.4289   5.4915   5.4915
     5.7185   5.7185   5.8005   5.8005   6.3804   6.3804   6.3917   6.3917
     6.7455   6.7455   6.7488   6.7488   6.7918   6.7918   6.8477   6.8477
     7.4134   7.4134   7.4349   7.4349   7.4984   7.4984   7.6344   7.6344
     7.7227   7.7227   7.7586   7.7586   7.7601   7.7601   7.8285   7.8285
    11.5477  11.5477  11.5632  11.5632  11.6675  11.6675  11.6832  11.6832
    12.5016  12.5016  12.5803  12.5803  12.6119  12.6119  12.7176  12.7176
    13.1708  13.1708  13.1800  13.1800  13.7102  13.7102  13.7741  13.7741
    15.7379  15.7379  15.7646  15.7646  16.9198  16.9198  17.0808  17.0808
    17.4628  17.4628  17.5530  17.5530  17.6437  17.6445

          k =-0.5000-0.4785 0.1657 ( 61632 PWs)   bands (ev):

   -65.7436 -65.7436 -65.7435 -65.7435 -65.7428 -65.7428 -65.7427 -65.7427
   -30.1682 -30.1682 -30.1676 -30.1676 -30.1589 -30.1589 -30.1580 -30.1580
   -30.1075 -30.1075 -30.1070 -30.1070 -30.0557 -30.0557 -30.0553 -30.0553
   -30.0435 -30.0435 -30.0421 -30.0421 -30.0174 -30.0174 -30.0169 -30.0169
   -19.8876 -19.8876 -19.8876 -19.8876 -19.8870 -19.8870 -19.8869 -19.8869
   -19.8758 -19.8758 -19.8756 -19.8756 -19.8752 -19.8752 -19.8750 -19.8750
   -19.8718 -19.8718 -19.8717 -19.8717 -19.8703 -19.8703 -19.8703 -19.8703
   -19.8659 -19.8658 -19.8658 -19.8658 -19.8656 -19.8655 -19.8655 -19.8655
   -19.8562 -19.8562 -19.8562 -19.8561 -19.8559 -19.8559 -19.8559 -19.8559
   -19.8362 -19.8362 -19.8362 -19.8362 -19.8317 -19.8317 -19.8317 -19.8317
   -19.8261 -19.8261 -19.8261 -19.8261 -19.8251 -19.8251 -19.8251 -19.8251
    -9.1594  -9.1594  -9.1486  -9.1486  -8.5104  -8.5104  -8.4781  -8.4781
    -8.3583  -8.3583  -8.3277  -8.3277  -8.1831  -8.1831  -8.1259  -8.1259
    -8.1018  -8.1018  -8.0540  -8.0540  -7.6256  -7.6256  -7.6254  -7.6254
     1.9023   1.9023   1.9122   1.9122   3.1212   3.1212   3.2295   3.2295
     3.2433   3.2433   3.2935   3.2935   3.4056   3.4056   3.5171   3.5171
     3.5930   3.5930   3.6971   3.6971   3.7489   3.7489   3.8132   3.8132
     3.8781   3.8781   4.1742   4.1742   4.4817   4.4817   4.5474   4.5474
     4.5871   4.5871   4.6674   4.6674   5.1281   5.1281   5.2904   5.2904
     5.4090   5.4090   5.5452   5.5452   6.0284   6.0284   6.0578   6.0578
     6.8825   6.8825   6.9684   6.9684   7.0450   7.0450   7.0861   7.0861
     7.4030   7.4030   7.4430   7.4430   7.5360   7.5360   7.6206   7.6206
     7.7044   7.7044   7.7360   7.7360   7.8003   7.8003   7.8316   7.8316
    11.6196  11.6196  11.6787  11.6787  11.7188  11.7188  11.8114  11.8114
    12.5146  12.5146  12.5859  12.5859  12.6049  12.6049  12.7327  12.7327
    13.0961  13.0961  13.1638  13.1638  13.5699  13.5699  13.6418  13.6418
    15.9653  15.9653  15.9980  15.9980  16.9769  16.9770  17.1359  17.1359
    17.4639  17.4639  17.5664  17.5664  17.6449  17.6449

          k =-0.5000-0.4785 0.3313 ( 61608 PWs)   bands (ev):

   -65.7434 -65.7434 -65.7434 -65.7434 -65.7429 -65.7429 -65.7429 -65.7429
   -30.1654 -30.1654 -30.1648 -30.1648 -30.1603 -30.1603 -30.1595 -30.1595
   -30.0942 -30.0942 -30.0938 -30.0938 -30.0623 -30.0623 -30.0621 -30.0621
   -30.0415 -30.0415 -30.0401 -30.0401 -30.0278 -30.0278 -30.0270 -30.0270
   -19.8875 -19.8875 -19.8875 -19.8875 -19.8871 -19.8871 -19.8871 -19.8871
   -19.8756 -19.8756 -19.8755 -19.8755 -19.8753 -19.8753 -19.8751 -19.8751
   -19.8715 -19.8715 -19.8714 -19.8714 -19.8707 -19.8707 -19.8706 -19.8706
   -19.8658 -19.8658 -19.8658 -19.8658 -19.8656 -19.8655 -19.8655 -19.8655
   -19.8562 -19.8562 -19.8561 -19.8561 -19.8559 -19.8559 -19.8559 -19.8559
   -19.8353 -19.8353 -19.8353 -19.8352 -19.8327 -19.8327 -19.8327 -19.8327
   -19.8259 -19.8259 -19.8259 -19.8259 -19.8253 -19.8253 -19.8253 -19.8253
    -8.9634  -8.9634  -8.9482  -8.9482  -8.5785  -8.5785  -8.5461  -8.5461
    -8.3038  -8.3038  -8.2723  -8.2723  -8.1751  -8.1750  -8.1364  -8.1364
    -8.0900  -8.0900  -8.0626  -8.0626  -7.8901  -7.8901  -7.8885  -7.8885
     2.5394   2.5394   2.5620   2.5620   3.1623   3.1624   3.2266   3.2266
     3.2708   3.2708   3.3581   3.3581   3.3857   3.3857   3.4951   3.4951
     3.6911   3.6911   3.7738   3.7738   3.8345   3.8345   3.8886   3.8886
     4.0963   4.0963   4.2377   4.2377   4.4610   4.4611   4.4779   4.4779
     4.5457   4.5457   4.6079   4.6079   4.7376   4.7376   4.8616   4.8616
     4.9409   4.9409   5.0762   5.0762   5.2766   5.2766   5.3240   5.3240
     7.1265   7.1265   7.2426   7.2426   7.3383   7.3383   7.3817   7.3817
     7.4276   7.4276   7.5001   7.5001   7.5789   7.5789   7.6096   7.6096
     7.6796   7.6796   7.7494   7.7494   7.8134   7.8134   7.8387   7.8387
    11.8530  11.8530  11.9134  11.9134  11.9937  11.9937  12.1215  12.1215
    12.5151  12.5151  12.5337  12.5337  12.6168  12.6168  12.7594  12.7594
    12.8397  12.8397  12.9692  12.9692  13.2191  13.2191  13.2990  13.2990
    16.6262  16.6262  16.6918  16.6918  17.1367  17.1367  17.2862  17.2863
    17.4406  17.4406  17.5854  17.5854  17.6468  17.6468

          k =-0.5000-0.4785-0.4970 ( 61664 PWs)   bands (ev):

   -65.7432 -65.7432 -65.7432 -65.7431 -65.7431 -65.7431 -65.7431 -65.7431
   -30.1627 -30.1627 -30.1626 -30.1626 -30.1618 -30.1618 -30.1617 -30.1617
   -30.0777 -30.0777 -30.0777 -30.0777 -30.0751 -30.0751 -30.0751 -30.0751
   -30.0375 -30.0375 -30.0375 -30.0375 -30.0349 -30.0348 -30.0348 -30.0348
   -19.8873 -19.8873 -19.8873 -19.8873 -19.8873 -19.8873 -19.8873 -19.8873
   -19.8754 -19.8754 -19.8754 -19.8754 -19.8753 -19.8753 -19.8753 -19.8753
   -19.8711 -19.8711 -19.8711 -19.8711 -19.8710 -19.8710 -19.8710 -19.8710
   -19.8658 -19.8658 -19.8658 -19.8658 -19.8656 -19.8655 -19.8655 -19.8655
   -19.8562 -19.8561 -19.8561 -19.8561 -19.8559 -19.8559 -19.8559 -19.8559
   -19.8341 -19.8340 -19.8340 -19.8340 -19.8339 -19.8339 -19.8339 -19.8339
   -19.8257 -19.8256 -19.8256 -19.8256 -19.8255 -19.8255 -19.8255 -19.8255
    -8.7342  -8.7342  -8.7342  -8.7342  -8.7025  -8.7025  -8.7025  -8.7025
    -8.1965  -8.1965  -8.1965  -8.1965  -8.1446  -8.1446  -8.1446  -8.1446
    -8.1156  -8.1156  -8.1156  -8.1156  -8.0721  -8.0721  -8.0721  -8.0721
     3.1086   3.1086   3.1086   3.1086   3.2092   3.2092   3.2092   3.2092
     3.3871   3.3871   3.3871   3.3871   3.5213   3.5213   3.5213   3.5213
     3.5769   3.5769   3.5769   3.5769   3.7829   3.7829   3.7829   3.7829
     4.3634   4.3634   4.3634   4.3634   4.3998   4.3998   4.3998   4.3998
     4.5677   4.5677   4.5677   4.5677   4.6525   4.6525   4.6525   4.6525
     4.7341   4.7341   4.7341   4.7341   4.8202   4.8202   4.8202   4.8202
     7.2594   7.2594   7.2594   7.2594   7.4541   7.4541   7.4541   7.4541
     7.5205   7.5205   7.5205   7.5205   7.5908   7.5908   7.5908   7.5908
     7.7403   7.7403   7.7403   7.7403   7.8263   7.8263   7.8263   7.8263
    12.1790  12.1790  12.1790  12.1790  12.2087  12.2087  12.2087  12.2087
    12.4586  12.4586  12.4586  12.4586  12.6549  12.6549  12.6549  12.6549
    12.8184  12.8184  12.8184  12.8184  12.9432  12.9432  12.9432  12.9432
    17.2120  17.2120  17.2120  17.2120  17.3290  17.3290  17.3291  17.3291
    17.5962  17.5962  17.5962  17.5962  17.6688  17.6688

     the Fermi energy is    10.4826 ev

!    total energy              =   -6260.35758280 Ry
     Harris-Foulkes estimate   =   -6260.35758280 Ry
     estimated scf accuracy    <          1.7E-09 Ry

     The total energy is the sum of the following terms:

     one-electron contribution =   -4669.53505157 Ry
     hartree contribution      =    2576.96680734 Ry
     xc contribution           =    -966.76683616 Ry
     ewald contribution        =   -3201.02247010 Ry
     smearing contrib. (-TS)   =      -0.00003231 Ry

     convergence has been achieved in  13 iterations

     Writing output data file Landau_17.save
 
     init_run     :     36.54s CPU     38.02s WALL (       1 calls)
     electrons    :   1547.37s CPU   1576.74s WALL (       1 calls)

     Called by init_run:
     wfcinit      :     33.17s CPU     34.52s WALL (       1 calls)
     potinit      :      1.37s CPU      1.40s WALL (       1 calls)

     Called by electrons:
     c_bands      :   1360.29s CPU   1387.73s WALL (      13 calls)
     sum_band     :    178.38s CPU    179.20s WALL (      13 calls)
     v_of_rho     :      1.69s CPU      1.72s WALL (      14 calls)
     mix_rho      :      2.24s CPU      2.74s WALL (      13 calls)

     Called by c_bands:
     init_us_2    :      9.26s CPU      9.60s WALL (      54 calls)
     cegterg      :   1070.06s CPU   1096.52s WALL (      26 calls)

     Called by sum_band:

     Called by *egterg:
     h_psi        :    829.88s CPU    833.04s WALL (     110 calls)
     g_psi        :      3.71s CPU      3.72s WALL (      82 calls)
     cdiaghg      :     13.04s CPU     13.08s WALL (     108 calls)

     Called by h_psi:
     h_psi:pot    :    824.80s CPU    827.76s WALL (     110 calls)
     h_psi:calbec :    103.38s CPU    105.42s WALL (     110 calls)
     vloc_psi     :    610.20s CPU    610.76s WALL (     110 calls)
     add_vuspsi   :    111.22s CPU    111.58s WALL (     110 calls)

     General routines
     calbec       :    103.38s CPU    105.42s WALL (     110 calls)
     fft          :      1.03s CPU      1.04s WALL (      56 calls)
     fftw         :    638.86s CPU    639.17s WALL (   34022 calls)
 
     Parallel routines
 
     PWSCF        : 26m28.48s CPU    27m 3.30s WALL

 
   This run was terminated on:  20:57:38  21Mar2020            

=------------------------------------------------------------------------------=
   JOB DONE.
=------------------------------------------------------------------------------=
