
     Program PWSCF v.6.2 (svn rev. 14038) starts on 17Sep2019 at 13:39:39 

     This program is part of the open-source Quantum ESPRESSO suite
     for quantum simulation of materials; please cite
         "P. Giannozzi et al., J. Phys.:Condens. Matter 21 395502 (2009);
         "P. Giannozzi et al., J. Phys.:Condens. Matter 29 465901 (2017);
          URL http://www.quantum-espresso.org", 
     in publications or presentations arising from this work. More details at
     http://www.quantum-espresso.org/quote

     Parallel version (MPI), running on    40 processors

     MPI processes distributed on     4 nodes
     K-points division:     npool     =      40
     Reading input from scf.in

     Current dimensions of program PWSCF are:
     Max number of different atomic species (ntypx) = 10
     Max number of k-points (npk) =  40000
     Max angular momentum in pseudopotentials (lmaxx) =  3

     Subspace diagonalization in iterative solution of the eigenvalue problem:
     a serial algorithm will be used

 
     G-vector sticks info
     --------------------
     sticks:   dense  smooth     PW     G-vecs:    dense   smooth      PW
     Sum        7653    7653   2055               493653   493653   68501
 


     bravais-lattice index     =            0
     lattice parameter (alat)  =      13.8609  a.u.
     unit-cell volume          =    2780.8582 (a.u.)^3
     number of atoms/cell      =           32
     number of atomic types    =            2
     number of electrons       =       368.84
     number of Kohn-Sham states=          221
     kinetic-energy cutoff     =     120.0000  Ry
     charge density cutoff     =     480.0000  Ry
     convergence threshold     =      1.0E-08
     mixing beta               =       0.7000
     number of iterations used =            8  plain     mixing
     Exchange-correlation      = SLA PW NOGX NOGC ( 1  4  0  0 0 0)

     celldm(1)=  13.860927  celldm(2)=   0.000000  celldm(3)=   0.000000
     celldm(4)=   0.000000  celldm(5)=   0.000000  celldm(6)=   0.000000

     crystal axes: (cart. coord. in units of alat)
               a(1) = (   1.000000   0.000000   0.000000 )  
               a(2) = (   0.000000   1.044244   0.000000 )  
               a(3) = (   0.000000   0.000000   1.000000 )  

     reciprocal axes: (cart. coord. in units 2 pi/alat)
               b(1) = (  1.000000  0.000000  0.000000 )  
               b(2) = (  0.000000  0.957631  0.000000 )  
               b(3) = (  0.000000  0.000000  1.000000 )  


     PseudoPot. # 1 for W  read from file:
     /cluster/scratch/mnoe/QE/pps/W_ONCV_LDA-4.0.upf
     MD5 check sum: ba0307d5d4cd419d6f1d13dc49d7c13a
     Pseudo is Norm-conserving + core correction, Zval = 28.0
     Generated using ONCVPSP code by D. R. Hamann
     Using radial grid of 1380 points,  8 beta functions with: 
                l(1) =   0
                l(2) =   0
                l(3) =   1
                l(4) =   1
                l(5) =   2
                l(6) =   2
                l(7) =   3
                l(8) =   3

     PseudoPot. # 2 for O  read from file:
     /cluster/scratch/mnoe/QE/pps/O_ONCV_LDA-3.0.upf
     MD5 check sum: ca1549d10c4e927e51167f6fca52ae32
     Pseudo is Norm-conserving + core correction, Zval =  6.0
     Generated using ONCVPSP code by D. R. Hamann
     Using radial grid of  926 points,  5 beta functions with: 
                l(1) =   0
                l(2) =   0
                l(3) =   1
                l(4) =   1
                l(5) =   2

     atomic species   valence    mass     pseudopotential
        W             28.00   183.84000     W ( 1.00)
        O              6.00    15.99940     O ( 1.00)

      8 Sym. Ops. (no inversion) found ( 4 have fractional translation)



   Cartesian axes

     site n.     atom                  positions (alat units)
         1           W   tau(   1) = (   0.2697800   0.2943306   0.2505600  )
         2           W   tau(   2) = (  -0.2505600   0.7499134  -0.7302200  )
         3           W   tau(   3) = (   0.2302200   0.2277914   0.7505600  )
         4           W   tau(   4) = (   0.7505600   0.8164526   0.7697800  )
         5           W   tau(   5) = (   0.7302200   0.2943306   0.7494400  )
         6           W   tau(   6) = (   0.2505600   0.7499134   0.7302200  )
         7           W   tau(   7) = (  -0.2302200   0.2277914  -0.7505600  )
         8           W   tau(   8) = (   0.2494400   0.8164526   0.2302200  )
         9           O   tau(   9) = (   0.2717600   0.0086881   0.2657800  )
        10           O   tau(  10) = (  -0.2657800   1.0355559  -0.7282400  )
        11           O   tau(  11) = (   0.2282400   0.5134339   0.7657800  )
        12           O   tau(  12) = (   0.7657800   0.5308101   0.7717600  )
        13           O   tau(  13) = (   0.7282400   0.0086881   0.7342200  )
        14           O   tau(  14) = (   0.2657800   1.0355559   0.7282400  )
        15           O   tau(  15) = (  -0.2282400   0.5134339  -0.7657800  )
        16           O   tau(  16) = (   0.2342200   0.5308101   0.2282400  )
        17           O   tau(  17) = (   0.4929999   0.2855485   0.6995400  )
        18           O   tau(  18) = (   0.4985600   0.7674670   0.8004600  )
        19           O   tau(  19) = (  -0.9930000   0.2365735   1.1995400  )
        20           O   tau(  20) = (   0.0014401   0.7988988   0.3004600  )
        21           O   tau(  21) = (   0.5070000   0.2855485   0.3004600  )
        22           O   tau(  22) = (   0.5014400   0.7674670   1.1995400  )
        23           O   tau(  23) = (  -0.0070000   0.2365735   0.8004600  )
        24           O   tau(  24) = (  -1.0014400   0.7988988   0.6995400  )
        25           O   tau(  25) = (   0.6995400   0.2453451   2.0014400  )
        26           O   tau(  26) = (   0.3004600   0.7586954   0.4930000  )
        27           O   tau(  27) = (   0.8004600   0.2767769   0.5014400  )
        28           O   tau(  28) = (   0.1995400   0.8076705   1.9929999  )
        29           O   tau(  29) = (   0.3004600   0.2453451   0.9985599  )
        30           O   tau(  30) = (   0.6995400   0.7586954   0.5070000  )
        31           O   tau(  31) = (   0.1995400   0.2767769   0.4985600  )
        32           O   tau(  32) = (   0.8004600   0.8076705   1.0070000  )

     number of k points=    40  gaussian smearing, width (Ry)=  0.0007
                       cart. coord. in units 2pi/alat
        k(    1) = (   0.0000000   0.0000000   0.0000000), wk =   0.0092593
        k(    2) = (   0.0000000   0.0000000   0.1666667), wk =   0.0370370
        k(    3) = (   0.0000000   0.0000000   0.3333333), wk =   0.0370370
        k(    4) = (   0.0000000   0.0000000  -0.5000000), wk =   0.0185185
        k(    5) = (   0.0000000   0.1596051   0.0000000), wk =   0.0185185
        k(    6) = (   0.0000000   0.1596051   0.1666667), wk =   0.0740741
        k(    7) = (   0.0000000   0.1596051   0.3333333), wk =   0.0740741
        k(    8) = (   0.0000000   0.1596051  -0.5000000), wk =   0.0370370
        k(    9) = (   0.0000000   0.3192102   0.0000000), wk =   0.0185185
        k(   10) = (   0.0000000   0.3192102   0.1666667), wk =   0.0740741
        k(   11) = (   0.0000000   0.3192102   0.3333333), wk =   0.0740741
        k(   12) = (   0.0000000   0.3192102  -0.5000000), wk =   0.0370370
        k(   13) = (   0.0000000  -0.4788153   0.0000000), wk =   0.0092593
        k(   14) = (   0.0000000  -0.4788153   0.1666667), wk =   0.0370370
        k(   15) = (   0.0000000  -0.4788153   0.3333333), wk =   0.0370370
        k(   16) = (   0.0000000  -0.4788153  -0.5000000), wk =   0.0185185
        k(   17) = (   0.1666667   0.0000000   0.1666667), wk =   0.0370370
        k(   18) = (   0.1666667   0.0000000   0.3333333), wk =   0.0740741
        k(   19) = (   0.1666667   0.0000000  -0.5000000), wk =   0.0370370
        k(   20) = (   0.1666667   0.1596051   0.1666667), wk =   0.0740741
        k(   21) = (   0.1666667   0.1596051   0.3333333), wk =   0.1481481
        k(   22) = (   0.1666667   0.1596051  -0.5000000), wk =   0.0740741
        k(   23) = (   0.1666667   0.3192102   0.1666667), wk =   0.0740741
        k(   24) = (   0.1666667   0.3192102   0.3333333), wk =   0.1481481
        k(   25) = (   0.1666667   0.3192102  -0.5000000), wk =   0.0740741
        k(   26) = (   0.1666667  -0.4788153   0.1666667), wk =   0.0370370
        k(   27) = (   0.1666667  -0.4788153   0.3333333), wk =   0.0740741
        k(   28) = (   0.1666667  -0.4788153  -0.5000000), wk =   0.0370370
        k(   29) = (   0.3333333   0.0000000   0.3333333), wk =   0.0370370
        k(   30) = (   0.3333333   0.0000000  -0.5000000), wk =   0.0370370
        k(   31) = (   0.3333333   0.1596051   0.3333333), wk =   0.0740741
        k(   32) = (   0.3333333   0.1596051  -0.5000000), wk =   0.0740741
        k(   33) = (   0.3333333   0.3192102   0.3333333), wk =   0.0740741
        k(   34) = (   0.3333333   0.3192102  -0.5000000), wk =   0.0740741
        k(   35) = (   0.3333333  -0.4788153   0.3333333), wk =   0.0370370
        k(   36) = (   0.3333333  -0.4788153  -0.5000000), wk =   0.0370370
        k(   37) = (  -0.5000000   0.0000000  -0.5000000), wk =   0.0092593
        k(   38) = (  -0.5000000   0.1596051  -0.5000000), wk =   0.0185185
        k(   39) = (  -0.5000000   0.3192102  -0.5000000), wk =   0.0185185
        k(   40) = (  -0.5000000  -0.4788153  -0.5000000), wk =   0.0092593

     Dense  grid:   493653 G-vectors     FFT dimensions: ( 100, 108, 100)

     Estimated max dynamical RAM per process >       2.69 GB

     Estimated total dynamical RAM >     107.78 GB

     Initial potential from superposition of free atoms

     starting charge  367.99656, renormalised to  368.84000
     Starting wfc are  232 randomized atomic wfcs

     total cpu time spent up to now is       24.2 secs

     Self-consistent Calculation

     iteration #  1     ecut=   120.00 Ry     beta= 0.70
     Davidson diagonalization with overlap
     ethr =  1.00E-02,  avg # of iterations =  5.2

     total cpu time spent up to now is      105.6 secs

     total energy              =   -6253.22171222 Ry
     Harris-Foulkes estimate   =   -6264.08063157 Ry
     estimated scf accuracy    <      13.65368764 Ry

     iteration #  2     ecut=   120.00 Ry     beta= 0.70
     Davidson diagonalization with overlap
     ethr =  3.70E-03,  avg # of iterations =  3.5

     total cpu time spent up to now is      185.5 secs

     total energy              =   -6250.24864611 Ry
     Harris-Foulkes estimate   =   -6270.00460118 Ry
     estimated scf accuracy    <      52.34085615 Ry

     iteration #  3     ecut=   120.00 Ry     beta= 0.70
     Davidson diagonalization with overlap
     ethr =  3.70E-03,  avg # of iterations =  3.5

     total cpu time spent up to now is      262.2 secs

     total energy              =   -6260.46866931 Ry
     Harris-Foulkes estimate   =   -6260.73310807 Ry
     estimated scf accuracy    <       0.88427230 Ry

     iteration #  4     ecut=   120.00 Ry     beta= 0.70
     Davidson diagonalization with overlap
     ethr =  2.40E-04,  avg # of iterations =  2.8

     total cpu time spent up to now is      325.8 secs

     total energy              =   -6260.46237013 Ry
     Harris-Foulkes estimate   =   -6260.53471261 Ry
     estimated scf accuracy    <       0.22674497 Ry

     iteration #  5     ecut=   120.00 Ry     beta= 0.70
     Davidson diagonalization with overlap
     ethr =  6.15E-05,  avg # of iterations =  5.2

     total cpu time spent up to now is      392.4 secs

     total energy              =   -6260.46416851 Ry
     Harris-Foulkes estimate   =   -6260.49485320 Ry
     estimated scf accuracy    <       0.06739840 Ry

     iteration #  6     ecut=   120.00 Ry     beta= 0.70
     Davidson diagonalization with overlap
     ethr =  1.83E-05,  avg # of iterations =  5.6

     total cpu time spent up to now is      463.3 secs

     total energy              =   -6260.47898041 Ry
     Harris-Foulkes estimate   =   -6260.48157479 Ry
     estimated scf accuracy    <       0.00676940 Ry

     iteration #  7     ecut=   120.00 Ry     beta= 0.70
     Davidson diagonalization with overlap
     ethr =  1.84E-06,  avg # of iterations =  5.7

     total cpu time spent up to now is      532.0 secs

     total energy              =   -6260.47986783 Ry
     Harris-Foulkes estimate   =   -6260.47995739 Ry
     estimated scf accuracy    <       0.00015962 Ry

     iteration #  8     ecut=   120.00 Ry     beta= 0.70
     Davidson diagonalization with overlap
     ethr =  4.33E-08,  avg # of iterations =  3.0

     total cpu time spent up to now is      615.2 secs

     total energy              =   -6260.47993707 Ry
     Harris-Foulkes estimate   =   -6260.47994939 Ry
     estimated scf accuracy    <       0.00004891 Ry

     iteration #  9     ecut=   120.00 Ry     beta= 0.70
     Davidson diagonalization with overlap
     ethr =  1.33E-08,  avg # of iterations =  1.0

     total cpu time spent up to now is      673.3 secs

     total energy              =   -6260.47993679 Ry
     Harris-Foulkes estimate   =   -6260.47994058 Ry
     estimated scf accuracy    <       0.00001635 Ry

     iteration # 10     ecut=   120.00 Ry     beta= 0.70
     Davidson diagonalization with overlap
     ethr =  4.43E-09,  avg # of iterations =  2.0

     total cpu time spent up to now is      732.9 secs

     total energy              =   -6260.47993600 Ry
     Harris-Foulkes estimate   =   -6260.47993816 Ry
     estimated scf accuracy    <       0.00000506 Ry

     iteration # 11     ecut=   120.00 Ry     beta= 0.70
     Davidson diagonalization with overlap
     ethr =  1.37E-09,  avg # of iterations =  3.0

     total cpu time spent up to now is      795.7 secs

     total energy              =   -6260.47993707 Ry
     Harris-Foulkes estimate   =   -6260.47993711 Ry
     estimated scf accuracy    <       0.00000009 Ry

     iteration # 12     ecut=   120.00 Ry     beta= 0.70
     Davidson diagonalization with overlap
     ethr =  2.54E-11,  avg # of iterations =  2.2

     total cpu time spent up to now is      874.1 secs

     total energy              =   -6260.47993709 Ry
     Harris-Foulkes estimate   =   -6260.47993710 Ry
     estimated scf accuracy    <       0.00000002 Ry

     iteration # 13     ecut=   120.00 Ry     beta= 0.70
     Davidson diagonalization with overlap
     ethr =  5.85E-12,  avg # of iterations =  2.7

     total cpu time spent up to now is      946.1 secs

     End of self-consistent calculation

          k = 0.0000 0.0000 0.0000 ( 61687 PWs)   bands (ev):

   -65.8179 -65.8174 -65.8169 -65.8169 -65.8164 -65.8164 -65.8159 -65.8154
   -30.2809 -30.2704 -30.2704 -30.2553 -30.2535 -30.2289 -30.2289 -30.2028
   -30.1991 -30.1743 -30.1743 -30.1615 -30.1364 -30.1363 -30.1354 -30.1337
   -30.1194 -30.1087 -30.1074 -30.1073 -30.0403 -30.0403 -30.0355 -30.0340
   -19.9598 -19.9593 -19.9593 -19.9587 -19.9583 -19.9578 -19.9578 -19.9575
   -19.9568 -19.9566 -19.9566 -19.9564 -19.9535 -19.9531 -19.9531 -19.9526
   -19.9476 -19.9468 -19.9468 -19.9466 -19.9461 -19.9461 -19.9457 -19.9451
   -19.9448 -19.9445 -19.9436 -19.9436 -19.9431 -19.9430 -19.9426 -19.9420
   -19.9345 -19.9342 -19.9335 -19.9335 -19.9331 -19.9331 -19.9324 -19.9321
   -19.9121 -19.9120 -19.9109 -19.9109 -19.9090 -19.9090 -19.9086 -19.9086
   -19.9065 -19.9064 -19.9064 -19.9064 -19.9037 -19.9037 -19.9022 -19.9022
    -9.7724  -9.4588  -9.3344  -9.3344  -8.9908  -8.9908  -8.9055  -8.7893
    -8.7803  -8.6717  -8.6352  -8.6352  -7.7635  -7.6896  -7.6306  -7.6306
    -7.6203  -7.5466  -7.5331  -7.5201  -7.5201  -7.5182  -7.3779  -7.3779
     1.4927   1.5109   1.5391   1.5391   1.6315   1.6541   1.6541   1.8123
     1.8498   1.8498   1.9274   2.1193   2.5716   2.6698   2.6829   2.7778
     2.8868   2.8868   4.3367   4.3367   4.6154   4.6203   4.8227   4.9606
     4.9606   4.9978   5.0192   5.0192   5.2627   5.2627   5.3867   5.5670
     5.5779   5.6641   5.6641   5.7695   5.7695   5.8901   5.8901   5.9233
     6.0065   6.0156   6.0156   6.0276   6.0391   6.1215   6.1388   6.2946
     6.3167   6.4900   6.5272   6.6545   6.6546   6.8246   7.0080   7.0080
     7.0451   7.0510   7.0802   7.2097   7.2097   7.2230   7.3552   7.3552
     7.6210   7.6210   7.9013   7.9243   8.1738   8.1873   8.1873   8.3071
     9.8457   9.8758  10.3299  10.3540  10.3568  10.3568  12.4746  12.4746
    12.5221  12.5221  12.7407  12.7841  12.8067  12.8067  12.9541  12.9626
    13.3640  13.5358  13.5358  13.5777  13.9041  14.1173  14.1173  14.3060
    14.6801  14.8914  14.8914  15.0201  15.6763  15.7047  15.8021  16.2241
    16.2241  16.9429  17.1821  17.1821  17.6251

          k = 0.0000 0.0000 0.1667 ( 61676 PWs)   bands (ev):

   -65.8178 -65.8173 -65.8170 -65.8168 -65.8165 -65.8163 -65.8160 -65.8155
   -30.2796 -30.2708 -30.2685 -30.2559 -30.2509 -30.2298 -30.2262 -30.2006
   -30.2001 -30.1753 -30.1721 -30.1606 -30.1375 -30.1342 -30.1326 -30.1273
   -30.1230 -30.1119 -30.1107 -30.1053 -30.0466 -30.0409 -30.0400 -30.0351
   -19.9597 -19.9594 -19.9593 -19.9587 -19.9584 -19.9579 -19.9578 -19.9575
   -19.9568 -19.9566 -19.9566 -19.9564 -19.9535 -19.9531 -19.9531 -19.9526
   -19.9476 -19.9469 -19.9468 -19.9466 -19.9461 -19.9460 -19.9457 -19.9450
   -19.9449 -19.9444 -19.9437 -19.9435 -19.9432 -19.9430 -19.9427 -19.9421
   -19.9344 -19.9342 -19.9335 -19.9334 -19.9332 -19.9331 -19.9325 -19.9322
   -19.9120 -19.9118 -19.9110 -19.9106 -19.9089 -19.9088 -19.9088 -19.9082
   -19.9068 -19.9066 -19.9066 -19.9062 -19.9041 -19.9036 -19.9025 -19.9023
    -9.7272  -9.4061  -9.3521  -9.2758  -9.0068  -8.9152  -8.9123  -8.7578
    -8.7450  -8.6501  -8.6408  -8.5988  -7.8321  -7.7203  -7.6915  -7.6426
    -7.6359  -7.6235  -7.5781  -7.5504  -7.5285  -7.5149  -7.4975  -7.3873
     1.5323   1.5386   1.6357   1.6570   1.6829   1.7067   1.8063   1.8442
     1.8464   1.9783   2.0866   2.2478   2.6552   2.7187   2.7602   2.8410
     2.8774   2.9780   4.2517   4.3305   4.5201   4.6117   4.6362   4.6425
     4.7248   4.9559   5.0039   5.0080   5.0176   5.2486   5.3640   5.4584
     5.5930   5.6394   5.6601   5.6809   5.7666   5.7729   5.8762   5.8827
     5.8930   5.9456   5.9901   6.0662   6.0947   6.1860   6.1898   6.3068
     6.3383   6.5548   6.6338   6.6922   6.8362   6.8851   6.8922   6.9079
     7.0165   7.0366   7.0376   7.1525   7.1571   7.2455   7.2509   7.2793
     7.4254   7.4831   7.9212   7.9365   8.1500   8.1561   8.2010   8.2936
    10.1129  10.1417  10.3540  10.3686  10.5676  10.6381  12.4130  12.4590
    12.5156  12.5833  12.7066  12.8069  12.8079  12.8453  12.9897  13.0156
    13.2717  13.4582  13.5418  13.5460  13.9354  14.0755  14.1169  14.2335
    14.6797  14.8857  14.9411  15.1228  15.7043  15.7334  15.7663  16.1909
    16.4961  16.9314  17.1018  17.3579  17.6981

          k = 0.0000 0.0000 0.3333 ( 61736 PWs)   bands (ev):

   -65.8177 -65.8172 -65.8171 -65.8167 -65.8166 -65.8162 -65.8162 -65.8157
   -30.2768 -30.2722 -30.2644 -30.2576 -30.2444 -30.2326 -30.2187 -30.2036
   -30.1940 -30.1787 -30.1649 -30.1572 -30.1421 -30.1351 -30.1323 -30.1239
   -30.1214 -30.1141 -30.1099 -30.0968 -30.0636 -30.0572 -30.0391 -30.0363
   -19.9596 -19.9594 -19.9591 -19.9586 -19.9585 -19.9581 -19.9578 -19.9576
   -19.9568 -19.9566 -19.9565 -19.9564 -19.9535 -19.9532 -19.9530 -19.9528
   -19.9474 -19.9470 -19.9465 -19.9464 -19.9462 -19.9459 -19.9457 -19.9451
   -19.9448 -19.9442 -19.9440 -19.9434 -19.9433 -19.9429 -19.9428 -19.9423
   -19.9342 -19.9339 -19.9337 -19.9334 -19.9332 -19.9329 -19.9327 -19.9324
   -19.9118 -19.9112 -19.9111 -19.9099 -19.9093 -19.9085 -19.9084 -19.9077
   -19.9072 -19.9072 -19.9070 -19.9056 -19.9049 -19.9034 -19.9034 -19.9026
    -9.6170  -9.4059  -9.2777  -9.1391  -9.0562  -8.9478  -8.7082  -8.6905
    -8.6558  -8.6316  -8.5257  -8.4625  -8.1001  -7.9864  -7.9293  -7.8312
    -7.6845  -7.6507  -7.6084  -7.5859  -7.5609  -7.5510  -7.4868  -7.4133
     1.5394   1.5451   1.6648   1.6771   1.7707   1.7941   1.8130   1.8420
     2.4696   2.5775   2.6839   2.7540   2.8064   2.8683   2.9054   3.0201
     3.0690   3.2225   3.9071   3.9928   4.0650   4.1444   4.2892   4.5083
     4.5857   4.6750   4.7587   4.8676   4.8799   4.9843   5.1606   5.2942
     5.3041   5.4028   5.5232   5.5524   5.6401   5.6795   5.8008   5.8790
     5.9185   5.9353   5.9925   6.1108   6.2103   6.2108   6.3189   6.3901
     6.4560   6.5140   6.5729   6.6609   6.7198   6.7271   6.8131   6.9077
     6.9740   7.0288   7.0323   7.1404   7.2098   7.2136   7.2564   7.3325
     7.4733   7.5222   7.8777   7.8986   8.0308   8.0646   8.2333   8.2695
    10.2986  10.3438  10.7346  10.8842  11.1170  11.2765  12.0760  12.1928
    12.3425  12.6303  12.6355  12.7737  12.8765  12.9229  12.9374  13.0537
    13.2144  13.3308  13.4001  13.5721  13.8355  13.9124  14.1179  14.1458
    14.7529  14.8676  15.1586  15.3876  15.6522  15.8705  16.0359  16.0727
    16.4423  17.2640  17.4947  17.6147  17.8899

          k = 0.0000 0.0000-0.5000 ( 61624 PWs)   bands (ev):

   -65.8174 -65.8174 -65.8169 -65.8169 -65.8164 -65.8164 -65.8159 -65.8159
   -30.2742 -30.2742 -30.2605 -30.2605 -30.2375 -30.2375 -30.2100 -30.2100
   -30.1853 -30.1853 -30.1523 -30.1523 -30.1495 -30.1495 -30.1287 -30.1287
   -30.1177 -30.1176 -30.0868 -30.0868 -30.0786 -30.0786 -30.0378 -30.0378
   -19.9595 -19.9595 -19.9588 -19.9588 -19.9583 -19.9583 -19.9577 -19.9577
   -19.9567 -19.9567 -19.9565 -19.9565 -19.9534 -19.9533 -19.9529 -19.9529
   -19.9472 -19.9472 -19.9463 -19.9463 -19.9462 -19.9462 -19.9454 -19.9454
   -19.9444 -19.9444 -19.9438 -19.9438 -19.9431 -19.9431 -19.9425 -19.9425
   -19.9340 -19.9339 -19.9337 -19.9337 -19.9329 -19.9329 -19.9326 -19.9326
   -19.9115 -19.9115 -19.9101 -19.9101 -19.9088 -19.9088 -19.9079 -19.9079
   -19.9077 -19.9077 -19.9061 -19.9061 -19.9046 -19.9046 -19.9030 -19.9030
    -9.4971  -9.4971  -9.1459  -9.1459  -9.0166  -9.0166  -8.6768  -8.6768
    -8.4165  -8.4165  -8.3546  -8.3546  -8.2620  -8.2620  -8.1840  -8.1840
    -7.6716  -7.6716  -7.5812  -7.5812  -7.5741  -7.5741  -7.4495  -7.4495
     1.5428   1.5428   1.6745   1.6745   1.7831   1.7831   1.8388   1.8388
     2.7930   2.7930   3.1557   3.1557   3.2860   3.2860   3.3331   3.3331
     3.4564   3.4564   3.5277   3.5278   3.7411   3.7411   3.9946   3.9946
     4.0217   4.0217   4.6880   4.6880   4.8265   4.8265   5.1682   5.1682
     5.4112   5.4112   5.5226   5.5227   5.5923   5.5923   5.8391   5.8391
     5.9717   5.9717   6.1320   6.1320   6.2116   6.2116   6.3524   6.3524
     6.4452   6.4452   6.5472   6.5472   6.6494   6.6494   6.7686   6.7686
     6.9732   6.9732   7.0273   7.0273   7.1776   7.1776   7.6451   7.6451
     7.6889   7.6889   7.8095   7.8095   7.8543   7.8543   8.2536   8.2536
    10.3254  10.3254  11.4502  11.4502  11.6175  11.6175  11.7614  11.7614
    12.0171  12.0171  12.7996  12.7996  12.9288  12.9288  13.0875  13.0875
    13.1419  13.1419  13.5331  13.5332  13.6778  13.6778  14.1259  14.1259
    14.8304  14.8304  15.4442  15.4442  15.7617  15.7617  16.0846  16.0846
    16.7663  16.7663  17.9872  17.9872  18.2563

          k = 0.0000 0.1596 0.0000 ( 61703 PWs)   bands (ev):

   -65.8179 -65.8174 -65.8169 -65.8169 -65.8164 -65.8164 -65.8159 -65.8155
   -30.2782 -30.2678 -30.2678 -30.2546 -30.2514 -30.2291 -30.2291 -30.2025
   -30.2009 -30.1760 -30.1760 -30.1650 -30.1368 -30.1368 -30.1353 -30.1338
   -30.1190 -30.1098 -30.1076 -30.1076 -30.0403 -30.0403 -30.0354 -30.0341
   -19.9596 -19.9593 -19.9592 -19.9588 -19.9582 -19.9578 -19.9578 -19.9575
   -19.9566 -19.9564 -19.9564 -19.9562 -19.9537 -19.9533 -19.9533 -19.9529
   -19.9476 -19.9468 -19.9468 -19.9467 -19.9461 -19.9461 -19.9456 -19.9451
   -19.9449 -19.9446 -19.9436 -19.9436 -19.9431 -19.9431 -19.9426 -19.9421
   -19.9345 -19.9343 -19.9335 -19.9335 -19.9332 -19.9332 -19.9324 -19.9321
   -19.9121 -19.9120 -19.9109 -19.9109 -19.9090 -19.9090 -19.9086 -19.9086
   -19.9065 -19.9064 -19.9064 -19.9064 -19.9037 -19.9037 -19.9022 -19.9022
    -9.7408  -9.4716  -9.2979  -9.2979  -8.9927  -8.9927  -8.8304  -8.7823
    -8.7794  -8.6340  -8.6017  -8.6017  -7.8130  -7.7183  -7.7182  -7.6903
    -7.6655  -7.6551  -7.5331  -7.5330  -7.5326  -7.5196  -7.3783  -7.3783
     1.4979   1.5094   1.5457   1.5457   1.6669   1.6669   1.7645   1.9269
     2.0002   2.0638   2.0638   2.2585   2.5792   2.6632   2.7552   2.8592
     2.9609   2.9609   4.2058   4.2058   4.3224   4.3271   4.7686   4.9472
     4.9472   5.0145   5.0146   5.0654   5.1861   5.1861   5.2806   5.5149
     5.5149   5.6883   5.6883   5.7010   5.7508   5.8250   5.8819   5.8819
     5.9271   5.9690   5.9895   6.0740   6.0740   6.1079   6.1903   6.2743
     6.2942   6.4859   6.5048   6.6951   6.6951   6.7842   7.0106   7.0106
     7.0439   7.0636   7.1095   7.1320   7.1724   7.1724   7.3547   7.3547
     7.6261   7.6261   7.9026   7.9220   8.1328   8.1591   8.1591   8.2300
     9.8597   9.8775  10.5169  10.5183  10.5183  10.5329  12.4303  12.4303
    12.4916  12.4916  12.6257  12.7171  12.7940  12.7940  12.8304  12.9579
    13.3898  13.5152  13.5152  13.5988  14.0153  14.0911  14.0911  14.2181
    14.7480  15.0675  15.0675  15.1978  15.6678  15.6977  16.1961  16.2002
    16.2002  16.6701  17.3162  17.3162  17.6758

          k = 0.0000 0.1596 0.1667 ( 61712 PWs)   bands (ev):

   -65.8178 -65.8174 -65.8169 -65.8168 -65.8165 -65.8164 -65.8160 -65.8155
   -30.2769 -30.2682 -30.2656 -30.2520 -30.2519 -30.2301 -30.2268 -30.2035
   -30.1988 -30.1769 -30.1737 -30.1640 -30.1381 -30.1342 -30.1330 -30.1274
   -30.1226 -30.1123 -30.1116 -30.1056 -30.0466 -30.0409 -30.0400 -30.0351
   -19.9596 -19.9593 -19.9592 -19.9587 -19.9583 -19.9579 -19.9578 -19.9576
   -19.9566 -19.9564 -19.9564 -19.9562 -19.9537 -19.9533 -19.9533 -19.9529
   -19.9475 -19.9469 -19.9467 -19.9466 -19.9461 -19.9460 -19.9457 -19.9450
   -19.9450 -19.9445 -19.9437 -19.9435 -19.9432 -19.9430 -19.9427 -19.9422
   -19.9344 -19.9342 -19.9335 -19.9334 -19.9332 -19.9331 -19.9325 -19.9322
   -19.9120 -19.9118 -19.9110 -19.9106 -19.9089 -19.9088 -19.9088 -19.9082
   -19.9068 -19.9066 -19.9066 -19.9062 -19.9041 -19.9036 -19.9025 -19.9023
    -9.6945  -9.4189  -9.3155  -9.2344  -9.0092  -8.9141  -8.8401  -8.7486
    -8.7421  -8.6181  -8.6070  -8.5704  -7.8497  -7.7606  -7.7325  -7.7223
    -7.6679  -7.6661  -7.6411  -7.6272  -7.5422  -7.5154  -7.4960  -7.3877
     1.5435   1.5466   1.6394   1.6722   1.7675   1.8383   1.8863   2.0090
     2.0583   2.0949   2.0985   2.3326   2.6655   2.7530   2.7913   2.9216
     2.9530   3.0508   4.1606   4.2097   4.3210   4.3678   4.5497   4.6263
     4.7187   4.8968   4.9870   4.9909   5.0133   5.1911   5.2386   5.4100
     5.4542   5.5657   5.6230   5.6836   5.7386   5.7424   5.8244   5.8326
     5.9024   5.9796   6.0008   6.0271   6.0489   6.1324   6.2170   6.2811
     6.3719   6.4979   6.6729   6.6803   6.7993   6.8985   6.9228   6.9703
     6.9900   7.0574   7.0896   7.1335   7.1605   7.2144   7.2328   7.2827
     7.4259   7.4904   7.9196   7.9350   8.1187   8.1243   8.1616   8.2201
    10.1327  10.1639  10.5163  10.5330  10.7182  10.7730  12.3901  12.4177
    12.4990  12.5336  12.6609  12.6935  12.7657  12.8360  12.8928  13.0015
    13.2746  13.4431  13.5181  13.5556  13.9703  14.0400  14.0914  14.1639
    14.8026  15.0617  15.1637  15.2790  15.6983  15.7299  16.1293  16.2004
    16.4703  16.8201  17.0601  17.4641  17.7455

          k = 0.0000 0.1596 0.3333 ( 61707 PWs)   bands (ev):

   -65.8176 -65.8172 -65.8171 -65.8167 -65.8166 -65.8162 -65.8161 -65.8157
   -30.2741 -30.2695 -30.2610 -30.2537 -30.2454 -30.2330 -30.2203 -30.2068
   -30.1927 -30.1797 -30.1660 -30.1602 -30.1432 -30.1352 -30.1323 -30.1245
   -30.1216 -30.1149 -30.1100 -30.0969 -30.0637 -30.0572 -30.0391 -30.0363
   -19.9595 -19.9593 -19.9590 -19.9586 -19.9584 -19.9581 -19.9578 -19.9576
   -19.9566 -19.9564 -19.9563 -19.9562 -19.9537 -19.9534 -19.9532 -19.9530
   -19.9474 -19.9470 -19.9465 -19.9465 -19.9462 -19.9459 -19.9458 -19.9452
   -19.9448 -19.9443 -19.9440 -19.9435 -19.9434 -19.9429 -19.9429 -19.9423
   -19.9342 -19.9340 -19.9337 -19.9334 -19.9332 -19.9329 -19.9327 -19.9324
   -19.9118 -19.9112 -19.9111 -19.9099 -19.9093 -19.9085 -19.9084 -19.9077
   -19.9072 -19.9072 -19.9070 -19.9056 -19.9049 -19.9034 -19.9034 -19.9026
    -9.5821  -9.3694  -9.2891  -9.0834  -9.0605  -8.8735  -8.6999  -8.6709
    -8.6318  -8.6201  -8.5163  -8.4487  -8.1020  -7.9921  -7.9329  -7.8454
    -7.7431  -7.7288  -7.6851  -7.6580  -7.6358  -7.5676  -7.4873  -7.4137
     1.5513   1.5644   1.6861   1.7092   1.9498   1.9735   2.0449   2.0603
     2.4722   2.5833   2.6894   2.8111   2.8336   2.9189   2.9339   3.0166
     3.1505   3.2871   3.9094   4.0009   4.0498   4.0941   4.3080   4.3845
     4.3922   4.5677   4.6779   4.7910   4.8469   4.9619   5.0394   5.1437
     5.2309   5.3275   5.3673   5.5102   5.5982   5.6187   5.6935   5.8192
     5.8928   5.9087   6.0104   6.0234   6.0785   6.1626   6.3114   6.4392
     6.4520   6.5025   6.6178   6.7440   6.8034   6.8237   6.8526   6.9558
     6.9715   7.0364   7.0574   7.1108   7.1715   7.2246   7.2718   7.3427
     7.4757   7.5252   7.8751   7.8979   8.0118   8.0378   8.1786   8.2027
    10.4739  10.5126  10.7516  10.8977  11.2252  11.3573  12.0757  12.1978
    12.3387  12.6175  12.6570  12.7309  12.7343  12.8827  12.9001  13.0187
    13.1052  13.3092  13.4012  13.5381  13.7473  13.8428  14.0923  14.1250
    14.9397  15.0438  15.4420  15.5175  15.8750  15.9889  16.0586  16.1248
    16.5468  17.2291  17.2877  17.5661  17.8986

          k = 0.0000 0.1596-0.5000 ( 61724 PWs)   bands (ev):

   -65.8174 -65.8174 -65.8169 -65.8169 -65.8164 -65.8164 -65.8160 -65.8159
   -30.2715 -30.2715 -30.2568 -30.2567 -30.2383 -30.2382 -30.2126 -30.2126
   -30.1851 -30.1851 -30.1533 -30.1533 -30.1511 -30.1511 -30.1287 -30.1287
   -30.1183 -30.1183 -30.0868 -30.0868 -30.0787 -30.0786 -30.0378 -30.0378
   -19.9594 -19.9594 -19.9587 -19.9587 -19.9583 -19.9583 -19.9577 -19.9577
   -19.9565 -19.9565 -19.9563 -19.9563 -19.9536 -19.9535 -19.9531 -19.9531
   -19.9472 -19.9472 -19.9464 -19.9463 -19.9462 -19.9462 -19.9455 -19.9455
   -19.9444 -19.9444 -19.9439 -19.9439 -19.9431 -19.9431 -19.9426 -19.9426
   -19.9339 -19.9339 -19.9337 -19.9337 -19.9329 -19.9329 -19.9326 -19.9326
   -19.9115 -19.9115 -19.9101 -19.9101 -19.9088 -19.9088 -19.9079 -19.9079
   -19.9077 -19.9077 -19.9061 -19.9061 -19.9046 -19.9046 -19.9030 -19.9030
    -9.4608  -9.4608  -9.1537  -9.1537  -8.9469  -8.9469  -8.6428  -8.6428
    -8.4163  -8.4162  -8.3581  -8.3581  -8.2616  -8.2616  -8.1837  -8.1837
    -7.7444  -7.7444  -7.6746  -7.6746  -7.6025  -7.6025  -7.4500  -7.4500
     1.5598   1.5598   1.7031   1.7031   1.9710   1.9710   2.0607   2.0607
     2.8655   2.8655   3.1692   3.1692   3.2826   3.2826   3.3726   3.3726
     3.4619   3.4619   3.5312   3.5312   3.7421   3.7421   4.0013   4.0013
     4.0640   4.0640   4.4595   4.4595   4.7539   4.7539   4.9661   4.9661
     5.2769   5.2769   5.4892   5.4892   5.5519   5.5519   5.7144   5.7144
     5.8870   5.8870   6.0255   6.0255   6.2045   6.2046   6.3414   6.3414
     6.5032   6.5032   6.6168   6.6168   6.7361   6.7361   6.8499   6.8499
     7.0075   7.0075   7.0297   7.0297   7.1501   7.1501   7.6503   7.6503
     7.6823   7.6823   7.8036   7.8036   7.8430   7.8430   8.1920   8.1920
    10.5026  10.5026  11.4601  11.4601  11.6226  11.6226  11.8256  11.8256
    12.0682  12.0682  12.7353  12.7353  12.8536  12.8536  13.0752  13.0752
    13.1032  13.1032  13.4247  13.4248  13.6226  13.6226  14.1007  14.1007
    15.0117  15.0117  15.7267  15.7267  15.9107  15.9107  16.1251  16.1251
    16.8068  16.8068  17.8037  17.8037  18.2188

          k = 0.0000 0.3192 0.0000 ( 61666 PWs)   bands (ev):

   -65.8178 -65.8175 -65.8168 -65.8168 -65.8165 -65.8165 -65.8158 -65.8155
   -30.2716 -30.2620 -30.2620 -30.2581 -30.2406 -30.2297 -30.2297 -30.2123
   -30.1949 -30.1800 -30.1800 -30.1741 -30.1377 -30.1377 -30.1350 -30.1341
   -30.1175 -30.1124 -30.1081 -30.1081 -30.0404 -30.0403 -30.0351 -30.0344
   -19.9594 -19.9591 -19.9591 -19.9589 -19.9579 -19.9578 -19.9578 -19.9576
   -19.9560 -19.9558 -19.9558 -19.9555 -19.9543 -19.9539 -19.9539 -19.9536
   -19.9474 -19.9469 -19.9467 -19.9467 -19.9462 -19.9462 -19.9455 -19.9451
   -19.9451 -19.9449 -19.9437 -19.9436 -19.9432 -19.9432 -19.9426 -19.9423
   -19.9344 -19.9343 -19.9334 -19.9334 -19.9332 -19.9332 -19.9324 -19.9322
   -19.9121 -19.9120 -19.9109 -19.9109 -19.9090 -19.9090 -19.9086 -19.9086
   -19.9065 -19.9064 -19.9064 -19.9064 -19.9037 -19.9037 -19.9022 -19.9022
    -9.6634  -9.5110  -9.2220  -9.2220  -8.9980  -8.9980  -8.7773  -8.7756
    -8.6187  -8.5008  -8.4831  -8.4830  -8.0250  -7.9640  -7.9640  -7.9317
    -7.6925  -7.6921  -7.5396  -7.5396  -7.5307  -7.5232  -7.3790  -7.3790
     1.5008   1.5062   1.5490   1.5491   1.6734   1.6734   1.8886   1.9246
     2.5277   2.5971   2.6452   2.6759   2.6759   2.8451   2.9644   3.1226
     3.1879   3.1879   3.8181   3.8504   3.8610   3.8610   4.2995   4.6733
     4.6733   4.9391   4.9548   4.9548   5.0255   5.0255   5.2356   5.2845
     5.2845   5.2846   5.6083   5.6083   5.7228   5.7373   5.9188   5.9188
     5.9212   5.9470   6.0547   6.0547   6.0615   6.1995   6.2644   6.2723
     6.3290   6.4405   6.4617   6.6604   6.7337   6.7337   7.0488   7.0488
     7.0524   7.1039   7.2487   7.2497   7.2831   7.2831   7.3653   7.3653
     7.6359   7.6360   7.8801   7.9077   7.9854   8.0133   8.0170   8.0170
     9.8756   9.8805  10.9600  10.9600  10.9746  11.0452  12.1082  12.1082
    12.2004  12.3252  12.5001  12.5002  12.7879  12.7879  12.8268  12.9448
    13.4834  13.5433  13.5433  13.6494  13.9193  13.9193  13.9493  14.0179
    15.0710  15.4964  15.4964  15.6432  15.6798  15.8677  16.1192  16.1193
    16.1538  17.1494  17.4261  17.7791  17.7791

          k = 0.0000 0.3192 0.1667 ( 61729 PWs)   bands (ev):

   -65.8177 -65.8175 -65.8169 -65.8167 -65.8166 -65.8165 -65.8159 -65.8156
   -30.2701 -30.2624 -30.2591 -30.2556 -30.2413 -30.2308 -30.2285 -30.2132
   -30.1932 -30.1805 -30.1773 -30.1728 -30.1392 -30.1342 -30.1338 -30.1276
   -30.1215 -30.1143 -30.1125 -30.1060 -30.0466 -30.0409 -30.0400 -30.0352
   -19.9593 -19.9591 -19.9590 -19.9588 -19.9580 -19.9579 -19.9578 -19.9576
   -19.9560 -19.9558 -19.9558 -19.9556 -19.9543 -19.9540 -19.9539 -19.9536
   -19.9473 -19.9468 -19.9468 -19.9466 -19.9462 -19.9462 -19.9455 -19.9452
   -19.9450 -19.9448 -19.9438 -19.9436 -19.9434 -19.9432 -19.9426 -19.9423
   -19.9344 -19.9342 -19.9335 -19.9333 -19.9333 -19.9331 -19.9324 -19.9323
   -19.9120 -19.9118 -19.9110 -19.9106 -19.9089 -19.9088 -19.9088 -19.9082
   -19.9068 -19.9066 -19.9066 -19.9062 -19.9041 -19.9036 -19.9025 -19.9023
    -9.6148  -9.4581  -9.2391  -9.1467  -9.0162  -8.9195  -8.7451  -8.7321
    -8.6281  -8.4931  -8.4881  -8.4646  -8.0270  -7.9729  -7.9615  -7.9393
    -7.7999  -7.6839  -7.6585  -7.6380  -7.5491  -7.5164  -7.4964  -7.3884
     1.5466   1.5504   1.6391   1.6795   1.7865   1.9117   2.0143   2.1079
     2.5350   2.6545   2.6707   2.6962   2.7352   2.8369   3.0098   3.1614
     3.2004   3.2763   3.8281   3.8433   3.8728   3.9320   4.2774   4.5789
     4.5860   4.6854   4.7172   4.9188   4.9367   4.9872   5.0776   5.0989
     5.2691   5.2749   5.3869   5.5506   5.5687   5.7020   5.7522   5.8376
     5.8824   5.9360   5.9596   5.9975   6.0668   6.1836   6.2502   6.2847
     6.4404   6.4640   6.6389   6.7081   6.7568   6.9257   7.0262   7.0908
     7.1198   7.1316   7.1764   7.2003   7.2576   7.2756   7.3083   7.3350
     7.4424   7.5105   7.8859   7.9184   7.9838   7.9960   8.0061   8.0155
    10.1488  10.1872  10.9622  10.9975  11.1221  11.1840  12.0987  12.1861
    12.2338  12.3663  12.4331  12.5622  12.6851  12.8283  12.8937  12.9996
    13.3470  13.4535  13.5421  13.5859  13.7938  13.8841  13.9178  13.9995
    15.1865  15.4843  15.6217  15.6862  15.7579  15.9253  16.0905  16.3062
    16.3865  17.1137  17.4353  17.5232  17.8691

          k = 0.0000 0.3192 0.3333 ( 61758 PWs)   bands (ev):

   -65.8175 -65.8173 -65.8170 -65.8168 -65.8165 -65.8163 -65.8160 -65.8158
   -30.2674 -30.2635 -30.2528 -30.2485 -30.2433 -30.2343 -30.2250 -30.2158
   -30.1888 -30.1820 -30.1687 -30.1674 -30.1452 -30.1352 -30.1323 -30.1256
   -30.1219 -30.1165 -30.1101 -30.0970 -30.0637 -30.0573 -30.0391 -30.0364
   -19.9592 -19.9591 -19.9588 -19.9587 -19.9582 -19.9581 -19.9578 -19.9577
   -19.9560 -19.9558 -19.9557 -19.9556 -19.9543 -19.9541 -19.9539 -19.9537
   -19.9472 -19.9469 -19.9467 -19.9464 -19.9463 -19.9459 -19.9457 -19.9453
   -19.9448 -19.9445 -19.9440 -19.9437 -19.9434 -19.9430 -19.9428 -19.9425
   -19.9342 -19.9340 -19.9336 -19.9335 -19.9331 -19.9329 -19.9326 -19.9324
   -19.9118 -19.9112 -19.9111 -19.9099 -19.9093 -19.9085 -19.9084 -19.9077
   -19.9072 -19.9072 -19.9070 -19.9056 -19.9049 -19.9034 -19.9034 -19.9026
    -9.4992  -9.3245  -9.2906  -9.0732  -8.9520  -8.7062  -8.6625  -8.6386
    -8.6039  -8.5032  -8.4500  -8.3878  -8.1247  -8.0628  -7.9936  -7.9741
    -7.9490  -7.9050  -7.8829  -7.7848  -7.6456  -7.5753  -7.4882  -7.4145
     1.5566   1.5714   1.6957   1.7196   2.3822   2.4784   2.4955   2.5970
     2.6657   2.7050   2.7309   2.9143   2.9515   2.9898   3.0701   3.1597
     3.3929   3.4760   3.8010   3.8234   3.9044   3.9903   4.0275   4.0838
     4.2446   4.4308   4.5451   4.6223   4.6541   4.7484   4.7754   4.9082
     5.0285   5.0856   5.1963   5.2699   5.3443   5.4119   5.4819   5.5552
     5.6088   5.7809   5.8269   5.9753   6.1575   6.2393   6.3216   6.4634
     6.5304   6.5753   6.6843   6.8133   6.8433   6.9446   6.9903   7.0495
     7.1115   7.1382   7.1938   7.2153   7.2404   7.2804   7.3270   7.4029
     7.4987   7.5406   7.8363   7.8946   7.9117   7.9403   7.9962   8.0076
    10.7543  10.8257  10.9712  11.0523  11.5289  11.6232  12.0244  12.1320
    12.2696  12.3004  12.4587  12.5250  12.7436  12.8011  12.8163  12.9795
    13.0564  13.2145  13.4053  13.5008  13.5476  13.7255  13.9164  13.9615
    15.3244  15.4489  15.7358  15.9888  16.1021  16.1579  16.2371  16.7808
    16.9591  16.9966  17.1257  17.6877  17.7380

          k = 0.0000 0.3192-0.5000 ( 61756 PWs)   bands (ev):

   -65.8173 -65.8173 -65.8170 -65.8170 -65.8163 -65.8163 -65.8160 -65.8160
   -30.2652 -30.2652 -30.2470 -30.2470 -30.2404 -30.2404 -30.2201 -30.2201
   -30.1846 -30.1846 -30.1571 -30.1571 -30.1530 -30.1530 -30.1288 -30.1288
   -30.1196 -30.1196 -30.0869 -30.0869 -30.0787 -30.0787 -30.0378 -30.0378
   -19.9592 -19.9592 -19.9585 -19.9585 -19.9584 -19.9584 -19.9578 -19.9577
   -19.9559 -19.9559 -19.9557 -19.9557 -19.9542 -19.9542 -19.9538 -19.9538
   -19.9470 -19.9470 -19.9465 -19.9465 -19.9460 -19.9460 -19.9456 -19.9456
   -19.9444 -19.9444 -19.9441 -19.9441 -19.9431 -19.9431 -19.9428 -19.9428
   -19.9339 -19.9339 -19.9337 -19.9337 -19.9329 -19.9329 -19.9327 -19.9327
   -19.9115 -19.9115 -19.9101 -19.9101 -19.9088 -19.9088 -19.9079 -19.9079
   -19.9077 -19.9077 -19.9061 -19.9061 -19.9046 -19.9046 -19.9030 -19.9030
    -9.3792  -9.3792  -9.1771  -9.1770  -8.7577  -8.7577  -8.5373  -8.5373
    -8.4163  -8.4163  -8.3766  -8.3766  -8.2578  -8.2578  -8.1809  -8.1809
    -7.9641  -7.9640  -7.9132  -7.9132  -7.6116  -7.6116  -7.4508  -7.4508
     1.5667   1.5667   1.7147   1.7147   2.5341   2.5341   2.6825   2.6825
     3.0763   3.0763   3.2058   3.2058   3.2670   3.2670   3.4381   3.4381
     3.4763   3.4763   3.5556   3.5556   3.7380   3.7381   3.8722   3.8722
     4.1509   4.1509   4.2413   4.2413   4.3927   4.3928   4.5443   4.5443
     5.0300   5.0300   5.1332   5.1332   5.3252   5.3252   5.4798   5.4798
     5.6303   5.6303   5.9071   5.9071   6.2985   6.2985   6.3541   6.3541
     6.6101   6.6101   6.7168   6.7168   6.7731   6.7731   6.9301   6.9301
     7.2092   7.2092   7.2230   7.2230   7.2483   7.2483   7.6399   7.6400
     7.6752   7.6752   7.7588   7.7588   7.7951   7.7951   7.9989   7.9990
    10.9646  10.9646  11.4811  11.4811  11.6309  11.6309  11.9586  11.9586
    12.2368  12.2368  12.4175  12.4175  12.7884  12.7884  12.8655  12.8655
    13.0731  13.0731  13.2224  13.2224  13.5912  13.5912  13.9261  13.9261
    15.3926  15.3926  15.8710  15.8710  16.4633  16.4633  16.7133  16.7133
    16.9590  16.9590  17.4465  17.4465  18.0411

          k = 0.0000-0.4788 0.0000 ( 61674 PWs)   bands (ev):

   -65.8177 -65.8176 -65.8167 -65.8167 -65.8166 -65.8166 -65.8157 -65.8157
   -30.2641 -30.2641 -30.2587 -30.2587 -30.2301 -30.2301 -30.2262 -30.2262
   -30.1853 -30.1853 -30.1823 -30.1823 -30.1381 -30.1381 -30.1346 -30.1346
   -30.1152 -30.1152 -30.1084 -30.1084 -30.0404 -30.0404 -30.0348 -30.0348
   -19.9591 -19.9591 -19.9590 -19.9590 -19.9578 -19.9578 -19.9577 -19.9577
   -19.9552 -19.9552 -19.9549 -19.9549 -19.9548 -19.9548 -19.9546 -19.9546
   -19.9471 -19.9471 -19.9467 -19.9467 -19.9463 -19.9463 -19.9453 -19.9453
   -19.9451 -19.9450 -19.9437 -19.9437 -19.9433 -19.9433 -19.9425 -19.9424
   -19.9344 -19.9344 -19.9334 -19.9334 -19.9332 -19.9332 -19.9323 -19.9323
   -19.9120 -19.9120 -19.9109 -19.9109 -19.9090 -19.9090 -19.9086 -19.9086
   -19.9065 -19.9064 -19.9064 -19.9064 -19.9037 -19.9037 -19.9022 -19.9022
    -9.5776  -9.5776  -9.1829  -9.1829  -9.0021  -9.0021  -8.7752  -8.7752
    -8.3206  -8.3206  -8.2646  -8.2646  -8.2570  -8.2570  -8.2473  -8.2473
    -7.6943  -7.6943  -7.5406  -7.5406  -7.5274  -7.5273  -7.3794  -7.3794
     1.5031   1.5031   1.5495   1.5495   1.6747   1.6747   1.9169   1.9170
     2.6207   2.6208   3.1339   3.1339   3.2249   3.2249   3.4366   3.4366
     3.5359   3.5359   3.5396   3.5397   3.6459   3.6459   3.8761   3.8761
     3.9236   3.9237   4.9574   4.9574   5.0018   5.0018   5.4223   5.4223
     5.4699   5.4699   5.4790   5.4790   5.5018   5.5018   5.9471   5.9471
     5.9521   5.9521   5.9833   5.9833   6.1985   6.1985   6.2636   6.2636
     6.3817   6.3817   6.5025   6.5025   6.7503   6.7503   7.0016   7.0016
     7.0783   7.0783   7.3533   7.3533   7.5538   7.5538   7.5667   7.5667
     7.6884   7.6884   7.7039   7.7039   7.7672   7.7672   7.9319   7.9319
     9.8811   9.8811  11.4552  11.4552  11.5354  11.5354  11.6570  11.6570
    11.7645  11.7645  12.5050  12.5051  12.7894  12.7894  12.8935  12.8935
    13.6427  13.6427  13.6915  13.6915  13.6946  13.6946  13.8496  13.8496
    15.4945  15.4946  15.7449  15.7450  15.7656  15.7656  16.0161  16.0161
    16.7372  16.7372  18.1607  18.1607  18.2202

          k = 0.0000-0.4788 0.1667 ( 61722 PWs)   bands (ev):

   -65.8176 -65.8176 -65.8168 -65.8167 -65.8166 -65.8166 -65.8157 -65.8157
   -30.2637 -30.2605 -30.2590 -30.2551 -30.2314 -30.2299 -30.2274 -30.2265
   -30.1853 -30.1827 -30.1823 -30.1792 -30.1397 -30.1344 -30.1340 -30.1277
   -30.1207 -30.1157 -30.1127 -30.1062 -30.0466 -30.0409 -30.0400 -30.0352
   -19.9591 -19.9590 -19.9590 -19.9589 -19.9579 -19.9578 -19.9578 -19.9577
   -19.9552 -19.9551 -19.9549 -19.9549 -19.9549 -19.9548 -19.9546 -19.9546
   -19.9471 -19.9470 -19.9467 -19.9465 -19.9463 -19.9462 -19.9454 -19.9453
   -19.9450 -19.9449 -19.9438 -19.9436 -19.9434 -19.9432 -19.9425 -19.9425
   -19.9343 -19.9343 -19.9334 -19.9333 -19.9333 -19.9332 -19.9324 -19.9323
   -19.9120 -19.9118 -19.9110 -19.9106 -19.9089 -19.9088 -19.9088 -19.9082
   -19.9068 -19.9066 -19.9066 -19.9062 -19.9041 -19.9036 -19.9025 -19.9023
    -9.5356  -9.5168  -9.1991  -9.1003  -9.0216  -8.9240  -8.7444  -8.7293
    -8.3271  -8.3270  -8.2740  -8.2613  -8.2595  -8.2510  -8.2499  -8.2378
    -7.8046  -7.6859  -7.6608  -7.6386  -7.5502  -7.5168  -7.4967  -7.3888
     1.5468   1.5510   1.6387   1.6809   1.7884   1.9149   2.0363   2.1160
     2.7078   2.7109   3.1327   3.1429   3.2432   3.2695   3.4336   3.4427
     3.4881   3.5416   3.5554   3.5819   3.6657   3.7217   3.8625   3.9077
     3.9478   3.9595   4.6045   4.6202   4.9470   4.9661   5.1949   5.2365
     5.3125   5.3159   5.3971   5.4284   5.4783   5.5348   5.6785   5.7698
     5.8978   5.9296   5.9362   5.9631   6.0389   6.2450   6.2550   6.2789
     6.4589   6.5247   6.5700   6.6923   6.7408   6.9330   6.9870   7.1213
     7.1607   7.1707   7.1775   7.2530   7.3935   7.4379   7.5513   7.5669
     7.6440   7.6694   7.6908   7.7020   7.7542   7.7620   7.9440   7.9504
    10.1538  10.1934  11.4581  11.5295  11.5642  11.6543  11.6575  11.7677
    11.7680  11.8719  12.4343  12.5601  12.6866  12.8279  12.9574  12.9665
    13.4953  13.5355  13.5464  13.6008  13.6884  13.6928  13.7883  13.8674
    15.4917  15.6692  15.7316  15.7438  15.8944  16.0090  16.0375  16.2472
    16.7910  16.7997  17.9766  18.0570  18.1919

          k = 0.0000-0.4788 0.3333 ( 61742 PWs)   bands (ev):

   -65.8174 -65.8174 -65.8169 -65.8169 -65.8164 -65.8164 -65.8159 -65.8159
   -30.2627 -30.2600 -30.2516 -30.2467 -30.2353 -30.2312 -30.2292 -30.2272
   -30.1850 -30.1834 -30.1734 -30.1696 -30.1463 -30.1353 -30.1323 -30.1261
   -30.1220 -30.1172 -30.1101 -30.0971 -30.0637 -30.0573 -30.0391 -30.0364
   -19.9591 -19.9591 -19.9588 -19.9587 -19.9581 -19.9580 -19.9578 -19.9578
   -19.9551 -19.9551 -19.9550 -19.9549 -19.9548 -19.9548 -19.9547 -19.9546
   -19.9470 -19.9468 -19.9468 -19.9464 -19.9462 -19.9460 -19.9456 -19.9455
   -19.9448 -19.9446 -19.9441 -19.9437 -19.9434 -19.9431 -19.9428 -19.9427
   -19.9341 -19.9341 -19.9336 -19.9335 -19.9331 -19.9330 -19.9325 -19.9325
   -19.9118 -19.9112 -19.9111 -19.9099 -19.9093 -19.9085 -19.9084 -19.9077
   -19.9072 -19.9072 -19.9070 -19.9056 -19.9049 -19.9034 -19.9034 -19.9026
    -9.4349  -9.3641  -9.2474  -9.0834  -8.8708  -8.7131  -8.6387  -8.5857
    -8.3724  -8.3573  -8.2980  -8.2833  -8.2485  -8.2466  -8.2317  -8.2028
    -8.0599  -7.9428  -7.9105  -7.7975  -7.6467  -7.5765  -7.4886  -7.4149
     1.5574   1.5723   1.6974   1.7211   2.4298   2.5413   2.6252   2.7334
     2.9581   2.9648   3.1348   3.1596   3.3007   3.3556   3.4013   3.4570
     3.4834   3.5363   3.5627   3.5836   3.7335   3.8264   3.9177   3.9774
     4.0087   4.0150   4.0366   4.0717   4.5861   4.6157   4.7844   4.8378
     4.8941   4.9751   5.0789   5.1157   5.3662   5.4393   5.4403   5.4891
     5.5272   5.6443   5.8311   5.8531   6.1714   6.2792   6.3248   6.4728
     6.5572   6.6191   6.6936   6.7895   6.8442   6.9426   6.9731   7.1241
     7.1889   7.2033   7.2636   7.3136   7.3688   7.4054   7.5311   7.5910
     7.6206   7.6709   7.6826   7.7237   7.7326   7.7506   7.9078   7.9146
    10.7723  10.8631  11.4648  11.5207  11.6635  11.7156  11.9391  11.9949
    12.0838  12.1186  12.1667  12.2998  12.7340  12.8595  12.9091  12.9662
    13.0540  13.1425  13.2924  13.4160  13.6839  13.6956  13.7363  13.8057
    15.4903  15.6709  15.7441  15.9279  16.2708  16.4685  16.7427  16.8917
    16.9681  17.0093  17.5344  17.5472  18.0356

          k = 0.0000-0.4788-0.5000 ( 61744 PWs)   bands (ev):

   -65.8172 -65.8172 -65.8171 -65.8171 -65.8162 -65.8162 -65.8162 -65.8161
   -30.2613 -30.2613 -30.2422 -30.2422 -30.2377 -30.2377 -30.2283 -30.2282
   -30.1843 -30.1843 -30.1595 -30.1595 -30.1537 -30.1537 -30.1289 -30.1289
   -30.1202 -30.1202 -30.0869 -30.0869 -30.0787 -30.0787 -30.0378 -30.0378
   -19.9591 -19.9591 -19.9584 -19.9584 -19.9584 -19.9584 -19.9578 -19.9578
   -19.9550 -19.9550 -19.9550 -19.9550 -19.9548 -19.9547 -19.9547 -19.9547
   -19.9469 -19.9469 -19.9466 -19.9466 -19.9459 -19.9459 -19.9458 -19.9458
   -19.9444 -19.9444 -19.9442 -19.9442 -19.9431 -19.9431 -19.9429 -19.9429
   -19.9338 -19.9338 -19.9338 -19.9338 -19.9328 -19.9328 -19.9327 -19.9327
   -19.9115 -19.9115 -19.9101 -19.9101 -19.9088 -19.9088 -19.9079 -19.9079
   -19.9077 -19.9077 -19.9061 -19.9061 -19.9046 -19.9046 -19.9030 -19.9030
    -9.3283  -9.3283  -9.1982  -9.1982  -8.5693  -8.5693  -8.4710  -8.4710
    -8.4374  -8.4374  -8.3804  -8.3804  -8.2294  -8.2294  -8.1765  -8.1765
    -8.1544  -8.1544  -8.0756  -8.0756  -7.6129  -7.6128  -7.4512  -7.4512
     1.5676   1.5676   1.7166   1.7166   3.0416   3.0416   3.2003   3.2003
     3.2596   3.2596   3.2881   3.2881   3.3576   3.3576   3.4299   3.4299
     3.4931   3.4931   3.5694   3.5694   3.6257   3.6257   3.6926   3.6926
     3.8343   3.8344   4.0042   4.0042   4.4565   4.4566   4.5325   4.5325
     4.5544   4.5545   4.6581   4.6581   5.3913   5.3914   5.4416   5.4416
     5.6452   5.6452   5.7634   5.7634   6.3350   6.3350   6.3532   6.3532
     6.6419   6.6419   6.7342   6.7342   6.8060   6.8060   6.8850   6.8850
     7.3749   7.3749   7.4107   7.4107   7.4806   7.4806   7.5908   7.5908
     7.6776   7.6776   7.7027   7.7027   7.7394   7.7394   7.7921   7.7921
    11.3809  11.3809  11.5407  11.5407  11.6185  11.6185  11.7673  11.7673
    12.4048  12.4048  12.4679  12.4679  12.5832  12.5832  12.6372  12.6372
    13.0180  13.0180  13.1827  13.1827  13.6942  13.6942  13.7248  13.7248
    15.5690  15.5690  15.8376  15.8376  16.9314  16.9314  17.0802  17.0803
    17.4249  17.4249  17.5159  17.5159  17.6483

          k = 0.1667 0.0000 0.1667 ( 61738 PWs)   bands (ev):

   -65.8178 -65.8173 -65.8169 -65.8169 -65.8164 -65.8164 -65.8161 -65.8156
   -30.2782 -30.2690 -30.2689 -30.2565 -30.2483 -30.2271 -30.2270 -30.2012
   -30.1984 -30.1731 -30.1730 -30.1598 -30.1343 -30.1342 -30.1277 -30.1264
   -30.1256 -30.1141 -30.1092 -30.1091 -30.0463 -30.0462 -30.0421 -30.0406
   -19.9597 -19.9593 -19.9593 -19.9586 -19.9584 -19.9579 -19.9579 -19.9576
   -19.9568 -19.9566 -19.9566 -19.9564 -19.9535 -19.9531 -19.9531 -19.9527
   -19.9475 -19.9468 -19.9468 -19.9465 -19.9460 -19.9460 -19.9458 -19.9450
   -19.9449 -19.9443 -19.9436 -19.9436 -19.9431 -19.9431 -19.9428 -19.9421
   -19.9344 -19.9341 -19.9335 -19.9335 -19.9331 -19.9331 -19.9326 -19.9322
   -19.9118 -19.9117 -19.9107 -19.9107 -19.9089 -19.9089 -19.9082 -19.9082
   -19.9069 -19.9069 -19.9064 -19.9064 -19.9040 -19.9040 -19.9027 -19.9026
    -9.6800  -9.3499  -9.2944  -9.2923  -8.9306  -8.9260  -8.9248  -8.7320
    -8.7061  -8.6327  -8.6064  -8.6034  -7.8412  -7.7952  -7.7036  -7.7019
    -7.6406  -7.6392  -7.6257  -7.5832  -7.5830  -7.5543  -7.5080  -7.4993
     1.6521   1.6963   1.6987   1.7592   1.7697   1.8001   1.8448   1.8486
     1.9830   1.9838   2.1760   2.3207   2.7402   2.7822   2.8552   2.8743
     2.9542   2.9891   4.2351   4.2643   4.5158   4.5297   4.6287   4.6617
     4.6626   4.7176   4.7604   4.8747   4.9686   5.0397   5.3395   5.4151
     5.4223   5.5386   5.5617   5.6816   5.7314   5.7527   5.8059   5.8645
     5.9065   5.9190   5.9286   5.9415   5.9777   6.2417   6.3068   6.3164
     6.4310   6.6916   6.7410   6.8066   6.8170   6.8185   6.8730   6.8966
     6.9145   6.9602   7.0211   7.0544   7.1125   7.1562   7.1993   7.2766
     7.4426   7.4813   7.9269   7.9352   8.1434   8.1470   8.1913   8.2745
    10.3010  10.3444  10.5464  10.5802  10.6279  10.7178  12.4571  12.4659
    12.5048  12.5220  12.7361  12.7408  12.8568  12.8703  13.0044  13.0396
    13.2445  13.3870  13.4876  13.5371  13.9461  14.0294  14.1123  14.1597
    14.6817  14.9335  14.9342  15.2354  15.7338  15.7458  15.7996  16.4415
    16.4695  17.0698  17.1036  17.2534  17.7609

          k = 0.1667 0.0000 0.3333 ( 61735 PWs)   bands (ev):

   -65.8176 -65.8171 -65.8171 -65.8167 -65.8166 -65.8162 -65.8162 -65.8157
   -30.2752 -30.2703 -30.2649 -30.2582 -30.2418 -30.2299 -30.2197 -30.2047
   -30.1918 -30.1764 -30.1658 -30.1565 -30.1402 -30.1363 -30.1272 -30.1256
   -30.1187 -30.1169 -30.1096 -30.0990 -30.0633 -30.0579 -30.0453 -30.0425
   -19.9596 -19.9593 -19.9591 -19.9586 -19.9585 -19.9581 -19.9578 -19.9577
   -19.9567 -19.9566 -19.9566 -19.9565 -19.9534 -19.9532 -19.9530 -19.9528
   -19.9474 -19.9470 -19.9466 -19.9464 -19.9461 -19.9460 -19.9458 -19.9452
   -19.9447 -19.9441 -19.9439 -19.9435 -19.9433 -19.9430 -19.9429 -19.9423
   -19.9341 -19.9339 -19.9336 -19.9333 -19.9333 -19.9329 -19.9327 -19.9324
   -19.9116 -19.9110 -19.9110 -19.9100 -19.9092 -19.9085 -19.9081 -19.9078
   -19.9073 -19.9072 -19.9070 -19.9058 -19.9048 -19.9037 -19.9036 -19.9029
    -9.5650  -9.3475  -9.2116  -9.1556  -8.9778  -8.9590  -8.7098  -8.6750
    -8.6223  -8.6046  -8.5144  -8.4723  -8.0905  -7.9975  -7.9187  -7.8640
    -7.7629  -7.7051  -7.6342  -7.6120  -7.5902  -7.5869  -7.5646  -7.5278
     1.6683   1.6858   1.7619   1.7871   1.8528   1.8631   1.9770   1.9990
     2.4746   2.5862   2.6646   2.7870   2.8364   2.9429   3.0158   3.0806
     3.1360   3.2306   3.9340   4.0206   4.1071   4.1308   4.2794   4.4962
     4.5512   4.6256   4.6912   4.7148   4.7890   4.8938   5.0066   5.0813
     5.2543   5.2866   5.3186   5.3829   5.4683   5.6135   5.7589   5.7955
     5.8713   5.9111   5.9710   5.9983   6.0413   6.1480   6.2283   6.2728
     6.5182   6.6270   6.6501   6.6910   6.7076   6.8119   6.8666   6.8883
     6.9099   7.0114   7.0596   7.0924   7.2599   7.2771   7.3184   7.4156
     7.4876   7.5357   7.8863   7.8959   8.0472   8.0641   8.2056   8.2390
    10.5320  10.5468  10.8799  11.0047  11.1342  11.3119  12.1374  12.2350
    12.3703  12.5981  12.6444  12.6949  12.8415  12.9289  12.9549  13.0814
    13.2013  13.2954  13.3527  13.5038  13.8316  13.8583  14.0648  14.0832
    14.7681  14.9106  15.1496  15.5286  15.6278  16.0186  16.0947  16.3044
    16.6077  17.2067  17.5514  17.5803  17.6976

          k = 0.1667 0.0000-0.5000 ( 61766 PWs)   bands (ev):

   -65.8173 -65.8173 -65.8168 -65.8168 -65.8165 -65.8165 -65.8160 -65.8160
   -30.2725 -30.2724 -30.2610 -30.2610 -30.2348 -30.2348 -30.2110 -30.2110
   -30.1830 -30.1830 -30.1529 -30.1529 -30.1490 -30.1490 -30.1231 -30.1231
   -30.1216 -30.1216 -30.0865 -30.0865 -30.0797 -30.0796 -30.0440 -30.0440
   -19.9594 -19.9594 -19.9588 -19.9588 -19.9583 -19.9583 -19.9578 -19.9578
   -19.9567 -19.9567 -19.9565 -19.9565 -19.9533 -19.9533 -19.9529 -19.9529
   -19.9472 -19.9471 -19.9463 -19.9463 -19.9462 -19.9462 -19.9455 -19.9454
   -19.9443 -19.9443 -19.9437 -19.9437 -19.9432 -19.9432 -19.9426 -19.9426
   -19.9339 -19.9339 -19.9336 -19.9336 -19.9330 -19.9330 -19.9327 -19.9327
   -19.9113 -19.9113 -19.9101 -19.9101 -19.9089 -19.9089 -19.9079 -19.9079
   -19.9076 -19.9076 -19.9060 -19.9060 -19.9047 -19.9047 -19.9033 -19.9033
    -9.4406  -9.4406  -9.0704  -9.0704  -9.0302  -9.0302  -8.6454  -8.6454
    -8.4205  -8.4205  -8.3498  -8.3498  -8.2632  -8.2632  -8.1864  -8.1864
    -7.7449  -7.7449  -7.6199  -7.6199  -7.5787  -7.5786  -7.5614  -7.5614
     1.6750   1.6750   1.7751   1.7751   1.8654   1.8654   2.0073   2.0073
     2.8709   2.8709   3.1749   3.1749   3.2644   3.2644   3.3796   3.3796
     3.4777   3.4777   3.5810   3.5810   3.7826   3.7826   3.9969   3.9969
     4.0341   4.0341   4.6086   4.6086   4.6988   4.6988   5.1044   5.1044
     5.1909   5.1909   5.2780   5.2780   5.4805   5.4805   5.8132   5.8132
     5.8962   5.8962   5.9701   5.9701   6.0416   6.0416   6.2061   6.2061
     6.4939   6.4939   6.6114   6.6114   6.7540   6.7540   6.8717   6.8717
     7.0124   7.0124   7.1141   7.1141   7.1804   7.1804   7.6700   7.6700
     7.7070   7.7070   7.8238   7.8238   7.8623   7.8623   8.2208   8.2208
    10.5554  10.5554  11.5293  11.5293  11.6883  11.6883  11.7758  11.7758
    12.0425  12.0425  12.7572  12.7572  12.9438  12.9438  13.0147  13.0147
    13.1627  13.1627  13.5201  13.5201  13.5958  13.5958  14.0635  14.0636
    14.8623  14.8623  15.4297  15.4297  15.9233  15.9233  16.2820  16.2820
    16.8442  16.8442  17.9198  17.9198  18.1059

          k = 0.1667 0.1596 0.1667 ( 61688 PWs)   bands (ev):

   -65.8177 -65.8173 -65.8169 -65.8169 -65.8164 -65.8164 -65.8160 -65.8156
   -30.2754 -30.2661 -30.2660 -30.2525 -30.2495 -30.2278 -30.2276 -30.2046
   -30.1966 -30.1745 -30.1744 -30.1631 -30.1349 -30.1348 -30.1277 -30.1266
   -30.1251 -30.1152 -30.1094 -30.1094 -30.0463 -30.0462 -30.0420 -30.0407
   -19.9595 -19.9592 -19.9592 -19.9587 -19.9583 -19.9579 -19.9579 -19.9576
   -19.9566 -19.9564 -19.9564 -19.9562 -19.9537 -19.9533 -19.9533 -19.9529
   -19.9475 -19.9468 -19.9468 -19.9466 -19.9461 -19.9461 -19.9458 -19.9450
   -19.9449 -19.9444 -19.9436 -19.9436 -19.9432 -19.9431 -19.9428 -19.9422
   -19.9343 -19.9341 -19.9335 -19.9334 -19.9332 -19.9331 -19.9325 -19.9323
   -19.9118 -19.9117 -19.9107 -19.9107 -19.9089 -19.9089 -19.9082 -19.9082
   -19.9069 -19.9069 -19.9064 -19.9064 -19.9040 -19.9040 -19.9027 -19.9026
    -9.6459  -9.3628  -9.2533  -9.2510  -8.9325  -8.9284  -8.8503  -8.7180
    -8.7053  -8.6046  -8.5775  -8.5747  -7.8607  -7.7979  -7.7477  -7.7389
    -7.7140  -7.6802  -7.6551  -7.6379  -7.6269  -7.6153  -7.5059  -7.5000
     1.7342   1.7535   1.7679   1.7727   1.8685   1.8907   1.8945   2.0103
     2.0961   2.1000   2.1762   2.3867   2.7548   2.8483   2.8534   2.9565
     3.0319   3.0570   4.1606   4.1731   4.3450   4.3618   4.5633   4.5879
     4.6642   4.7083   4.7271   4.8867   4.9190   4.9566   5.1868   5.3408
     5.3592   5.4930   5.5051   5.6007   5.6197   5.6947   5.7118   5.7849
     5.8990   5.9266   5.9460   5.9967   6.0318   6.0694   6.2897   6.3029
     6.4811   6.6117   6.7016   6.7790   6.8521   6.8572   6.8980   6.9201
     6.9853   6.9873   7.0567   7.0799   7.1363   7.1623   7.2201   7.2763
     7.4454   7.4790   7.9243   7.9346   8.1087   8.1117   8.1523   8.2037
    10.3375  10.3751  10.7024  10.7040  10.7601  10.8419  12.4325  12.4490
    12.4735  12.4914  12.6778  12.7131  12.7639  12.8402  12.9203  13.0261
    13.2262  13.3531  13.4865  13.5228  13.9593  13.9670  14.0739  14.0835
    14.8629  15.1538  15.1625  15.3704  15.7395  15.7998  16.1230  16.4298
    16.4433  16.9409  17.1967  17.2038  17.8028

          k = 0.1667 0.1596 0.3333 ( 61718 PWs)   bands (ev):

   -65.8176 -65.8171 -65.8171 -65.8167 -65.8166 -65.8163 -65.8162 -65.8158
   -30.2723 -30.2674 -30.2615 -30.2543 -30.2431 -30.2307 -30.2213 -30.2078
   -30.1904 -30.1772 -30.1668 -30.1595 -30.1413 -30.1362 -30.1278 -30.1257
   -30.1196 -30.1171 -30.1097 -30.0991 -30.0633 -30.0579 -30.0453 -30.0425
   -19.9594 -19.9592 -19.9590 -19.9586 -19.9585 -19.9581 -19.9578 -19.9577
   -19.9565 -19.9564 -19.9564 -19.9563 -19.9536 -19.9534 -19.9533 -19.9530
   -19.9473 -19.9469 -19.9465 -19.9464 -19.9461 -19.9460 -19.9458 -19.9452
   -19.9447 -19.9442 -19.9439 -19.9435 -19.9434 -19.9430 -19.9429 -19.9424
   -19.9341 -19.9339 -19.9336 -19.9333 -19.9332 -19.9330 -19.9327 -19.9324
   -19.9116 -19.9110 -19.9110 -19.9100 -19.9092 -19.9085 -19.9081 -19.9078
   -19.9073 -19.9072 -19.9070 -19.9058 -19.9048 -19.9037 -19.9036 -19.9029
    -9.5276  -9.3068  -9.2235  -9.1004  -8.9821  -8.8851  -8.7119  -8.6454
    -8.6055  -8.5912  -8.5063  -8.4577  -8.0927  -8.0036  -7.9227  -7.8756
    -7.7755  -7.7378  -7.7140  -7.6888  -7.6665  -7.6544  -7.5977  -7.5275
     1.7709   1.7830   1.8995   1.9163   1.9696   1.9806   2.0627   2.1005
     2.4774   2.5917   2.6689   2.7940   2.9136   3.0029   3.0448   3.1268
     3.1655   3.2900   3.9360   4.0308   4.0661   4.1169   4.3060   4.3643
     4.4404   4.5686   4.6016   4.7045   4.7381   4.8419   4.9679   4.9969
     5.1262   5.1433   5.2191   5.2981   5.4231   5.4650   5.5648   5.7420
     5.8098   5.8286   5.9401   5.9663   6.0216   6.0614   6.1681   6.2214
     6.5350   6.6323   6.7108   6.7682   6.7954   6.8463   6.8948   6.9718
     6.9908   7.0178   7.0905   7.1474   7.2545   7.2858   7.3179   7.4182
     7.4923   7.5386   7.8839   7.8948   8.0187   8.0374   8.1550   8.1757
    10.6726  10.6847  10.9151  11.0250  11.2380  11.3853  12.1377  12.2428
    12.3707  12.5925  12.6438  12.7059  12.7759  12.8204  12.9357  13.0142
    13.0848  13.2624  13.3262  13.4835  13.7407  13.7736  14.0144  14.0366
    15.0126  15.1396  15.4505  15.6280  15.9891  16.0439  16.1076  16.3234
    16.6816  17.1863  17.3477  17.6104  17.6506

          k = 0.1667 0.1596-0.5000 ( 61728 PWs)   bands (ev):

   -65.8173 -65.8173 -65.8169 -65.8169 -65.8165 -65.8164 -65.8160 -65.8160
   -30.2695 -30.2695 -30.2573 -30.2573 -30.2359 -30.2359 -30.2136 -30.2136
   -30.1827 -30.1827 -30.1535 -30.1535 -30.1510 -30.1510 -30.1234 -30.1234
   -30.1222 -30.1222 -30.0865 -30.0865 -30.0797 -30.0797 -30.0440 -30.0440
   -19.9593 -19.9593 -19.9587 -19.9587 -19.9583 -19.9583 -19.9578 -19.9578
   -19.9565 -19.9565 -19.9563 -19.9563 -19.9535 -19.9535 -19.9532 -19.9531
   -19.9471 -19.9471 -19.9463 -19.9463 -19.9462 -19.9462 -19.9455 -19.9455
   -19.9443 -19.9443 -19.9438 -19.9438 -19.9432 -19.9432 -19.9427 -19.9427
   -19.9339 -19.9339 -19.9336 -19.9336 -19.9330 -19.9330 -19.9327 -19.9327
   -19.9113 -19.9113 -19.9101 -19.9101 -19.9089 -19.9089 -19.9079 -19.9079
   -19.9076 -19.9076 -19.9060 -19.9060 -19.9047 -19.9047 -19.9033 -19.9033
    -9.4008  -9.4008  -9.0786  -9.0786  -8.9611  -8.9611  -8.6143  -8.6143
    -8.4211  -8.4211  -8.3535  -8.3535  -8.2616  -8.2616  -8.1863  -8.1863
    -7.7682  -7.7682  -7.6949  -7.6949  -7.6738  -7.6738  -7.5623  -7.5623
     1.7781   1.7781   1.9153   1.9153   1.9808   1.9808   2.1015   2.1015
     2.9423   2.9423   3.1901   3.1901   3.2765   3.2765   3.4009   3.4009
     3.4814   3.4814   3.5912   3.5912   3.7839   3.7839   4.0206   4.0206
     4.0593   4.0593   4.4709   4.4710   4.6403   4.6403   4.9108   4.9108
     5.0973   5.0973   5.2366   5.2366   5.3219   5.3219   5.6586   5.6586
     5.8526   5.8526   5.8947   5.8947   6.0222   6.0222   6.0629   6.0629
     6.6059   6.6059   6.7500   6.7500   6.8024   6.8024   6.9089   6.9089
     7.0615   7.0615   7.1056   7.1056   7.2124   7.2124   7.6709   7.6709
     7.7007   7.7008   7.8144   7.8144   7.8489   7.8489   8.1637   8.1637
    10.7054  10.7054  11.5423  11.5423  11.6938  11.6938  11.8417  11.8417
    12.0908  12.0908  12.7487  12.7487  12.8412  12.8412  12.9755  12.9755
    13.1422  13.1422  13.4081  13.4081  13.5198  13.5198  14.0125  14.0125
    15.1007  15.1008  15.7618  15.7618  16.0284  16.0284  16.2984  16.2984
    16.8769  16.8769  17.8000  17.8000  18.0559

          k = 0.1667 0.3192 0.1667 ( 61724 PWs)   bands (ev):

   -65.8176 -65.8174 -65.8168 -65.8168 -65.8165 -65.8165 -65.8159 -65.8157
   -30.2683 -30.2596 -30.2595 -30.2534 -30.2419 -30.2297 -30.2296 -30.2140
   -30.1912 -30.1778 -30.1777 -30.1718 -30.1359 -30.1359 -30.1276 -30.1269
   -30.1236 -30.1180 -30.1098 -30.1098 -30.0463 -30.0463 -30.0417 -30.0410
   -19.9593 -19.9590 -19.9590 -19.9588 -19.9581 -19.9579 -19.9579 -19.9577
   -19.9560 -19.9558 -19.9558 -19.9556 -19.9543 -19.9540 -19.9539 -19.9536
   -19.9473 -19.9468 -19.9467 -19.9467 -19.9462 -19.9462 -19.9456 -19.9452
   -19.9449 -19.9447 -19.9437 -19.9437 -19.9433 -19.9433 -19.9427 -19.9424
   -19.9343 -19.9341 -19.9334 -19.9334 -19.9332 -19.9332 -19.9325 -19.9323
   -19.9118 -19.9117 -19.9107 -19.9107 -19.9089 -19.9089 -19.9082 -19.9082
   -19.9069 -19.9069 -19.9064 -19.9064 -19.9040 -19.9040 -19.9026 -19.9026
    -9.5627  -9.4027  -9.1652  -9.1629  -8.9395  -8.9361  -8.7043  -8.7033
    -8.6378  -8.4856  -8.4708  -8.4686  -8.0302  -7.9701  -7.9699  -7.9467
    -7.7936  -7.7880  -7.6726  -7.6669  -7.6310  -7.6240  -7.5051  -7.5018
     1.7464   1.7526   1.7888   1.7903   1.9187   1.9196   2.1087   2.1718
     2.5413   2.6541   2.6657   2.7800   2.8004   2.8566   3.0732   3.2142
     3.2662   3.2789   3.8508   3.8561   3.8905   3.9604   4.2591   4.5813
     4.6027   4.6312   4.6502   4.7322   4.7627   4.9377   4.9638   5.0352
     5.0775   5.1198   5.3241   5.3299   5.5446   5.5796   5.6046   5.6394
     5.8342   5.8422   5.9127   5.9210   5.9719   6.0141   6.2944   6.3036
     6.5642   6.6384   6.6962   6.7859   6.9184   6.9299   6.9487   7.0029
     7.1294   7.1303   7.1724   7.1742   7.2707   7.2726   7.3157   7.3173
     7.4790   7.4850   7.8861   7.9202   7.9728   7.9836   8.0031   8.0067
    10.3812  10.3990  11.0912  11.1193  11.1477  11.2398  12.1616  12.1971
    12.2731  12.3860  12.4916  12.5086  12.7281  12.7295  12.9467  13.0383
    13.2935  13.3577  13.4983  13.5167  13.7600  13.7786  13.8837  13.9289
    15.3241  15.6221  15.6642  15.7300  15.8131  15.9833  16.3449  16.3505
    16.4410  17.0807  17.4782  17.5552  17.6186

          k = 0.1667 0.3192 0.3333 ( 61734 PWs)   bands (ev):

   -65.8175 -65.8172 -65.8170 -65.8167 -65.8166 -65.8164 -65.8161 -65.8159
   -30.2650 -30.2607 -30.2533 -30.2470 -30.2439 -30.2331 -30.2261 -30.2167
   -30.1863 -30.1792 -30.1690 -30.1669 -30.1434 -30.1359 -30.1291 -30.1258
   -30.1215 -30.1175 -30.1098 -30.0993 -30.0633 -30.0579 -30.0453 -30.0425
   -19.9592 -19.9591 -19.9588 -19.9586 -19.9582 -19.9581 -19.9578 -19.9578
   -19.9560 -19.9558 -19.9557 -19.9556 -19.9542 -19.9540 -19.9539 -19.9537
   -19.9471 -19.9468 -19.9466 -19.9464 -19.9463 -19.9460 -19.9458 -19.9454
   -19.9447 -19.9444 -19.9439 -19.9436 -19.9435 -19.9431 -19.9429 -19.9426
   -19.9341 -19.9339 -19.9336 -19.9334 -19.9332 -19.9330 -19.9327 -19.9325
   -19.9116 -19.9110 -19.9110 -19.9100 -19.9092 -19.9085 -19.9081 -19.9078
   -19.9073 -19.9072 -19.9070 -19.9058 -19.9048 -19.9037 -19.9036 -19.9029
    -9.4381  -9.2614  -9.2170  -8.9960  -8.9699  -8.7231  -8.6753  -8.6055
    -8.5835  -8.4846  -8.4438  -8.3945  -8.1222  -8.0695  -7.9917  -7.9738
    -7.9538  -7.9120  -7.8782  -7.8047  -7.7465  -7.6813  -7.6001  -7.5283
     1.7977   1.8151   1.9300   1.9538   2.3866   2.4736   2.5018   2.5923
     2.6535   2.6987   2.7170   2.8940   3.0467   3.1139   3.1537   3.2514
     3.4048   3.4745   3.8188   3.8649   3.9152   3.9973   4.0766   4.1521
     4.2385   4.4384   4.5331   4.5805   4.6371   4.7166   4.7333   4.8546
     4.9454   5.0048   5.0462   5.0896   5.1352   5.2178   5.3284   5.3693
     5.5155   5.5527   5.6220   5.8045   5.9331   5.9935   6.1931   6.2200
     6.6981   6.7274   6.8109   6.8555   6.9365   7.0232   7.0908   7.1184
     7.1620   7.1813   7.1932   7.2588   7.2877   7.3193   7.3770   7.4306
     7.5131   7.5549   7.8424   7.8885   7.9103   7.9406   7.9808   7.9971
    10.8844  10.9427  11.1435  11.1979  11.5415  11.6417  12.0995  12.1814
    12.3035  12.3784  12.4586  12.5288  12.6941  12.8044  12.8388  12.8984
    13.0631  13.1882  13.2975  13.4646  13.5136  13.5994  13.8194  13.8542
    15.5105  15.6371  15.8862  16.1334  16.1650  16.2296  16.3074  16.8401
    16.9508  17.0154  17.1369  17.6922  17.7860

          k = 0.1667 0.3192-0.5000 ( 61736 PWs)   bands (ev):

   -65.8172 -65.8172 -65.8170 -65.8170 -65.8164 -65.8164 -65.8161 -65.8161
   -30.2625 -30.2625 -30.2475 -30.2475 -30.2391 -30.2391 -30.2211 -30.2211
   -30.1818 -30.1818 -30.1565 -30.1565 -30.1535 -30.1535 -30.1245 -30.1245
   -30.1227 -30.1227 -30.0866 -30.0865 -30.0797 -30.0797 -30.0440 -30.0440
   -19.9591 -19.9591 -19.9585 -19.9585 -19.9584 -19.9584 -19.9578 -19.9578
   -19.9559 -19.9559 -19.9557 -19.9557 -19.9542 -19.9541 -19.9538 -19.9538
   -19.9469 -19.9469 -19.9464 -19.9464 -19.9461 -19.9461 -19.9457 -19.9457
   -19.9443 -19.9443 -19.9440 -19.9440 -19.9432 -19.9432 -19.9429 -19.9429
   -19.9338 -19.9338 -19.9337 -19.9337 -19.9329 -19.9329 -19.9328 -19.9327
   -19.9113 -19.9113 -19.9101 -19.9101 -19.9089 -19.9089 -19.9079 -19.9079
   -19.9076 -19.9076 -19.9060 -19.9060 -19.9047 -19.9047 -19.9033 -19.9033
    -9.3097  -9.3097  -9.1046  -9.1046  -8.7738  -8.7738  -8.5161  -8.5161
    -8.4264  -8.4264  -8.3700  -8.3700  -8.2535  -8.2534  -8.1850  -8.1850
    -7.9612  -7.9612  -7.9189  -7.9189  -7.7212  -7.7212  -7.5636  -7.5636
     1.8109   1.8109   1.9534   1.9534   2.5404   2.5404   2.6655   2.6655
     3.1358   3.1358   3.2364   3.2364   3.2828   3.2828   3.4579   3.4579
     3.4879   3.4879   3.6229   3.6229   3.7763   3.7764   3.9197   3.9197
     4.1436   4.1436   4.2502   4.2502   4.3840   4.3840   4.5483   4.5483
     4.9263   4.9263   5.0303   5.0303   5.1892   5.1892   5.2438   5.2439
     5.3482   5.3482   5.6984   5.6984   6.0050   6.0050   6.0402   6.0402
     6.7566   6.7566   6.9272   6.9272   6.9819   6.9819   7.0394   7.0394
     7.1925   7.1925   7.2391   7.2391   7.3275   7.3275   7.6556   7.6556
     7.6881   7.6881   7.7632   7.7632   7.8015   7.8015   7.9843   7.9843
    11.1091  11.1091  11.5692  11.5692  11.7043  11.7043  11.9990  11.9990
    12.2544  12.2544  12.4590  12.4590  12.7700  12.7700  12.8447  12.8447
    13.0502  13.0502  13.1781  13.1781  13.4604  13.4604  13.8123  13.8123
    15.5901  15.5901  16.0807  16.0807  16.5336  16.5336  16.7060  16.7060
    17.0032  17.0033  17.4794  17.4794  17.9778

          k = 0.1667-0.4788 0.1667 ( 61722 PWs)   bands (ev):

   -65.8175 -65.8175 -65.8167 -65.8167 -65.8166 -65.8166 -65.8158 -65.8158
   -30.2601 -30.2601 -30.2555 -30.2555 -30.2312 -30.2311 -30.2277 -30.2277
   -30.1824 -30.1824 -30.1795 -30.1795 -30.1364 -30.1364 -30.1273 -30.1273
   -30.1211 -30.1211 -30.1100 -30.1100 -30.0463 -30.0463 -30.0413 -30.0413
   -19.9590 -19.9590 -19.9589 -19.9589 -19.9579 -19.9579 -19.9578 -19.9578
   -19.9551 -19.9551 -19.9549 -19.9549 -19.9549 -19.9548 -19.9546 -19.9546
   -19.9470 -19.9470 -19.9466 -19.9466 -19.9463 -19.9463 -19.9454 -19.9454
   -19.9449 -19.9449 -19.9437 -19.9437 -19.9434 -19.9434 -19.9426 -19.9426
   -19.9342 -19.9342 -19.9334 -19.9334 -19.9332 -19.9332 -19.9324 -19.9324
   -19.9117 -19.9117 -19.9107 -19.9107 -19.9089 -19.9089 -19.9082 -19.9082
   -19.9069 -19.9069 -19.9064 -19.9064 -19.9040 -19.9040 -19.9026 -19.9026
    -9.4717  -9.4717  -9.1167  -9.1167  -8.9440  -8.9440  -8.7017  -8.7017
    -8.3353  -8.3353  -8.2689  -8.2688  -8.2529  -8.2529  -8.2412  -8.2412
    -7.7954  -7.7953  -7.6720  -7.6720  -7.6283  -7.6283  -7.5038  -7.5038
     1.7495   1.7495   1.7916   1.7916   1.9225   1.9225   2.1603   2.1603
     2.8012   2.8012   3.1485   3.1485   3.2780   3.2780   3.4370   3.4370
     3.4921   3.4922   3.6267   3.6267   3.7249   3.7249   3.8969   3.8970
     3.9750   3.9751   4.6184   4.6184   4.6942   4.6942   5.1261   5.1261
     5.1901   5.1901   5.2863   5.2863   5.3514   5.3515   5.6413   5.6413
     5.6968   5.6968   5.9140   5.9140   5.9610   5.9610   6.3074   6.3074
     6.6462   6.6463   6.7271   6.7272   6.9230   6.9230   7.0081   7.0081
     7.1618   7.1618   7.2250   7.2250   7.4085   7.4085   7.5543   7.5543
     7.6494   7.6494   7.7000   7.7000   7.7578   7.7578   7.9486   7.9486
    10.3991  10.3991  11.5691  11.5691  11.6444  11.6444  11.7722  11.7722
    11.8741  11.8741  12.4922  12.4922  12.7279  12.7279  13.0144  13.0144
    13.4708  13.4708  13.5174  13.5175  13.5532  13.5532  13.7927  13.7927
    15.6584  15.6584  15.8971  15.8972  16.0352  16.0352  16.2318  16.2318
    16.8487  16.8487  17.9882  17.9882  18.0679

          k = 0.1667-0.4788 0.3333 ( 61758 PWs)   bands (ev):

   -65.8173 -65.8173 -65.8169 -65.8168 -65.8165 -65.8165 -65.8160 -65.8160
   -30.2591 -30.2564 -30.2513 -30.2470 -30.2350 -30.2315 -30.2304 -30.2284
   -30.1820 -30.1803 -30.1733 -30.1699 -30.1445 -30.1357 -30.1297 -30.1259
   -30.1225 -30.1176 -30.1098 -30.0993 -30.0634 -30.0579 -30.0454 -30.0425
   -19.9590 -19.9590 -19.9588 -19.9587 -19.9581 -19.9581 -19.9579 -19.9578
   -19.9551 -19.9551 -19.9549 -19.9549 -19.9548 -19.9548 -19.9547 -19.9547
   -19.9469 -19.9468 -19.9467 -19.9464 -19.9463 -19.9461 -19.9456 -19.9456
   -19.9446 -19.9445 -19.9440 -19.9437 -19.9435 -19.9432 -19.9428 -19.9428
   -19.9340 -19.9340 -19.9335 -19.9334 -19.9332 -19.9331 -19.9326 -19.9326
   -19.9116 -19.9110 -19.9110 -19.9100 -19.9092 -19.9085 -19.9081 -19.9078
   -19.9073 -19.9072 -19.9070 -19.9058 -19.9048 -19.9037 -19.9036 -19.9029
    -9.3635  -9.3091  -9.1661  -9.0082  -8.8879  -8.7345  -8.6066  -8.5663
    -8.3846  -8.3701  -8.2905  -8.2714  -8.2500  -8.2435  -8.2318  -8.2078
    -8.0508  -7.9512  -7.9002  -7.8228  -7.7491  -7.6831  -7.6007  -7.5287
     1.8003   1.8175   1.9335   1.9564   2.4349   2.5496   2.6102   2.7143
     3.0593   3.0624   3.1578   3.1770   3.3215   3.3544   3.4084   3.4400
     3.4810   3.4966   3.6381   3.6939   3.7676   3.8626   3.9117   3.9745
     4.0038   4.0186   4.0940   4.1666   4.5493   4.5825   4.7755   4.7897
     4.8494   4.9029   4.9990   5.0737   5.1350   5.1955   5.2265   5.2765
     5.3360   5.4135   5.5415   5.6290   5.9284   5.9658   6.1968   6.2223
     6.7610   6.7633   6.8264   6.8783   6.9497   7.0936   7.1718   7.1965
     7.2214   7.2715   7.2942   7.3442   7.3852   7.4122   7.5336   7.5905
     7.6212   7.6613   7.6850   7.7147   7.7486   7.7580   7.9109   7.9138
    10.9160  10.9780  11.5768  11.6372  11.7554  11.8116  11.9428  12.0144
    12.0983  12.1463  12.2016  12.3523  12.6731  12.8542  12.8984  12.9349
    13.0647  13.1445  13.2575  13.3343  13.5246  13.5605  13.6622  13.7072
    15.6999  15.9175  15.9266  16.1453  16.3285  16.5158  16.7209  16.8762
    17.0113  17.0414  17.5602  17.6089  17.9331

          k = 0.1667-0.4788-0.5000 ( 61720 PWs)   bands (ev):

   -65.8171 -65.8171 -65.8171 -65.8171 -65.8162 -65.8162 -65.8162 -65.8162
   -30.2577 -30.2577 -30.2419 -30.2419 -30.2380 -30.2380 -30.2295 -30.2294
   -30.1813 -30.1813 -30.1589 -30.1589 -30.1540 -30.1540 -30.1252 -30.1252
   -30.1228 -30.1228 -30.0866 -30.0866 -30.0797 -30.0797 -30.0440 -30.0440
   -19.9590 -19.9590 -19.9584 -19.9584 -19.9584 -19.9584 -19.9579 -19.9578
   -19.9550 -19.9550 -19.9550 -19.9550 -19.9548 -19.9548 -19.9548 -19.9547
   -19.9468 -19.9468 -19.9466 -19.9466 -19.9459 -19.9459 -19.9459 -19.9458
   -19.9443 -19.9443 -19.9441 -19.9441 -19.9432 -19.9431 -19.9430 -19.9430
   -19.9338 -19.9338 -19.9337 -19.9337 -19.9329 -19.9329 -19.9328 -19.9328
   -19.9113 -19.9113 -19.9101 -19.9101 -19.9089 -19.9089 -19.9079 -19.9079
   -19.9076 -19.9076 -19.9060 -19.9060 -19.9047 -19.9047 -19.9033 -19.9033
    -9.2503  -9.2502  -9.1303  -9.1303  -8.5882  -8.5882  -8.4919  -8.4919
    -8.4168  -8.4167  -8.3655  -8.3655  -8.2256  -8.2255  -8.1772  -8.1772
    -8.1542  -8.1542  -8.0779  -8.0779  -7.7238  -7.7238  -7.5641  -7.5641
     1.8138   1.8138   1.9573   1.9573   3.0583   3.0583   3.2028   3.2028
     3.2687   3.2687   3.2956   3.2956   3.3551   3.3551   3.4410   3.4410
     3.5448   3.5448   3.6019   3.6019   3.6614   3.6614   3.7736   3.7736
     3.8627   3.8628   4.0283   4.0283   4.4575   4.4575   4.5135   4.5135
     4.5617   4.5617   4.6477   4.6477   5.0685   5.0685   5.2397   5.2398
     5.3369   5.3369   5.5131   5.5131   6.0001   6.0001   6.0327   6.0327
     6.7985   6.7985   6.9801   6.9801   6.9931   6.9931   7.0928   7.0928
     7.3838   7.3838   7.4106   7.4107   7.5071   7.5071   7.5968   7.5968
     7.6656   7.6656   7.7027   7.7027   7.7607   7.7608   7.8002   7.8003
    11.4694  11.4694  11.6131  11.6131  11.7253  11.7253  11.8711  11.8711
    12.4068  12.4068  12.4800  12.4800  12.5864  12.5864  12.6406  12.6406
    12.9808  12.9808  13.1111  13.1111  13.5554  13.5554  13.6069  13.6069
    15.8130  15.8130  16.0541  16.0541  16.9825  16.9825  17.1208  17.1208
    17.4344  17.4344  17.5226  17.5226  17.6498

          k = 0.3333 0.0000 0.3333 ( 61748 PWs)   bands (ev):

   -65.8174 -65.8169 -65.8169 -65.8169 -65.8164 -65.8164 -65.8164 -65.8159
   -30.2719 -30.2664 -30.2662 -30.2598 -30.2351 -30.2228 -30.2224 -30.2080
   -30.1851 -30.1690 -30.1689 -30.1538 -30.1429 -30.1363 -30.1359 -30.1273
   -30.1093 -30.1078 -30.1034 -30.1031 -30.0624 -30.0623 -30.0600 -30.0585
   -19.9594 -19.9592 -19.9591 -19.9587 -19.9584 -19.9580 -19.9580 -19.9578
   -19.9567 -19.9566 -19.9566 -19.9565 -19.9534 -19.9531 -19.9531 -19.9529
   -19.9472 -19.9468 -19.9467 -19.9462 -19.9462 -19.9459 -19.9458 -19.9453
   -19.9445 -19.9438 -19.9437 -19.9437 -19.9432 -19.9431 -19.9431 -19.9425
   -19.9339 -19.9337 -19.9335 -19.9334 -19.9332 -19.9331 -19.9329 -19.9326
   -19.9109 -19.9108 -19.9102 -19.9102 -19.9090 -19.9090 -19.9081 -19.9081
   -19.9071 -19.9071 -19.9062 -19.9062 -19.9046 -19.9046 -19.9039 -19.9039
    -9.4380  -9.2119  -9.2049  -9.0409  -8.9976  -8.7659  -8.7476  -8.6126
    -8.5112  -8.4941  -8.4937  -8.4578  -8.1042  -8.0570  -8.0369  -8.0138
    -7.8962  -7.8824  -7.8225  -7.7923  -7.6272  -7.6007  -7.6006  -7.5750
     1.7125   1.7418   1.7465   1.7727   2.4159   2.4192   2.4844   2.4971
     2.6108   2.6117   2.7544   2.8608   3.0235   3.1192   3.1575   3.1805
     3.3972   3.4318   3.8887   3.9771   4.0668   4.0991   4.2361   4.2616
     4.3063   4.3507   4.4582   4.5346   4.6133   4.6525   4.7677   4.7818
     4.9258   5.0556   5.1780   5.2126   5.2354   5.2660   5.3664   5.6047
     5.6214   5.6789   5.6795   5.8258   6.0694   6.0952   6.0957   6.2743
     6.5931   6.6150   6.6458   6.6632   6.6685   6.6961   6.7068   6.7599
     7.1391   7.2558   7.3177   7.3428   7.4268   7.4278   7.5152   7.5196
     7.5518   7.6244   7.8521   7.8574   8.0269   8.0283   8.1391   8.1570
    10.9738  11.0544  11.1592  11.1869  11.4125  11.5694  12.2851  12.2910
    12.3323  12.3682  12.4595  12.5140  12.7185  12.7420  13.0644  13.0741
    13.1246  13.2240  13.2926  13.3393  13.7379  13.8200  13.8387  13.9400
    14.8877  15.1082  15.1177  15.5383  15.9241  16.4139  16.4497  16.7408
    16.9718  17.1366  17.3582  17.7903  17.7937

          k = 0.3333 0.0000-0.5000 ( 61742 PWs)   bands (ev):

   -65.8172 -65.8172 -65.8167 -65.8167 -65.8167 -65.8166 -65.8162 -65.8162
   -30.2687 -30.2687 -30.2626 -30.2625 -30.2278 -30.2278 -30.2142 -30.2141
   -30.1758 -30.1758 -30.1562 -30.1562 -30.1471 -30.1471 -30.1327 -30.1327
   -30.1065 -30.1065 -30.0855 -30.0854 -30.0818 -30.0818 -30.0609 -30.0609
   -19.9593 -19.9593 -19.9589 -19.9589 -19.9582 -19.9582 -19.9579 -19.9579
   -19.9567 -19.9567 -19.9565 -19.9565 -19.9533 -19.9533 -19.9530 -19.9530
   -19.9470 -19.9470 -19.9465 -19.9465 -19.9460 -19.9460 -19.9456 -19.9456
   -19.9441 -19.9441 -19.9435 -19.9435 -19.9434 -19.9434 -19.9428 -19.9428
   -19.9337 -19.9337 -19.9334 -19.9334 -19.9332 -19.9332 -19.9329 -19.9328
   -19.9106 -19.9105 -19.9099 -19.9099 -19.9092 -19.9092 -19.9085 -19.9085
   -19.9067 -19.9067 -19.9059 -19.9059 -19.9051 -19.9051 -19.9043 -19.9043
    -9.3037  -9.3037  -9.0762  -9.0762  -8.8611  -8.8611  -8.5454  -8.5454
    -8.4484  -8.4483  -8.3199  -8.3199  -8.2814  -8.2814  -8.1891  -8.1891
    -7.9886  -7.9886  -7.8510  -7.8510  -7.6150  -7.6150  -7.5889  -7.5889
     1.7274   1.7274   1.7590   1.7590   2.4980   2.4980   2.6162   2.6162
     3.0597   3.0597   3.2146   3.2146   3.2676   3.2676   3.4212   3.4213
     3.5145   3.5145   3.7320   3.7320   3.9098   3.9098   3.9961   3.9961
     4.1196   4.1196   4.2064   4.2064   4.4152   4.4152   4.6056   4.6056
     4.8877   4.8877   5.1223   5.1223   5.2383   5.2383   5.3259   5.3259
     5.4816   5.4817   5.7231   5.7231   6.1132   6.1132   6.2284   6.2284
     6.5415   6.5415   6.5847   6.5847   6.6593   6.6593   6.7038   6.7038
     7.2967   7.2967   7.4348   7.4348   7.5108   7.5108   7.6863   7.6863
     7.7228   7.7228   7.8407   7.8407   7.8659   7.8659   8.1178   8.1178
    11.1072  11.1072  11.7095  11.7095  11.7941  11.7941  11.9296  11.9296
    12.1667  12.1667  12.4153  12.4153  12.7240  12.7240  12.9523  12.9523
    13.1508  13.1508  13.4700  13.4700  13.5098  13.5098  13.8490  13.8490
    15.0293  15.0293  15.3655  15.3655  16.3729  16.3730  16.8364  16.8364
    17.1382  17.1382  17.5797  17.5797  18.0878

          k = 0.3333 0.1596 0.3333 ( 61748 PWs)   bands (ev):

   -65.8174 -65.8169 -65.8169 -65.8169 -65.8164 -65.8164 -65.8164 -65.8159
   -30.2687 -30.2631 -30.2629 -30.2560 -30.2368 -30.2245 -30.2241 -30.2110
   -30.1837 -30.1694 -30.1693 -30.1567 -30.1423 -30.1376 -30.1371 -30.1289
   -30.1092 -30.1080 -30.1034 -30.1032 -30.0624 -30.0623 -30.0599 -30.0586
   -19.9593 -19.9591 -19.9590 -19.9586 -19.9584 -19.9580 -19.9580 -19.9578
   -19.9565 -19.9564 -19.9564 -19.9563 -19.9536 -19.9534 -19.9533 -19.9531
   -19.9471 -19.9467 -19.9467 -19.9463 -19.9462 -19.9459 -19.9459 -19.9454
   -19.9445 -19.9439 -19.9438 -19.9437 -19.9432 -19.9432 -19.9432 -19.9426
   -19.9339 -19.9337 -19.9334 -19.9334 -19.9332 -19.9331 -19.9329 -19.9326
   -19.9109 -19.9108 -19.9102 -19.9102 -19.9090 -19.9090 -19.9081 -19.9081
   -19.9071 -19.9071 -19.9062 -19.9062 -19.9046 -19.9046 -19.9039 -19.9039
    -9.3943  -9.1589  -9.1507  -9.0537  -8.9248  -8.7713  -8.7527  -8.5844
    -8.5021  -8.4849  -8.4775  -8.4526  -8.1152  -8.0564  -8.0416  -8.0131
    -7.8999  -7.8866  -7.8286  -7.7934  -7.7189  -7.6935  -7.6933  -7.6669
     1.9260   1.9590   1.9631   1.9990   2.4167   2.4208   2.4837   2.5028
     2.6156   2.6159   2.7578   2.8643   3.0977   3.2020   3.2270   3.2354
[...]
    11.2078  11.2078  11.7430  11.7430  11.8617  11.8617  11.9338  11.9338
    12.1981  12.1981  12.4497  12.4497  12.7143  12.7143  12.9453  12.9453
    13.0269  13.0269  13.3470  13.3470  13.3908  13.3908  13.7554  13.7554
    15.3566  15.3566  15.7223  15.7223  16.4495  16.4495  16.8394  16.8395
    17.1447  17.1447  17.5933  17.5933  17.9574

          k = 0.3333 0.3192 0.3333 ( 61712 PWs)   bands (ev):

   -65.8173 -65.8170 -65.8168 -65.8168 -65.8165 -65.8165 -65.8163 -65.8160
   -30.2604 -30.2547 -30.2544 -30.2457 -30.2419 -30.2295 -30.2292 -30.2195
   -30.1796 -30.1703 -30.1702 -30.1640 -30.1409 -30.1400 -30.1391 -30.1327
   -30.1090 -30.1083 -30.1034 -30.1033 -30.0624 -30.0623 -30.0597 -30.0589
   -19.9590 -19.9588 -19.9588 -19.9586 -19.9583 -19.9581 -19.9581 -19.9579
   -19.9559 -19.9558 -19.9558 -19.9557 -19.9542 -19.9540 -19.9540 -19.9538
   -19.9469 -19.9466 -19.9465 -19.9464 -19.9461 -19.9461 -19.9460 -19.9456
   -19.9444 -19.9441 -19.9437 -19.9437 -19.9434 -19.9434 -19.9431 -19.9428
   -19.9339 -19.9337 -19.9334 -19.9333 -19.9332 -19.9332 -19.9328 -19.9327
   -19.9109 -19.9108 -19.9102 -19.9102 -19.9090 -19.9090 -19.9081 -19.9081
   -19.9071 -19.9071 -19.9062 -19.9062 -19.9046 -19.9046 -19.9039 -19.9039
    -9.2878  -9.0971  -9.0309  -9.0217  -8.7926  -8.7727  -8.7189  -8.5175
    -8.4977  -8.4185  -8.4159  -8.4021  -8.1885  -8.0687  -8.0649  -8.0182
    -7.9742  -7.9558  -7.9367  -7.8946  -7.8551  -7.8550  -7.7954  -7.7892
     2.3650   2.3779   2.4054   2.4414   2.4979   2.5294   2.5375   2.6069
     2.7136   2.7349   2.7616   2.9337   3.2834   3.3315   3.3952   3.4422
     3.4957   3.5013   3.8181   3.8712   3.9493   4.0460   4.1144   4.2057
     4.2333   4.3352   4.3585   4.4284   4.4882   4.5232   4.5810   4.6742
     4.6925   4.7685   4.8296   4.9164   4.9530   4.9717   5.0111   5.0830
     5.1443   5.1902   5.3359   5.4294   5.5072   5.5639   5.6718   5.6817
     6.8864   6.9252   7.0047   7.0157   7.0893   7.1335   7.1829   7.1912
     7.2527   7.2936   7.3613   7.3676   7.4262   7.4375   7.5151   7.5210
     7.5722   7.6218   7.8228   7.8416   7.8850   7.9110   7.9398   7.9708
    11.2237  11.3053  11.5057  11.5601  11.5991  11.7864  12.2845  12.2937
    12.3483  12.4085  12.4179  12.5013  12.6276  12.7076  12.8019  12.8272
    12.9273  12.9376  13.0546  13.2939  13.3778  13.4731  13.4896  13.6470
    15.9611  16.1023  16.1494  16.3197  16.3935  16.5217  16.7893  16.9443
    16.9826  17.0935  17.2901  17.4034  17.8287

          k = 0.3333 0.3192-0.5000 ( 61728 PWs)   bands (ev):

   -65.8170 -65.8170 -65.8168 -65.8168 -65.8165 -65.8165 -65.8163 -65.8163
   -30.2568 -30.2568 -30.2491 -30.2491 -30.2350 -30.2350 -30.2241 -30.2241
   -30.1732 -30.1732 -30.1557 -30.1557 -30.1542 -30.1542 -30.1371 -30.1371
   -30.1066 -30.1066 -30.0855 -30.0855 -30.0818 -30.0818 -30.0609 -30.0609
   -19.9589 -19.9589 -19.9585 -19.9585 -19.9583 -19.9583 -19.9580 -19.9580
   -19.9559 -19.9559 -19.9557 -19.9557 -19.9541 -19.9541 -19.9539 -19.9539
   -19.9467 -19.9467 -19.9463 -19.9463 -19.9462 -19.9462 -19.9458 -19.9458
   -19.9441 -19.9441 -19.9438 -19.9438 -19.9434 -19.9434 -19.9431 -19.9431
   -19.9336 -19.9336 -19.9335 -19.9335 -19.9331 -19.9331 -19.9329 -19.9329
   -19.9106 -19.9105 -19.9099 -19.9099 -19.9092 -19.9092 -19.9085 -19.9085
   -19.9067 -19.9067 -19.9059 -19.9059 -19.9051 -19.9051 -19.9043 -19.9043
    -9.1324  -9.1323  -8.9078  -8.9078  -8.8274  -8.8274  -8.4881  -8.4881
    -8.4386  -8.4386  -8.3292  -8.3292  -8.2524  -8.2523  -8.1918  -8.1918
    -7.9991  -7.9991  -7.9489  -7.9489  -7.9192  -7.9191  -7.8264  -7.8264
     2.4093   2.4093   2.5261   2.5261   2.5866   2.5866   2.7101   2.7101
     3.2063   3.2063   3.2867   3.2867   3.3552   3.3553   3.4822   3.4822
     3.5622   3.5622   3.7882   3.7882   3.9194   3.9194   4.0250   4.0250
     4.1125   4.1126   4.2737   4.2737   4.3235   4.3235   4.4499   4.4499
     4.5500   4.5500   4.7114   4.7114   4.8183   4.8183   5.0490   5.0490
     5.1333   5.1333   5.2216   5.2217   5.2887   5.2887   5.5172   5.5172
     6.9482   6.9482   7.0643   7.0643   7.1124   7.1124   7.1974   7.1974
     7.3542   7.3542   7.4342   7.4342   7.5194   7.5194   7.6681   7.6681
     7.7000   7.7000   7.7740   7.7740   7.8050   7.8050   7.9383   7.9383
    11.4891  11.4891  11.8121  11.8121  11.9440  11.9440  12.0608  12.0608
    12.3215  12.3215  12.5300  12.5300  12.6176  12.6176  12.7049  12.7049
    12.9560  12.9560  13.0747  13.0747  13.1383  13.1383  13.5048  13.5048
    16.1061  16.1061  16.5450  16.5450  16.7047  16.7047  16.8741  16.8741
    17.1797  17.1797  17.5238  17.5238  17.7956

          k = 0.3333-0.4788 0.3333 ( 61738 PWs)   bands (ev):

   -65.8172 -65.8171 -65.8167 -65.8167 -65.8166 -65.8166 -65.8162 -65.8162
   -30.2504 -30.2504 -30.2479 -30.2478 -30.2343 -30.2343 -30.2322 -30.2321
   -30.1728 -30.1728 -30.1707 -30.1707 -30.1412 -30.1412 -30.1368 -30.1368
   -30.1087 -30.1087 -30.1034 -30.1034 -30.0624 -30.0624 -30.0593 -30.0593
   -19.9588 -19.9588 -19.9587 -19.9587 -19.9581 -19.9581 -19.9581 -19.9580
   -19.9551 -19.9551 -19.9549 -19.9549 -19.9549 -19.9549 -19.9548 -19.9547
   -19.9467 -19.9467 -19.9464 -19.9464 -19.9462 -19.9462 -19.9458 -19.9458
   -19.9443 -19.9443 -19.9437 -19.9437 -19.9435 -19.9435 -19.9430 -19.9430
   -19.9338 -19.9338 -19.9333 -19.9333 -19.9332 -19.9332 -19.9328 -19.9328
   -19.9108 -19.9108 -19.9102 -19.9102 -19.9090 -19.9090 -19.9081 -19.9081
   -19.9071 -19.9071 -19.9062 -19.9062 -19.9046 -19.9046 -19.9039 -19.9039
    -9.1753  -9.1753  -8.9413  -8.9413  -8.8061  -8.8061  -8.5042  -8.5042
    -8.4256  -8.4255  -8.2651  -8.2651  -8.2322  -8.2322  -8.2221  -8.2220
    -8.0291  -8.0291  -7.9756  -7.9756  -7.8727  -7.8727  -7.7975  -7.7975
     2.4025   2.4026   2.4535   2.4535   2.5740   2.5740   2.7375   2.7375
     3.1991   3.1991   3.2673   3.2673   3.3913   3.3913   3.4503   3.4503
     3.4836   3.4836   3.7869   3.7869   3.9060   3.9060   3.9487   3.9487
     4.0118   4.0118   4.2420   4.2420   4.3750   4.3750   4.5664   4.5664
     4.7306   4.7306   4.8046   4.8046   4.9024   4.9024   4.9866   4.9866
     5.0987   5.0987   5.1686   5.1686   5.2168   5.2169   5.6610   5.6610
     6.9957   6.9957   7.1414   7.1414   7.2446   7.2446   7.2837   7.2837
     7.3738   7.3738   7.4025   7.4025   7.4584   7.4584   7.5865   7.5865
     7.6394   7.6394   7.7011   7.7011   7.7691   7.7691   7.8831   7.8831
    11.3108  11.3108  11.8868  11.8868  11.9360  11.9360  12.1097  12.1097
    12.1869  12.1869  12.3951  12.3951  12.5372  12.5372  12.8283  12.8283
    13.0209  13.0209  13.1413  13.1413  13.1969  13.1969  13.4593  13.4594
    16.3294  16.3294  16.5629  16.5629  16.6944  16.6944  16.8458  16.8458
    17.1493  17.1493  17.6352  17.6352  17.7289

          k = 0.3333-0.4788-0.5000 ( 61712 PWs)   bands (ev):

   -65.8169 -65.8169 -65.8169 -65.8169 -65.8164 -65.8164 -65.8164 -65.8164
   -30.2491 -30.2491 -30.2411 -30.2411 -30.2388 -30.2388 -30.2332 -30.2332
   -30.1718 -30.1718 -30.1577 -30.1577 -30.1549 -30.1549 -30.1386 -30.1386
   -30.1066 -30.1066 -30.0856 -30.0855 -30.0818 -30.0818 -30.0609 -30.0609
   -19.9588 -19.9587 -19.9584 -19.9584 -19.9584 -19.9584 -19.9581 -19.9581
   -19.9550 -19.9550 -19.9550 -19.9550 -19.9548 -19.9548 -19.9548 -19.9548
   -19.9466 -19.9466 -19.9464 -19.9464 -19.9461 -19.9461 -19.9460 -19.9460
   -19.9440 -19.9440 -19.9439 -19.9439 -19.9434 -19.9434 -19.9433 -19.9433
   -19.9336 -19.9335 -19.9335 -19.9335 -19.9330 -19.9330 -19.9330 -19.9330
   -19.9106 -19.9105 -19.9099 -19.9099 -19.9092 -19.9092 -19.9085 -19.9085
   -19.9067 -19.9067 -19.9059 -19.9059 -19.9051 -19.9051 -19.9043 -19.9043
    -9.0374  -9.0374  -8.9553  -8.9553  -8.6465  -8.6465  -8.5706  -8.5705
    -8.3512  -8.3512  -8.3142  -8.3142  -8.2154  -8.2154  -8.1817  -8.1817
    -8.1517  -8.1517  -8.0850  -8.0850  -7.9768  -7.9768  -7.8372  -7.8372
     2.4629   2.4630   2.5848   2.5848   3.0944   3.0944   3.1838   3.1838
     3.2766   3.2767   3.3336   3.3336   3.3770   3.3770   3.4507   3.4507
     3.6140   3.6141   3.6525   3.6525   3.7924   3.7924   3.9272   3.9272
     4.0195   4.0195   4.1306   4.1306   4.3625   4.3625   4.4584   4.4584
     4.5669   4.5670   4.5907   4.5907   4.6871   4.6871   4.7710   4.7710
     4.8727   4.8728   5.0358   5.0358   5.2558   5.2558   5.2909   5.2909
     7.0600   7.0600   7.2245   7.2245   7.2925   7.2925   7.3406   7.3406
     7.4281   7.4281   7.4600   7.4600   7.5745   7.5746   7.5916   7.5917
     7.6609   7.6609   7.7187   7.7187   7.7683   7.7684   7.8215   7.8215
    11.7321  11.7321  11.8268  11.8268  12.0318  12.0318  12.1512  12.1512
    12.3895  12.3895  12.4968  12.4968  12.5588  12.5588  12.6316  12.6316
    12.7705  12.7705  12.8814  12.8814  13.1980  13.1980  13.2759  13.2759
    16.5216  16.5216  16.6912  16.6912  17.1263  17.1263  17.2351  17.2351
    17.4302  17.4302  17.5287  17.5287  17.6479

          k =-0.5000 0.0000-0.5000 ( 61772 PWs)   bands (ev):

   -65.8169 -65.8169 -65.8169 -65.8169 -65.8164 -65.8164 -65.8164 -65.8164
   -30.2653 -30.2653 -30.2650 -30.2650 -30.2202 -30.2202 -30.2196 -30.2196
   -30.1648 -30.1648 -30.1648 -30.1648 -30.1427 -30.1427 -30.1422 -30.1422
   -30.0847 -30.0847 -30.0845 -30.0845 -30.0833 -30.0833 -30.0829 -30.0829
   -19.9591 -19.9591 -19.9590 -19.9590 -19.9581 -19.9581 -19.9581 -19.9581
   -19.9566 -19.9566 -19.9566 -19.9566 -19.9532 -19.9532 -19.9531 -19.9531
   -19.9467 -19.9467 -19.9467 -19.9467 -19.9458 -19.9458 -19.9458 -19.9458
   -19.9439 -19.9438 -19.9438 -19.9438 -19.9432 -19.9431 -19.9431 -19.9431
   -19.9335 -19.9334 -19.9334 -19.9334 -19.9332 -19.9331 -19.9331 -19.9331
   -19.9096 -19.9096 -19.9096 -19.9096 -19.9095 -19.9095 -19.9094 -19.9094
   -19.9056 -19.9056 -19.9056 -19.9056 -19.9055 -19.9055 -19.9054 -19.9054
    -9.1702  -9.1702  -9.1609  -9.1609  -8.6169  -8.6169  -8.5640  -8.5640
    -8.4364  -8.4364  -8.3706  -8.3706  -8.2007  -8.2007  -8.1752  -8.1752
    -8.1414  -8.1414  -8.1027  -8.1027  -7.6034  -7.6034  -7.6027  -7.6027
     1.7400   1.7400   1.7466   1.7466   3.0886   3.0886   3.1092   3.1092
     3.2610   3.2611   3.2668   3.2668   3.3600   3.3600   3.4205   3.4205
     3.5892   3.5892   3.6012   3.6012   3.8177   3.8177   3.9348   3.9348
     3.9430   3.9430   4.1131   4.1131   4.4028   4.4028   4.4539   4.4539
     4.4927   4.4927   4.5874   4.5874   5.1321   5.1321   5.1658   5.1658
     5.5559   5.5559   5.5974   5.5974   6.2108   6.2108   6.2110   6.2110
     6.5430   6.5430   6.5613   6.5613   6.5871   6.5871   6.6048   6.6048
     7.5758   7.5758   7.5864   7.5864   7.5954   7.5954   7.6896   7.6896
     7.7627   7.7627   7.8032   7.8032   7.8829   7.8829   8.0101   8.0101
    11.6535  11.6535  11.7448  11.7448  11.8509  11.8509  11.9253  11.9253
    12.3063  12.3063  12.3447  12.3447  12.5045  12.5045  12.5352  12.5352
    13.3307  13.3307  13.4214  13.4214  13.5278  13.5278  13.6115  13.6115
    15.2318  15.2318  15.2325  15.2325  16.7830  16.7830  16.9475  16.9475
    17.6797  17.6797  17.7102  17.7102  17.8523

          k =-0.5000 0.1596-0.5000 ( 61812 PWs)   bands (ev):

   -65.8169 -65.8169 -65.8169 -65.8169 -65.8165 -65.8164 -65.8164 -65.8164
   -30.2617 -30.2617 -30.2614 -30.2614 -30.2225 -30.2225 -30.2220 -30.2220
   -30.1639 -30.1639 -30.1639 -30.1638 -30.1450 -30.1449 -30.1444 -30.1444
   -30.0846 -30.0846 -30.0844 -30.0844 -30.0834 -30.0834 -30.0831 -30.0830
   -19.9590 -19.9590 -19.9589 -19.9589 -19.9582 -19.9581 -19.9581 -19.9581
   -19.9564 -19.9564 -19.9564 -19.9564 -19.9534 -19.9534 -19.9534 -19.9534
   -19.9467 -19.9467 -19.9466 -19.9466 -19.9459 -19.9459 -19.9458 -19.9458
   -19.9438 -19.9438 -19.9438 -19.9438 -19.9433 -19.9432 -19.9432 -19.9432
   -19.9334 -19.9334 -19.9334 -19.9334 -19.9332 -19.9332 -19.9331 -19.9331
   -19.9096 -19.9096 -19.9096 -19.9096 -19.9095 -19.9095 -19.9094 -19.9094
   -19.9056 -19.9056 -19.9056 -19.9056 -19.9055 -19.9055 -19.9054 -19.9054
    -9.1095  -9.1095  -9.0987  -9.0987  -8.6292  -8.6292  -8.5782  -8.5782
    -8.4216  -8.4216  -8.3559  -8.3559  -8.1995  -8.1994  -8.1763  -8.1763
    -8.1425  -8.1425  -8.1028  -8.1027  -7.6987  -7.6987  -7.6974  -7.6973
     1.9638   1.9638   1.9706   1.9706   3.1043   3.1043   3.1307   3.1307
     3.2654   3.2654   3.2697   3.2697   3.3821   3.3821   3.4515   3.4515
     3.5837   3.5837   3.5956   3.5956   3.8634   3.8634   3.9756   3.9756
     3.9863   3.9863   4.1562   4.1562   4.3809   4.3809   4.4308   4.4308
     4.4915   4.4915   4.5866   4.5866   4.9148   4.9149   4.9442   4.9442
     5.3167   5.3167   5.3431   5.3432   5.9521   5.9521   5.9545   5.9545
     6.6944   6.6944   6.7504   6.7504   6.7843   6.7843   6.8166   6.8166
     7.5797   7.5797   7.5864   7.5864   7.5913   7.5913   7.6885   7.6885
     7.7576   7.7576   7.7851   7.7851   7.8745   7.8745   7.9752   7.9752
    11.7172  11.7172  11.8117  11.8117  11.9011  11.9011  11.9867  11.9867
    12.3067  12.3067  12.3409  12.3409  12.5217  12.5217  12.5482  12.5482
    13.2008  13.2008  13.2850  13.2850  13.4163  13.4163  13.4914  13.4915
    15.5890  15.5890  15.5913  15.5913  16.8464  16.8464  16.9987  16.9987
    17.6259  17.6259  17.6965  17.6965  17.8582

          k =-0.5000 0.3192-0.5000 ( 61748 PWs)   bands (ev):

   -65.8168 -65.8168 -65.8168 -65.8168 -65.8165 -65.8165 -65.8165 -65.8165
   -30.2522 -30.2522 -30.2519 -30.2519 -30.2294 -30.2294 -30.2289 -30.2289
   -30.1611 -30.1611 -30.1610 -30.1610 -30.1504 -30.1504 -30.1500 -30.1499
   -30.0843 -30.0843 -30.0842 -30.0842 -30.0836 -30.0836 -30.0834 -30.0834
   -19.9587 -19.9587 -19.9586 -19.9586 -19.9582 -19.9582 -19.9582 -19.9582
   -19.9558 -19.9558 -19.9558 -19.9558 -19.9540 -19.9540 -19.9540 -19.9540
   -19.9465 -19.9465 -19.9465 -19.9465 -19.9460 -19.9460 -19.9460 -19.9460
   -19.9438 -19.9438 -19.9437 -19.9437 -19.9435 -19.9435 -19.9434 -19.9434
   -19.9334 -19.9334 -19.9333 -19.9333 -19.9332 -19.9332 -19.9332 -19.9331
   -19.9096 -19.9096 -19.9096 -19.9096 -19.9095 -19.9095 -19.9094 -19.9094
   -19.9056 -19.9056 -19.9056 -19.9056 -19.9055 -19.9055 -19.9054 -19.9054
    -8.9531  -8.9531  -8.9355  -8.9355  -8.6736  -8.6735  -8.6303  -8.6303
    -8.3676  -8.3676  -8.3019  -8.3019  -8.1965  -8.1965  -8.1786  -8.1785
    -8.1514  -8.1514  -8.1011  -8.1011  -7.9280  -7.9280  -7.9196  -7.9196
     2.5522   2.5522   2.5586   2.5586   3.1359   3.1359   3.1714   3.1714
     3.2731   3.2731   3.2751   3.2751   3.4379   3.4379   3.5306   3.5306
     3.5582   3.5582   3.5771   3.5771   3.9877   3.9877   4.0489   4.0489
     4.1277   4.1277   4.1653   4.1653   4.2931   4.2931   4.3487   4.3487
     4.4794   4.4794   4.5850   4.5850   4.6125   4.6125   4.6352   4.6352
     4.9131   4.9131   4.9131   4.9132   5.2698   5.2698   5.2851   5.2851
     7.0051   7.0051   7.0841   7.0841   7.1344   7.1344   7.2041   7.2041
     7.5619   7.5619   7.5700   7.5700   7.5721   7.5721   7.6766   7.6766
     7.7343   7.7343   7.7423   7.7423   7.8227   7.8227   7.8815   7.8816
    11.9079  11.9079  11.9809  11.9809  12.0542  12.0542  12.1332  12.1332
    12.3135  12.3135  12.3381  12.3381  12.5889  12.5889  12.6054  12.6054
    12.8834  12.8834  12.9544  12.9544  13.1280  13.1280  13.1804  13.1804
    16.4675  16.4675  16.4699  16.4699  17.0256  17.0256  17.1322  17.1322
    17.4628  17.4628  17.6416  17.6416  17.8791

          k =-0.5000-0.4788-0.5000 ( 61784 PWs)   bands (ev):

   -65.8167 -65.8167 -65.8167 -65.8167 -65.8167 -65.8167 -65.8167 -65.8166
   -30.2409 -30.2409 -30.2398 -30.2398 -30.2398 -30.2397 -30.2394 -30.2394
   -30.1568 -30.1568 -30.1564 -30.1564 -30.1564 -30.1564 -30.1555 -30.1555
   -30.0840 -30.0840 -30.0839 -30.0839 -30.0839 -30.0839 -30.0838 -30.0838
   -19.9585 -19.9585 -19.9584 -19.9584 -19.9584 -19.9584 -19.9584 -19.9584
   -19.9550 -19.9549 -19.9549 -19.9549 -19.9549 -19.9549 -19.9549 -19.9549
   -19.9463 -19.9463 -19.9463 -19.9463 -19.9462 -19.9462 -19.9462 -19.9462
   -19.9437 -19.9437 -19.9436 -19.9436 -19.9436 -19.9436 -19.9436 -19.9436
   -19.9333 -19.9333 -19.9333 -19.9333 -19.9333 -19.9332 -19.9332 -19.9332
   -19.9096 -19.9096 -19.9096 -19.9096 -19.9095 -19.9094 -19.9094 -19.9094
   -19.9056 -19.9056 -19.9056 -19.9056 -19.9055 -19.9054 -19.9054 -19.9054
    -8.8004  -8.8003  -8.7590  -8.7590  -8.7496  -8.7496  -8.7496  -8.7496
    -8.2808  -8.2807  -8.2036  -8.2035  -8.2035  -8.2035  -8.1992  -8.1992
    -8.1477  -8.1477  -8.1477  -8.1477  -8.0876  -8.0876  -8.0704  -8.0704
     3.1049   3.1049   3.1049   3.1049   3.1061   3.1062   3.1375   3.1375
     3.3683   3.3683   3.4115   3.4115   3.4116   3.4116   3.4519   3.4519
     3.5320   3.5320   3.6715   3.6715   3.6715   3.6715   3.7205   3.7205
     4.2999   4.2999   4.3053   4.3053   4.3570   4.3570   4.3570   4.3570
     4.5430   4.5430   4.5430   4.5430   4.5830   4.5831   4.6338   4.6338
     4.6893   4.6893   4.7137   4.7137   4.7445   4.7445   4.7445   4.7445
     7.1659   7.1660   7.3002   7.3002   7.3002   7.3002   7.4514   7.4514
     7.5298   7.5298   7.5298   7.5298   7.5402   7.5402   7.5956   7.5956
     7.7195   7.7195   7.7476   7.7476   7.7476   7.7476   7.8180   7.8180
    12.1225  12.1225  12.1258  12.1258  12.1258  12.1258  12.1313  12.1313
    12.4165  12.4165  12.4758  12.4758  12.4758  12.4759  12.6783  12.6783
    12.7361  12.7361  12.8412  12.8412  12.8412  12.8412  12.8696  12.8696
    17.2001  17.2001  17.2107  17.2107  17.2107  17.2107  17.3063  17.3063
    17.5261  17.5261  17.5261  17.5261  17.6292

     the Fermi energy is    10.3527 ev

!    total energy              =   -6260.47993709 Ry
     Harris-Foulkes estimate   =   -6260.47993709 Ry
     estimated scf accuracy    <          9.5E-10 Ry

     The total energy is the sum of the following terms:

     one-electron contribution =   -4677.87997772 Ry
     hartree contribution      =    2580.21009960 Ry
     xc contribution           =    -966.58677476 Ry
     ewald contribution        =   -3196.22326194 Ry
     smearing contrib. (-TS)   =      -0.00002227 Ry

     convergence has been achieved in  13 iterations

     Writing output data file Landau_22.save
 
     init_run     :     18.05s CPU     18.98s WALL (       1 calls)
     electrons    :    907.72s CPU    922.38s WALL (       1 calls)

     Called by init_run:
     wfcinit      :     16.24s CPU     17.05s WALL (       1 calls)
     potinit      :      0.65s CPU      0.68s WALL (       1 calls)

     Called by electrons:
     c_bands      :    789.55s CPU    802.72s WALL (      13 calls)
     sum_band     :    110.56s CPU    111.11s WALL (      13 calls)
     v_of_rho     :      1.65s CPU      1.68s WALL (      14 calls)
     mix_rho      :      2.12s CPU      2.53s WALL (      13 calls)

     Called by c_bands:
     init_us_2    :      4.53s CPU      5.14s WALL (      27 calls)
     cegterg      :    530.07s CPU    542.94s WALL (      13 calls)

     Called by sum_band:

     Called by *egterg:
     h_psi        :    410.27s CPU    411.96s WALL (      54 calls)
     g_psi        :      1.88s CPU      1.88s WALL (      40 calls)
     cdiaghg      :      6.21s CPU      6.23s WALL (      53 calls)

     Called by h_psi:
     h_psi:pot    :    407.81s CPU    409.28s WALL (      54 calls)
     h_psi:calbec :     51.89s CPU     52.81s WALL (      54 calls)
     vloc_psi     :    301.40s CPU    301.72s WALL (      54 calls)
     add_vuspsi   :     54.52s CPU     54.75s WALL (      54 calls)

     General routines
     calbec       :     51.89s CPU     52.81s WALL (      54 calls)
     fft          :      1.01s CPU      1.01s WALL (      56 calls)
     fftw         :    313.60s CPU    313.73s WALL (   17023 calls)
 
     Parallel routines
 
     PWSCF        : 15m31.85s CPU    15m50.07s WALL

 
   This run was terminated on:  13:55:29  17Sep2019            

=------------------------------------------------------------------------------=
   JOB DONE.
=------------------------------------------------------------------------------=
