
     Program PWSCF v.6.2 (svn rev. 14038) starts on 19Mar2020 at  4: 0:30 

     This program is part of the open-source Quantum ESPRESSO suite
     for quantum simulation of materials; please cite
         "P. Giannozzi et al., J. Phys.:Condens. Matter 21 395502 (2009);
         "P. Giannozzi et al., J. Phys.:Condens. Matter 29 465901 (2017);
          URL http://www.quantum-espresso.org", 
     in publications or presentations arising from this work. More details at
     http://www.quantum-espresso.org/quote

     Parallel version (MPI), running on    40 processors

     MPI processes distributed on     5 nodes
     K-points division:     npool     =      40
     Reading input from scf.in

     Current dimensions of program PWSCF are:
     Max number of different atomic species (ntypx) = 10
     Max number of k-points (npk) =  40000
     Max angular momentum in pseudopotentials (lmaxx) =  3

     Subspace diagonalization in iterative solution of the eigenvalue problem:
     a serial algorithm will be used

 
     G-vector sticks info
     --------------------
     sticks:   dense  smooth     PW     G-vecs:    dense   smooth      PW
     Sum        7745    7745   2079               501661   501661   69617
 


     bravais-lattice index     =            0
     lattice parameter (alat)  =      13.9347  a.u.
     unit-cell volume          =    2824.1872 (a.u.)^3
     number of atoms/cell      =           32
     number of atomic types    =            2
     number of electrons       =       368.20
     number of Kohn-Sham states=          221
     kinetic-energy cutoff     =     120.0000  Ry
     charge density cutoff     =     480.0000  Ry
     convergence threshold     =      1.0E-08
     mixing beta               =       0.7000
     number of iterations used =            8  plain     mixing
     Exchange-correlation      = SLA PW NOGX NOGC ( 1  4  0  0 0 0)

     celldm(1)=  13.934718  celldm(2)=   0.000000  celldm(3)=   0.000000
     celldm(4)=   0.000000  celldm(5)=   0.000000  celldm(6)=   0.000000

     crystal axes: (cart. coord. in units of alat)
               a(1) = (   1.000000   0.000000   0.000000 )  
               a(2) = (   0.000000   1.042550   0.000000 )  
               a(3) = (   0.000000   0.000000   1.001156 )  

     reciprocal axes: (cart. coord. in units 2 pi/alat)
               b(1) = (  1.000000  0.000000  0.000000 )  
               b(2) = (  0.000000  0.959186  0.000000 )  
               b(3) = (  0.000000  0.000000  0.998845 )  


     PseudoPot. # 1 for W  read from file:
     /cluster/scratch/mnoe/QE/pps/W_ONCV_LDA-4.0.upf
     MD5 check sum: ba0307d5d4cd419d6f1d13dc49d7c13a
     Pseudo is Norm-conserving + core correction, Zval = 28.0
     Generated using ONCVPSP code by D. R. Hamann
     Using radial grid of 1380 points,  8 beta functions with: 
                l(1) =   0
                l(2) =   0
                l(3) =   1
                l(4) =   1
                l(5) =   2
                l(6) =   2
                l(7) =   3
                l(8) =   3

     PseudoPot. # 2 for O  read from file:
     /cluster/scratch/mnoe/QE/pps/O_ONCV_LDA-3.0.upf
     MD5 check sum: a1bd6164e7280c17a38c229939bfbd54
     Pseudo is Norm-conserving + core correction, Zval =  6.0
     Generated using ONCVPSP code by D. R. Hamann
     Using radial grid of  926 points,  5 beta functions with: 
                l(1) =   0
                l(2) =   0
                l(3) =   1
                l(4) =   1
                l(5) =   2

     atomic species   valence    mass     pseudopotential
        W             28.00   183.84000     W ( 1.00)
        O              6.00    15.99940     O ( 1.00)

      8 Sym. Ops., with inversion, found ( 6 have fractional translation)



   Cartesian axes

     site n.     atom                  positions (alat units)
         1           W   tau(   1) = (   0.2426000   0.2905489   0.0069981  )
         2           W   tau(   2) = (   0.7574000   0.7520015   0.9941583  )
         3           W   tau(   3) = (   0.2574000   0.2307263   0.5075763  )
         4           W   tau(   4) = (   0.7426000   0.8118240   0.4935801  )
         5           W   tau(   5) = (   0.7574000   0.2905489   0.4935801  )
         6           W   tau(   6) = (   0.2426000   0.7520015   0.5075763  )
         7           W   tau(   7) = (   0.7426000   0.2307263   0.9941583  )
         8           W   tau(   8) = (   0.2574000   0.8118240   0.0069981  )
         9           O   tau(   9) = (   0.2363500   0.0077738   0.0021725  )
        10           O   tau(  10) = (   0.7636500   1.0347766   0.9989838  )
        11           O   tau(  11) = (   0.2636500   0.5135014   0.5027507  )
        12           O   tau(  12) = (   0.7363500   0.5290490   0.4984057  )
        13           O   tau(  13) = (   0.7636500   0.0077738   0.4984057  )
        14           O   tau(  14) = (   0.2363500   1.0347766   0.5027507  )
        15           O   tau(  15) = (   0.7363500   0.5135014   0.9989838  )
        16           O   tau(  16) = (   0.2636500   0.5290490   0.0021725  )
        17           O   tau(  17) = (   0.5020200   0.2460419   0.4578189  )
        18           O   tau(  18) = (   0.4979800   0.7965085   0.5433375  )
        19           O   tau(  19) = (   0.9979800   0.2752333   0.9583971  )
        20           O   tau(  20) = (   0.0020200   0.7673171   0.0427593  )
        21           O   tau(  21) = (   0.4979800   0.2460419   0.0427593  )
        22           O   tau(  22) = (   0.5020200   0.7965085   0.9583971  )
        23           O   tau(  23) = (   0.0020200   0.2752333   0.5433375  )
        24           O   tau(  24) = (   0.9979800   0.7673171   0.4578189  )
        25           O   tau(  25) = (   0.7072901   0.2574474   0.7477937  )
        26           O   tau(  26) = (   0.2927099   0.7851030   0.2533626  )
        27           O   tau(  27) = (   0.7927099   0.2638278   0.2472156  )
        28           O   tau(  28) = (   0.2072901   0.7787226   0.7539409  )
        29           O   tau(  29) = (   0.2927099   0.2574474   0.7539409  )
        30           O   tau(  30) = (   0.7072901   0.7851030   0.2472156  )
        31           O   tau(  31) = (   0.2072901   0.2638278   0.2533626  )
        32           O   tau(  32) = (   0.7927099   0.7787226   0.7477937  )

     number of k points=    64  gaussian smearing, width (Ry)=  0.0007
                       cart. coord. in units 2pi/alat
        k(    1) = (   0.0000000   0.0000000   0.0000000), wk =   0.0092593
        k(    2) = (   0.0000000   0.0000000   0.1664742), wk =   0.0185185
        k(    3) = (   0.0000000   0.0000000   0.3329483), wk =   0.0185185
        k(    4) = (   0.0000000   0.0000000  -0.4994225), wk =   0.0092593
        k(    5) = (   0.0000000   0.1598644   0.0000000), wk =   0.0185185
        k(    6) = (   0.0000000   0.1598644   0.1664742), wk =   0.0370370
        k(    7) = (   0.0000000   0.1598644   0.3329483), wk =   0.0370370
        k(    8) = (   0.0000000   0.1598644  -0.4994225), wk =   0.0185185
        k(    9) = (   0.0000000   0.3197288   0.0000000), wk =   0.0185185
        k(   10) = (   0.0000000   0.3197288   0.1664742), wk =   0.0370370
        k(   11) = (   0.0000000   0.3197288   0.3329483), wk =   0.0370370
        k(   12) = (   0.0000000   0.3197288  -0.4994225), wk =   0.0185185
        k(   13) = (   0.0000000  -0.4795931   0.0000000), wk =   0.0092593
        k(   14) = (   0.0000000  -0.4795931   0.1664742), wk =   0.0185185
        k(   15) = (   0.0000000  -0.4795931   0.3329483), wk =   0.0185185
        k(   16) = (   0.0000000  -0.4795931  -0.4994225), wk =   0.0092593
        k(   17) = (   0.1666667   0.0000000   0.0000000), wk =   0.0185185
        k(   18) = (   0.1666667   0.0000000   0.1664742), wk =   0.0370370
        k(   19) = (   0.1666667   0.0000000   0.3329483), wk =   0.0370370
        k(   20) = (   0.1666667   0.0000000  -0.4994225), wk =   0.0185185
        k(   21) = (   0.1666667   0.1598644   0.0000000), wk =   0.0370370
        k(   22) = (   0.1666667   0.1598644   0.1664742), wk =   0.0740741
        k(   23) = (   0.1666667   0.1598644   0.3329483), wk =   0.0740741
        k(   24) = (   0.1666667   0.1598644  -0.4994225), wk =   0.0370370
        k(   25) = (   0.1666667   0.3197288   0.0000000), wk =   0.0370370
        k(   26) = (   0.1666667   0.3197288   0.1664742), wk =   0.0740741
        k(   27) = (   0.1666667   0.3197288   0.3329483), wk =   0.0740741
        k(   28) = (   0.1666667   0.3197288  -0.4994225), wk =   0.0370370
        k(   29) = (   0.1666667  -0.4795931   0.0000000), wk =   0.0185185
        k(   30) = (   0.1666667  -0.4795931   0.1664742), wk =   0.0370370
        k(   31) = (   0.1666667  -0.4795931   0.3329483), wk =   0.0370370
        k(   32) = (   0.1666667  -0.4795931  -0.4994225), wk =   0.0185185
        k(   33) = (   0.3333333   0.0000000   0.0000000), wk =   0.0185185
        k(   34) = (   0.3333333   0.0000000   0.1664742), wk =   0.0370370
        k(   35) = (   0.3333333   0.0000000   0.3329483), wk =   0.0370370
        k(   36) = (   0.3333333   0.0000000  -0.4994225), wk =   0.0185185
        k(   37) = (   0.3333333   0.1598644   0.0000000), wk =   0.0370370
        k(   38) = (   0.3333333   0.1598644   0.1664742), wk =   0.0740741
        k(   39) = (   0.3333333   0.1598644   0.3329483), wk =   0.0740741
        k(   40) = (   0.3333333   0.1598644  -0.4994225), wk =   0.0370370
        k(   41) = (   0.3333333   0.3197288   0.0000000), wk =   0.0370370
        k(   42) = (   0.3333333   0.3197288   0.1664742), wk =   0.0740741
        k(   43) = (   0.3333333   0.3197288   0.3329483), wk =   0.0740741
        k(   44) = (   0.3333333   0.3197288  -0.4994225), wk =   0.0370370
        k(   45) = (   0.3333333  -0.4795931   0.0000000), wk =   0.0185185
        k(   46) = (   0.3333333  -0.4795931   0.1664742), wk =   0.0370370
        k(   47) = (   0.3333333  -0.4795931   0.3329483), wk =   0.0370370
        k(   48) = (   0.3333333  -0.4795931  -0.4994225), wk =   0.0185185
        k(   49) = (  -0.5000000   0.0000000   0.0000000), wk =   0.0092593
        k(   50) = (  -0.5000000   0.0000000   0.1664742), wk =   0.0185185
        k(   51) = (  -0.5000000   0.0000000   0.3329483), wk =   0.0185185
        k(   52) = (  -0.5000000   0.0000000  -0.4994225), wk =   0.0092593
        k(   53) = (  -0.5000000   0.1598644   0.0000000), wk =   0.0185185
        k(   54) = (  -0.5000000   0.1598644   0.1664742), wk =   0.0370370
        k(   55) = (  -0.5000000   0.1598644   0.3329483), wk =   0.0370370
        k(   56) = (  -0.5000000   0.1598644  -0.4994225), wk =   0.0185185
        k(   57) = (  -0.5000000   0.3197288   0.0000000), wk =   0.0185185
        k(   58) = (  -0.5000000   0.3197288   0.1664742), wk =   0.0370370
        k(   59) = (  -0.5000000   0.3197288   0.3329483), wk =   0.0370370
        k(   60) = (  -0.5000000   0.3197288  -0.4994225), wk =   0.0185185
        k(   61) = (  -0.5000000  -0.4795931   0.0000000), wk =   0.0092593
        k(   62) = (  -0.5000000  -0.4795931   0.1664742), wk =   0.0185185
        k(   63) = (  -0.5000000  -0.4795931   0.3329483), wk =   0.0185185
        k(   64) = (  -0.5000000  -0.4795931  -0.4994225), wk =   0.0092593

     Dense  grid:   501661 G-vectors     FFT dimensions: ( 100, 108, 100)

     Estimated max dynamical RAM per process >       3.15 GB

     Estimated total dynamical RAM >     125.91 GB

     Initial potential from superposition of free atoms

     starting charge  367.99656, renormalised to  368.20000
     Starting wfc are  232 randomized atomic wfcs

     total cpu time spent up to now is       50.2 secs

     Self-consistent Calculation

     iteration #  1     ecut=   120.00 Ry     beta= 0.70
     Davidson diagonalization with overlap
     ethr =  1.00E-02,  avg # of iterations =  5.1

     total cpu time spent up to now is      216.8 secs

     total energy              =   -6253.79892014 Ry
     Harris-Foulkes estimate   =   -6264.49374900 Ry
     estimated scf accuracy    <      13.51875658 Ry

     iteration #  2     ecut=   120.00 Ry     beta= 0.70
     Davidson diagonalization with overlap
     ethr =  3.67E-03,  avg # of iterations =  3.5

     total cpu time spent up to now is      380.8 secs

     total energy              =   -6250.67607465 Ry
     Harris-Foulkes estimate   =   -6270.65878021 Ry
     estimated scf accuracy    <      53.53229500 Ry

     iteration #  3     ecut=   120.00 Ry     beta= 0.70
     Davidson diagonalization with overlap
     ethr =  3.67E-03,  avg # of iterations =  3.4

     total cpu time spent up to now is      533.7 secs

     total energy              =   -6260.95849311 Ry
     Harris-Foulkes estimate   =   -6261.23702696 Ry
     estimated scf accuracy    <       0.92198134 Ry

     iteration #  4     ecut=   120.00 Ry     beta= 0.70
     Davidson diagonalization with overlap
     ethr =  2.50E-04,  avg # of iterations =  3.0

     total cpu time spent up to now is      654.5 secs

     total energy              =   -6260.95234647 Ry
     Harris-Foulkes estimate   =   -6261.02557435 Ry
     estimated scf accuracy    <       0.22301963 Ry

     iteration #  5     ecut=   120.00 Ry     beta= 0.70
     Davidson diagonalization with overlap
     ethr =  6.06E-05,  avg # of iterations =  5.1

     total cpu time spent up to now is      785.7 secs

     total energy              =   -6260.95826120 Ry
     Harris-Foulkes estimate   =   -6260.98715219 Ry
     estimated scf accuracy    <       0.06536053 Ry

     iteration #  6     ecut=   120.00 Ry     beta= 0.70
     Davidson diagonalization with overlap
     ethr =  1.78E-05,  avg # of iterations =  6.2

     total cpu time spent up to now is      928.2 secs

     total energy              =   -6260.97206664 Ry
     Harris-Foulkes estimate   =   -6260.97472408 Ry
     estimated scf accuracy    <       0.00696727 Ry

     iteration #  7     ecut=   120.00 Ry     beta= 0.70
     Davidson diagonalization with overlap
     ethr =  1.89E-06,  avg # of iterations =  5.9

     total cpu time spent up to now is     1066.7 secs

     total energy              =   -6260.97299743 Ry
     Harris-Foulkes estimate   =   -6260.97307370 Ry
     estimated scf accuracy    <       0.00013782 Ry

     iteration #  8     ecut=   120.00 Ry     beta= 0.70
     Davidson diagonalization with overlap
     ethr =  3.74E-08,  avg # of iterations =  3.2

     total cpu time spent up to now is     1234.6 secs

     total energy              =   -6260.97305988 Ry
     Harris-Foulkes estimate   =   -6260.97306891 Ry
     estimated scf accuracy    <       0.00004387 Ry

     iteration #  9     ecut=   120.00 Ry     beta= 0.70
     Davidson diagonalization with overlap
     ethr =  1.19E-08,  avg # of iterations =  1.0

     total cpu time spent up to now is     1347.5 secs

     total energy              =   -6260.97305756 Ry
     Harris-Foulkes estimate   =   -6260.97306277 Ry
     estimated scf accuracy    <       0.00002201 Ry

     iteration # 10     ecut=   120.00 Ry     beta= 0.70
     Davidson diagonalization with overlap
     ethr =  5.98E-09,  avg # of iterations =  1.9

     total cpu time spent up to now is     1463.6 secs

     total energy              =   -6260.97305645 Ry
     Harris-Foulkes estimate   =   -6260.97305916 Ry
     estimated scf accuracy    <       0.00000634 Ry

     iteration # 11     ecut=   120.00 Ry     beta= 0.70
     Davidson diagonalization with overlap
     ethr =  1.72E-09,  avg # of iterations =  2.9

     total cpu time spent up to now is     1590.4 secs

     total energy              =   -6260.97305784 Ry
     Harris-Foulkes estimate   =   -6260.97305791 Ry
     estimated scf accuracy    <       0.00000018 Ry

     iteration # 12     ecut=   120.00 Ry     beta= 0.70
     Davidson diagonalization with overlap
     ethr =  4.99E-11,  avg # of iterations =  2.1

     total cpu time spent up to now is     1734.0 secs

     total energy              =   -6260.97305784 Ry
     Harris-Foulkes estimate   =   -6260.97305787 Ry
     estimated scf accuracy    <       0.00000005 Ry

     iteration # 13     ecut=   120.00 Ry     beta= 0.70
     Davidson diagonalization with overlap
     ethr =  1.42E-11,  avg # of iterations =  2.7

     total cpu time spent up to now is     1880.5 secs

     End of self-consistent calculation

          k = 0.0000 0.0000 0.0000 ( 62659 PWs)   bands (ev):

   -66.2485 -66.2480 -66.2476 -66.2476 -66.2472 -66.2471 -66.2467 -66.2462
   -30.6488 -30.6443 -30.6436 -30.6393 -30.6010 -30.5943 -30.5940 -30.5937
   -30.5934 -30.5862 -30.5856 -30.5845 -30.5765 -30.5739 -30.5688 -30.5680
   -30.4978 -30.4959 -30.4955 -30.4954 -30.4941 -30.4921 -30.4893 -30.4868
   -20.4074 -20.4074 -20.4073 -20.4073 -20.4072 -20.4072 -20.4071 -20.4071
   -20.3930 -20.3927 -20.3926 -20.3922 -20.3882 -20.3878 -20.3876 -20.3870
   -20.3870 -20.3865 -20.3863 -20.3859 -20.3856 -20.3852 -20.3852 -20.3849
   -20.3847 -20.3847 -20.3845 -20.3842 -20.3838 -20.3836 -20.3835 -20.3831
   -20.3774 -20.3771 -20.3770 -20.3768 -20.3746 -20.3742 -20.3742 -20.3739
   -20.3708 -20.3708 -20.3696 -20.3695 -20.3676 -20.3675 -20.3664 -20.3663
   -20.3638 -20.3636 -20.3627 -20.3626 -20.3623 -20.3622 -20.3610 -20.3610
   -10.0338  -9.7391  -9.6262  -9.6253  -9.3459  -9.3378  -9.2200  -9.1278
    -9.1113  -9.0102  -8.9848  -8.9833  -7.9434  -7.8793  -7.8716  -7.8562
    -7.8475  -7.8236  -7.8231  -7.8207  -7.7397  -7.7359  -7.7122  -7.7115
     1.0812   1.0852   1.1559   1.1655   1.1838   1.2037   1.2196   1.4418
     1.4712   1.4855   1.4870   1.7114   2.3503   2.4369   2.4716   2.4819
     2.6045   2.6215   4.0960   4.1208   4.2943   4.3371   4.6576   4.6602
     4.6774   4.7003   4.7037   4.7082   4.8749   4.8796   5.0379   5.3480
     5.3805   5.3896   5.4089   5.4620   5.4653   5.4999   5.5359   5.7215
     5.7266   5.7662   5.7755   5.8001   5.8862   5.9948   6.0112   6.0121
     6.0184   6.2049   6.2171   6.3975   6.4010   6.7327   6.7420   6.7770
     6.7897   6.8123   6.9093   6.9383   6.9680   6.9875   7.1980   7.2190
     7.2222   7.2407   7.8265   7.8408   7.9656   8.0097   8.0328   8.0762
     9.1840   9.1998   9.7648   9.7701   9.7771   9.7861  12.2049  12.2083
    12.2807  12.3004  12.3150  12.3330  12.4419  12.4664  12.7382  12.8983
    13.0880  13.1608  13.1943  13.1944  13.6871  13.8555  14.0229  14.0332
    14.1853  14.2998  14.4492  14.7754  15.1794  15.1956  15.4584  15.8879
    15.9181  16.7721  16.9498  16.9841  17.2555

          k = 0.0000 0.0000 0.1665 ( 62703 PWs)   bands (ev):

   -66.2484 -66.2480 -66.2477 -66.2475 -66.2472 -66.2471 -66.2468 -66.2463
   -30.6485 -30.6446 -30.6434 -30.6397 -30.5993 -30.5940 -30.5915 -30.5911
   -30.5892 -30.5860 -30.5816 -30.5781 -30.5769 -30.5716 -30.5692 -30.5665
   -30.5042 -30.5019 -30.5010 -30.4986 -30.4956 -30.4918 -30.4912 -30.4877
   -20.4074 -20.4074 -20.4073 -20.4073 -20.4072 -20.4072 -20.4071 -20.4071
   -20.3930 -20.3927 -20.3926 -20.3923 -20.3882 -20.3878 -20.3876 -20.3871
   -20.3870 -20.3866 -20.3863 -20.3859 -20.3857 -20.3853 -20.3853 -20.3847
   -20.3846 -20.3846 -20.3845 -20.3841 -20.3838 -20.3836 -20.3836 -20.3832
   -20.3774 -20.3771 -20.3771 -20.3768 -20.3746 -20.3742 -20.3742 -20.3739
   -20.3703 -20.3703 -20.3691 -20.3691 -20.3675 -20.3674 -20.3665 -20.3664
   -20.3642 -20.3641 -20.3632 -20.3631 -20.3622 -20.3622 -20.3611 -20.3611
    -9.9889  -9.6860  -9.6410  -9.5664  -9.3497  -9.2566  -9.2282  -9.0905
    -9.0708  -8.9970  -8.9869  -8.9526  -7.9786  -7.9718  -7.9302  -7.8829
    -7.8719  -7.8705  -7.8390  -7.8353  -7.8239  -7.8151  -7.7432  -7.7188
     1.1567   1.1660   1.1752   1.2078   1.2955   1.3177   1.4364   1.4460
     1.4812   1.5737   1.6595   1.8317   2.4362   2.4788   2.5265   2.5677
     2.5963   2.7066   4.0375   4.0985   4.2648   4.3205   4.3219   4.3502
     4.4966   4.6491   4.6503   4.7444   4.7451   4.8771   5.0266   5.1869
     5.2179   5.3561   5.3696   5.4610   5.4804   5.5085   5.5385   5.5476
     5.6139   5.7206   5.7716   5.7889   5.8963   5.9630   6.0199   6.0694
     6.1840   6.3491   6.3903   6.4164   6.6075   6.6498   6.6804   6.7350
     6.7372   6.8053   6.8619   6.8788   6.9288   6.9933   6.9991   7.0026
     7.0505   7.0941   7.8170   7.8227   7.9654   7.9876   8.0291   8.0348
     9.5286   9.5345   9.7683   9.7795  10.0426  10.0752  12.1297  12.1899
    12.2642  12.2650  12.3302  12.3664  12.4681  12.5297  12.7776  12.7874
    12.9295  13.1577  13.1644  13.2018  13.7682  13.8543  13.8807  13.9058
    14.2163  14.4408  14.4450  14.8852  15.2295  15.2696  15.4256  15.8906
    16.2207  16.7077  16.9454  17.1385  17.3435

          k = 0.0000 0.0000 0.3329 ( 62626 PWs)   bands (ev):

   -66.2483 -66.2478 -66.2478 -66.2474 -66.2474 -66.2469 -66.2469 -66.2465
   -30.6478 -30.6455 -30.6427 -30.6405 -30.5976 -30.5949 -30.5898 -30.5869
   -30.5839 -30.5794 -30.5780 -30.5706 -30.5655 -30.5620 -30.5611 -30.5588
   -30.5210 -30.5191 -30.5173 -30.5150 -30.4948 -30.4926 -30.4911 -30.4888
   -20.4074 -20.4074 -20.4073 -20.4073 -20.4073 -20.4073 -20.4072 -20.4072
   -20.3930 -20.3928 -20.3925 -20.3924 -20.3881 -20.3879 -20.3875 -20.3872
   -20.3869 -20.3867 -20.3862 -20.3859 -20.3858 -20.3855 -20.3853 -20.3849
   -20.3843 -20.3843 -20.3842 -20.3839 -20.3838 -20.3838 -20.3837 -20.3833
   -20.3774 -20.3772 -20.3771 -20.3769 -20.3745 -20.3743 -20.3742 -20.3740
   -20.3691 -20.3690 -20.3679 -20.3679 -20.3673 -20.3672 -20.3667 -20.3667
   -20.3655 -20.3653 -20.3644 -20.3644 -20.3620 -20.3619 -20.3613 -20.3613
    -9.8812  -9.6871  -9.5651  -9.4316  -9.3868  -9.2559  -9.0328  -9.0025
    -8.9967  -8.9252  -8.8913  -8.8279  -8.2813  -8.2776  -8.2048  -8.1923
    -7.9176  -7.8928  -7.8552  -7.8325  -7.8184  -7.7947  -7.7633  -7.7389
     1.1679   1.1723   1.2187   1.2316   1.3952   1.4243   1.4262   1.4726
     2.1507   2.1980   2.3160   2.3997   2.5017   2.5822   2.6843   2.7845
     2.8049   2.9376   3.6570   3.7620   3.7637   3.9077   4.0126   4.1910
     4.2739   4.4325   4.4417   4.6179   4.6398   4.6878   4.8334   4.9713
     5.0181   5.0229   5.0664   5.2628   5.3016   5.3799   5.5921   5.6000
     5.6781   5.6785   5.7600   5.8223   5.9284   6.0539   6.1476   6.1892
     6.1937   6.2992   6.3546   6.4322   6.4508   6.4727   6.4801   6.6872
     6.7274   6.7962   6.8019   6.8715   6.9503   6.9689   6.9894   7.0470
     7.1808   7.2296   7.7084   7.7281   7.8281   7.8804   8.0204   8.0367
     9.7454   9.7629  10.2484  10.3107  10.6810  10.7525  11.7370  11.7847
    12.0198  12.2915  12.4229  12.4703  12.4953  12.5232  12.6233  12.7723
    12.7730  13.0428  13.0867  13.1861  13.5431  13.5801  13.8476  13.8521
    14.3269  14.4313  14.7882  15.1686  15.3192  15.4230  15.7308  15.8047
    16.1615  17.1148  17.2705  17.4983  17.7163

          k = 0.0000 0.0000-0.4994 ( 62736 PWs)   bands (ev):

   -66.2481 -66.2480 -66.2476 -66.2476 -66.2471 -66.2471 -66.2467 -66.2467
   -30.6467 -30.6467 -30.6417 -30.6417 -30.5962 -30.5962 -30.5883 -30.5883
   -30.5800 -30.5800 -30.5732 -30.5732 -30.5431 -30.5431 -30.5424 -30.5424
   -30.5393 -30.5393 -30.5380 -30.5380 -30.4937 -30.4937 -30.4900 -30.4900
   -20.4073 -20.4073 -20.4073 -20.4073 -20.4072 -20.4072 -20.4072 -20.4072
   -20.3929 -20.3929 -20.3925 -20.3924 -20.3880 -20.3880 -20.3873 -20.3873
   -20.3868 -20.3868 -20.3860 -20.3860 -20.3857 -20.3857 -20.3851 -20.3851
   -20.3840 -20.3840 -20.3840 -20.3840 -20.3840 -20.3839 -20.3836 -20.3836
   -20.3773 -20.3773 -20.3770 -20.3770 -20.3744 -20.3744 -20.3741 -20.3741
   -20.3674 -20.3674 -20.3674 -20.3674 -20.3669 -20.3669 -20.3668 -20.3668
   -20.3662 -20.3662 -20.3661 -20.3661 -20.3616 -20.3616 -20.3616 -20.3616
    -9.7685  -9.7685  -9.4554  -9.4554  -9.3166  -9.3166  -9.0112  -9.0112
    -8.6454  -8.6454  -8.6268  -8.6267  -8.6227  -8.6226  -8.5589  -8.5588
    -7.9060  -7.9060  -7.8441  -7.8441  -7.7908  -7.7908  -7.7666  -7.7666
     1.1708   1.1708   1.2311   1.2311   1.4115   1.4115   1.4610   1.4610
     2.5309   2.5309   2.9218   2.9218   3.0335   3.0335   3.0564   3.0564
     3.1870   3.1870   3.2056   3.2057   3.3750   3.3750   3.6622   3.6622
     3.7334   3.7334   4.3779   4.3779   4.5750   4.5750   4.8605   4.8605
     5.1190   5.1190   5.1783   5.1783   5.2117   5.2117   5.6399   5.6399
     5.6900   5.6900   5.8731   5.8731   5.9984   5.9984   6.1371   6.1371
     6.1799   6.1799   6.2855   6.2855   6.3953   6.3953   6.4595   6.4595
     6.7116   6.7116   6.7966   6.7966   6.9732   6.9732   7.4146   7.4146
     7.4705   7.4705   7.5722   7.5722   7.6131   7.6131   8.0343   8.0343
     9.7554   9.7554  11.0455  11.0455  11.1084  11.1084  11.4203  11.4203
    11.5550  11.5550  12.5029  12.5029  12.6277  12.6277  12.7609  12.7609
    12.8141  12.8141  13.1431  13.1431  13.2826  13.2826  13.8520  13.8520
    14.4010  14.4010  15.1140  15.1140  15.6096  15.6096  15.6492  15.6492
    16.5349  16.5349  17.7744  17.7744  17.9432

          k = 0.0000 0.1599 0.0000 ( 62665 PWs)   bands (ev):

   -66.2485 -66.2481 -66.2476 -66.2475 -66.2472 -66.2472 -66.2467 -66.2463
   -30.6448 -30.6402 -30.6395 -30.6351 -30.6026 -30.5956 -30.5950 -30.5943
   -30.5933 -30.5859 -30.5852 -30.5846 -30.5807 -30.5769 -30.5714 -30.5707
   -30.4977 -30.4957 -30.4956 -30.4953 -30.4941 -30.4924 -30.4892 -30.4871
   -20.4074 -20.4074 -20.4073 -20.4073 -20.4072 -20.4072 -20.4071 -20.4071
   -20.3927 -20.3923 -20.3922 -20.3919 -20.3885 -20.3881 -20.3879 -20.3873
   -20.3869 -20.3864 -20.3863 -20.3858 -20.3855 -20.3852 -20.3851 -20.3851
   -20.3849 -20.3848 -20.3845 -20.3843 -20.3839 -20.3837 -20.3836 -20.3832
   -20.3774 -20.3771 -20.3770 -20.3768 -20.3745 -20.3742 -20.3741 -20.3739
   -20.3708 -20.3708 -20.3696 -20.3695 -20.3676 -20.3675 -20.3664 -20.3663
   -20.3638 -20.3636 -20.3627 -20.3626 -20.3623 -20.3622 -20.3610 -20.3610
   -10.0028  -9.7505  -9.5872  -9.5868  -9.3531  -9.3454  -9.1429  -9.1267
    -9.1124  -8.9625  -8.9449  -8.9438  -8.0380  -7.9836  -7.9773  -7.9339
    -7.8544  -7.8524  -7.8256  -7.8254  -7.7380  -7.7362  -7.7149  -7.7134
     1.0814   1.0848   1.1723   1.1840   1.1863   1.2038   1.3457   1.4865
     1.6432   1.7016   1.7135   1.8776   2.3561   2.4312   2.5450   2.5571
     2.6748   2.6940   3.9512   3.9811   4.0238   4.0587   4.6243   4.6546
     4.6820   4.6870   4.7030   4.7702   4.8353   4.8387   4.8999   5.1872
     5.2055   5.3379   5.3390   5.5142   5.5288   5.5416   5.5860   5.6250
     5.6617   5.6751   5.8180   5.8575   5.8773   5.9906   5.9934   6.0165
     6.0285   6.1845   6.2152   6.4192   6.4351   6.7322   6.7472   6.7505
     6.7766   6.8250   6.8272   6.8866   6.8972   6.9082   7.2046   7.2164
     7.2311   7.2399   7.8286   7.8398   7.9319   7.9664   7.9685   7.9979
     9.1886   9.2000   9.9700   9.9704   9.9840   9.9860  12.0841  12.1336
    12.2743  12.2754  12.2948  12.2987  12.3014  12.3232  12.7616  12.9066
    13.1105  13.1641  13.1947  13.2127  13.8142  13.8342  13.9193  13.9334
    14.2863  14.5697  14.6411  14.9401  15.1793  15.1927  15.8586  15.8667
    15.8854  16.4753  17.0940  17.1282  17.4456

          k = 0.0000 0.1599 0.1665 ( 62689 PWs)   bands (ev):

   -66.2484 -66.2480 -66.2476 -66.2475 -66.2472 -66.2471 -66.2467 -66.2463
   -30.6445 -30.6406 -30.6393 -30.6355 -30.6012 -30.5959 -30.5923 -30.5913
   -30.5897 -30.5856 -30.5816 -30.5811 -30.5782 -30.5740 -30.5718 -30.5691
   -30.5041 -30.5020 -30.5008 -30.4987 -30.4954 -30.4921 -30.4910 -30.4879
   -20.4074 -20.4074 -20.4073 -20.4073 -20.4072 -20.4072 -20.4071 -20.4071
   -20.3927 -20.3924 -20.3922 -20.3919 -20.3884 -20.3881 -20.3879 -20.3874
   -20.3869 -20.3865 -20.3862 -20.3859 -20.3856 -20.3853 -20.3853 -20.3848
   -20.3847 -20.3847 -20.3846 -20.3842 -20.3839 -20.3837 -20.3836 -20.3832
   -20.3774 -20.3771 -20.3770 -20.3768 -20.3745 -20.3742 -20.3742 -20.3739
   -20.3703 -20.3703 -20.3691 -20.3691 -20.3675 -20.3674 -20.3665 -20.3664
   -20.3642 -20.3641 -20.3632 -20.3631 -20.3622 -20.3622 -20.3611 -20.3611
    -9.9565  -9.6974  -9.6019  -9.5231  -9.3575  -9.2640  -9.1511  -9.0883
    -9.0719  -8.9517  -8.9474  -8.9175  -8.0411  -7.9983  -7.9790  -7.9768
    -7.9433  -7.9379  -7.8689  -7.8452  -7.8374  -7.8171  -7.7436  -7.7208
     1.1710   1.1753   1.1890   1.2079   1.3992   1.4461   1.4501   1.6482
     1.6589   1.7096   1.7334   1.9429   2.4428   2.5185   2.5536   2.6443
     2.6674   2.7788   3.9419   3.9676   4.0457   4.0662   4.2899   4.3466
     4.5432   4.5838   4.6079   4.7377   4.7420   4.8439   4.8942   5.1045
     5.1518   5.2216   5.2532   5.3404   5.4237   5.4960   5.5471   5.6050
     5.6644   5.6932   5.7421   5.8045   5.8342   5.9964   6.0099   6.0776
     6.1215   6.3148   6.3940   6.4224   6.6203   6.6953   6.7031   6.7157
     6.7456   6.8213   6.8510   6.8694   6.8934   6.9011   7.0012   7.0036
     7.0653   7.0948   7.8175   7.8227   7.9261   7.9395   7.9567   7.9690
     9.5396   9.5410   9.9712   9.9895  10.2083  10.2325  12.0944  12.1504
    12.1942  12.1961  12.3009  12.3031  12.3436  12.4149  12.8038  12.8165
    12.9311  13.1548  13.1648  13.2129  13.7738  13.8064  13.8334  13.8387
    14.3753  14.6323  14.7413  15.0349  15.2283  15.2713  15.8342  15.8582
    16.1895  16.6327  16.8392  17.2603  17.5117

          k = 0.0000 0.1599 0.3329 ( 62706 PWs)   bands (ev):

   -66.2482 -66.2478 -66.2478 -66.2474 -66.2473 -66.2469 -66.2469 -66.2465
   -30.6438 -30.6415 -30.6386 -30.6363 -30.5996 -30.5968 -30.5894 -30.5871
   -30.5865 -30.5823 -30.5805 -30.5731 -30.5656 -30.5630 -30.5613 -30.5599
   -30.5210 -30.5192 -30.5172 -30.5152 -30.4946 -30.4923 -30.4913 -30.4891
   -20.4074 -20.4074 -20.4073 -20.4073 -20.4073 -20.4073 -20.4072 -20.4072
   -20.3926 -20.3924 -20.3922 -20.3920 -20.3884 -20.3882 -20.3878 -20.3875
   -20.3869 -20.3866 -20.3861 -20.3859 -20.3858 -20.3855 -20.3853 -20.3849
   -20.3844 -20.3844 -20.3843 -20.3839 -20.3839 -20.3839 -20.3838 -20.3834
   -20.3774 -20.3771 -20.3771 -20.3769 -20.3745 -20.3743 -20.3742 -20.3740
   -20.3691 -20.3690 -20.3679 -20.3679 -20.3673 -20.3672 -20.3667 -20.3667
   -20.3655 -20.3654 -20.3644 -20.3644 -20.3620 -20.3619 -20.3613 -20.3613
    -9.8458  -9.6483  -9.5761  -9.3952  -9.3735  -9.1795  -9.0103  -9.0074
    -8.9575  -8.9270  -8.8721  -8.8076  -8.2844  -8.2791  -8.2186  -8.1900
    -8.0122  -7.9913  -7.9607  -7.9366  -7.8203  -7.7967  -7.7639  -7.7409
     1.1964   1.2087   1.2188   1.2315   1.6015   1.6137   1.6810   1.7053
     2.1497   2.2082   2.3167   2.4172   2.5745   2.6485   2.6937   2.7808
     2.8829   3.0041   3.6598   3.7574   3.7734   3.8534   4.0536   4.0616
     4.0810   4.2473   4.4588   4.5589   4.6172   4.6565   4.7050   4.8301
     4.8889   5.0168   5.0226   5.0544   5.2660   5.2891   5.3992   5.5572
     5.6160   5.6971   5.7229   5.8071   5.8418   6.0293   6.0813   6.1513
     6.2218   6.3853   6.4307   6.4394   6.4732   6.5760   6.6459   6.6842
     6.7509   6.7524   6.8284   6.8510   6.8909   6.9222   7.0174   7.0371
     7.1790   7.2268   7.7129   7.7260   7.7949   7.8260   7.9584   7.9708
     9.9585   9.9720  10.2574  10.3171  10.7956  10.8496  11.7383  11.7831
    12.0029  12.3081  12.3386  12.3680  12.4389  12.4968  12.5456  12.6578
    12.7949  13.0482  13.0754  13.1753  13.4311  13.4912  13.8318  13.8443
    14.5324  14.6212  15.1382  15.3005  15.4126  15.7217  15.7640  15.7745
    16.2915  17.0749  17.0979  17.3321  17.7479

          k = 0.0000 0.1599-0.4994 ( 62674 PWs)   bands (ev):

   -66.2480 -66.2480 -66.2476 -66.2476 -66.2471 -66.2471 -66.2467 -66.2467
   -30.6426 -30.6426 -30.6375 -30.6375 -30.5981 -30.5981 -30.5879 -30.5879
   -30.5840 -30.5840 -30.5754 -30.5754 -30.5433 -30.5433 -30.5425 -30.5425
   -30.5394 -30.5394 -30.5382 -30.5382 -30.4935 -30.4935 -30.4903 -30.4903
   -20.4073 -20.4073 -20.4073 -20.4073 -20.4072 -20.4072 -20.4072 -20.4072
   -20.3925 -20.3925 -20.3921 -20.3921 -20.3883 -20.3883 -20.3876 -20.3876
   -20.3867 -20.3867 -20.3860 -20.3860 -20.3857 -20.3857 -20.3852 -20.3852
   -20.3841 -20.3841 -20.3840 -20.3840 -20.3840 -20.3840 -20.3836 -20.3836
   -20.3773 -20.3773 -20.3770 -20.3770 -20.3744 -20.3744 -20.3741 -20.3741
   -20.3674 -20.3674 -20.3674 -20.3674 -20.3669 -20.3669 -20.3668 -20.3668
   -20.3662 -20.3662 -20.3661 -20.3661 -20.3616 -20.3616 -20.3616 -20.3616
    -9.7307  -9.7306  -9.4651  -9.4650  -9.2445  -9.2445  -8.9738  -8.9738
    -8.6498  -8.6498  -8.6307  -8.6307  -8.6219  -8.6219  -8.5525  -8.5524
    -8.0039  -8.0039  -7.9502  -7.9502  -7.7920  -7.7920  -7.7686  -7.7686
     1.2058   1.2058   1.2311   1.2311   1.6204   1.6204   1.7013   1.7013
     2.6009   2.6009   2.9382   2.9382   3.0496   3.0496   3.0716   3.0716
     3.2017   3.2017   3.2028   3.2028   3.3661   3.3661   3.6779   3.6779
     3.7847   3.7848   4.1605   4.1605   4.4905   4.4905   4.6802   4.6802
     4.9475   4.9475   5.1492   5.1492   5.2064   5.2064   5.4090   5.4090
     5.6303   5.6303   5.7742   5.7742   6.0093   6.0093   6.1777   6.1777
     6.2264   6.2264   6.3201   6.3201   6.4437   6.4437   6.5887   6.5887
     6.7776   6.7776   6.7895   6.7895   6.8780   6.8780   7.4272   7.4272
     7.4657   7.4657   7.5513   7.5514   7.5856   7.5856   7.9687   7.9687
     9.9706   9.9706  11.0514  11.0514  11.1076  11.1076  11.4904  11.4905
    11.6175  11.6175  12.3475  12.3475  12.6174  12.6174  12.7507  12.7507
    12.7722  12.7722  13.0334  13.0335  13.2385  13.2385  13.8338  13.8338
    14.5962  14.5962  15.4919  15.4919  15.6256  15.6256  15.7535  15.7536
    16.5869  16.5869  17.5632  17.5632  18.0627

          k = 0.0000 0.3197 0.0000 ( 62798 PWs)   bands (ev):

   -66.2484 -66.2481 -66.2475 -66.2475 -66.2473 -66.2472 -66.2466 -66.2464
   -30.6340 -30.6293 -30.6282 -30.6237 -30.6087 -30.6024 -30.6006 -30.5942
   -30.5934 -30.5922 -30.5849 -30.5847 -30.5839 -30.5824 -30.5770 -30.5768
   -30.4973 -30.4961 -30.4950 -30.4950 -30.4942 -30.4932 -30.4890 -30.4877
   -20.4074 -20.4074 -20.4073 -20.4073 -20.4072 -20.4072 -20.4071 -20.4071
   -20.3917 -20.3914 -20.3913 -20.3909 -20.3892 -20.3889 -20.3887 -20.3882
   -20.3867 -20.3862 -20.3861 -20.3858 -20.3854 -20.3854 -20.3853 -20.3853
   -20.3850 -20.3849 -20.3847 -20.3845 -20.3840 -20.3837 -20.3837 -20.3833
   -20.3774 -20.3772 -20.3770 -20.3768 -20.3745 -20.3743 -20.3741 -20.3740
   -20.3708 -20.3708 -20.3696 -20.3695 -20.3676 -20.3676 -20.3664 -20.3663
   -20.3637 -20.3636 -20.3627 -20.3626 -20.3623 -20.3622 -20.3610 -20.3610
    -9.9279  -9.7859  -9.5015  -9.4991  -9.3770  -9.3702  -9.1237  -9.1154
    -8.9249  -8.8129  -8.8090  -8.8075  -8.2919  -8.2492  -8.2443  -8.2209
    -7.8506  -7.8499  -7.8308  -7.8304  -7.7334  -7.7325  -7.7203  -7.7187
     1.0819   1.0838   1.1825   1.1845   1.1997   1.2039   1.4513   1.4843
     2.2357   2.3625   2.3717   2.3795   2.4149   2.5225   2.7604   2.7858
     2.8793   2.9125   3.5424   3.5784   3.5835   3.6217   4.0557   4.3609
     4.3886   4.6379   4.6556   4.6862   4.6881   4.7177   4.9136   4.9366
     4.9457   4.9700   5.2417   5.2564   5.4779   5.4811   5.5831   5.5981
     5.8183   5.8238   5.8293   5.8410   5.9238   5.9750   5.9784   6.0413
     6.0501   6.1248   6.1748   6.4202   6.4839   6.5009   6.7229   6.7400
     6.7897   6.8807   7.0203   7.0239   7.0245   7.0256   7.2152   7.2155
     7.2404   7.2418   7.7410   7.7611   7.7687   7.7884   7.8424   7.8433
     9.1943   9.1996  10.4623  10.4883  10.5181  10.5315  11.6910  11.7440
    11.8205  11.8441  12.2832  12.3002  12.3128  12.3203  12.8211  12.9110
    13.2037  13.2304  13.2608  13.2802  13.6477  13.6715  13.6727  13.6947
    14.7962  15.1155  15.1358  15.1795  15.1872  15.5533  15.7570  15.7758
    15.9229  16.8772  17.1555  17.5857  17.6164

          k = 0.0000 0.3197 0.1665 ( 62689 PWs)   bands (ev):

   -66.2483 -66.2481 -66.2476 -66.2474 -66.2473 -66.2472 -66.2466 -66.2464
   -30.6337 -30.6296 -30.6280 -30.6240 -30.6078 -30.6027 -30.5993 -30.5927
   -30.5907 -30.5899 -30.5843 -30.5812 -30.5783 -30.5780 -30.5773 -30.5743
   -30.5037 -30.5025 -30.5004 -30.4992 -30.4947 -30.4929 -30.4904 -30.4887
   -20.4074 -20.4074 -20.4073 -20.4073 -20.4072 -20.4072 -20.4071 -20.4071
   -20.3917 -20.3914 -20.3912 -20.3909 -20.3892 -20.3889 -20.3887 -20.3883
   -20.3867 -20.3862 -20.3860 -20.3859 -20.3855 -20.3855 -20.3854 -20.3851
   -20.3848 -20.3848 -20.3847 -20.3844 -20.3840 -20.3838 -20.3838 -20.3834
   -20.3774 -20.3772 -20.3770 -20.3769 -20.3745 -20.3743 -20.3741 -20.3740
   -20.3703 -20.3703 -20.3691 -20.3691 -20.3675 -20.3675 -20.3664 -20.3664
   -20.3642 -20.3641 -20.3631 -20.3631 -20.3622 -20.3622 -20.3611 -20.3611
    -9.8787  -9.7331  -9.5138  -9.4257  -9.3830  -9.2886  -9.0841  -9.0751
    -8.9329  -8.8128  -8.8064  -8.7922  -8.2925  -8.2565  -8.2417  -8.2271
    -7.9718  -7.9568  -7.8644  -7.8520  -7.8356  -7.8226  -7.7399  -7.7261
     1.1755   1.1756   1.2035   1.2079   1.4384   1.4462   1.6127   1.6563
     2.2388   2.3521   2.3762   2.4577   2.5025   2.5209   2.7675   2.8726
     2.8796   3.0008   3.5798   3.5816   3.6123   3.6345   4.0441   4.3021
     4.3183   4.3729   4.4013   4.6285   4.6429   4.7219   4.7512   4.7610
     4.9218   4.9787   5.0434   5.1961   5.2721   5.3313   5.4830   5.5557
     5.5985   5.6618   5.7240   5.8024   5.9608   6.0107   6.0300   6.0324
     6.1424   6.3294   6.3451   6.4804   6.4823   6.7106   6.7356   6.8183
     6.8514   6.8821   6.9635   6.9717   6.9916   7.0003   7.0150   7.0673
     7.1137   7.1181   7.7352   7.7433   7.7567   7.7595   7.8268   7.8335
     9.5464   9.5480  10.4925  10.5323  10.6393  10.6894  11.7414  11.7805
    11.8442  11.9001  12.1777  12.1894  12.3617  12.3726  12.8684  12.8796
    13.0139  13.1754  13.2274  13.2512  13.5185  13.5793  13.6451  13.6744
    14.9064  15.1229  15.2234  15.2895  15.3555  15.6217  15.7502  16.0735
    16.0910  16.8418  17.2268  17.2549  17.5794

          k = 0.0000 0.3197 0.3329 ( 62674 PWs)   bands (ev):

   -66.2482 -66.2479 -66.2477 -66.2475 -66.2472 -66.2470 -66.2468 -66.2466
   -30.6329 -30.6305 -30.6272 -30.6249 -30.6064 -30.6036 -30.5970 -30.5936
   -30.5882 -30.5852 -30.5834 -30.5785 -30.5658 -30.5649 -30.5616 -30.5614
   -30.5207 -30.5197 -30.5168 -30.5157 -30.4940 -30.4921 -30.4917 -30.4898
   -20.4074 -20.4074 -20.4073 -20.4073 -20.4073 -20.4073 -20.4072 -20.4072
   -20.3917 -20.3915 -20.3912 -20.3910 -20.3892 -20.3890 -20.3886 -20.3884
   -20.3866 -20.3863 -20.3860 -20.3859 -20.3857 -20.3856 -20.3855 -20.3850
   -20.3847 -20.3845 -20.3844 -20.3841 -20.3841 -20.3839 -20.3839 -20.3836
   -20.3773 -20.3771 -20.3771 -20.3770 -20.3745 -20.3743 -20.3742 -20.3741
   -20.3691 -20.3690 -20.3679 -20.3679 -20.3672 -20.3672 -20.3667 -20.3667
   -20.3655 -20.3654 -20.3644 -20.3644 -20.3620 -20.3619 -20.3613 -20.3613
    -9.7615  -9.6110  -9.5596  -9.4227  -9.2326  -9.0378  -8.9677  -8.9598
    -8.9326  -8.8254  -8.7727  -8.7257  -8.3483  -8.3320  -8.2725  -8.2505
    -8.2341  -8.1924  -8.1831  -8.1226  -7.8168  -7.8023  -7.7603  -7.7463
     1.2134   1.2187   1.2265   1.2314   2.0594   2.1457   2.1465   2.2534
     2.3133   2.3766   2.3944   2.6059   2.7176   2.7489   2.7887   2.8640
     3.1175   3.2087   3.5535   3.5832   3.6304   3.7005   3.7530   3.7531
     4.0244   4.1567   4.2566   4.2783   4.3454   4.4756   4.5140   4.6587
     4.6601   4.7344   4.8779   4.9518   5.0260   5.0688   5.1210   5.2136
     5.2762   5.4721   5.5434   5.7487   6.0369   6.0737   6.1138   6.1656
     6.3087   6.4286   6.4744   6.5090   6.5572   6.6862   6.6898   6.7062
     6.8177   6.8953   6.9469   6.9667   6.9870   7.0488   7.0892   7.1171
     7.1743   7.2228   7.6482   7.6571   7.6969   7.7281   7.7572   7.7877
    10.2689  10.2727  10.5043  10.5466  11.1155  11.1549  11.6895  11.7779
    11.7916  11.8695  12.0586  12.1396  12.4710  12.4951  12.5428  12.5448
    12.8153  12.9853  13.0525  13.1768  13.2301  13.3647  13.6401  13.6595
    15.0010  15.0997  15.3728  15.6744  15.8129  15.9135  15.9247  16.5816
    16.7032  16.7198  16.9398  17.4738  17.5549

          k = 0.0000 0.3197-0.4994 ( 62686 PWs)   bands (ev):

   -66.2479 -66.2479 -66.2477 -66.2477 -66.2470 -66.2470 -66.2468 -66.2468
   -30.6317 -30.6317 -30.6261 -30.6261 -30.6049 -30.6049 -30.5951 -30.5951
   -30.5866 -30.5866 -30.5803 -30.5803 -30.5435 -30.5435 -30.5429 -30.5429
   -30.5395 -30.5395 -30.5386 -30.5386 -30.4929 -30.4929 -30.4910 -30.4910
   -20.4073 -20.4073 -20.4073 -20.4073 -20.4072 -20.4072 -20.4072 -20.4072
   -20.3916 -20.3916 -20.3911 -20.3911 -20.3891 -20.3891 -20.3885 -20.3885
   -20.3865 -20.3865 -20.3859 -20.3859 -20.3858 -20.3858 -20.3853 -20.3853
   -20.3843 -20.3843 -20.3842 -20.3842 -20.3841 -20.3841 -20.3838 -20.3838
   -20.3772 -20.3772 -20.3771 -20.3771 -20.3744 -20.3744 -20.3742 -20.3742
   -20.3674 -20.3674 -20.3674 -20.3674 -20.3669 -20.3669 -20.3668 -20.3668
   -20.3661 -20.3661 -20.3661 -20.3661 -20.3616 -20.3616 -20.3616 -20.3616
    -9.6423  -9.6423  -9.4962  -9.4962  -9.0472  -9.0472  -8.8563  -8.8563
    -8.6760  -8.6759  -8.6570  -8.6569  -8.6005  -8.6005  -8.5270  -8.5270
    -8.2488  -8.2488  -8.2075  -8.2075  -7.7884  -7.7884  -7.7741  -7.7741
     1.2251   1.2251   1.2309   1.2309   2.2388   2.2388   2.3633   2.3633
     2.7999   2.7999   2.9845   2.9846   3.0290   3.0290   3.1379   3.1379
     3.1877   3.1877   3.2680   3.2680   3.3323   3.3323   3.5805   3.5805
     3.9245   3.9245   3.9787   3.9787   3.9956   3.9957   4.2385   4.2386
     4.7254   4.7254   4.8311   4.8311   5.0032   5.0032   5.1237   5.1237
     5.2910   5.2910   5.6420   5.6420   6.1462   6.1462   6.1919   6.1919
     6.3606   6.3606   6.3979   6.3979   6.4399   6.4399   6.6484   6.6484
     6.9618   6.9618   6.9737   6.9737   7.0221   7.0221   7.4312   7.4312
     7.4495   7.4495   7.4663   7.4664   7.5110   7.5110   7.7668   7.7668
    10.5046  10.5047  11.0630  11.0631  11.1074  11.1075  11.6236  11.6236
    11.8145  11.8145  11.9934  11.9934  12.4915  12.4915  12.5006  12.5006
    12.7861  12.7861  12.8443  12.8443  13.2482  13.2482  13.6431  13.6431
    15.0577  15.0577  15.5453  15.5453  16.1975  16.1976  16.4407  16.4407
    16.7925  16.7925  17.1624  17.1624  17.9075

          k = 0.0000-0.4796 0.0000 ( 62738 PWs)   bands (ev):

   -66.2483 -66.2483 -66.2474 -66.2474 -66.2474 -66.2473 -66.2465 -66.2465
   -30.6202 -30.6202 -30.6149 -30.6149 -30.6134 -30.6134 -30.6080 -30.6080
   -30.5937 -30.5937 -30.5847 -30.5847 -30.5819 -30.5819 -30.5814 -30.5814
   -30.4967 -30.4967 -30.4945 -30.4945 -30.4941 -30.4941 -30.4885 -30.4885
   -20.4074 -20.4074 -20.4073 -20.4073 -20.4072 -20.4072 -20.4071 -20.4071
   -20.3904 -20.3904 -20.3901 -20.3901 -20.3899 -20.3899 -20.3895 -20.3895
   -20.3863 -20.3863 -20.3858 -20.3858 -20.3857 -20.3857 -20.3852 -20.3852
   -20.3850 -20.3850 -20.3847 -20.3847 -20.3839 -20.3839 -20.3836 -20.3836
   -20.3773 -20.3773 -20.3769 -20.3769 -20.3744 -20.3744 -20.3740 -20.3740
   -20.3708 -20.3708 -20.3696 -20.3695 -20.3676 -20.3676 -20.3663 -20.3663
   -20.3637 -20.3637 -20.3626 -20.3626 -20.3623 -20.3623 -20.3610 -20.3610
    -9.8470  -9.8470  -9.4243  -9.4243  -9.4193  -9.4193  -9.1196  -9.1196
    -8.6123  -8.6123  -8.5611  -8.5611  -8.5575  -8.5575  -8.5560  -8.5560
    -7.8469  -7.8469  -7.8343  -7.8343  -7.7270  -7.7270  -7.7258  -7.7258
     1.0828   1.0828   1.1846   1.1846   1.2032   1.2032   1.4770   1.4770
     2.3930   2.3930   3.0114   3.0114   3.1121   3.1121   3.1368   3.1368
     3.1556   3.1556   3.2113   3.2113   3.3964   3.3964   3.4253   3.4253
     3.5623   3.5623   4.6675   4.6675   4.6982   4.6982   5.0761   5.0761
     5.1176   5.1176   5.1986   5.1986   5.2191   5.2191   5.6689   5.6689
     5.6853   5.6853   5.9176   5.9177   5.9559   5.9559   6.0477   6.0477
     6.0898   6.0898   6.1736   6.1736   6.5863   6.5863   6.6040   6.6040
     6.8371   6.8371   7.2104   7.2104   7.2289   7.2289   7.3996   7.3996
     7.4079   7.4079   7.4450   7.4451   7.4539   7.4539   7.8397   7.8397
     9.1978   9.1978  11.0965  11.0966  11.1414  11.1414  11.1718  11.1718
    11.2230  11.2230  12.2946  12.2946  12.3201  12.3201  12.8824  12.8824
    13.3772  13.3772  13.4048  13.4048  13.4392  13.4392  13.4621  13.4621
    15.1796  15.1796  15.3478  15.3478  15.5351  15.5351  15.5480  15.5480
    16.4470  16.4470  17.8249  17.8249  18.0509

          k = 0.0000-0.4796 0.1665 ( 62678 PWs)   bands (ev):

   -66.2482 -66.2482 -66.2474 -66.2474 -66.2473 -66.2473 -66.2465 -66.2465
   -30.6198 -30.6198 -30.6152 -30.6152 -30.6129 -30.6129 -30.6083 -30.6083
   -30.5902 -30.5902 -30.5818 -30.5818 -30.5800 -30.5800 -30.5778 -30.5778
   -30.5031 -30.5031 -30.4998 -30.4998 -30.4938 -30.4938 -30.4896 -30.4896
   -20.4074 -20.4074 -20.4073 -20.4073 -20.4072 -20.4072 -20.4071 -20.4071
   -20.3904 -20.3904 -20.3901 -20.3901 -20.3899 -20.3899 -20.3896 -20.3896
   -20.3863 -20.3863 -20.3859 -20.3859 -20.3857 -20.3857 -20.3851 -20.3851
   -20.3850 -20.3850 -20.3846 -20.3846 -20.3839 -20.3839 -20.3836 -20.3836
   -20.3773 -20.3773 -20.3769 -20.3769 -20.3744 -20.3744 -20.3741 -20.3741
   -20.3703 -20.3703 -20.3691 -20.3691 -20.3675 -20.3675 -20.3664 -20.3664
   -20.3642 -20.3641 -20.3631 -20.3631 -20.3622 -20.3622 -20.3611 -20.3611
    -9.7953  -9.7953  -9.4331  -9.4331  -9.3392  -9.3392  -9.0795  -9.0794
    -8.6179  -8.6179  -8.5663  -8.5663  -8.5553  -8.5553  -8.5513  -8.5513
    -7.9648  -7.9648  -7.8583  -7.8583  -7.8296  -7.8296  -7.7332  -7.7332
     1.1759   1.1759   1.2072   1.2072   1.4451   1.4451   1.6473   1.6473
     2.4804   2.4804   3.0253   3.0253   3.0961   3.0961   3.1528   3.1528
     3.1890   3.1890   3.2216   3.2216   3.4060   3.4060   3.4588   3.4588
     3.5945   3.5945   4.3216   4.3216   4.7318   4.7318   4.8515   4.8515
     4.9911   4.9911   5.0869   5.0869   5.2234   5.2234   5.3931   5.3931
     5.6521   5.6521   5.6788   5.6788   6.0238   6.0238   6.0356   6.0356
     6.2739   6.2739   6.3406   6.3406   6.5787   6.5787   6.7857   6.7857
     6.8991   6.8991   6.9926   6.9926   7.0532   7.0532   7.3934   7.3934
     7.4097   7.4097   7.4352   7.4352   7.4383   7.4383   7.8261   7.8261
     9.5491   9.5491  11.1430  11.1430  11.2024  11.2024  11.2264  11.2264
    11.3024  11.3024  12.1839  12.1839  12.3693  12.3693  12.9139  12.9139
    13.2067  13.2067  13.2796  13.2796  13.4015  13.4015  13.4798  13.4798
    15.1965  15.1965  15.5188  15.5189  15.5506  15.5506  15.8347  15.8347
    16.5144  16.5144  17.7602  17.7604  17.8641

          k = 0.0000-0.4796 0.3329 ( 62722 PWs)   bands (ev):

   -66.2480 -66.2480 -66.2476 -66.2476 -66.2471 -66.2471 -66.2467 -66.2467
   -30.6187 -30.6187 -30.6161 -30.6161 -30.6119 -30.6119 -30.6092 -30.6092
   -30.5863 -30.5863 -30.5828 -30.5828 -30.5658 -30.5658 -30.5618 -30.5618
   -30.5203 -30.5203 -30.5163 -30.5163 -30.4930 -30.4930 -30.4908 -30.4908
   -20.4074 -20.4074 -20.4073 -20.4073 -20.4073 -20.4073 -20.4072 -20.4072
   -20.3904 -20.3904 -20.3902 -20.3902 -20.3899 -20.3899 -20.3897 -20.3897
   -20.3863 -20.3863 -20.3860 -20.3860 -20.3857 -20.3857 -20.3853 -20.3853
   -20.3847 -20.3847 -20.3843 -20.3843 -20.3841 -20.3841 -20.3838 -20.3838
   -20.3772 -20.3772 -20.3770 -20.3770 -20.3744 -20.3744 -20.3742 -20.3742
   -20.3691 -20.3690 -20.3679 -20.3679 -20.3672 -20.3672 -20.3667 -20.3667
   -20.3654 -20.3654 -20.3644 -20.3644 -20.3619 -20.3619 -20.3613 -20.3613
    -9.6738  -9.6737  -9.4760  -9.4760  -9.1037  -9.1036  -8.9429  -8.9429
    -8.6515  -8.6515  -8.5890  -8.5890  -8.5467  -8.5467  -8.5272  -8.5272
    -8.2588  -8.2588  -8.1693  -8.1693  -7.8098  -7.8098  -7.7535  -7.7535
     1.2177   1.2177   1.2305   1.2305   2.1367   2.1367   2.2932   2.2932
     2.7333   2.7333   3.0434   3.0434   3.0941   3.0941   3.1629   3.1629
     3.1786   3.1786   3.3064   3.3064   3.3901   3.3901   3.5974   3.5974
     3.6719   3.6719   3.7409   3.7409   4.3383   4.3383   4.4890   4.4890
     4.6873   4.6873   4.7495   4.7495   5.0627   5.0627   5.1114   5.1114
     5.2710   5.2710   5.5650   5.5650   6.0755   6.0755   6.1640   6.1640
     6.4068   6.4068   6.4950   6.4950   6.5673   6.5673   6.7150   6.7150
     6.9331   6.9331   7.0825   7.0825   7.1002   7.1002   7.3634   7.3634
     7.3884   7.3884   7.4204   7.4204   7.4351   7.4351   7.7339   7.7339
    10.2813  10.2813  11.1528  11.1528  11.1964  11.1964  11.5826  11.5826
    11.6448  11.6448  11.7796  11.7796  12.5257  12.5257  12.6699  12.6699
    12.7457  12.7457  13.0585  13.0585  13.3956  13.3956  13.4416  13.4416
    15.2660  15.2660  15.4711  15.4711  16.1336  16.1337  16.6044  16.6044
    16.7594  16.7594  17.2509  17.2509  17.8781

          k = 0.0000-0.4796-0.4994 ( 62720 PWs)   bands (ev):

   -66.2478 -66.2478 -66.2478 -66.2478 -66.2469 -66.2469 -66.2469 -66.2469
   -30.6174 -30.6174 -30.6174 -30.6174 -30.6105 -30.6105 -30.6105 -30.6105
   -30.5843 -30.5843 -30.5843 -30.5843 -30.5433 -30.5433 -30.5433 -30.5433
   -30.5392 -30.5391 -30.5391 -30.5391 -30.4920 -30.4920 -30.4920 -30.4920
   -20.4073 -20.4073 -20.4073 -20.4073 -20.4072 -20.4072 -20.4072 -20.4072
   -20.3903 -20.3903 -20.3903 -20.3903 -20.3898 -20.3898 -20.3898 -20.3898
   -20.3862 -20.3862 -20.3862 -20.3862 -20.3855 -20.3855 -20.3855 -20.3855
   -20.3843 -20.3843 -20.3843 -20.3843 -20.3840 -20.3840 -20.3840 -20.3840
   -20.3771 -20.3771 -20.3771 -20.3771 -20.3743 -20.3743 -20.3743 -20.3743
   -20.3674 -20.3674 -20.3674 -20.3674 -20.3669 -20.3669 -20.3668 -20.3668
   -20.3661 -20.3661 -20.3661 -20.3661 -20.3616 -20.3616 -20.3616 -20.3616
    -9.5549  -9.5549  -9.5549  -9.5549  -8.8052  -8.8052  -8.8052  -8.8052
    -8.7107  -8.7107  -8.7106  -8.7106  -8.5002  -8.5002  -8.5002  -8.5002
    -8.4416  -8.4416  -8.4416  -8.4416  -7.7815  -7.7815  -7.7815  -7.7815
     1.2298   1.2298   1.2298   1.2298   2.9160   2.9160   2.9160   2.9160
     3.0380   3.0380   3.0380   3.0380   3.1281   3.1281   3.1281   3.1281
     3.1867   3.1867   3.1867   3.1867   3.3725   3.3725   3.3725   3.3725
     3.5090   3.5090   3.5090   3.5090   4.1898   4.1898   4.1898   4.1898
     4.2904   4.2904   4.2904   4.2904   5.0762   5.0762   5.0762   5.0762
     5.4042   5.4042   5.4042   5.4042   6.1887   6.1887   6.1887   6.1887
     6.4127   6.4127   6.4127   6.4127   6.5168   6.5168   6.5168   6.5168
     7.2147   7.2147   7.2147   7.2147   7.2830   7.2830   7.2830   7.2830
     7.3760   7.3760   7.3760   7.3760   7.5280   7.5280   7.5281   7.5281
    11.0385  11.0386  11.0386  11.0386  11.2218  11.2218  11.2218  11.2218
    12.1263  12.1263  12.1264  12.1264  12.1617  12.1617  12.1617  12.1617
    12.7948  12.7948  12.7948  12.7948  13.4033  13.4033  13.4033  13.4033
    15.3770  15.3770  15.3770  15.3770  16.7438  16.7438  16.7438  16.7438
    17.3342  17.3344  17.3345  17.3345  17.4585

          k = 0.1667 0.0000 0.0000 ( 62713 PWs)   bands (ev):

   -66.2484 -66.2480 -66.2476 -66.2475 -66.2472 -66.2471 -66.2468 -66.2463
   -30.6484 -30.6440 -30.6439 -30.6397 -30.5997 -30.5944 -30.5911 -30.5911
   -30.5904 -30.5848 -30.5816 -30.5795 -30.5769 -30.5744 -30.5658 -30.5656
   -30.5024 -30.4993 -30.4981 -30.4976 -30.4975 -30.4951 -30.4910 -30.4908
   -20.4074 -20.4074 -20.4073 -20.4073 -20.4072 -20.4072 -20.4071 -20.4071
   -20.3930 -20.3927 -20.3926 -20.3923 -20.3882 -20.3878 -20.3877 -20.3871
   -20.3869 -20.3865 -20.3864 -20.3858 -20.3857 -20.3852 -20.3851 -20.3849
   -20.3847 -20.3847 -20.3845 -20.3843 -20.3838 -20.3836 -20.3835 -20.3831
   -20.3772 -20.3769 -20.3768 -20.3765 -20.3747 -20.3744 -20.3743 -20.3740
   -20.3707 -20.3707 -20.3696 -20.3696 -20.3673 -20.3673 -20.3661 -20.3660
   -20.3637 -20.3635 -20.3629 -20.3628 -20.3626 -20.3625 -20.3614 -20.3614
    -9.9891  -9.6873  -9.6404  -9.5679  -9.3578  -9.2488  -9.2286  -9.0920
    -9.0696  -8.9949  -8.9886  -8.9504  -7.9917  -7.9541  -7.9214  -7.8943
    -7.8754  -7.8509  -7.8429  -7.8407  -7.8242  -7.8158  -7.7473  -7.7196
     1.1503   1.1569   1.1631   1.1880   1.2938   1.3193   1.4366   1.4630
     1.4670   1.5918   1.6719   1.8390   2.4338   2.4908   2.5245   2.5585
     2.6126   2.6924   4.0254   4.1163   4.2544   4.2892   4.3523   4.3575
     4.4782   4.6269   4.7048   4.7192   4.7410   4.8635   5.0072   5.2375
     5.2421   5.3192   5.4027   5.4480   5.4769   5.5066   5.5321   5.5576
     5.6135   5.7539   5.7663   5.7666   5.9195   5.9608   6.0096   6.0587
     6.2269   6.3402   6.3806   6.3838   6.6389   6.6582   6.6649   6.7007
     6.7784   6.7822   6.8430   6.8987   6.9233   6.9627   7.0165   7.0217
     7.0473   7.0761   7.8189   7.8226   7.9279   7.9904   8.0307   8.0768
     9.5319   9.5488   9.7711   9.7849  10.0338  10.0662  12.1535  12.1777
    12.2302  12.2676  12.3326  12.3719  12.4451  12.5500  12.6826  12.8748
    12.9998  13.1198  13.1765  13.1959  13.7081  13.8029  14.0209  14.0315
    14.1331  14.2956  14.5116  14.8892  15.2292  15.2546  15.4236  15.8611
    16.2466  16.6828  16.9410  17.1740  17.3434

          k = 0.1667 0.0000 0.1665 ( 62706 PWs)   bands (ev):

   -66.2484 -66.2479 -66.2476 -66.2476 -66.2471 -66.2471 -66.2468 -66.2464
   -30.6482 -30.6443 -30.6438 -30.6400 -30.5971 -30.5911 -30.5908 -30.5875
   -30.5866 -30.5799 -30.5798 -30.5779 -30.5773 -30.5721 -30.5663 -30.5644
   -30.5041 -30.5028 -30.5020 -30.5010 -30.5004 -30.4979 -30.4956 -30.4931
   -20.4074 -20.4074 -20.4073 -20.4073 -20.4072 -20.4072 -20.4072 -20.4071
   -20.3930 -20.3927 -20.3926 -20.3923 -20.3882 -20.3878 -20.3877 -20.3872
   -20.3869 -20.3865 -20.3863 -20.3859 -20.3857 -20.3853 -20.3852 -20.3847
   -20.3846 -20.3846 -20.3845 -20.3842 -20.3838 -20.3836 -20.3835 -20.3832
   -20.3772 -20.3768 -20.3768 -20.3766 -20.3747 -20.3744 -20.3743 -20.3741
   -20.3702 -20.3702 -20.3692 -20.3692 -20.3673 -20.3672 -20.3662 -20.3661
   -20.3642 -20.3640 -20.3633 -20.3632 -20.3626 -20.3625 -20.3615 -20.3615
    -9.9421  -9.6288  -9.5826  -9.5814  -9.2688  -9.2609  -9.2370  -9.0514
    -9.0344  -8.9871  -8.9566  -8.9542  -7.9944  -7.9717  -7.9474  -7.9473
    -7.9221  -7.9074  -7.8770  -7.8728  -7.8576  -7.8431  -7.8273  -7.8260
     1.2824   1.3122   1.3135   1.3451   1.3473   1.4308   1.4508   1.4678
     1.5751   1.5929   1.7544   1.9168   2.5203   2.5643   2.5752   2.6179
     2.6767   2.7095   4.0255   4.0407   4.2492   4.2500   4.3814   4.3880
     4.4120   4.4139   4.5073   4.5152   4.6085   4.6730   4.9948   5.1395
     5.1723   5.2166   5.2280   5.4173   5.4381   5.4717   5.4885   5.6152
     5.6163   5.6419   5.6501   5.7169   5.7738   5.9262   6.1708   6.3106
     6.3108   6.3991   6.4672   6.5751   6.5793   6.5995   6.6271   6.6596
     6.6637   6.7089   6.7256   6.7702   6.8048   6.8831   6.8845   6.9752
     7.1309   7.1709   7.8065   7.8070   7.9442   7.9925   7.9959   8.0299
     9.7549   9.8001  10.0113  10.0439  10.0490  10.1355  12.1874  12.2031
    12.2245  12.2349  12.2778  12.3259  12.5214  12.5436  12.6998  12.8014
    12.9149  13.0033  13.1284  13.2263  13.7451  13.7875  13.8789  13.9123
    14.1872  14.4345  14.5054  15.0112  15.3319  15.3436  15.3928  16.1892
    16.2151  16.8501  16.8684  17.0897  17.4281

          k = 0.1667 0.0000 0.3329 ( 62687 PWs)   bands (ev):

   -66.2482 -66.2478 -66.2478 -66.2474 -66.2473 -66.2470 -66.2470 -66.2465
   -30.6475 -30.6452 -30.6431 -30.6409 -30.5945 -30.5919 -30.5842 -30.5834
   -30.5807 -30.5785 -30.5771 -30.5677 -30.5649 -30.5619 -30.5614 -30.5580
   -30.5208 -30.5188 -30.5177 -30.5154 -30.5011 -30.4987 -30.4972 -30.4948
   -20.4074 -20.4074 -20.4073 -20.4073 -20.4073 -20.4073 -20.4072 -20.4072
   -20.3929 -20.3928 -20.3926 -20.3924 -20.3881 -20.3879 -20.3875 -20.3873
   -20.3869 -20.3866 -20.3862 -20.3859 -20.3858 -20.3855 -20.3853 -20.3849
   -20.3843 -20.3843 -20.3842 -20.3839 -20.3838 -20.3837 -20.3837 -20.3834
   -20.3771 -20.3769 -20.3768 -20.3766 -20.3747 -20.3745 -20.3743 -20.3741
   -20.3690 -20.3690 -20.3680 -20.3680 -20.3670 -20.3669 -20.3664 -20.3664
   -20.3654 -20.3653 -20.3645 -20.3644 -20.3624 -20.3623 -20.3617 -20.3617
    -9.8291  -9.6288  -9.4934  -9.4457  -9.2988  -9.2657  -9.0153  -8.9952
    -8.9645  -8.9032  -8.8852  -8.8333  -8.2736  -8.2702  -8.2189  -8.2027
    -7.9584  -7.9305  -7.9065  -7.9009  -7.8617  -7.8607  -7.8581  -7.8359
     1.2916   1.3052   1.3883   1.4183   1.4792   1.4863   1.5570   1.5963
     2.1558   2.2029   2.3085   2.3972   2.5859   2.6602   2.7780   2.8142
     2.8874   2.9429   3.6938   3.7830   3.8316   3.8814   4.0061   4.2153
     4.2330   4.3841   4.3971   4.4451   4.4664   4.6279   4.6489   4.7725
     4.9028   4.9490   4.9702   5.1093   5.1365   5.2803   5.5030   5.5088
     5.6447   5.6601   5.7039   5.7714   5.7811   5.9134   5.9987   6.0385
     6.3279   6.3454   6.4270   6.4545   6.4626   6.5961   6.6101   6.6312
     6.6511   6.7755   6.7905   6.7965   6.9899   7.0213   7.0803   7.0942
     7.1928   7.2513   7.7133   7.7260   7.8415   7.8816   7.9852   7.9946
    10.0167  10.0190  10.3925  10.4556  10.6867  10.7733  11.7971  11.8409
    12.0544  12.2949  12.3476  12.3867  12.4531  12.5424  12.6701  12.6985
    12.7535  12.9696  12.9950  13.1243  13.5280  13.5472  13.7799  13.8062
    14.3391  14.4852  14.7756  15.2900  15.3157  15.6381  15.8198  16.1224
    16.3038  17.0827  17.3049  17.3790  17.5341

          k = 0.1667 0.0000-0.4994 ( 62722 PWs)   bands (ev):

   -66.2480 -66.2480 -66.2475 -66.2475 -66.2472 -66.2472 -66.2467 -66.2467
   -30.6464 -30.6464 -30.6420 -30.6420 -30.5930 -30.5930 -30.5819 -30.5819
   -30.5804 -30.5804 -30.5703 -30.5703 -30.5428 -30.5428 -30.5420 -30.5420
   -30.5396 -30.5396 -30.5384 -30.5384 -30.5000 -30.5000 -30.4961 -30.4961
   -20.4073 -20.4073 -20.4073 -20.4073 -20.4072 -20.4072 -20.4072 -20.4072
   -20.3929 -20.3929 -20.3925 -20.3925 -20.3880 -20.3880 -20.3874 -20.3874
   -20.3867 -20.3867 -20.3861 -20.3861 -20.3857 -20.3857 -20.3852 -20.3852
   -20.3841 -20.3840 -20.3840 -20.3840 -20.3839 -20.3839 -20.3836 -20.3836
   -20.3770 -20.3770 -20.3767 -20.3767 -20.3746 -20.3746 -20.3743 -20.3743
   -20.3673 -20.3673 -20.3673 -20.3673 -20.3667 -20.3667 -20.3666 -20.3666
   -20.3662 -20.3662 -20.3661 -20.3661 -20.3621 -20.3620 -20.3620 -20.3620
    -9.7119  -9.7119  -9.3716  -9.3716  -9.3284  -9.3284  -8.9785  -8.9785
    -8.6531  -8.6531  -8.6366  -8.6366  -8.6050  -8.6050  -8.5611  -8.5611
    -7.9369  -7.9369  -7.9010  -7.9010  -7.8726  -7.8726  -7.8476  -7.8476
     1.2970   1.2970   1.4050   1.4050   1.4927   1.4927   1.5962   1.5962
     2.6106   2.6106   2.9315   2.9315   2.9999   2.9999   3.0991   3.0991
     3.1808   3.1808   3.3001   3.3001   3.4340   3.4341   3.6809   3.6809
     3.7265   3.7266   4.3243   4.3243   4.4028   4.4028   4.8135   4.8135
     4.9050   4.9050   4.9356   4.9356   5.1174   5.1174   5.5813   5.5813
     5.6302   5.6302   5.7269   5.7269   5.7837   5.7837   5.9172   5.9172
     6.2453   6.2453   6.3647   6.3647   6.5508   6.5508   6.6349   6.6349
     6.7312   6.7312   6.8506   6.8506   6.9043   6.9043   7.4524   7.4524
     7.4892   7.4892   7.5834   7.5834   7.6162   7.6162   7.9938   7.9938
    10.0254  10.0254  11.1260  11.1260  11.1903  11.1903  11.4351  11.4351
    11.5678  11.5678  12.5177  12.5177  12.5664  12.5664  12.6648  12.6648
    12.8009  12.8009  13.1236  13.1236  13.1971  13.1971  13.7899  13.7899
    14.4401  14.4401  15.0919  15.0919  15.7559  15.7559  15.9359  15.9359
    16.6363  16.6363  17.7374  17.7375  17.8239

          k = 0.1667 0.1599 0.0000 ( 62693 PWs)   bands (ev):

   -66.2484 -66.2480 -66.2476 -66.2475 -66.2472 -66.2471 -66.2467 -66.2463
   -30.6444 -30.6399 -30.6398 -30.6355 -30.6012 -30.5954 -30.5931 -30.5915
   -30.5909 -30.5850 -30.5813 -30.5811 -30.5791 -30.5774 -30.5680 -30.5680
   -30.5022 -30.4993 -30.4983 -30.4976 -30.4974 -30.4953 -30.4911 -30.4909
   -20.4074 -20.4074 -20.4073 -20.4073 -20.4072 -20.4072 -20.4071 -20.4071
   -20.3927 -20.3923 -20.3923 -20.3919 -20.3885 -20.3881 -20.3879 -20.3874
   -20.3869 -20.3864 -20.3863 -20.3858 -20.3856 -20.3852 -20.3851 -20.3851
   -20.3849 -20.3848 -20.3845 -20.3843 -20.3839 -20.3837 -20.3835 -20.3832
   -20.3772 -20.3769 -20.3768 -20.3765 -20.3747 -20.3744 -20.3743 -20.3740
   -20.3707 -20.3707 -20.3696 -20.3696 -20.3673 -20.3673 -20.3661 -20.3660
   -20.3637 -20.3635 -20.3629 -20.3628 -20.3626 -20.3625 -20.3614 -20.3614
    -9.9569  -9.6987  -9.6021  -9.5239  -9.3653  -9.2565  -9.1515  -9.0890
    -9.0708  -8.9503  -8.9486  -8.9159  -8.0442  -7.9969  -7.9816  -7.9649
    -7.9431  -7.9381  -7.8659  -7.8430  -7.8424  -7.8183  -7.7456  -7.7223
     1.1620   1.1632   1.1755   1.1882   1.4072   1.4513   1.4642   1.6497
     1.6682   1.7008   1.7473   1.9467   2.4410   2.5186   2.5654   2.6330
     2.6859   2.7623   3.9178   3.9792   4.0332   4.0957   4.2861   4.3503
     4.4986   4.5595   4.6995   4.7247   4.7779   4.8072   4.8408   5.1568
     5.1620   5.2073   5.2469   5.3514   5.4254   5.4826   5.5298   5.6386
     5.6420   5.7033   5.7582   5.7975   5.8508   5.9874   6.0183   6.0548
     6.1482   6.3424   6.3435   6.4110   6.6199   6.6771   6.6932   6.7265
     6.7442   6.8254   6.8341   6.8845   6.8867   6.9176   7.0200   7.0234
     7.0522   7.0780   7.8185   7.8235   7.8952   7.9303   7.9749   7.9987
     9.5391   9.5501   9.9715   9.9788  10.2164  10.2274  12.0603  12.1831
    12.2040  12.2095  12.2790  12.3016  12.3266  12.4181  12.7187  12.8695
    13.0241  13.1257  13.1841  13.1936  13.7214  13.7418  13.9184  13.9311
    14.3488  14.5682  14.7637  15.0397  15.2311  15.2538  15.8072  15.8570
    16.2122  16.6283  16.8189  17.2890  17.5149

          k = 0.1667 0.1599 0.1665 ( 62707 PWs)   bands (ev):

   -66.2483 -66.2479 -66.2476 -66.2476 -66.2472 -66.2472 -66.2468 -66.2464
   -30.6441 -30.6402 -30.6396 -30.6358 -30.5992 -30.5934 -30.5924 -30.5876
   -30.5867 -30.5815 -30.5799 -30.5794 -30.5779 -30.5744 -30.5684 -30.5667
   -30.5040 -30.5026 -30.5022 -30.5008 -30.5005 -30.4982 -30.4956 -30.4934
   -20.4074 -20.4074 -20.4073 -20.4073 -20.4072 -20.4072 -20.4071 -20.4071
   -20.3926 -20.3924 -20.3923 -20.3920 -20.3884 -20.3881 -20.3879 -20.3875
   -20.3868 -20.3864 -20.3863 -20.3858 -20.3857 -20.3853 -20.3853 -20.3848
   -20.3847 -20.3847 -20.3846 -20.3842 -20.3839 -20.3837 -20.3836 -20.3833
   -20.3772 -20.3769 -20.3768 -20.3766 -20.3747 -20.3744 -20.3743 -20.3741
   -20.3702 -20.3702 -20.3692 -20.3692 -20.3673 -20.3672 -20.3662 -20.3661
   -20.3642 -20.3640 -20.3633 -20.3632 -20.3626 -20.3625 -20.3615 -20.3615
    -9.9082  -9.6403  -9.5388  -9.5383  -9.2764  -9.2688  -9.1600  -9.0503
    -9.0355  -8.9423  -8.9213  -8.9195  -8.0485  -7.9977  -7.9935  -7.9697
    -7.9579  -7.9538  -7.9349  -7.9311  -7.8910  -7.8621  -7.8513  -7.8300
     1.3414   1.3464   1.4014   1.4094   1.4508   1.4618   1.4763   1.6489
     1.7300   1.7447   1.7557   2.0011   2.5292   2.6086   2.6419   2.6514
     2.7506   2.7778   3.9324   3.9504   4.0567   4.0739   4.3363   4.3534
     4.4048   4.4188   4.5056   4.5405   4.5539   4.6332   4.7997   5.0574
     5.1113   5.1598   5.1955   5.2425   5.2684   5.4216   5.4252   5.5347
     5.6345   5.6484   5.7310   5.7548   5.7551   5.8318   6.1826   6.2657
     6.2815   6.3286   6.4489   6.5336   6.5886   6.6091   6.6579   6.6763
     6.6958   6.7439   6.7737   6.7965   6.8604   6.8663   6.8900   6.9836
     7.1340   7.1710   7.8050   7.8076   7.8972   7.9325   7.9439   7.9575
     9.7765   9.8053  10.1764  10.2080  10.2260  10.2843  12.1221  12.1640
    12.2209  12.2347  12.2386  12.2516  12.3735  12.3903  12.7380  12.8319
    12.9034  12.9918  13.1298  13.2267  13.7138  13.7277  13.7735  13.8219
    14.4469  14.7316  14.7623  15.1465  15.3340  15.3420  15.8005  16.1600
    16.1824  16.7556  16.9630  16.9807  17.4779

          k = 0.1667 0.1599 0.3329 ( 62668 PWs)   bands (ev):

   -66.2482 -66.2478 -66.2477 -66.2474 -66.2473 -66.2470 -66.2469 -66.2466
   -30.6434 -30.6411 -30.6389 -30.6367 -30.5969 -30.5942 -30.5874 -30.5831
   -30.5826 -30.5803 -30.5776 -30.5697 -30.5650 -30.5628 -30.5615 -30.5593
   -30.5207 -30.5190 -30.5176 -30.5156 -30.5008 -30.4985 -30.4975 -30.4951
   -20.4074 -20.4074 -20.4073 -20.4073 -20.4073 -20.4073 -20.4072 -20.4072
   -20.3926 -20.3924 -20.3922 -20.3920 -20.3883 -20.3881 -20.3878 -20.3875
   -20.3868 -20.3865 -20.3862 -20.3859 -20.3858 -20.3855 -20.3853 -20.3849
   -20.3844 -20.3843 -20.3843 -20.3840 -20.3839 -20.3838 -20.3837 -20.3834
   -20.3771 -20.3769 -20.3768 -20.3767 -20.3746 -20.3744 -20.3744 -20.3742
   -20.3690 -20.3690 -20.3680 -20.3680 -20.3670 -20.3669 -20.3664 -20.3664
   -20.3654 -20.3653 -20.3645 -20.3645 -20.3624 -20.3623 -20.3617 -20.3617
    -9.7913  -9.5856  -9.5047  -9.3880  -9.3075  -9.1895  -9.0233  -8.9705
    -8.9298  -8.9047  -8.8678  -8.8126  -8.2771  -8.2715  -8.2333  -8.2003
    -8.0137  -7.9959  -7.9693  -7.9436  -7.9382  -7.9137  -7.8837  -7.8624
     1.4125   1.4244   1.4783   1.4855   1.6100   1.6224   1.6905   1.7422
     2.1549   2.2131   2.3089   2.4132   2.6598   2.7277   2.7960   2.8835
     2.8899   3.0045   3.6966   3.7964   3.8201   3.8387   4.0489   4.0620
     4.1216   4.2591   4.3799   4.4549   4.4791   4.5746   4.6142   4.7144
     4.7418   4.8054   4.8381   5.0404   5.0611   5.1329   5.2504   5.4714
     5.5456   5.5704   5.6661   5.7198   5.7814   5.7919   5.9810   6.0316
     6.2621   6.4156   6.4518   6.5379   6.6008   6.6069   6.6207   6.6717
     6.7188   6.7840   6.8257   6.8644   6.9819   7.0264   7.0763   7.1015
     7.1898   7.2486   7.7143   7.7230   7.7985   7.8265   7.9277   7.9347
    10.1768  10.1971  10.4109  10.4673  10.8011  10.8658  11.7979  11.8387
    12.0476  12.3178  12.3341  12.3777  12.3967  12.3978  12.5704  12.6240
    12.7348  12.9328  12.9880  13.1243  13.4137  13.4442  13.7267  13.7461
    14.6252  14.7448  15.1282  15.4243  15.6312  15.7011  15.8378  16.0936
    16.4124  17.0493  17.1537  17.3673  17.4324

          k = 0.1667 0.1599-0.4994 ( 62678 PWs)   bands (ev):

   -66.2480 -66.2480 -66.2476 -66.2476 -66.2472 -66.2472 -66.2468 -66.2468
   -30.6423 -30.6423 -30.6379 -30.6378 -30.5954 -30.5954 -30.5844 -30.5844
   -30.5816 -30.5816 -30.5720 -30.5720 -30.5430 -30.5430 -30.5422 -30.5422
   -30.5397 -30.5397 -30.5385 -30.5385 -30.4998 -30.4997 -30.4964 -30.4964
   -20.4073 -20.4073 -20.4073 -20.4073 -20.4072 -20.4072 -20.4072 -20.4072
   -20.3925 -20.3925 -20.3921 -20.3921 -20.3882 -20.3882 -20.3877 -20.3877
   -20.3867 -20.3867 -20.3860 -20.3860 -20.3857 -20.3857 -20.3852 -20.3852
   -20.3841 -20.3841 -20.3841 -20.3841 -20.3840 -20.3840 -20.3837 -20.3837
   -20.3770 -20.3770 -20.3768 -20.3768 -20.3746 -20.3746 -20.3743 -20.3743
   -20.3673 -20.3673 -20.3673 -20.3673 -20.3667 -20.3667 -20.3666 -20.3666
   -20.3662 -20.3662 -20.3662 -20.3661 -20.3620 -20.3620 -20.3620 -20.3620
    -9.6704  -9.6704  -9.3815  -9.3815  -9.2567  -9.2567  -8.9446  -8.9446
    -8.6590  -8.6590  -8.6388  -8.6387  -8.6042  -8.6041  -8.5552  -8.5552
    -8.0062  -8.0062  -7.9588  -7.9588  -7.9119  -7.9119  -7.8878  -7.8878
     1.4196   1.4196   1.4918   1.4918   1.6259   1.6259   1.7355   1.7355
     2.6807   2.6807   2.9491   2.9491   3.0213   3.0213   3.1074   3.1074
     3.1830   3.1830   3.3114   3.3114   3.4267   3.4268   3.6973   3.6973
     3.7776   3.7777   4.1684   4.1684   4.3816   4.3816   4.6130   4.6130
     4.8101   4.8101   4.8983   4.8983   4.9609   4.9609   5.3649   5.3649
     5.5964   5.5964   5.6236   5.6236   5.7662   5.7662   5.8119   5.8119
     6.3745   6.3745   6.5290   6.5290   6.5522   6.5522   6.6439   6.6439
     6.8032   6.8032   6.8226   6.8226   6.9408   6.9408   7.4529   7.4529
     7.4843   7.4843   7.5592   7.5592   7.5884   7.5884   7.9335   7.9335
    10.2026  10.2026  11.1326  11.1326  11.1911  11.1911  11.5057  11.5057
    11.6292  11.6292  12.4061  12.4061  12.5275  12.5275  12.6465  12.6465
    12.7860  12.7860  13.0079  13.0079  13.1211  13.1211  13.7297  13.7297
    14.7101  14.7101  15.4752  15.4752  15.8676  15.8677  15.9218  15.9218
    16.6773  16.6773  17.5754  17.5755  17.8056

          k = 0.1667 0.3197 0.0000 ( 62698 PWs)   bands (ev):

   -66.2483 -66.2481 -66.2475 -66.2474 -66.2473 -66.2472 -66.2466 -66.2464
   -30.6335 -30.6289 -30.6285 -30.6240 -30.6074 -30.6011 -30.6007 -30.5927
   -30.5920 -30.5914 -30.5852 -30.5828 -30.5802 -30.5781 -30.5730 -30.5723
   -30.5015 -30.4997 -30.4983 -30.4977 -30.4970 -30.4958 -30.4914 -30.4912
   -20.4074 -20.4074 -20.4073 -20.4073 -20.4072 -20.4072 -20.4071 -20.4071
   -20.3917 -20.3914 -20.3913 -20.3909 -20.3892 -20.3889 -20.3887 -20.3883
   -20.3866 -20.3861 -20.3861 -20.3858 -20.3854 -20.3854 -20.3854 -20.3853
   -20.3850 -20.3849 -20.3847 -20.3845 -20.3840 -20.3838 -20.3837 -20.3834
   -20.3771 -20.3769 -20.3767 -20.3766 -20.3746 -20.3745 -20.3742 -20.3741
   -20.3707 -20.3707 -20.3696 -20.3696 -20.3673 -20.3673 -20.3661 -20.3660
   -20.3636 -20.3635 -20.3629 -20.3628 -20.3625 -20.3625 -20.3614 -20.3614
    -9.8792  -9.7342  -9.5162  -9.4241  -9.3898  -9.2821  -9.0840  -9.0741
    -8.9333  -8.8121  -8.8059  -8.7926  -8.2923  -8.2527  -8.2455  -8.2276
    -7.9680  -7.9527  -7.8643  -7.8500  -7.8382  -7.8239  -7.7409  -7.7278
     1.1639   1.1651   1.1865   1.1887   1.4519   1.4620   1.6226   1.6678
     2.2388   2.3514   2.3748   2.4581   2.5022   2.5150   2.7939   2.8558
     2.9075   2.9715   3.5400   3.5715   3.6294   3.6699   4.0446   4.2966
     4.3150   4.3871   4.4184   4.6267   4.6298   4.6931   4.7614   4.7625
     4.9187   4.9518   5.0638   5.2036   5.2705   5.3477   5.4844   5.5425
     5.6077   5.6629   5.7246   5.7993   5.9842   5.9998   6.0259   6.0481
     6.1329   6.2921   6.3397   6.4685   6.5052   6.7267   6.7289   6.8079
     6.8594   6.8795   6.9586   6.9836   6.9876   7.0001   7.0545   7.0565
     7.1049   7.1132   7.7174   7.7406   7.7637   7.7808   7.8288   7.8327
     9.5479   9.5519  10.4667  10.5093  10.6721  10.6944  11.6886  11.8087
    11.8449  11.9203  12.1959  12.2053  12.3344  12.3568  12.8133  12.8869
    13.1085  13.1523  13.2399  13.2570  13.5223  13.5314  13.6736  13.6916
    14.9199  15.1108  15.2057  15.2614  15.3725  15.6194  15.7320  16.0780
    16.0952  16.8409  17.1945  17.2759  17.7221

          k = 0.1667 0.3197 0.1665 ( 62702 PWs)   bands (ev):

   -66.2483 -66.2480 -66.2475 -66.2475 -66.2473 -66.2472 -66.2467 -66.2465
   -30.6332 -30.6292 -30.6283 -30.6243 -30.6064 -30.6012 -30.5996 -30.5930
   -30.5875 -30.5868 -30.5798 -30.5786 -30.5779 -30.5775 -30.5726 -30.5715
   -30.5036 -30.5025 -30.5021 -30.5009 -30.5003 -30.4988 -30.4953 -30.4940
   -20.4074 -20.4074 -20.4073 -20.4073 -20.4072 -20.4072 -20.4071 -20.4071
   -20.3917 -20.3914 -20.3913 -20.3910 -20.3892 -20.3889 -20.3887 -20.3883
   -20.3866 -20.3862 -20.3861 -20.3859 -20.3855 -20.3855 -20.3854 -20.3850
   -20.3848 -20.3848 -20.3848 -20.3844 -20.3840 -20.3838 -20.3837 -20.3834
   -20.3771 -20.3769 -20.3768 -20.3766 -20.3746 -20.3745 -20.3743 -20.3741
   -20.3702 -20.3702 -20.3692 -20.3692 -20.3672 -20.3672 -20.3662 -20.3661
   -20.3641 -20.3640 -20.3633 -20.3632 -20.3626 -20.3625 -20.3615 -20.3615
    -9.8267  -9.6764  -9.4409  -9.4389  -9.3016  -9.2951  -9.0471  -9.0387
    -8.9417  -8.8000  -8.7968  -8.7959  -8.2945  -8.2532  -8.2492  -8.2332
    -7.9654  -7.9637  -7.9457  -7.9449  -7.8891  -7.8741  -7.8482  -7.8354
     1.3426   1.3452   1.4423   1.4498   1.4573   1.4670   1.6916   1.7500
     2.2414   2.3499   2.3638   2.5035   2.5487   2.5998   2.8639   2.8867
     2.9656   2.9945   3.5767   3.6031   3.6331   3.6765   4.0344   4.3278
     4.3447   4.3545   4.3725   4.4266   4.4634   4.6158   4.6345   4.7104
     4.7411   4.7662   4.9907   5.0279   5.2580   5.2719   5.2753   5.3091
     5.5760   5.5899   5.6405   5.6475   5.7415   5.7453   6.2310   6.2700
     6.3055   6.3560   6.4301   6.5349   6.6174   6.6389   6.7142   6.7356
     6.8103   6.8241   6.9100   6.9183   6.9974   7.0218   7.0293   7.0507
     7.1642   7.1833   7.7165   7.7279   7.7381   7.7602   7.8123   7.8225
     9.7982   9.8080  10.6243  10.6574  10.6976  10.7204  11.7703  11.8315
    11.9036  11.9183  12.2259  12.2410  12.2531  12.2670  12.8392  12.8810
    12.9889  13.0496  13.1410  13.2428  13.4759  13.5150  13.5280  13.6062
    15.0780  15.2891  15.3360  15.3493  15.3903  15.6848  16.0519  16.0703
    16.2057  16.8076  17.2613  17.3341  17.3538

          k = 0.1667 0.3197 0.3329 ( 62677 PWs)   bands (ev):

   -66.2481 -66.2479 -66.2477 -66.2474 -66.2473 -66.2471 -66.2469 -66.2466
   -30.6324 -30.6300 -30.6276 -30.6252 -30.6048 -30.6021 -30.5974 -30.5940
   -30.5823 -30.5792 -30.5791 -30.5739 -30.5652 -30.5643 -30.5618 -30.5613
   -30.5205 -30.5194 -30.5173 -30.5161 -30.5002 -30.4983 -30.4978 -30.4959
   -20.4074 -20.4074 -20.4073 -20.4073 -20.4073 -20.4073 -20.4072 -20.4072
   -20.3916 -20.3915 -20.3912 -20.3910 -20.3891 -20.3890 -20.3887 -20.3884
   -20.3865 -20.3863 -20.3860 -20.3859 -20.3856 -20.3856 -20.3855 -20.3851
   -20.3846 -20.3845 -20.3844 -20.3842 -20.3840 -20.3839 -20.3839 -20.3836
   -20.3771 -20.3769 -20.3769 -20.3767 -20.3746 -20.3744 -20.3744 -20.3742
   -20.3690 -20.3690 -20.3680 -20.3680 -20.3670 -20.3669 -20.3664 -20.3664
   -20.3654 -20.3653 -20.3645 -20.3645 -20.3624 -20.3623 -20.3617 -20.3617
    -9.7007  -9.5409  -9.4861  -9.3360  -9.2481  -9.0517  -8.9744  -8.9332
    -8.9089  -8.8083  -8.7685  -8.7300  -8.3574  -8.3296  -8.2654  -8.2498
    -8.2395  -8.1937  -8.1880  -8.1277  -7.9387  -7.9241  -7.8831  -7.8693
     1.4661   1.4763   1.4792   1.4858   2.0633   2.1368   2.1521   2.2527
     2.3057   2.3627   2.3962   2.5841   2.8103   2.8587   2.8893   2.9567
     3.1217   3.2050   3.5829   3.6133   3.6257   3.7101   3.7953   3.8617
     4.0170   4.1611   4.2428   4.2942   4.3273   4.4532   4.4714   4.5622
     4.5847   4.6846   4.6901   4.7490   4.7976   4.8529   4.9934   5.0840
     5.2143   5.2385   5.3168   5.5366   5.6685   5.7483   6.0154   6.0313
     6.4319   6.5059   6.5327   6.6445   6.6939   6.7094   6.8392   6.8596
     6.8991   6.9293   6.9550   6.9743   7.0315   7.0916   7.1064   7.1511
     7.1938   7.2422   7.6447   7.6520   7.6889   7.7261   7.7372   7.7746
    10.3983  10.4170  10.6801  10.7110  11.1238  11.1651  11.7627  11.8143
    11.8572  11.9670  12.0609  12.1334  12.3892  12.4569  12.4900  12.5253
    12.7946  12.9251  12.9450  13.1466  13.1556  13.2409  13.5043  13.5368
    15.2225  15.3222  15.6077  15.8897  15.9087  15.9209  16.0204  16.6427
    16.6857  16.7577  16.9414  17.4852  17.5704

          k = 0.1667 0.3197-0.4994 ( 62670 PWs)   bands (ev):

   -66.2479 -66.2479 -66.2476 -66.2476 -66.2471 -66.2471 -66.2469 -66.2469
   -30.6312 -30.6312 -30.6264 -30.6264 -30.6033 -30.6033 -30.5955 -30.5955
   -30.5805 -30.5805 -30.5756 -30.5756 -30.5432 -30.5432 -30.5426 -30.5426
   -30.5398 -30.5398 -30.5390 -30.5390 -30.4991 -30.4991 -30.4972 -30.4972
   -20.4073 -20.4073 -20.4073 -20.4073 -20.4072 -20.4072 -20.4072 -20.4072
   -20.3916 -20.3916 -20.3912 -20.3911 -20.3891 -20.3890 -20.3885 -20.3885
   -20.3864 -20.3864 -20.3859 -20.3859 -20.3858 -20.3858 -20.3853 -20.3853
   -20.3843 -20.3843 -20.3842 -20.3842 -20.3841 -20.3841 -20.3838 -20.3838
   -20.3770 -20.3770 -20.3768 -20.3768 -20.3745 -20.3745 -20.3743 -20.3743
   -20.3673 -20.3673 -20.3673 -20.3673 -20.3667 -20.3666 -20.3666 -20.3666
   -20.3662 -20.3662 -20.3662 -20.3662 -20.3620 -20.3620 -20.3620 -20.3620
    -9.5729  -9.5729  -9.4141  -9.4141  -9.0607  -9.0607  -8.8355  -8.8355
    -8.6916  -8.6916  -8.6497  -8.6497  -8.5906  -8.5906  -8.5307  -8.5307
    -8.2461  -8.2461  -8.2129  -8.2129  -7.9111  -7.9111  -7.8967  -7.8967
     1.4797   1.4797   1.4915   1.4915   2.2414   2.2414   2.3490   2.3490
     2.8747   2.8747   2.9997   2.9997   3.0346   3.0346   3.1475   3.1475
     3.1883   3.1883   3.3512   3.3512   3.3979   3.3979   3.6244   3.6244
     3.9273   3.9273   3.9737   3.9737   3.9931   3.9931   4.2488   4.2488
     4.6257   4.6257   4.7265   4.7265   4.8838   4.8838   4.8877   4.8877
     5.0073   5.0073   5.4071   5.4071   5.7607   5.7607   5.7989   5.7989
     6.5550   6.5550   6.6670   6.6670   6.7157   6.7157   6.7474   6.7474
     6.9391   6.9391   6.9830   6.9830   7.0874   7.0874   7.4322   7.4322
     7.4608   7.4608   7.4797   7.4797   7.5218   7.5218   7.7463   7.7463
    10.6641  10.6641  11.1447  11.1447  11.1956  11.1956  11.6677  11.6677
    11.8253  11.8253  12.0346  12.0346  12.4636  12.4636  12.4870  12.4870
    12.7090  12.7091  12.7929  12.7929  13.0924  13.0924  13.5084  13.5084
    15.2862  15.2862  15.8345  15.8345  16.2686  16.2686  16.4277  16.4277
    16.8447  16.8447  17.2027  17.2027  17.7854

          k = 0.1667-0.4796 0.0000 ( 62682 PWs)   bands (ev):

   -66.2482 -66.2482 -66.2474 -66.2474 -66.2473 -66.2473 -66.2465 -66.2465
   -30.6195 -30.6195 -30.6142 -30.6142 -30.6137 -30.6137 -30.6083 -30.6083
   -30.5919 -30.5919 -30.5851 -30.5851 -30.5779 -30.5779 -30.5754 -30.5754
   -30.5006 -30.5006 -30.4979 -30.4979 -30.4964 -30.4964 -30.4914 -30.4914
   -20.4074 -20.4074 -20.4073 -20.4073 -20.4072 -20.4072 -20.4071 -20.4071
   -20.3904 -20.3904 -20.3901 -20.3901 -20.3900 -20.3900 -20.3896 -20.3896
   -20.3862 -20.3862 -20.3858 -20.3858 -20.3857 -20.3857 -20.3852 -20.3852
   -20.3850 -20.3850 -20.3847 -20.3847 -20.3839 -20.3839 -20.3836 -20.3836
   -20.3770 -20.3770 -20.3767 -20.3767 -20.3745 -20.3745 -20.3742 -20.3742
   -20.3707 -20.3707 -20.3696 -20.3696 -20.3673 -20.3673 -20.3660 -20.3660
   -20.3636 -20.3636 -20.3628 -20.3628 -20.3625 -20.3625 -20.3614 -20.3614
    -9.7961  -9.7961  -9.4381  -9.4381  -9.3347  -9.3347  -9.0788  -9.0788
    -8.6184  -8.6184  -8.5657  -8.5657  -8.5549  -8.5549  -8.5517  -8.5517
    -7.9611  -7.9611  -7.8576  -7.8576  -7.8311  -7.8311  -7.7345  -7.7345
     1.1648   1.1648   1.1888   1.1888   1.4602   1.4602   1.6584   1.6584
     2.4799   2.4799   3.0154   3.0154   3.0967   3.0967   3.1504   3.1504
     3.2087   3.2087   3.2174   3.2175   3.4024   3.4024   3.4648   3.4648
     3.5910   3.5910   4.3345   4.3345   4.6754   4.6755   4.8931   4.8931
     4.9969   4.9969   5.0791   5.0791   5.2166   5.2166   5.4075   5.4075
     5.6446   5.6446   5.6792   5.6792   6.0219   6.0219   6.0421   6.0421
     6.2827   6.2827   6.3154   6.3154   6.5911   6.5911   6.7808   6.7808
     6.9030   6.9030   7.0107   7.0108   7.0388   7.0388   7.3885   7.3885
     7.4146   7.4146   7.4286   7.4286   7.4501   7.4501   7.8274   7.8274
     9.5516   9.5516  11.1011  11.1011  11.1638  11.1638  11.2672  11.2672
    11.3339  11.3339  12.2027  12.2027  12.3468  12.3468  12.8963  12.8963
    13.2179  13.2179  13.3328  13.3329  13.4125  13.4125  13.4399  13.4400
    15.2076  15.2076  15.5114  15.5115  15.5274  15.5274  15.8372  15.8372
    16.5139  16.5139  17.7605  17.7605  17.8641

          k = 0.1667-0.4796 0.1665 ( 62698 PWs)   bands (ev):

   -66.2481 -66.2481 -66.2474 -66.2474 -66.2474 -66.2473 -66.2466 -66.2466
   -30.6190 -30.6190 -30.6145 -30.6145 -30.6133 -30.6133 -30.6087 -30.6087
   -30.5871 -30.5871 -30.5796 -30.5796 -30.5766 -30.5766 -30.5750 -30.5750
   -30.5031 -30.5030 -30.5015 -30.5014 -30.4996 -30.4996 -30.4948 -30.4948
   -20.4074 -20.4074 -20.4073 -20.4073 -20.4072 -20.4072 -20.4071 -20.4071
   -20.3904 -20.3904 -20.3901 -20.3901 -20.3900 -20.3900 -20.3896 -20.3896
   -20.3862 -20.3862 -20.3858 -20.3858 -20.3857 -20.3857 -20.3851 -20.3851
   -20.3850 -20.3850 -20.3846 -20.3846 -20.3839 -20.3839 -20.3836 -20.3836
   -20.3770 -20.3770 -20.3767 -20.3767 -20.3745 -20.3745 -20.3742 -20.3742
   -20.3702 -20.3702 -20.3692 -20.3692 -20.3672 -20.3672 -20.3661 -20.3661
   -20.3641 -20.3641 -20.3632 -20.3632 -20.3626 -20.3625 -20.3615 -20.3615
    -9.7401  -9.7401  -9.3535  -9.3533  -9.3487  -9.3487  -9.0429  -9.0429
    -8.6255  -8.6254  -8.5618  -8.5611  -8.5580  -8.5575  -8.5503  -8.5499
    -7.9619  -7.9614  -7.9495  -7.9494  -7.8824  -7.8822  -7.8420  -7.8420
     1.3433   1.3443   1.4487   1.4497   1.4650   1.4656   1.7383   1.7388
     2.5692   2.5698   3.0293   3.0302   3.0908   3.1040   3.1515   3.1600
     3.1972   3.2046   3.2570   3.2788   3.4394   3.4481   3.4659   3.4714
     3.6131   3.6161   4.3557   4.3780   4.3914   4.4175   4.7962   4.8167
     4.8767   4.8860   4.9685   4.9912   5.0111   5.0321   5.3463   5.3509
     5.3927   5.3928   5.6489   5.6715   5.6779   5.6935   6.2734   6.2773
[...]
    11.4411  11.4411  11.4411  11.4411  11.5299  11.5299  11.5300  11.5300
    11.9064  11.9064  11.9064  11.9064  12.0430  12.0430  12.0430  12.0430
    12.8791  12.8791  12.8791  12.8791  13.0507  13.0507  13.0507  13.0507
    15.2684  15.2684  15.2684  15.2684  16.6971  16.6971  16.6971  16.6971
    17.5937  17.5937  17.5937  17.5937  17.7812

          k =-0.5000 0.3197 0.0000 ( 62684 PWs)   bands (ev):

   -66.2479 -66.2479 -66.2477 -66.2477 -66.2470 -66.2470 -66.2468 -66.2468
   -30.6309 -30.6309 -30.6263 -30.6263 -30.6034 -30.6034 -30.5955 -30.5955
   -30.5876 -30.5876 -30.5858 -30.5858 -30.5419 -30.5419 -30.5397 -30.5396
   -30.5374 -30.5374 -30.5356 -30.5356 -30.4951 -30.4951 -30.4939 -30.4939
   -20.4074 -20.4074 -20.4074 -20.4074 -20.4072 -20.4072 -20.4072 -20.4072
   -20.3915 -20.3915 -20.3912 -20.3912 -20.3890 -20.3890 -20.3886 -20.3886
   -20.3863 -20.3863 -20.3858 -20.3858 -20.3855 -20.3854 -20.3852 -20.3852
   -20.3851 -20.3851 -20.3847 -20.3847 -20.3839 -20.3839 -20.3836 -20.3835
   -20.3757 -20.3757 -20.3755 -20.3755 -20.3754 -20.3754 -20.3752 -20.3752
   -20.3702 -20.3702 -20.3702 -20.3702 -20.3652 -20.3652 -20.3652 -20.3652
   -20.3639 -20.3639 -20.3639 -20.3639 -20.3631 -20.3631 -20.3630 -20.3630
    -9.6450  -9.6450  -9.5023  -9.5023  -9.0494  -9.0494  -8.8585  -8.8585
    -8.6695  -8.6695  -8.6554  -8.6553  -8.5938  -8.5937  -8.5239  -8.5239
    -8.2450  -8.2450  -8.2083  -8.2083  -7.7902  -7.7902  -7.7765  -7.7765
     1.2079   1.2079   1.2126   1.2126   2.2362   2.2362   2.3588   2.3588
     2.8317   2.8317   2.9607   2.9607   3.0143   3.0143   3.1499   3.1499
     3.1783   3.1783   3.2967   3.2967   3.3415   3.3415   3.5712   3.5712
     3.9007   3.9007   3.9325   3.9325   4.0789   4.0789   4.2695   4.2695
     4.7190   4.7190   4.7910   4.7910   5.0023   5.0023   5.1309   5.1309
     5.2923   5.2923   5.6424   5.6424   6.1485   6.1485   6.1841   6.1841
     6.3638   6.3638   6.4080   6.4080   6.4405   6.4405   6.6585   6.6585
     6.9507   6.9507   6.9804   6.9804   7.0129   7.0129   7.4196   7.4196
     7.4325   7.4325   7.4952   7.4952   7.5233   7.5233   7.7803   7.7803
    10.4883  10.4883  11.0704  11.0704  11.1069  11.1069  11.5597  11.5597
    11.8209  11.8209  12.0044  12.0044  12.4966  12.4966  12.5407  12.5407
    12.7787  12.7787  12.8767  12.8767  13.2450  13.2450  13.6775  13.6775
    15.0467  15.0467  15.5218  15.5218  16.1949  16.1949  16.4319  16.4319
    16.7432  16.7432  17.1674  17.1674  17.8916

          k =-0.5000 0.3197 0.1665 ( 62690 PWs)   bands (ev):

   -66.2479 -66.2479 -66.2476 -66.2476 -66.2471 -66.2471 -66.2469 -66.2469
   -30.6306 -30.6306 -30.6267 -30.6266 -30.6021 -30.6021 -30.5959 -30.5959
   -30.5815 -30.5815 -30.5808 -30.5808 -30.5416 -30.5416 -30.5395 -30.5395
   -30.5376 -30.5376 -30.5360 -30.5359 -30.5012 -30.5012 -30.5001 -30.5001
   -20.4074 -20.4074 -20.4074 -20.4074 -20.4072 -20.4072 -20.4072 -20.4072
   -20.3915 -20.3915 -20.3912 -20.3912 -20.3890 -20.3890 -20.3887 -20.3887
   -20.3863 -20.3863 -20.3858 -20.3858 -20.3855 -20.3855 -20.3851 -20.3851
   -20.3850 -20.3849 -20.3846 -20.3846 -20.3839 -20.3839 -20.3836 -20.3836
   -20.3757 -20.3757 -20.3755 -20.3755 -20.3754 -20.3754 -20.3753 -20.3753
   -20.3697 -20.3697 -20.3697 -20.3697 -20.3652 -20.3652 -20.3651 -20.3651
   -20.3641 -20.3641 -20.3641 -20.3640 -20.3636 -20.3636 -20.3635 -20.3635
    -9.5751  -9.5751  -9.4197  -9.4197  -9.0625  -9.0625  -8.8382  -8.8382
    -8.6867  -8.6866  -8.6463  -8.6463  -8.5847  -8.5846  -8.5275  -8.5275
    -8.2425  -8.2425  -8.2133  -8.2133  -7.9139  -7.9138  -7.8997  -7.8997
     1.4649   1.4649   1.4750   1.4750   2.2395   2.2395   2.3460   2.3460
     2.9035   2.9036   2.9817   2.9817   3.0163   3.0164   3.1568   3.1568
     3.1922   3.1922   3.3732   3.3732   3.3999   3.3999   3.6154   3.6154
     3.8962   3.8962   3.9396   3.9396   4.0754   4.0754   4.2723   4.2723
     4.6119   4.6119   4.7049   4.7049   4.8798   4.8798   4.8957   4.8957
     5.0100   5.0100   5.4067   5.4067   5.7564   5.7564   5.7953   5.7953
     6.5584   6.5584   6.6793   6.6793   6.7243   6.7243   6.7500   6.7500
     6.9276   6.9276   6.9861   6.9861   7.0778   7.0778   7.4207   7.4207
     7.4432   7.4433   7.5045   7.5045   7.5317   7.5317   7.7564   7.7564
    10.6541  10.6541  11.1473  11.1473  11.1927  11.1927  11.6100  11.6100
    11.8324  11.8324  12.0432  12.0432  12.4793  12.4793  12.5179  12.5179
    12.7112  12.7112  12.8184  12.8184  13.0809  13.0809  13.5279  13.5279
    15.2874  15.2874  15.8163  15.8163  16.2646  16.2646  16.4237  16.4237
    16.8010  16.8010  17.2088  17.2088  17.7682

          k =-0.5000 0.3197 0.3329 ( 62684 PWs)   bands (ev):

   -66.2477 -66.2477 -66.2475 -66.2475 -66.2473 -66.2473 -66.2470 -66.2470
   -30.6299 -30.6299 -30.6275 -30.6275 -30.6000 -30.6000 -30.5968 -30.5968
   -30.5656 -30.5656 -30.5649 -30.5649 -30.5407 -30.5407 -30.5398 -30.5398
   -30.5375 -30.5374 -30.5371 -30.5370 -30.5176 -30.5176 -30.5168 -30.5168
   -20.4073 -20.4073 -20.4073 -20.4073 -20.4072 -20.4072 -20.4072 -20.4072
   -20.3915 -20.3915 -20.3913 -20.3913 -20.3889 -20.3889 -20.3887 -20.3887
   -20.3862 -20.3862 -20.3860 -20.3860 -20.3856 -20.3856 -20.3853 -20.3853
   -20.3846 -20.3846 -20.3844 -20.3844 -20.3840 -20.3840 -20.3837 -20.3837
   -20.3757 -20.3757 -20.3756 -20.3756 -20.3754 -20.3754 -20.3753 -20.3753
   -20.3685 -20.3685 -20.3685 -20.3685 -20.3652 -20.3652 -20.3652 -20.3652
   -20.3647 -20.3646 -20.3646 -20.3646 -20.3642 -20.3642 -20.3641 -20.3641
    -9.3979  -9.3979  -9.1933  -9.1933  -9.1086  -9.1086  -8.7689  -8.7689
    -8.7368  -8.7368  -8.6159  -8.6159  -8.5641  -8.5641  -8.5354  -8.5354
    -8.2681  -8.2681  -8.2298  -8.2298  -8.2105  -8.2105  -8.1587  -8.1587
     2.0865   2.0865   2.1729   2.1729   2.2499   2.2499   2.3815   2.3815
     2.9725   2.9725   3.0164   3.0165   3.0978   3.0978   3.1642   3.1642
     3.2408   3.2408   3.5514   3.5514   3.6138   3.6138   3.7077   3.7077
     3.8729   3.8729   3.9664   3.9664   4.0653   4.0653   4.1158   4.1158
     4.2245   4.2245   4.3747   4.3747   4.4980   4.4980   4.7311   4.7311
     4.8229   4.8229   4.9097   4.9097   4.9370   4.9370   5.2129   5.2129
     6.7686   6.7686   6.8267   6.8267   6.8925   6.8926   6.9384   6.9384
     7.0697   7.0697   7.1641   7.1641   7.2679   7.2679   7.4082   7.4082
     7.4460   7.4461   7.5193   7.5193   7.5417   7.5417   7.6882   7.6882
    11.0957  11.0957  11.3855  11.3855  11.4660  11.4660  11.6938  11.6938
    11.8800  11.8800  12.1940  12.1940  12.2574  12.2574  12.3230  12.3230
    12.5754  12.5754  12.6712  12.6712  12.7050  12.7050  13.1393  13.1393
    15.8574  15.8574  16.3369  16.3369  16.5038  16.5038  16.6380  16.6380
    17.0265  17.0265  17.2835  17.2835  17.5002

          k =-0.5000 0.3197-0.4994 ( 62672 PWs)   bands (ev):

   -66.2475 -66.2475 -66.2475 -66.2475 -66.2473 -66.2473 -66.2472 -66.2472
   -30.6287 -30.6287 -30.6287 -30.6287 -30.5982 -30.5982 -30.5982 -30.5982
   -30.5462 -30.5462 -30.5462 -30.5462 -30.5439 -30.5439 -30.5439 -30.5439
   -30.5365 -30.5365 -30.5365 -30.5365 -30.5336 -30.5336 -30.5335 -30.5335
   -20.4073 -20.4073 -20.4073 -20.4073 -20.4073 -20.4073 -20.4073 -20.4073
   -20.3914 -20.3914 -20.3914 -20.3914 -20.3889 -20.3888 -20.3888 -20.3888
   -20.3861 -20.3861 -20.3861 -20.3861 -20.3855 -20.3855 -20.3855 -20.3855
   -20.3843 -20.3843 -20.3843 -20.3843 -20.3839 -20.3839 -20.3839 -20.3839
   -20.3756 -20.3756 -20.3756 -20.3756 -20.3754 -20.3754 -20.3754 -20.3754
   -20.3668 -20.3668 -20.3668 -20.3668 -20.3668 -20.3668 -20.3667 -20.3667
   -20.3645 -20.3645 -20.3645 -20.3645 -20.3645 -20.3645 -20.3645 -20.3645
    -9.2145  -9.2145  -9.2145  -9.2145  -8.9121  -8.9121  -8.9121  -8.9120
    -8.6122  -8.6122  -8.6122  -8.6121  -8.5000  -8.5000  -8.5000  -8.5000
    -8.4825  -8.4825  -8.4825  -8.4825  -8.2157  -8.2157  -8.2157  -8.2157
     2.2483   2.2483   2.2483   2.2483   2.9158   2.9158   2.9158   2.9158
     3.0032   3.0032   3.0032   3.0032   3.1387   3.1387   3.1387   3.1387
     3.2295   3.2295   3.2295   3.2295   3.8087   3.8087   3.8087   3.8087
     3.8940   3.8940   3.8940   3.8940   3.9706   3.9706   3.9706   3.9706
     4.1926   4.1927   4.1927   4.1927   4.2571   4.2571   4.2571   4.2571
     4.6031   4.6031   4.6031   4.6031   4.9426   4.9426   4.9426   4.9426
     6.8371   6.8371   6.8372   6.8372   6.9257   6.9257   6.9258   6.9258
     7.3066   7.3066   7.3066   7.3066   7.3663   7.3664   7.3664   7.3664
     7.4697   7.4697   7.4697   7.4697   7.5957   7.5957   7.5957   7.5957
    11.6209  11.6209  11.6209  11.6209  11.6840  11.6840  11.6840  11.6840
    11.9302  11.9302  11.9302  11.9302  12.1126  12.1126  12.1126  12.1126
    12.5415  12.5415  12.5415  12.5415  12.7280  12.7280  12.7280  12.7280
    16.2215  16.2215  16.2215  16.2215  16.8746  16.8746  16.8746  16.8747
    17.3950  17.3950  17.3950  17.3951  17.7839

          k =-0.5000-0.4796 0.0000 ( 62684 PWs)   bands (ev):

   -66.2478 -66.2478 -66.2478 -66.2478 -66.2469 -66.2469 -66.2469 -66.2469
   -30.6164 -30.6164 -30.6160 -30.6160 -30.6111 -30.6111 -30.6106 -30.6106
   -30.5876 -30.5876 -30.5875 -30.5875 -30.5411 -30.5411 -30.5405 -30.5405
   -30.5370 -30.5370 -30.5365 -30.5365 -30.4945 -30.4945 -30.4945 -30.4945
   -20.4074 -20.4074 -20.4074 -20.4074 -20.4072 -20.4072 -20.4072 -20.4072
   -20.3903 -20.3903 -20.3902 -20.3902 -20.3899 -20.3899 -20.3898 -20.3898
   -20.3860 -20.3860 -20.3859 -20.3859 -20.3854 -20.3854 -20.3854 -20.3854
   -20.3850 -20.3850 -20.3849 -20.3849 -20.3838 -20.3838 -20.3837 -20.3837
   -20.3756 -20.3756 -20.3756 -20.3756 -20.3753 -20.3753 -20.3753 -20.3753
   -20.3702 -20.3702 -20.3702 -20.3702 -20.3652 -20.3652 -20.3652 -20.3652
   -20.3639 -20.3639 -20.3639 -20.3639 -20.3631 -20.3631 -20.3631 -20.3631
    -9.5612  -9.5612  -9.5577  -9.5577  -8.8134  -8.8134  -8.7969  -8.7969
    -8.7157  -8.7157  -8.7020  -8.7020  -8.5099  -8.5099  -8.4817  -8.4817
    -8.4527  -8.4526  -8.4264  -8.4264  -7.7835  -7.7835  -7.7834  -7.7834
     1.2100   1.2100   1.2135   1.2135   2.8685   2.8685   2.9546   2.9546
     3.0282   3.0282   3.0386   3.0386   3.1018   3.1018   3.1150   3.1150
     3.2368   3.2368   3.2637   3.2637   3.3207   3.3207   3.3916   3.3916
     3.4004   3.4004   3.6432   3.6432   4.1516   4.1516   4.2148   4.2149
     4.2351   4.2351   4.3206   4.3207   5.0605   5.0605   5.0900   5.0900
     5.3821   5.3821   5.4226   5.4226   6.1779   6.1779   6.1837   6.1838
     6.4248   6.4248   6.4369   6.4369   6.4970   6.4970   6.5374   6.5374
     7.1910   7.1910   7.2061   7.2062   7.2277   7.2277   7.3447   7.3447
     7.3609   7.3609   7.4344   7.4344   7.5259   7.5259   7.5288   7.5288
    11.0465  11.0465  11.0724  11.0724  11.1477  11.1477  11.1774  11.1774
    12.0946  12.0946  12.1242  12.1242  12.2046  12.2046  12.2108  12.2108
    12.8041  12.8041  12.8070  12.8070  13.4054  13.4054  13.4325  13.4325
    15.3657  15.3657  15.3700  15.3700  16.6979  16.6980  16.7622  16.7622
    17.2900  17.2900  17.3418  17.3418  17.4292

          k =-0.5000-0.4796 0.1665 ( 62708 PWs)   bands (ev):

   -66.2478 -66.2478 -66.2477 -66.2477 -66.2470 -66.2470 -66.2470 -66.2470
   -30.6159 -30.6159 -30.6155 -30.6155 -30.6114 -30.6114 -30.6109 -30.6109
   -30.5817 -30.5817 -30.5816 -30.5816 -30.5408 -30.5408 -30.5401 -30.5401
   -30.5374 -30.5374 -30.5368 -30.5368 -30.5007 -30.5007 -30.5007 -30.5007
   -20.4074 -20.4074 -20.4074 -20.4074 -20.4072 -20.4072 -20.4072 -20.4072
   -20.3903 -20.3903 -20.3902 -20.3902 -20.3900 -20.3900 -20.3899 -20.3899
   -20.3860 -20.3860 -20.3859 -20.3859 -20.3855 -20.3855 -20.3854 -20.3854
   -20.3848 -20.3848 -20.3848 -20.3848 -20.3838 -20.3838 -20.3838 -20.3838
   -20.3756 -20.3756 -20.3756 -20.3756 -20.3753 -20.3753 -20.3753 -20.3753
   -20.3697 -20.3697 -20.3697 -20.3697 -20.3652 -20.3652 -20.3651 -20.3651
   -20.3641 -20.3641 -20.3641 -20.3641 -20.3635 -20.3635 -20.3635 -20.3635
    -9.4830  -9.4830  -9.4790  -9.4790  -8.8301  -8.8301  -8.8138  -8.8137
    -8.7005  -8.7004  -8.6859  -8.6858  -8.5072  -8.5072  -8.4803  -8.4803
    -8.4538  -8.4538  -8.4291  -8.4291  -7.9072  -7.9072  -7.9070  -7.9070
     1.4710   1.4710   1.4753   1.4753   2.8764   2.8764   2.9604   2.9604
     3.0170   3.0170   3.0347   3.0347   3.1238   3.1238   3.1382   3.1382
     3.2435   3.2435   3.3397   3.3397   3.3750   3.3750   3.4416   3.4416
     3.4438   3.4438   3.6702   3.6702   4.1565   4.1565   4.2083   4.2083
     4.2322   4.2322   4.3125   4.3125   4.7557   4.7558   4.8907   4.8907
     5.0531   5.0531   5.1777   5.1777   5.7586   5.7586   5.7760   5.7760
     6.6331   6.6331   6.6879   6.6879   6.7413   6.7413   6.7803   6.7803
     7.1818   7.1818   7.1987   7.1987   7.2659   7.2659   7.3326   7.3326
     7.3583   7.3583   7.4385   7.4385   7.5168   7.5168   7.5498   7.5498
    11.1140  11.1140  11.1597  11.1597  11.2472  11.2472  11.3194  11.3194
    12.0995  12.0995  12.1264  12.1264  12.1991  12.1991  12.2198  12.2198
    12.6888  12.6888  12.7593  12.7593  13.2312  13.2312  13.2853  13.2853
    15.6495  15.6495  15.6668  15.6668  16.7607  16.7607  16.8209  16.8209
    17.2939  17.2940  17.3519  17.3523  17.4245

          k =-0.5000-0.4796 0.3329 ( 62680 PWs)   bands (ev):

   -66.2476 -66.2476 -66.2476 -66.2476 -66.2471 -66.2471 -66.2471 -66.2471
   -30.6149 -30.6149 -30.6144 -30.6144 -30.6123 -30.6123 -30.6118 -30.6118
   -30.5654 -30.5654 -30.5653 -30.5653 -30.5400 -30.5400 -30.5395 -30.5395
   -30.5383 -30.5383 -30.5376 -30.5376 -30.5173 -30.5173 -30.5172 -30.5172
   -20.4073 -20.4073 -20.4073 -20.4073 -20.4072 -20.4072 -20.4072 -20.4072
   -20.3902 -20.3902 -20.3901 -20.3901 -20.3900 -20.3900 -20.3899 -20.3899
   -20.3860 -20.3860 -20.3859 -20.3859 -20.3856 -20.3856 -20.3855 -20.3855
   -20.3845 -20.3845 -20.3845 -20.3845 -20.3839 -20.3839 -20.3839 -20.3839
   -20.3756 -20.3756 -20.3756 -20.3756 -20.3754 -20.3754 -20.3754 -20.3754
   -20.3685 -20.3685 -20.3685 -20.3685 -20.3652 -20.3652 -20.3652 -20.3652
   -20.3646 -20.3646 -20.3646 -20.3646 -20.3642 -20.3642 -20.3642 -20.3641
    -9.2740  -9.2740  -9.2679  -9.2679  -8.8882  -8.8882  -8.8725  -8.8725
    -8.6460  -8.6460  -8.6314  -8.6313  -8.5002  -8.5002  -8.4802  -8.4802
    -8.4531  -8.4531  -8.4367  -8.4367  -8.2027  -8.2027  -8.2018  -8.2018
     2.1601   2.1601   2.1688   2.1688   2.8949   2.8949   2.9430   2.9430
     3.0243   3.0243   3.0354   3.0354   3.1455   3.1455   3.1600   3.1600
     3.3141   3.3141   3.3514   3.3514   3.5221   3.5221   3.5682   3.5682
     3.6809   3.6809   3.7867   3.7867   4.1373   4.1373   4.1532   4.1532
     4.1969   4.1969   4.2636   4.2636   4.3495   4.3495   4.4363   4.4363
     4.5633   4.5633   4.6889   4.6889   4.9488   4.9488   4.9704   4.9704
     6.9054   6.9054   6.9850   6.9850   7.0673   7.0674   7.0781   7.0781
     7.1757   7.1757   7.2240   7.2240   7.2879   7.2879   7.3061   7.3061
     7.3839   7.3839   7.4613   7.4613   7.5153   7.5154   7.5563   7.5563
    11.3608  11.3608  11.4023  11.4023  11.5839  11.5839  11.6723  11.6723
    12.0786  12.0786  12.1358  12.1358  12.1615  12.1615  12.2281  12.2281
    12.3758  12.3758  12.5067  12.5067  12.7930  12.7930  12.8761  12.8761
    16.4202  16.4202  16.4690  16.4690  16.9429  16.9429  16.9845  16.9845
    17.2701  17.2701  17.3630  17.3632  17.4108

          k =-0.5000-0.4796-0.4994 ( 62664 PWs)   bands (ev):

   -66.2474 -66.2474 -66.2474 -66.2474 -66.2474 -66.2474 -66.2474 -66.2474
   -30.6136 -30.6136 -30.6136 -30.6136 -30.6131 -30.6131 -30.6131 -30.6131
   -30.5461 -30.5461 -30.5461 -30.5461 -30.5440 -30.5440 -30.5440 -30.5440
   -30.5363 -30.5363 -30.5363 -30.5363 -30.5342 -30.5342 -30.5342 -30.5342
   -20.4073 -20.4073 -20.4073 -20.4073 -20.4073 -20.4073 -20.4073 -20.4073
   -20.3901 -20.3901 -20.3901 -20.3901 -20.3900 -20.3900 -20.3900 -20.3900
   -20.3859 -20.3859 -20.3859 -20.3859 -20.3857 -20.3857 -20.3857 -20.3857
   -20.3843 -20.3843 -20.3843 -20.3843 -20.3841 -20.3840 -20.3840 -20.3840
   -20.3756 -20.3756 -20.3756 -20.3756 -20.3755 -20.3754 -20.3754 -20.3754
   -20.3668 -20.3668 -20.3668 -20.3668 -20.3668 -20.3668 -20.3668 -20.3667
   -20.3645 -20.3645 -20.3645 -20.3645 -20.3645 -20.3645 -20.3645 -20.3645
    -9.0320  -9.0320  -9.0320  -9.0320  -9.0201  -9.0201  -9.0201  -9.0201
    -8.5169  -8.5169  -8.5169  -8.5169  -8.4997  -8.4997  -8.4997  -8.4997
    -8.4588  -8.4588  -8.4587  -8.4587  -8.4428  -8.4428  -8.4428  -8.4428
     2.8698   2.8699   2.8699   2.8699   2.9293   2.9293   2.9293   2.9293
     3.0349   3.0349   3.0350   3.0350   3.1146   3.1146   3.1147   3.1147
     3.2830   3.2830   3.2830   3.2830   3.4021   3.4021   3.4021   3.4021
     4.0442   4.0442   4.0442   4.0442   4.0663   4.0663   4.0663   4.0663
     4.2240   4.2240   4.2240   4.2240   4.2554   4.2554   4.2554   4.2554
     4.3330   4.3330   4.3330   4.3330   4.3799   4.3799   4.3799   4.3799
     7.0535   7.0535   7.0535   7.0535   7.1700   7.1701   7.1701   7.1701
     7.2375   7.2375   7.2375   7.2376   7.2651   7.2651   7.2651   7.2651
     7.4795   7.4795   7.4795   7.4795   7.5189   7.5189   7.5189   7.5189
    11.7496  11.7496  11.7496  11.7496  11.7673  11.7673  11.7673  11.7673
    12.0660  12.0660  12.0660  12.0660  12.1822  12.1822  12.1823  12.1823
    12.3385  12.3385  12.3385  12.3385  12.3980  12.3980  12.3980  12.3980
    17.0613  17.0613  17.0613  17.0613  17.1266  17.1266  17.1266  17.1266
    17.3575  17.3575  17.3575  17.3575  17.3867

     the Fermi energy is     9.5366 ev

!    total energy              =   -6260.97305785 Ry
     Harris-Foulkes estimate   =   -6260.97305785 Ry
     estimated scf accuracy    <          9.2E-10 Ry

     The total energy is the sum of the following terms:

     one-electron contribution =   -4749.08209953 Ry
     hartree contribution      =    2610.28894009 Ry
     xc contribution           =    -965.88808390 Ry
     ewald contribution        =   -3156.29177262 Ry
     smearing contrib. (-TS)   =      -0.00004189 Ry

     convergence has been achieved in  13 iterations

     Writing output data file Landau_8.save
 
     init_run     :     46.54s CPU     48.70s WALL (       1 calls)
     electrons    :   1788.77s CPU   1830.48s WALL (       1 calls)

     Called by init_run:
     wfcinit      :     43.63s CPU     45.64s WALL (       1 calls)
     potinit      :      1.12s CPU      1.17s WALL (       1 calls)

     Called by electrons:
     c_bands      :   1611.80s CPU   1651.30s WALL (      13 calls)
     sum_band     :    171.21s CPU    172.44s WALL (      13 calls)
     v_of_rho     :      1.50s CPU      1.54s WALL (      14 calls)
     mix_rho      :      2.67s CPU      3.32s WALL (      13 calls)

     Called by c_bands:
     init_us_2    :     10.43s CPU     10.99s WALL (      54 calls)
     cegterg      :   1451.55s CPU   1488.99s WALL (      26 calls)

     Called by sum_band:

     Called by *egterg:
     h_psi        :   1067.93s CPU   1076.79s WALL (     125 calls)
     g_psi        :      1.64s CPU      1.65s WALL (      97 calls)
     cdiaghg      :     20.92s CPU     21.03s WALL (     123 calls)

     Called by h_psi:
     h_psi:pot    :   1063.38s CPU   1071.91s WALL (     125 calls)
     h_psi:calbec :    171.24s CPU    176.05s WALL (     125 calls)
     vloc_psi     :    716.51s CPU    718.94s WALL (     125 calls)
     add_vuspsi   :    175.63s CPU    176.91s WALL (     125 calls)

     General routines
     calbec       :    171.24s CPU    176.05s WALL (     125 calls)
     fft          :      1.26s CPU      1.27s WALL (      56 calls)
     fftw         :    767.86s CPU    770.01s WALL (   33696 calls)
 
     Parallel routines
 
     PWSCF        : 30m37.13s CPU    31m23.75s WALL

 
   This run was terminated on:   4:31:54  19Mar2020            

=------------------------------------------------------------------------------=
   JOB DONE.
=------------------------------------------------------------------------------=
