
     Program PWSCF v.6.2 (svn rev. 14038) starts on 21Mar2020 at  2:28:58 

     This program is part of the open-source Quantum ESPRESSO suite
     for quantum simulation of materials; please cite
         "P. Giannozzi et al., J. Phys.:Condens. Matter 21 395502 (2009);
         "P. Giannozzi et al., J. Phys.:Condens. Matter 29 465901 (2017);
          URL http://www.quantum-espresso.org", 
     in publications or presentations arising from this work. More details at
     http://www.quantum-espresso.org/quote

     Parallel version (MPI), running on    40 processors

     MPI processes distributed on     9 nodes
     K-points division:     npool     =      40
     Reading input from scf.in

     Current dimensions of program PWSCF are:
     Max number of different atomic species (ntypx) = 10
     Max number of k-points (npk) =  40000
     Max angular momentum in pseudopotentials (lmaxx) =  3

     Subspace diagonalization in iterative solution of the eigenvalue problem:
     a serial algorithm will be used

 
     G-vector sticks info
     --------------------
     sticks:   dense  smooth     PW     G-vecs:    dense   smooth      PW
     Sum        7705    7705   2063               503417   503417   69753
 


     bravais-lattice index     =            0
     lattice parameter (alat)  =      14.0059  a.u.
     unit-cell volume          =    2834.9682 (a.u.)^3
     number of atoms/cell      =           32
     number of atomic types    =            2
     number of electrons       =       368.60
     number of Kohn-Sham states=          221
     kinetic-energy cutoff     =     120.0000  Ry
     charge density cutoff     =     480.0000  Ry
     convergence threshold     =      1.0E-08
     mixing beta               =       0.7000
     number of iterations used =            8  plain     mixing
     Exchange-correlation      = SLA PW NOGX NOGC ( 1  4  0  0 0 0)

     celldm(1)=  14.005918  celldm(2)=   0.000000  celldm(3)=   0.000000
     celldm(4)=   0.000000  celldm(5)=   0.000000  celldm(6)=   0.000000

     crystal axes: (cart. coord. in units of alat)
               a(1) = (   1.000000   0.000000   0.000000 )  
               a(2) = (   0.000000   1.029414   0.000000 )  
               a(3) = (   0.000000   0.000000   1.002359 )  

     reciprocal axes: (cart. coord. in units 2 pi/alat)
               b(1) = (  1.000000  0.000000  0.000000 )  
               b(2) = (  0.000000  0.971426  0.000000 )  
               b(3) = (  0.000000  0.000000  0.997647 )  


     PseudoPot. # 1 for W  read from file:
     /cluster/scratch/mnoe/QE/pps/W_ONCV_LDA-4.0.upf
     MD5 check sum: ba0307d5d4cd419d6f1d13dc49d7c13a
     Pseudo is Norm-conserving + core correction, Zval = 28.0
     Generated using ONCVPSP code by D. R. Hamann
     Using radial grid of 1380 points,  8 beta functions with: 
                l(1) =   0
                l(2) =   0
                l(3) =   1
                l(4) =   1
                l(5) =   2
                l(6) =   2
                l(7) =   3
                l(8) =   3

     PseudoPot. # 2 for O  read from file:
     /cluster/scratch/mnoe/QE/pps/O_ONCV_LDA-3.0.upf
     MD5 check sum: a1bd6164e7280c17a38c229939bfbd54
     Pseudo is Norm-conserving + core correction, Zval =  6.0
     Generated using ONCVPSP code by D. R. Hamann
     Using radial grid of  926 points,  5 beta functions with: 
                l(1) =   0
                l(2) =   0
                l(3) =   1
                l(4) =   1
                l(5) =   2

     atomic species   valence    mass     pseudopotential
        W             28.00   183.84000     W ( 1.00)
        O              6.00    15.99940     O ( 1.00)

      8 Sym. Ops., with inversion, found ( 6 have fractional translation)



   Cartesian axes

     site n.     atom                  positions (alat units)
         1           W   tau(   1) = (   0.2389000   0.2840331   0.0105047  )
         2           W   tau(   2) = (   0.7611000   0.7453813   0.9918541  )
         3           W   tau(   3) = (   0.2611000   0.2306741   0.5116841  )
         4           W   tau(   4) = (   0.7389000   0.7987403   0.4906747  )
         5           W   tau(   5) = (   0.7611000   0.2840331   0.4906747  )
         6           W   tau(   6) = (   0.2389000   0.7453813   0.5116841  )
         7           W   tau(   7) = (   0.7389000   0.2306741   0.9918541  )
         8           W   tau(   8) = (   0.2611000   0.7987403   0.0105047  )
         9           O   tau(   9) = (   0.2295300   0.0068981   0.0032677  )
        10           O   tau(  10) = (   0.7704700   1.0225162   0.9990911  )
        11           O   tau(  11) = (   0.2704700   0.5078091   0.5044471  )
        12           O   tau(  12) = (   0.7295300   0.5216053   0.4979117  )
        13           O   tau(  13) = (   0.7704700   0.0068981   0.4979117  )
        14           O   tau(  14) = (   0.2295300   1.0225162   0.5044471  )
        15           O   tau(  15) = (   0.7295300   0.5078091   0.9990911  )
        16           O   tau(  16) = (   0.2704700   0.5216053   0.0032677  )
        17           O   tau(  17) = (   0.5030300   0.2357256   0.4651661  )
        18           O   tau(  18) = (   0.4969700   0.7936887   0.5371927  )
        19           O   tau(  19) = (   0.9969700   0.2789815   0.9663455  )
        20           O   tau(  20) = (   0.0030301   0.7504328   0.0360133  )
        21           O   tau(  21) = (   0.4969700   0.2357256   0.0360133  )
        22           O   tau(  22) = (   0.5030300   0.7936887   0.9663455  )
        23           O   tau(  23) = (   0.0030301   0.2789815   0.5371927  )
        24           O   tau(  24) = (   0.9969700   0.7504328   0.4651661  )
        25           O   tau(  25) = (   0.7140714   0.2526286   0.7471583  )
        26           O   tau(  26) = (   0.2859285   0.7767858   0.2552005  )
        27           O   tau(  27) = (   0.7859286   0.2620786   0.2459788  )
        28           O   tau(  28) = (   0.2140715   0.7673357   0.7563799  )
        29           O   tau(  29) = (   0.2859285   0.2526286   0.7563799  )
        30           O   tau(  30) = (   0.7140714   0.7767858   0.2459788  )
        31           O   tau(  31) = (   0.2140715   0.2620786   0.2552005  )
        32           O   tau(  32) = (   0.7859286   0.7673357   0.7471583  )

     number of k points=    64  gaussian smearing, width (Ry)=  0.0007
                       cart. coord. in units 2pi/alat
        k(    1) = (   0.0000000   0.0000000   0.0000000), wk =   0.0092593
        k(    2) = (   0.0000000   0.0000000   0.1662745), wk =   0.0185185
        k(    3) = (   0.0000000   0.0000000   0.3325489), wk =   0.0185185
        k(    4) = (   0.0000000   0.0000000  -0.4988234), wk =   0.0092593
        k(    5) = (   0.0000000   0.1619044   0.0000000), wk =   0.0185185
        k(    6) = (   0.0000000   0.1619044   0.1662745), wk =   0.0370370
        k(    7) = (   0.0000000   0.1619044   0.3325489), wk =   0.0370370
        k(    8) = (   0.0000000   0.1619044  -0.4988234), wk =   0.0185185
        k(    9) = (   0.0000000   0.3238087   0.0000000), wk =   0.0185185
        k(   10) = (   0.0000000   0.3238087   0.1662745), wk =   0.0370370
        k(   11) = (   0.0000000   0.3238087   0.3325489), wk =   0.0370370
        k(   12) = (   0.0000000   0.3238087  -0.4988234), wk =   0.0185185
        k(   13) = (   0.0000000  -0.4857131   0.0000000), wk =   0.0092593
        k(   14) = (   0.0000000  -0.4857131   0.1662745), wk =   0.0185185
        k(   15) = (   0.0000000  -0.4857131   0.3325489), wk =   0.0185185
        k(   16) = (   0.0000000  -0.4857131  -0.4988234), wk =   0.0092593
        k(   17) = (   0.1666667   0.0000000   0.0000000), wk =   0.0185185
        k(   18) = (   0.1666667   0.0000000   0.1662745), wk =   0.0370370
        k(   19) = (   0.1666667   0.0000000   0.3325489), wk =   0.0370370
        k(   20) = (   0.1666667   0.0000000  -0.4988234), wk =   0.0185185
        k(   21) = (   0.1666667   0.1619044   0.0000000), wk =   0.0370370
        k(   22) = (   0.1666667   0.1619044   0.1662745), wk =   0.0740741
        k(   23) = (   0.1666667   0.1619044   0.3325489), wk =   0.0740741
        k(   24) = (   0.1666667   0.1619044  -0.4988234), wk =   0.0370370
        k(   25) = (   0.1666667   0.3238087   0.0000000), wk =   0.0370370
        k(   26) = (   0.1666667   0.3238087   0.1662745), wk =   0.0740741
        k(   27) = (   0.1666667   0.3238087   0.3325489), wk =   0.0740741
        k(   28) = (   0.1666667   0.3238087  -0.4988234), wk =   0.0370370
        k(   29) = (   0.1666667  -0.4857131   0.0000000), wk =   0.0185185
        k(   30) = (   0.1666667  -0.4857131   0.1662745), wk =   0.0370370
        k(   31) = (   0.1666667  -0.4857131   0.3325489), wk =   0.0370370
        k(   32) = (   0.1666667  -0.4857131  -0.4988234), wk =   0.0185185
        k(   33) = (   0.3333333   0.0000000   0.0000000), wk =   0.0185185
        k(   34) = (   0.3333333   0.0000000   0.1662745), wk =   0.0370370
        k(   35) = (   0.3333333   0.0000000   0.3325489), wk =   0.0370370
        k(   36) = (   0.3333333   0.0000000  -0.4988234), wk =   0.0185185
        k(   37) = (   0.3333333   0.1619044   0.0000000), wk =   0.0370370
        k(   38) = (   0.3333333   0.1619044   0.1662745), wk =   0.0740741
        k(   39) = (   0.3333333   0.1619044   0.3325489), wk =   0.0740741
        k(   40) = (   0.3333333   0.1619044  -0.4988234), wk =   0.0370370
        k(   41) = (   0.3333333   0.3238087   0.0000000), wk =   0.0370370
        k(   42) = (   0.3333333   0.3238087   0.1662745), wk =   0.0740741
        k(   43) = (   0.3333333   0.3238087   0.3325489), wk =   0.0740741
        k(   44) = (   0.3333333   0.3238087  -0.4988234), wk =   0.0370370
        k(   45) = (   0.3333333  -0.4857131   0.0000000), wk =   0.0185185
        k(   46) = (   0.3333333  -0.4857131   0.1662745), wk =   0.0370370
        k(   47) = (   0.3333333  -0.4857131   0.3325489), wk =   0.0370370
        k(   48) = (   0.3333333  -0.4857131  -0.4988234), wk =   0.0185185
        k(   49) = (  -0.5000000   0.0000000   0.0000000), wk =   0.0092593
        k(   50) = (  -0.5000000   0.0000000   0.1662745), wk =   0.0185185
        k(   51) = (  -0.5000000   0.0000000   0.3325489), wk =   0.0185185
        k(   52) = (  -0.5000000   0.0000000  -0.4988234), wk =   0.0092593
        k(   53) = (  -0.5000000   0.1619044   0.0000000), wk =   0.0185185
        k(   54) = (  -0.5000000   0.1619044   0.1662745), wk =   0.0370370
        k(   55) = (  -0.5000000   0.1619044   0.3325489), wk =   0.0370370
        k(   56) = (  -0.5000000   0.1619044  -0.4988234), wk =   0.0185185
        k(   57) = (  -0.5000000   0.3238087   0.0000000), wk =   0.0185185
        k(   58) = (  -0.5000000   0.3238087   0.1662745), wk =   0.0370370
        k(   59) = (  -0.5000000   0.3238087   0.3325489), wk =   0.0370370
        k(   60) = (  -0.5000000   0.3238087  -0.4988234), wk =   0.0185185
        k(   61) = (  -0.5000000  -0.4857131   0.0000000), wk =   0.0092593
        k(   62) = (  -0.5000000  -0.4857131   0.1662745), wk =   0.0185185
        k(   63) = (  -0.5000000  -0.4857131   0.3325489), wk =   0.0185185
        k(   64) = (  -0.5000000  -0.4857131  -0.4988234), wk =   0.0092593

     Dense  grid:   503417 G-vectors     FFT dimensions: ( 100, 108, 100)

     Estimated max dynamical RAM per process >       3.16 GB

     Estimated total dynamical RAM >     126.37 GB

     Initial potential from superposition of free atoms

     starting charge  367.99656, renormalised to  368.60000
     Starting wfc are  232 randomized atomic wfcs

     total cpu time spent up to now is       44.3 secs

     Self-consistent Calculation

     iteration #  1     ecut=   120.00 Ry     beta= 0.70
     Davidson diagonalization with overlap
     ethr =  1.00E-02,  avg # of iterations =  5.2

     total cpu time spent up to now is      191.2 secs

     total energy              =   -6253.43698056 Ry
     Harris-Foulkes estimate   =   -6264.29082644 Ry
     estimated scf accuracy    <      13.67305839 Ry

     iteration #  2     ecut=   120.00 Ry     beta= 0.70
     Davidson diagonalization with overlap
     ethr =  3.71E-03,  avg # of iterations =  3.6

     total cpu time spent up to now is      335.6 secs

     total energy              =   -6250.37583740 Ry
     Harris-Foulkes estimate   =   -6270.30452148 Ry
     estimated scf accuracy    <      53.01540557 Ry

     iteration #  3     ecut=   120.00 Ry     beta= 0.70
     Davidson diagonalization with overlap
     ethr =  3.71E-03,  avg # of iterations =  3.6

     total cpu time spent up to now is      473.1 secs

     total energy              =   -6260.68410545 Ry
     Harris-Foulkes estimate   =   -6260.95017560 Ry
     estimated scf accuracy    <       0.89704699 Ry

     iteration #  4     ecut=   120.00 Ry     beta= 0.70
     Davidson diagonalization with overlap
     ethr =  2.43E-04,  avg # of iterations =  3.2

     total cpu time spent up to now is      587.7 secs

     total energy              =   -6260.65866736 Ry
     Harris-Foulkes estimate   =   -6260.74306535 Ry
     estimated scf accuracy    <       0.22349414 Ry

     iteration #  5     ecut=   120.00 Ry     beta= 0.70
     Davidson diagonalization with overlap
     ethr =  6.06E-05,  avg # of iterations =  5.0

     total cpu time spent up to now is      711.1 secs

     total energy              =   -6260.67976405 Ry
     Harris-Foulkes estimate   =   -6260.70213365 Ry
     estimated scf accuracy    <       0.05453379 Ry

     iteration #  6     ecut=   120.00 Ry     beta= 0.70
     Davidson diagonalization with overlap
     ethr =  1.48E-05,  avg # of iterations =  5.9

     total cpu time spent up to now is      842.3 secs

     total energy              =   -6260.68983564 Ry
     Harris-Foulkes estimate   =   -6260.69318981 Ry
     estimated scf accuracy    <       0.00880905 Ry

     iteration #  7     ecut=   120.00 Ry     beta= 0.70
     Davidson diagonalization with overlap
     ethr =  2.39E-06,  avg # of iterations =  5.9

     total cpu time spent up to now is      965.2 secs

     total energy              =   -6260.69098028 Ry
     Harris-Foulkes estimate   =   -6260.69107469 Ry
     estimated scf accuracy    <       0.00015905 Ry

     iteration #  8     ecut=   120.00 Ry     beta= 0.70
     Davidson diagonalization with overlap
     ethr =  4.31E-08,  avg # of iterations =  3.5

     total cpu time spent up to now is     1114.7 secs

     total energy              =   -6260.69106058 Ry
     Harris-Foulkes estimate   =   -6260.69107743 Ry
     estimated scf accuracy    <       0.00007557 Ry

     iteration #  9     ecut=   120.00 Ry     beta= 0.70
     Davidson diagonalization with overlap
     ethr =  2.05E-08,  avg # of iterations =  1.0

     total cpu time spent up to now is     1218.6 secs

     total energy              =   -6260.69105398 Ry
     Harris-Foulkes estimate   =   -6260.69106475 Ry
     estimated scf accuracy    <       0.00002912 Ry

     iteration # 10     ecut=   120.00 Ry     beta= 0.70
     Davidson diagonalization with overlap
     ethr =  7.90E-09,  avg # of iterations =  2.3

     total cpu time spent up to now is     1330.3 secs

     total energy              =   -6260.69105823 Ry
     Harris-Foulkes estimate   =   -6260.69105857 Ry
     estimated scf accuracy    <       0.00000073 Ry

     iteration # 11     ecut=   120.00 Ry     beta= 0.70
     Davidson diagonalization with overlap
     ethr =  1.98E-10,  avg # of iterations =  3.0

     total cpu time spent up to now is     1469.5 secs

     total energy              =   -6260.69105844 Ry
     Harris-Foulkes estimate   =   -6260.69105852 Ry
     estimated scf accuracy    <       0.00000023 Ry

     iteration # 12     ecut=   120.00 Ry     beta= 0.70
     Davidson diagonalization with overlap
     ethr =  6.18E-11,  avg # of iterations =  2.0

     total cpu time spent up to now is     1577.5 secs

     total energy              =   -6260.69105842 Ry
     Harris-Foulkes estimate   =   -6260.69105846 Ry
     estimated scf accuracy    <       0.00000006 Ry

     iteration # 13     ecut=   120.00 Ry     beta= 0.70
     Davidson diagonalization with overlap
     ethr =  1.49E-11,  avg # of iterations =  2.6

     total cpu time spent up to now is     1711.9 secs

     End of self-consistent calculation

          k = 0.0000 0.0000 0.0000 ( 62891 PWs)   bands (ev):

   -66.2226 -66.2221 -66.2218 -66.2218 -66.2213 -66.2212 -66.2210 -66.2205
   -30.6412 -30.6360 -30.6349 -30.6299 -30.5875 -30.5795 -30.5794 -30.5748
   -30.5734 -30.5630 -30.5622 -30.5596 -30.5572 -30.5536 -30.5433 -30.5382
   -30.4803 -30.4792 -30.4785 -30.4776 -30.4731 -30.4680 -30.4656 -30.4614
   -20.3763 -20.3762 -20.3758 -20.3757 -20.3753 -20.3752 -20.3749 -20.3748
   -20.3676 -20.3673 -20.3669 -20.3666 -20.3654 -20.3649 -20.3642 -20.3635
   -20.3632 -20.3631 -20.3620 -20.3615 -20.3608 -20.3608 -20.3603 -20.3598
   -20.3593 -20.3593 -20.3588 -20.3587 -20.3584 -20.3578 -20.3576 -20.3573
   -20.3510 -20.3507 -20.3504 -20.3502 -20.3492 -20.3487 -20.3486 -20.3483
   -20.3283 -20.3283 -20.3267 -20.3267 -20.3242 -20.3242 -20.3239 -20.3239
   -20.3219 -20.3219 -20.3216 -20.3216 -20.3195 -20.3195 -20.3180 -20.3180
   -10.0635  -9.7444  -9.6790  -9.6765  -9.3761  -9.3556  -9.3016  -9.1353
    -9.1127  -9.0756  -9.0472  -9.0417  -7.9773  -7.9107  -7.8952  -7.8828
    -7.8684  -7.8436  -7.8378  -7.8356  -7.7881  -7.7809  -7.7536  -7.7506
     1.0709   1.0797   1.1238   1.1424   1.1562   1.1644   1.2117   1.3336
     1.3982   1.4321   1.4342   1.6550   2.3570   2.4136   2.4389   2.4601
     2.5385   2.5752   4.1048   4.1592   4.2890   4.3865   4.5490   4.5713
     4.5981   4.6203   4.6263   4.6337   4.7848   4.8020   5.0542   5.2679
     5.3292   5.3591   5.4139   5.4396   5.4646   5.4965   5.5462   5.6363
     5.6458   5.6740   5.7572   5.8293   5.8717   5.9578   5.9821   5.9968
     6.0097   6.2242   6.2328   6.2906   6.2920   6.6282   6.7356   6.7959
     6.8077   6.8454   6.8474   6.8930   6.9015   6.9392   7.0804   7.0885
     7.1248   7.1267   7.8836   7.9020   7.9034   7.9646   8.0039   8.0546
     9.2531   9.2888   9.6429   9.6685   9.6690   9.6865  12.1961  12.2830
    12.3867  12.4062  12.4093  12.4259  12.4633  12.5130  12.5770  12.8432
    13.0087  13.0638  13.1592  13.3318  13.6282  13.6745  13.9737  13.9838
    14.3459  14.3527  14.5892  14.6687  15.0439  15.0696  15.5405  15.8073
    15.8825  16.7841  16.9021  16.9751  17.0853

          k = 0.0000 0.0000 0.1663 ( 62889 PWs)   bands (ev):

   -66.2226 -66.2220 -66.2219 -66.2217 -66.2214 -66.2212 -66.2210 -66.2205
   -30.6408 -30.6364 -30.6345 -30.6302 -30.5860 -30.5798 -30.5763 -30.5709
   -30.5702 -30.5626 -30.5599 -30.5576 -30.5539 -30.5507 -30.5439 -30.5369
   -30.4861 -30.4844 -30.4841 -30.4826 -30.4728 -30.4677 -30.4671 -30.4624
   -20.3762 -20.3761 -20.3758 -20.3758 -20.3753 -20.3752 -20.3749 -20.3749
   -20.3676 -20.3673 -20.3669 -20.3667 -20.3653 -20.3648 -20.3643 -20.3634
   -20.3633 -20.3629 -20.3621 -20.3615 -20.3610 -20.3607 -20.3602 -20.3599
   -20.3595 -20.3592 -20.3588 -20.3587 -20.3584 -20.3577 -20.3577 -20.3573
   -20.3509 -20.3506 -20.3505 -20.3502 -20.3491 -20.3487 -20.3487 -20.3483
   -20.3280 -20.3280 -20.3264 -20.3264 -20.3241 -20.3241 -20.3241 -20.3240
   -20.3223 -20.3222 -20.3219 -20.3219 -20.3194 -20.3194 -20.3181 -20.3181
   -10.0205  -9.6926  -9.6913  -9.6214  -9.3660  -9.3094  -9.2877  -9.1001
    -9.0739  -9.0603  -9.0447  -9.0121  -8.0049  -8.0031  -7.9498  -7.9179
    -7.9143  -7.9058  -7.8639  -7.8585  -7.8467  -7.8302  -7.7866  -7.7563
     1.1333   1.1411   1.1699   1.2138   1.2473   1.2514   1.3300   1.4276
     1.4319   1.5404   1.6013   1.7769   2.4220   2.4419   2.5231   2.5308
     2.5453   2.6582   4.0406   4.1093   4.2285   4.3052   4.3232   4.3694
     4.3952   4.5404   4.6047   4.6502   4.6631   4.8005   5.0466   5.1092
     5.2182   5.2834   5.3560   5.3971   5.4615   5.4950   5.5134   5.5591
     5.5632   5.7005   5.7197   5.8183   5.8642   5.8814   6.0003   6.0549
     6.1210   6.2807   6.3505   6.4005   6.5762   6.6001   6.6513   6.6805
     6.7143   6.7945   6.8188   6.8403   6.8767   6.9315   6.9335   6.9402
     6.9627   6.9917   7.8580   7.8668   7.9246   7.9536   7.9648   8.0044
     9.5386   9.6019   9.6424   9.7170   9.9374   9.9739  12.1994  12.2475
    12.2619  12.3329  12.4552  12.4586  12.5141  12.5489  12.6057  12.6797
    12.8791  13.0185  13.2026  13.3435  13.6744  13.6956  13.8326  13.8599
    14.3869  14.5112  14.5859  14.7813  15.1103  15.1620  15.5098  15.8553
    16.1564  16.6658  16.9582  17.0885  17.1736

          k = 0.0000 0.0000 0.3325 ( 62917 PWs)   bands (ev):

   -66.2224 -66.2220 -66.2219 -66.2216 -66.2215 -66.2212 -66.2211 -66.2207
   -30.6398 -30.6373 -30.6336 -30.6311 -30.5838 -30.5807 -30.5704 -30.5655
   -30.5639 -30.5610 -30.5603 -30.5460 -30.5431 -30.5403 -30.5402 -30.5314
   -30.5016 -30.5003 -30.4989 -30.4975 -30.4719 -30.4692 -30.4668 -30.4641
   -20.3762 -20.3761 -20.3759 -20.3758 -20.3752 -20.3751 -20.3750 -20.3749
   -20.3675 -20.3674 -20.3669 -20.3667 -20.3651 -20.3644 -20.3644 -20.3636
   -20.3631 -20.3625 -20.3623 -20.3614 -20.3612 -20.3605 -20.3604 -20.3599
   -20.3598 -20.3591 -20.3590 -20.3587 -20.3582 -20.3578 -20.3576 -20.3574
   -20.3508 -20.3506 -20.3505 -20.3503 -20.3490 -20.3488 -20.3486 -20.3484
   -20.3272 -20.3271 -20.3255 -20.3255 -20.3249 -20.3249 -20.3237 -20.3237
   -20.3231 -20.3231 -20.3225 -20.3225 -20.3192 -20.3191 -20.3184 -20.3184
    -9.9179  -9.7352  -9.5710  -9.4973  -9.3994  -9.3358  -9.0757  -9.0527
    -9.0360  -8.9330  -8.9220  -8.8791  -8.3042  -8.2965  -8.2441  -8.2374
    -7.9473  -7.9239  -7.8762  -7.8549  -7.8443  -7.8148  -7.8021  -7.7719
     1.1373   1.1387   1.2199   1.2244   1.3012   1.3220   1.3868   1.4270
     2.1361   2.1977   2.2656   2.3578   2.4430   2.5163   2.6857   2.7598
     2.7949   2.8884   3.6209   3.7283   3.7505   3.9098   3.9234   4.1908
     4.3180   4.4066   4.4486   4.5125   4.5346   4.6465   4.7880   4.9293
     4.9583   4.9918   5.0101   5.2231   5.2274   5.3578   5.5871   5.6086
     5.6569   5.6772   5.7359   5.7866   5.9174   6.0254   6.0555   6.1102
     6.1476   6.2451   6.2608   6.3495   6.3848   6.4311   6.4601   6.6666
     6.6676   6.8080   6.8241   6.8392   6.9069   6.9410   6.9648   7.0316
     7.1019   7.1494   7.7194   7.7372   7.7964   7.8460   7.9512   7.9637
     9.6348   9.6409  10.2945  10.3435  10.5891  10.6456  11.7865  11.8319
    12.0165  12.1763  12.3877  12.5192  12.5979  12.6140  12.6168  12.6179
    12.7723  13.0655  13.1205  13.1911  13.4961  13.5464  13.6761  13.7195
    14.4950  14.5752  14.8828  15.0746  15.3491  15.4093  15.6820  15.7685
    16.0951  17.0850  17.2333  17.5169  17.6666

          k = 0.0000 0.0000-0.4988 ( 62892 PWs)   bands (ev):

   -66.2222 -66.2222 -66.2217 -66.2217 -66.2214 -66.2214 -66.2209 -66.2209
   -30.6386 -30.6386 -30.6324 -30.6324 -30.5821 -30.5821 -30.5663 -30.5663
   -30.5628 -30.5628 -30.5507 -30.5507 -30.5221 -30.5221 -30.5218 -30.5218
   -30.5190 -30.5190 -30.5177 -30.5177 -30.4707 -30.4707 -30.4656 -30.4656
   -20.3760 -20.3760 -20.3759 -20.3759 -20.3751 -20.3751 -20.3750 -20.3750
   -20.3675 -20.3675 -20.3668 -20.3668 -20.3647 -20.3647 -20.3640 -20.3640
   -20.3627 -20.3627 -20.3619 -20.3619 -20.3609 -20.3609 -20.3602 -20.3602
   -20.3595 -20.3595 -20.3589 -20.3589 -20.3580 -20.3580 -20.3575 -20.3575
   -20.3507 -20.3507 -20.3504 -20.3504 -20.3489 -20.3489 -20.3485 -20.3485
   -20.3260 -20.3260 -20.3260 -20.3260 -20.3244 -20.3243 -20.3243 -20.3243
   -20.3232 -20.3232 -20.3232 -20.3232 -20.3188 -20.3188 -20.3188 -20.3188
    -9.8114  -9.8114  -9.4638  -9.4638  -9.3925  -9.3925  -9.0637  -9.0637
    -8.6688  -8.6688  -8.6499  -8.6499  -8.6492  -8.6491  -8.6037  -8.6037
    -7.9366  -7.9366  -7.8660  -7.8660  -7.8232  -7.8232  -7.7933  -7.7933
     1.1375   1.1375   1.2269   1.2269   1.3134   1.3134   1.4186   1.4186
     2.4703   2.4703   2.9405   2.9405   2.9958   2.9958   3.0648   3.0648
     3.1397   3.1398   3.1596   3.1596   3.3912   3.3912   3.6168   3.6168
     3.6413   3.6413   4.4076   4.4076   4.4750   4.4750   4.8666   4.8666
     5.0516   5.0516   5.0992   5.0993   5.1713   5.1713   5.6383   5.6383
     5.7027   5.7027   5.8626   5.8626   5.8993   5.8993   6.0898   6.0898
     6.1156   6.1157   6.1785   6.1785   6.3647   6.3647   6.4381   6.4381
     6.6825   6.6825   6.8326   6.8326   6.9275   6.9275   7.4082   7.4082
     7.4555   7.4555   7.5094   7.5095   7.5595   7.5595   7.9616   7.9616
     9.6389   9.6389  11.0854  11.0854  11.1406  11.1406  11.3557  11.3557
    11.4431  11.4431  12.5380  12.5380  12.5432  12.5432  12.8682  12.8682
    12.8749  12.8749  13.1148  13.1148  13.2195  13.2195  13.6880  13.6880
    14.5521  14.5521  15.2112  15.2112  15.5295  15.5295  15.6047  15.6047
    16.5169  16.5169  17.7356  17.7356  17.7822

          k = 0.0000 0.1619 0.0000 ( 62992 PWs)   bands (ev):

   -66.2226 -66.2221 -66.2218 -66.2217 -66.2213 -66.2213 -66.2210 -66.2205
   -30.6369 -30.6317 -30.6304 -30.6253 -30.5899 -30.5822 -30.5812 -30.5748
   -30.5735 -30.5666 -30.5631 -30.5590 -30.5566 -30.5560 -30.5454 -30.5406
   -30.4802 -30.4792 -30.4786 -30.4778 -30.4728 -30.4684 -30.4654 -30.4618
   -20.3762 -20.3761 -20.3757 -20.3756 -20.3754 -20.3753 -20.3749 -20.3749
   -20.3674 -20.3671 -20.3667 -20.3664 -20.3655 -20.3649 -20.3644 -20.3634
   -20.3634 -20.3631 -20.3619 -20.3617 -20.3611 -20.3608 -20.3603 -20.3598
   -20.3595 -20.3594 -20.3590 -20.3588 -20.3584 -20.3578 -20.3576 -20.3574
   -20.3510 -20.3507 -20.3504 -20.3502 -20.3492 -20.3487 -20.3486 -20.3483
   -20.3283 -20.3283 -20.3267 -20.3267 -20.3242 -20.3242 -20.3239 -20.3239
   -20.3219 -20.3219 -20.3216 -20.3216 -20.3195 -20.3195 -20.3180 -20.3180
   -10.0291  -9.7563  -9.6351  -9.6339  -9.3835  -9.3638  -9.2215  -9.1335
    -9.1141  -9.0283  -9.0080  -9.0039  -8.0723  -8.0180  -8.0052  -7.9629
    -7.8811  -7.8775  -7.8401  -7.8378  -7.7861  -7.7829  -7.7579  -7.7532
     1.0712   1.0787   1.1516   1.1650   1.1839   1.2119   1.2867   1.4318
     1.5527   1.6190   1.6465   1.8063   2.3644   2.4497   2.4933   2.5181
     2.6121   2.6532   3.9466   4.0081   4.0158   4.0871   4.5136   4.5594
     4.5984   4.6044   4.6275   4.6973   4.7510   4.7555   4.9246   5.1501
     5.1867   5.2849   5.3061   5.4855   5.5164   5.5400   5.5657   5.5817
     5.5979   5.6438   5.7265   5.8715   5.9206   5.9634   5.9755   5.9839
     6.0163   6.1941   6.2425   6.3135   6.3515   6.6506   6.6840   6.7048
     6.7643   6.8219   6.8253   6.8301   6.8517   6.8615   7.0854   7.0888
     7.1260   7.1301   7.8664   7.8758   7.8998   7.9289   7.9596   7.9803
     9.2643   9.2898   9.8596   9.8724   9.8967   9.9036  12.0804  12.2009
    12.2856  12.3395  12.3749  12.3883  12.4145  12.4197  12.6159  12.8712
    13.0042  13.0572  13.1525  13.3388  13.6750  13.7249  13.8665  13.8749
    14.4714  14.6062  14.7423  14.8333  15.0430  15.0644  15.7824  15.8499
    15.9480  16.4771  17.0557  17.1290  17.1554

          k = 0.0000 0.1619 0.1663 ( 62935 PWs)   bands (ev):

   -66.2225 -66.2221 -66.2218 -66.2217 -66.2214 -66.2212 -66.2210 -66.2206
   -30.6365 -30.6320 -30.6301 -30.6256 -30.5886 -30.5825 -30.5787 -30.5709
   -30.5701 -30.5670 -30.5594 -30.5576 -30.5535 -30.5526 -30.5460 -30.5392
   -30.4860 -30.4843 -30.4843 -30.4827 -30.4725 -30.4681 -30.4669 -30.4628
   -20.3761 -20.3760 -20.3758 -20.3757 -20.3753 -20.3753 -20.3750 -20.3749
   -20.3674 -20.3671 -20.3667 -20.3664 -20.3654 -20.3648 -20.3644 -20.3635
   -20.3633 -20.3629 -20.3619 -20.3616 -20.3610 -20.3609 -20.3602 -20.3600
   -20.3597 -20.3594 -20.3589 -20.3589 -20.3584 -20.3578 -20.3577 -20.3574
   -20.3509 -20.3507 -20.3505 -20.3503 -20.3491 -20.3487 -20.3486 -20.3483
   -20.3280 -20.3280 -20.3264 -20.3264 -20.3241 -20.3241 -20.3241 -20.3240
   -20.3223 -20.3222 -20.3219 -20.3219 -20.3194 -20.3194 -20.3181 -20.3181
    -9.9846  -9.7033  -9.6484  -9.5739  -9.3745  -9.2952  -9.2293  -9.0962
    -9.0754  -9.0167  -9.0069  -8.9781  -8.0772  -8.0285  -8.0086  -8.0010
    -7.9733  -7.9586  -7.9159  -7.8827  -7.8615  -7.8329  -7.7887  -7.7589
     1.1646   1.1701   1.1848   1.2140   1.3647   1.3914   1.4281   1.5557
     1.6010   1.6437   1.6678   1.8781   2.4497   2.4967   2.5385   2.6035
     2.6058   2.7360   3.9624   3.9627   4.0596   4.0706   4.2511   4.2990
     4.4461   4.4985   4.5078   4.6482   4.6569   4.7611   4.9174   5.0418
     5.1216   5.2091   5.2644   5.2802   5.3416   5.4831   5.5314   5.5484
     5.6603   5.6779   5.7026   5.8412   5.8509   5.9126   5.9826   6.0671
     6.0759   6.2861   6.3325   6.3938   6.5757   6.5968   6.6709   6.6727
     6.7248   6.8008   6.8013   6.8279   6.8364   6.8480   6.9222   6.9357
     6.9785   6.9913   7.8478   7.8659   7.8846   7.9116   7.9218   7.9367
     9.5852   9.6077   9.8743   9.9145  10.0983  10.1404  12.1417  12.1591
    12.2656  12.2765  12.3410  12.3416  12.4681  12.4724  12.6472  12.7158
    12.8575  13.0103  13.1950  13.3396  13.6752  13.7202  13.7516  13.7561
    14.5529  14.7228  14.8091  14.9275  15.1082  15.1648  15.8226  15.9172
    16.1305  16.6310  16.7986  17.2113  17.2462

          k = 0.0000 0.1619 0.3325 ( 62920 PWs)   bands (ev):

   -66.2224 -66.2220 -66.2219 -66.2215 -66.2215 -66.2212 -66.2211 -66.2207
   -30.6355 -30.6329 -30.6291 -30.6266 -30.5865 -30.5834 -30.5739 -30.5683
   -30.5651 -30.5607 -30.5605 -30.5479 -30.5431 -30.5410 -30.5403 -30.5331
   -30.5016 -30.5004 -30.4990 -30.4977 -30.4716 -30.4689 -30.4672 -30.4645
   -20.3761 -20.3760 -20.3758 -20.3757 -20.3753 -20.3752 -20.3750 -20.3750
   -20.3673 -20.3672 -20.3666 -20.3665 -20.3651 -20.3646 -20.3645 -20.3637
   -20.3630 -20.3625 -20.3622 -20.3614 -20.3613 -20.3608 -20.3604 -20.3601
   -20.3599 -20.3592 -20.3592 -20.3589 -20.3582 -20.3578 -20.3577 -20.3574
   -20.3508 -20.3506 -20.3505 -20.3503 -20.3490 -20.3487 -20.3486 -20.3484
   -20.3272 -20.3271 -20.3255 -20.3255 -20.3249 -20.3249 -20.3237 -20.3237
   -20.3231 -20.3231 -20.3225 -20.3225 -20.3192 -20.3191 -20.3184 -20.3184
    -9.8784  -9.6914  -9.5827  -9.4349  -9.4085  -9.2564  -9.0439  -9.0439
    -9.0150  -8.9351  -8.9096  -8.8601  -8.3042  -8.3019  -8.2572  -8.2349
    -8.0450  -8.0250  -7.9875  -7.9649  -7.8480  -7.8176  -7.8046  -7.7746
     1.1875   1.1935   1.2200   1.2244   1.5258   1.5358   1.5997   1.6390
     2.1358   2.2043   2.2661   2.3724   2.5186   2.5869   2.6958   2.7897
     2.8419   2.9618   3.6301   3.7427   3.7530   3.8643   3.9695   4.0629
     4.0982   4.2271   4.4161   4.4534   4.5015   4.6143   4.6448   4.8113
     4.8489   4.9530   4.9747   5.0060   5.1896   5.2919   5.3809   5.5501
     5.6196   5.6698   5.7102   5.7939   5.8347   5.9757   6.0380   6.0697
     6.1604   6.3035   6.3424   6.3793   6.4252   6.5359   6.6385   6.6390
     6.7238   6.7442   6.7977   6.8063   6.8347   6.8712   7.0162   7.0247
     7.1046   7.1530   7.7220   7.7331   7.7636   7.7976   7.9002   7.9130
     9.8691   9.8786  10.3049  10.3496  10.6975  10.7472  11.7893  11.8311
    12.0258  12.2191  12.3313  12.3491  12.4912  12.5029  12.6286  12.6448
    12.6786  13.0439  13.1273  13.1491  13.3735  13.4679  13.6770  13.7268
    14.6661  14.7221  15.2070  15.2313  15.3380  15.7170  15.7379  15.8180
    16.2247  17.0524  17.0731  17.3056  17.4764

          k = 0.0000 0.1619-0.4988 ( 62864 PWs)   bands (ev):

   -66.2222 -66.2222 -66.2217 -66.2217 -66.2213 -66.2213 -66.2209 -66.2209
   -30.6342 -30.6342 -30.6278 -30.6278 -30.5848 -30.5848 -30.5705 -30.5705
   -30.5623 -30.5623 -30.5520 -30.5520 -30.5222 -30.5222 -30.5221 -30.5221
   -30.5191 -30.5191 -30.5184 -30.5183 -30.4704 -30.4704 -30.4660 -30.4660
   -20.3760 -20.3759 -20.3759 -20.3759 -20.3752 -20.3752 -20.3751 -20.3751
   -20.3672 -20.3672 -20.3666 -20.3666 -20.3648 -20.3648 -20.3641 -20.3641
   -20.3625 -20.3625 -20.3619 -20.3619 -20.3609 -20.3609 -20.3605 -20.3605
   -20.3595 -20.3595 -20.3590 -20.3590 -20.3580 -20.3580 -20.3575 -20.3575
   -20.3507 -20.3507 -20.3505 -20.3505 -20.3489 -20.3489 -20.3485 -20.3485
   -20.3260 -20.3260 -20.3260 -20.3260 -20.3244 -20.3243 -20.3243 -20.3243
   -20.3232 -20.3232 -20.3232 -20.3232 -20.3188 -20.3188 -20.3188 -20.3188
    -9.7689  -9.7689  -9.4741  -9.4741  -9.3170  -9.3170  -9.0268  -9.0268
    -8.6764  -8.6764  -8.6544  -8.6544  -8.6456  -8.6455  -8.5975  -8.5975
    -8.0373  -8.0373  -7.9778  -7.9778  -7.8263  -7.8263  -7.7960  -7.7960
     1.1922   1.1922   1.2269   1.2269   1.5393   1.5393   1.6310   1.6310
     2.5434   2.5434   2.9554   2.9554   3.0294   3.0294   3.0587   3.0587
     3.1360   3.1360   3.1880   3.1880   3.3821   3.3821   3.6400   3.6401
     3.6937   3.6937   4.1623   4.1623   4.3921   4.3921   4.6656   4.6656
     4.8850   4.8850   5.0720   5.0720   5.1728   5.1728   5.4065   5.4066
     5.6221   5.6221   5.7613   5.7613   5.9306   5.9306   6.1054   6.1054
     6.1863   6.1863   6.2383   6.2383   6.4241   6.4241   6.5651   6.5651
     6.7507   6.7507   6.7852   6.7852   6.8255   6.8255   7.4207   7.4207
     7.4512   7.4512   7.4929   7.4929   7.5365   7.5365   7.9089   7.9089
     9.8780   9.8780  11.0929  11.0929  11.1410  11.1410  11.4259  11.4259
    11.5056  11.5056  12.3701  12.3701  12.5525  12.5525  12.7921  12.7921
    12.8796  12.8796  12.9913  12.9913  13.1749  13.1749  13.6882  13.6882
    14.7054  14.7054  15.5787  15.5787  15.5805  15.5805  15.6825  15.6825
    16.5821  16.5821  17.5089  17.5089  17.8056

          k = 0.0000 0.3238 0.0000 ( 63028 PWs)   bands (ev):

   -66.2225 -66.2222 -66.2217 -66.2216 -66.2214 -66.2214 -66.2209 -66.2206
   -30.6254 -30.6200 -30.6184 -30.6129 -30.5977 -30.5907 -30.5887 -30.5791
   -30.5745 -30.5738 -30.5632 -30.5604 -30.5574 -30.5548 -30.5501 -30.5461
   -30.4798 -30.4791 -30.4789 -30.4782 -30.4720 -30.4694 -30.4648 -30.4628
   -20.3759 -20.3758 -20.3755 -20.3755 -20.3754 -20.3754 -20.3751 -20.3750
   -20.3668 -20.3664 -20.3661 -20.3657 -20.3657 -20.3650 -20.3648 -20.3639
   -20.3632 -20.3629 -20.3621 -20.3618 -20.3615 -20.3606 -20.3602 -20.3601
   -20.3600 -20.3598 -20.3593 -20.3590 -20.3583 -20.3580 -20.3577 -20.3575
   -20.3509 -20.3508 -20.3504 -20.3503 -20.3491 -20.3488 -20.3486 -20.3484
   -20.3283 -20.3283 -20.3267 -20.3267 -20.3242 -20.3242 -20.3239 -20.3239
   -20.3219 -20.3219 -20.3216 -20.3216 -20.3195 -20.3195 -20.3180 -20.3180
    -9.9466  -9.7935  -9.5404  -9.5346  -9.4080  -9.3908  -9.1292  -9.1182
    -8.9947  -8.8775  -8.8719  -8.8696  -8.3358  -8.2951  -8.2848  -8.2637
    -7.8782  -7.8773  -7.8444  -7.8432  -7.7806  -7.7786  -7.7650  -7.7603
     1.0723   1.0766   1.1660   1.1664   1.2072   1.2123   1.3976   1.4302
     2.1660   2.2742   2.3104   2.3803   2.4320   2.4323   2.7140   2.7673
     2.8246   2.8938   3.5078   3.5451   3.5867   3.6317   4.0102   4.3130
     4.3735   4.5584   4.5997   4.6068   4.6085   4.6431   4.8442   4.8785
     4.9002   4.9377   5.1813   5.2094   5.4182   5.4206   5.5712   5.5990
     5.7940   5.8186   5.8335   5.8462   5.8542   5.9653   5.9669   6.0163
     6.0345   6.1065   6.1952   6.3791   6.3827   6.4206   6.6400   6.6817
     6.7151   6.8314   6.9868   6.9878   7.0038   7.0064   7.0900   7.0954
     7.1273   7.1376   7.7019   7.7255   7.7481   7.7723   7.9047   7.9060
     9.2763   9.2888  10.3781  10.4438  10.4468  10.4872  11.6748  11.7956
    11.8057  11.8678  12.3792  12.3908  12.4158  12.4306  12.7274  12.9346
    13.0684  13.1283  13.1461  13.3529  13.5107  13.6129  13.6224  13.6439
    14.8589  15.0416  15.0575  15.1111  15.1641  15.5019  15.6936  15.7435
    15.9211  16.9551  17.1108  17.5743  17.6409

          k = 0.0000 0.3238 0.1663 ( 63008 PWs)   bands (ev):

   -66.2224 -66.2222 -66.2218 -66.2216 -66.2215 -66.2213 -66.2209 -66.2206
   -30.6250 -30.6203 -30.6180 -30.6132 -30.5968 -30.5911 -30.5873 -30.5794
   -30.5705 -30.5701 -30.5580 -30.5575 -30.5559 -30.5521 -30.5506 -30.5443
   -30.4857 -30.4847 -30.4841 -30.4832 -30.4717 -30.4691 -30.4662 -30.4638
   -20.3759 -20.3758 -20.3755 -20.3755 -20.3754 -20.3754 -20.3751 -20.3750
   -20.3668 -20.3665 -20.3661 -20.3657 -20.3656 -20.3649 -20.3649 -20.3639
   -20.3630 -20.3628 -20.3620 -20.3617 -20.3615 -20.3608 -20.3603 -20.3602
   -20.3601 -20.3597 -20.3592 -20.3590 -20.3583 -20.3579 -20.3577 -20.3576
   -20.3509 -20.3507 -20.3504 -20.3503 -20.3490 -20.3488 -20.3486 -20.3484
   -20.3280 -20.3280 -20.3264 -20.3264 -20.3241 -20.3241 -20.3241 -20.3241
   -20.3223 -20.3222 -20.3219 -20.3219 -20.3194 -20.3194 -20.3181 -20.3181
    -9.8985  -9.7410  -9.5482  -9.4668  -9.4021  -9.3204  -9.0908  -9.0795
    -9.0025  -8.8746  -8.8704  -8.8535  -8.3364  -8.3015  -8.2827  -8.2697
    -7.9954  -7.9784  -7.9106  -7.8947  -7.8576  -7.8400  -7.7844  -7.7660
     1.1707   1.1718   1.2089   1.2144   1.4223   1.4292   1.5568   1.5993
     2.1701   2.2708   2.3075   2.4267   2.4746   2.5170   2.7204   2.8184
     2.8545   2.9774   3.5435   3.5883   3.6047   3.6217   3.9952   4.2477
     4.2802   4.3163   4.3817   4.5384   4.6123   4.6403   4.6811   4.6814
     4.8735   4.9480   5.0007   5.1613   5.1951   5.2973   5.4261   5.5585
     5.6058   5.6313   5.7318   5.8242   5.9212   5.9540   5.9768   6.0074
     6.1275   6.2966   6.3313   6.3938   6.4348   6.6304   6.6485   6.7704
     6.7779   6.8387   6.8832   6.9158   6.9203   6.9277   6.9931   7.0302
     7.0439   7.0590   7.7055   7.7193   7.7204   7.7391   7.8721   7.8784
     9.6044   9.6124  10.4508  10.4885  10.5485  10.6140  11.7578  11.7930
    11.8672  11.8852  12.2582  12.2658  12.4615  12.4784  12.7660  12.8276
    12.9214  13.0696  13.1440  13.2864  13.4486  13.5096  13.5580  13.6495
    14.9295  15.1015  15.1370  15.2180  15.3834  15.5724  15.7161  16.0346
    16.0795  16.9210  17.1904  17.1986  17.4283

          k = 0.0000 0.3238 0.3325 ( 62938 PWs)   bands (ev):

   -66.2223 -66.2220 -66.2219 -66.2216 -66.2214 -66.2212 -66.2211 -66.2208
   -30.6239 -30.6212 -30.6169 -30.6142 -30.5951 -30.5920 -30.5846 -30.5805
   -30.5642 -30.5616 -30.5590 -30.5522 -30.5432 -30.5423 -30.5402 -30.5366
   -30.5015 -30.5008 -30.4990 -30.4982 -30.4708 -30.4683 -30.4681 -30.4656
   -20.3758 -20.3757 -20.3756 -20.3755 -20.3754 -20.3753 -20.3752 -20.3751
   -20.3667 -20.3665 -20.3660 -20.3658 -20.3654 -20.3650 -20.3647 -20.3641
   -20.3627 -20.3624 -20.3618 -20.3617 -20.3614 -20.3612 -20.3607 -20.3606
   -20.3599 -20.3596 -20.3593 -20.3592 -20.3581 -20.3578 -20.3578 -20.3576
   -20.3508 -20.3506 -20.3505 -20.3504 -20.3489 -20.3487 -20.3487 -20.3485
   -20.3272 -20.3271 -20.3255 -20.3255 -20.3249 -20.3249 -20.3237 -20.3237
   -20.3231 -20.3231 -20.3225 -20.3225 -20.3192 -20.3191 -20.3184 -20.3184
    -9.7845  -9.6198  -9.5908  -9.4383  -9.2819  -9.0722  -9.0319  -8.9805
    -8.9413  -8.8846  -8.8292  -8.7814  -8.3889  -8.3634  -8.2952  -8.2948
    -8.2745  -8.2274  -8.2253  -8.1634  -7.8440  -7.8249  -7.8003  -7.7817
     1.2139   1.2192   1.2202   1.2244   2.0235   2.0880   2.1342   2.1850
     2.2632   2.3072   2.3473   2.5410   2.7187   2.7294   2.7549   2.8218
     3.0889   3.1870   3.5526   3.5917   3.6003   3.6966   3.7298   3.7423
     3.9786   4.0720   4.1683   4.2089   4.2837   4.4416   4.4724   4.5945
     4.6266   4.7096   4.8416   4.9091   4.9644   5.0198   5.1207   5.1396
     5.2514   5.4463   5.4930   5.7524   6.0028   6.0383   6.0592   6.1076
     6.2713   6.3408   6.3939   6.4583   6.4975   6.6132   6.6216   6.6406
     6.7867   6.8805   6.9208   6.9372   6.9547   7.0155   7.0695   7.0710
     7.1338   7.1759   7.6218   7.6300   7.6758   7.7210   7.7426   7.7815
    10.2881  10.3184  10.4611  10.5181  11.0177  11.0778  11.7376  11.8259
    11.8389  11.8974  12.0211  12.1290  12.3637  12.4219  12.5998  12.6359
    12.7637  12.9396  13.0708  13.0968  13.0993  13.3899  13.5100  13.5865
    15.0034  15.1197  15.2980  15.6391  15.7084  15.9584  15.9965  16.5470
    16.6246  16.8070  16.9335  17.4716  17.5491

          k = 0.0000 0.3238-0.4988 ( 62890 PWs)   bands (ev):

   -66.2221 -66.2221 -66.2218 -66.2218 -66.2213 -66.2213 -66.2210 -66.2210
   -30.6225 -30.6225 -30.6155 -30.6155 -30.5934 -30.5934 -30.5822 -30.5822
   -30.5609 -30.5609 -30.5553 -30.5553 -30.5225 -30.5225 -30.5225 -30.5224
   -30.5194 -30.5194 -30.5193 -30.5193 -30.4696 -30.4696 -30.4671 -30.4671
   -20.3757 -20.3757 -20.3756 -20.3756 -20.3753 -20.3753 -20.3752 -20.3752
   -20.3666 -20.3666 -20.3659 -20.3659 -20.3652 -20.3652 -20.3644 -20.3644
   -20.3622 -20.3622 -20.3618 -20.3618 -20.3612 -20.3612 -20.3610 -20.3610
   -20.3596 -20.3596 -20.3594 -20.3594 -20.3580 -20.3580 -20.3577 -20.3577
   -20.3506 -20.3506 -20.3505 -20.3505 -20.3488 -20.3488 -20.3486 -20.3486
   -20.3260 -20.3260 -20.3260 -20.3260 -20.3244 -20.3243 -20.3243 -20.3243
   -20.3232 -20.3232 -20.3232 -20.3232 -20.3188 -20.3188 -20.3188 -20.3188
    -9.6694  -9.6694  -9.5077  -9.5077  -9.1097  -9.1097  -8.9061  -8.9061
    -8.7128  -8.7128  -8.6725  -8.6725  -8.6278  -8.6278  -8.5731  -8.5730
    -8.2929  -8.2929  -8.2482  -8.2482  -7.8222  -7.8222  -7.8033  -7.8033
     1.2204   1.2204   1.2270   1.2270   2.1699   2.1699   2.2900   2.2900
     2.7495   2.7495   2.9970   2.9970   3.0402   3.0402   3.0851   3.0851
     3.1224   3.1224   3.2786   3.2786   3.3465   3.3465   3.5912   3.5912
     3.8479   3.8479   3.9026   3.9026   3.9288   3.9288   4.1741   4.1741
     4.7040   4.7040   4.8216   4.8216   4.9487   4.9487   5.0491   5.0491
     5.2454   5.2454   5.6110   5.6110   6.0834   6.0834   6.1272   6.1272
     6.3183   6.3183   6.3449   6.3449   6.4074   6.4074   6.5856   6.5856
     6.9291   6.9291   6.9477   6.9477   6.9984   6.9984   7.4064   7.4064
     7.4204   7.4204   7.4328   7.4328   7.4880   7.4881   7.7331   7.7331
    10.4591  10.4591  11.1046  11.1046  11.1442  11.1442  11.6130  11.6130
    11.7138  11.7138  11.9440  11.9440  12.4279  12.4279  12.5073  12.5073
    12.8132  12.8132  12.8794  12.8794  13.1732  13.1732  13.5260  13.5260
    15.0738  15.0738  15.5009  15.5009  16.1103  16.1104  16.5311  16.5312
    16.8345  16.8345  17.0849  17.0849  17.8745

          k = 0.0000-0.4857 0.0000 ( 63078 PWs)   bands (ev):

   -66.2224 -66.2224 -66.2216 -66.2216 -66.2215 -66.2215 -66.2207 -66.2207
   -30.6107 -30.6107 -30.6046 -30.6046 -30.6026 -30.6026 -30.5959 -30.5959
   -30.5742 -30.5742 -30.5628 -30.5627 -30.5545 -30.5545 -30.5514 -30.5514
   -30.4793 -30.4793 -30.4787 -30.4787 -30.4708 -30.4708 -30.4639 -30.4639
   -20.3757 -20.3757 -20.3756 -20.3756 -20.3753 -20.3752 -20.3752 -20.3752
   -20.3661 -20.3661 -20.3656 -20.3656 -20.3654 -20.3654 -20.3647 -20.3647
   -20.3627 -20.3627 -20.3625 -20.3625 -20.3608 -20.3608 -20.3603 -20.3603
   -20.3601 -20.3601 -20.3592 -20.3592 -20.3582 -20.3582 -20.3576 -20.3576
   -20.3508 -20.3508 -20.3504 -20.3503 -20.3490 -20.3490 -20.3485 -20.3485
   -20.3283 -20.3283 -20.3267 -20.3267 -20.3242 -20.3242 -20.3239 -20.3239
   -20.3219 -20.3219 -20.3216 -20.3216 -20.3195 -20.3195 -20.3180 -20.3180
    -9.8586  -9.8586  -9.4573  -9.4573  -9.4448  -9.4448  -9.1237  -9.1237
    -8.6687  -8.6687  -8.6189  -8.6189  -8.6136  -8.6136  -8.6120  -8.6120
    -7.8755  -7.8755  -7.8467  -7.8467  -7.7730  -7.7730  -7.7697  -7.7697
     1.0742   1.0742   1.1676   1.1676   1.2120   1.2120   1.4237   1.4237
     2.4063   2.4063   2.9272   2.9272   3.0440   3.0440   3.0755   3.0755
     3.0830   3.0831   3.1785   3.1785   3.3966   3.3966   3.4412   3.4412
     3.5500   3.5501   4.5737   4.5737   4.6168   4.6168   5.0090   5.0091
     5.0827   5.0828   5.1331   5.1331   5.1783   5.1783   5.6692   5.6692
     5.7019   5.7019   5.8670   5.8670   5.9611   5.9611   5.9814   5.9814
     6.0752   6.0752   6.1538   6.1538   6.4895   6.4895   6.5289   6.5289
     6.7758   6.7758   7.0886   7.0886   7.1260   7.1260   7.3763   7.3764
     7.3960   7.3960   7.4054   7.4054   7.4311   7.4311   7.9036   7.9036
     9.2843   9.2843  11.0464  11.0464  11.1136  11.1136  11.1540  11.1540
    11.2285  11.2285  12.3877  12.3877  12.4279  12.4279  12.8769  12.8769
    13.2556  13.2556  13.2665  13.2665  13.3295  13.3295  13.5132  13.5132
    15.0399  15.0399  15.3605  15.3605  15.4935  15.4935  15.5321  15.5321
    16.4084  16.4084  17.6899  17.6899  17.9387

          k = 0.0000-0.4857 0.1663 ( 62994 PWs)   bands (ev):

   -66.2223 -66.2223 -66.2216 -66.2216 -66.2215 -66.2215 -66.2208 -66.2208
   -30.6101 -30.6101 -30.6050 -30.6049 -30.6020 -30.6020 -30.5963 -30.5963
   -30.5703 -30.5703 -30.5575 -30.5575 -30.5549 -30.5549 -30.5491 -30.5491
   -30.4852 -30.4852 -30.4837 -30.4837 -30.4705 -30.4705 -30.4651 -30.4651
   -20.3757 -20.3756 -20.3756 -20.3756 -20.3753 -20.3753 -20.3752 -20.3752
   -20.3661 -20.3661 -20.3656 -20.3656 -20.3654 -20.3654 -20.3648 -20.3648
   -20.3626 -20.3626 -20.3624 -20.3624 -20.3609 -20.3609 -20.3605 -20.3605
   -20.3600 -20.3600 -20.3592 -20.3592 -20.3581 -20.3581 -20.3577 -20.3577
   -20.3508 -20.3508 -20.3504 -20.3504 -20.3489 -20.3489 -20.3485 -20.3485
   -20.3280 -20.3280 -20.3264 -20.3264 -20.3241 -20.3241 -20.3241 -20.3241
   -20.3223 -20.3222 -20.3219 -20.3219 -20.3194 -20.3194 -20.3181 -20.3181
    -9.8075  -9.8075  -9.4573  -9.4573  -9.3734  -9.3734  -9.0850  -9.0850
    -8.6744  -8.6743  -8.6234  -8.6234  -8.6127  -8.6126  -8.6056  -8.6056
    -7.9875  -7.9875  -7.9031  -7.9031  -7.8493  -7.8493  -7.7755  -7.7755
     1.1716   1.1716   1.2139   1.2139   1.4293   1.4293   1.5915   1.5915
     2.4915   2.4915   2.9428   2.9428   3.0286   3.0286   3.0754   3.0754
     3.1465   3.1465   3.1796   3.1796   3.4005   3.4005   3.4762   3.4762
     3.5827   3.5828   4.2670   4.2670   4.6327   4.6327   4.8036   4.8036
     4.9156   4.9156   5.0435   5.0436   5.1790   5.1790   5.3829   5.3829
     5.6539   5.6539   5.6662   5.6662   5.9723   5.9723   6.0115   6.0115
     6.2205   6.2205   6.3161   6.3161   6.4865   6.4865   6.7168   6.7168
     6.8393   6.8393   6.9091   6.9091   6.9571   6.9571   7.3796   7.3796
     7.3871   7.3871   7.4011   7.4011   7.4204   7.4205   7.8730   7.8730
     9.6110   9.6110  11.1384  11.1384  11.1723  11.1723  11.1956  11.1956
    11.2680  11.2680  12.2625  12.2625  12.4744  12.4744  12.9125  12.9125
    13.0960  13.0960  13.1599  13.1599  13.2554  13.2554  13.5289  13.5289
    15.0801  15.0801  15.4988  15.4988  15.5486  15.5486  15.8193  15.8193
    16.4844  16.4844  17.6386  17.6390  17.7269

          k = 0.0000-0.4857 0.3325 ( 62928 PWs)   bands (ev):

   -66.2222 -66.2222 -66.2218 -66.2218 -66.2213 -66.2213 -66.2209 -66.2209
   -30.6088 -30.6088 -30.6059 -30.6059 -30.6004 -30.6004 -30.5973 -30.5973
   -30.5629 -30.5629 -30.5562 -30.5562 -30.5430 -30.5429 -30.5392 -30.5392
   -30.5013 -30.5012 -30.4987 -30.4987 -30.4696 -30.4696 -30.4669 -30.4669
   -20.3756 -20.3756 -20.3755 -20.3755 -20.3754 -20.3754 -20.3753 -20.3753
   -20.3660 -20.3660 -20.3657 -20.3657 -20.3652 -20.3652 -20.3649 -20.3649
   -20.3622 -20.3622 -20.3621 -20.3621 -20.3613 -20.3612 -20.3610 -20.3609
   -20.3598 -20.3598 -20.3594 -20.3594 -20.3580 -20.3580 -20.3577 -20.3577
   -20.3507 -20.3507 -20.3505 -20.3505 -20.3488 -20.3488 -20.3486 -20.3486
   -20.3272 -20.3271 -20.3255 -20.3255 -20.3249 -20.3249 -20.3237 -20.3237
   -20.3231 -20.3231 -20.3225 -20.3225 -20.3191 -20.3191 -20.3184 -20.3184
    -9.6877  -9.6877  -9.4969  -9.4969  -9.1415  -9.1415  -8.9530  -8.9530
    -8.7068  -8.7068  -8.6423  -8.6423  -8.6029  -8.6029  -8.5805  -8.5805
    -8.2813  -8.2813  -8.2127  -8.2127  -7.8348  -7.8348  -7.7913  -7.7913
     1.2194   1.2194   1.2238   1.2238   2.1254   2.1254   2.2439   2.2439
     2.7361   2.7361   2.9658   2.9658   3.0233   3.0233   3.0943   3.0943
     3.1414   3.1414   3.2811   3.2811   3.3762   3.3762   3.6006   3.6006
     3.6701   3.6702   3.7233   3.7233   4.2533   4.2533   4.4052   4.4053
     4.6516   4.6516   4.7343   4.7343   5.0066   5.0066   5.0427   5.0428
     5.2294   5.2295   5.5562   5.5562   6.0436   6.0436   6.1090   6.1090
     6.3454   6.3454   6.4086   6.4086   6.4966   6.4966   6.6403   6.6404
     6.9214   6.9214   7.0316   7.0316   7.0586   7.0586   7.3428   7.3428
     7.3562   7.3562   7.3972   7.3972   7.4196   7.4196   7.7488   7.7488
    10.3211  10.3211  11.1587  11.1587  11.1971  11.1971  11.5122  11.5122
    11.5873  11.5873  11.8340  11.8340  12.6039  12.6039  12.6241  12.6241
    12.6731  12.6731  12.9970  12.9970  13.2594  13.2594  13.4311  13.4311
    15.2034  15.2034  15.4479  15.4479  16.0863  16.0863  16.6311  16.6311
    16.7774  16.7774  17.1400  17.1400  17.8046

          k = 0.0000-0.4857-0.4988 ( 62920 PWs)   bands (ev):

   -66.2220 -66.2220 -66.2220 -66.2220 -66.2211 -66.2211 -66.2211 -66.2211
   -30.6073 -30.6073 -30.6072 -30.6072 -30.5988 -30.5988 -30.5988 -30.5988
   -30.5585 -30.5585 -30.5585 -30.5585 -30.5226 -30.5226 -30.5226 -30.5226
   -30.5196 -30.5196 -30.5196 -30.5196 -30.4684 -30.4684 -30.4684 -30.4684
   -20.3755 -20.3755 -20.3755 -20.3755 -20.3754 -20.3754 -20.3754 -20.3754
   -20.3659 -20.3659 -20.3658 -20.3658 -20.3651 -20.3651 -20.3650 -20.3650
   -20.3617 -20.3617 -20.3617 -20.3617 -20.3615 -20.3615 -20.3615 -20.3615
   -20.3596 -20.3596 -20.3596 -20.3596 -20.3579 -20.3579 -20.3579 -20.3579
   -20.3506 -20.3506 -20.3506 -20.3506 -20.3487 -20.3487 -20.3487 -20.3487
   -20.3260 -20.3260 -20.3260 -20.3260 -20.3244 -20.3243 -20.3243 -20.3243
   -20.3232 -20.3232 -20.3232 -20.3232 -20.3188 -20.3188 -20.3188 -20.3188
    -9.5718  -9.5718  -9.5718  -9.5718  -8.8519  -8.8519  -8.8519  -8.8519
    -8.7366  -8.7366  -8.7366  -8.7366  -8.5454  -8.5454  -8.5453  -8.5453
    -8.4899  -8.4899  -8.4899  -8.4899  -7.8131  -7.8131  -7.8131  -7.8131
     1.2261   1.2261   1.2261   1.2261   2.8809   2.8809   2.8809   2.8809
     2.9900   2.9900   2.9900   2.9900   3.0841   3.0841   3.0841   3.0841
     3.1619   3.1619   3.1619   3.1620   3.3657   3.3657   3.3657   3.3657
     3.4886   3.4886   3.4886   3.4887   4.1416   4.1416   4.1416   4.1416
     4.2327   4.2327   4.2327   4.2327   5.0060   5.0060   5.0060   5.0060
     5.3727   5.3727   5.3727   5.3727   6.1282   6.1282   6.1282   6.1283
     6.3663   6.3663   6.3663   6.3663   6.4515   6.4515   6.4515   6.4515
     7.1904   7.1904   7.1904   7.1904   7.2461   7.2461   7.2461   7.2461
     7.3436   7.3436   7.3436   7.3436   7.5233   7.5233   7.5233   7.5233
    11.0604  11.0604  11.0604  11.0604  11.2444  11.2444  11.2444  11.2444
    12.0404  12.0404  12.0404  12.0404  12.1002  12.1002  12.1002  12.1003
    12.8447  12.8447  12.8447  12.8447  13.2994  13.2994  13.2994  13.2994
    15.3444  15.3444  15.3444  15.3444  16.6412  16.6412  16.6412  16.6412
    17.4032  17.4033  17.4033  17.4034  17.5268

          k = 0.1667 0.0000 0.0000 ( 62903 PWs)   bands (ev):

   -66.2226 -66.2220 -66.2218 -66.2218 -66.2213 -66.2212 -66.2210 -66.2205
   -30.6406 -30.6355 -30.6353 -30.6302 -30.5861 -30.5797 -30.5769 -30.5722
   -30.5713 -30.5634 -30.5627 -30.5542 -30.5538 -30.5530 -30.5398 -30.5355
   -30.4826 -30.4814 -30.4789 -30.4788 -30.4773 -30.4737 -30.4690 -30.4657
   -20.3763 -20.3762 -20.3758 -20.3757 -20.3753 -20.3752 -20.3749 -20.3748
   -20.3675 -20.3673 -20.3670 -20.3667 -20.3654 -20.3649 -20.3641 -20.3635
   -20.3633 -20.3631 -20.3620 -20.3614 -20.3611 -20.3607 -20.3602 -20.3597
   -20.3594 -20.3592 -20.3587 -20.3586 -20.3585 -20.3579 -20.3577 -20.3574
   -20.3509 -20.3505 -20.3503 -20.3501 -20.3493 -20.3488 -20.3487 -20.3484
   -20.3282 -20.3282 -20.3268 -20.3268 -20.3240 -20.3240 -20.3236 -20.3236
   -20.3217 -20.3217 -20.3217 -20.3217 -20.3199 -20.3198 -20.3183 -20.3183
   -10.0210  -9.6945  -9.6907  -9.6252  -9.3865  -9.3103  -9.2678  -9.1093
    -9.0712  -9.0506  -9.0501  -9.0052  -8.0245  -7.9673  -7.9406  -7.9396
    -7.8993  -7.8799  -7.8767  -7.8679  -7.8474  -7.8342  -7.7942  -7.7594
     1.1204   1.1233   1.1398   1.1668   1.2442   1.2526   1.3305   1.3962
     1.4682   1.5819   1.6310   1.7945   2.4321   2.4523   2.4981   2.5461
     2.5660   2.6274   4.0190   4.1470   4.2035   4.2967   4.3008   4.3647
     4.4083   4.5450   4.6188   4.6329   4.6602   4.7882   5.0161   5.1892
     5.2422   5.2547   5.3908   5.4017   5.4404   5.4771   5.5462   5.5481
     5.5776   5.6840   5.7732   5.7874   5.8597   5.9182   5.9811   6.0257
     6.1981   6.2766   6.3335   6.3468   6.5353   6.6550   6.6638   6.6865
     6.7530   6.7672   6.7894   6.8536   6.8638   6.8749   6.9538   6.9565
     6.9572   6.9622   7.8468   7.8593   7.8894   7.9248   8.0232   8.0549
     9.5873   9.5956   9.6688   9.6739   9.9385   9.9582  12.1409  12.2624
    12.3031  12.3419  12.4224  12.4488  12.4718  12.5217  12.5889  12.8286
    12.8735  13.0679  13.2517  13.2752  13.6053  13.6654  13.9693  13.9818
    14.3127  14.3503  14.6333  14.7884  15.1078  15.1325  15.5045  15.7824
    16.2193  16.6158  16.9511  17.1635  17.1731

          k = 0.1667 0.0000 0.1663 ( 62929 PWs)   bands (ev):

   -66.2225 -66.2220 -66.2218 -66.2218 -66.2213 -66.2213 -66.2211 -66.2206
   -30.6403 -30.6359 -30.6349 -30.6306 -30.5842 -30.5772 -30.5766 -30.5687
   -30.5672 -30.5631 -30.5578 -30.5542 -30.5513 -30.5508 -30.5404 -30.5343
   -30.4872 -30.4853 -30.4843 -30.4829 -30.4786 -30.4734 -30.4716 -30.4672
   -20.3762 -20.3761 -20.3758 -20.3758 -20.3753 -20.3752 -20.3749 -20.3749
   -20.3675 -20.3673 -20.3670 -20.3667 -20.3653 -20.3648 -20.3642 -20.3634
   -20.3633 -20.3629 -20.3621 -20.3613 -20.3611 -20.3607 -20.3601 -20.3598
   -20.3595 -20.3592 -20.3587 -20.3587 -20.3585 -20.3579 -20.3577 -20.3574
   -20.3508 -20.3505 -20.3503 -20.3501 -20.3493 -20.3488 -20.3488 -20.3484
   -20.3279 -20.3279 -20.3265 -20.3265 -20.3241 -20.3241 -20.3237 -20.3236
   -20.3222 -20.3222 -20.3218 -20.3218 -20.3198 -20.3197 -20.3185 -20.3184
    -9.9761  -9.6390  -9.6357  -9.6355  -9.3184  -9.2983  -9.2784  -9.0636
    -9.0474  -9.0379  -9.0155  -9.0082  -8.0333  -8.0004  -7.9634  -7.9614
    -7.9527  -7.9438  -7.9120  -7.9091  -7.8849  -7.8735  -7.8583  -7.8504
     1.2144   1.2441   1.2472   1.3267   1.3316   1.3411   1.4302   1.4710
     1.5424   1.5831   1.7047   1.8696   2.5065   2.5168   2.5325   2.6181
     2.6331   2.6572   4.0114   4.0526   4.2207   4.2369   4.3315   4.3488
     4.3652   4.3703   4.4195   4.4574   4.5556   4.6181   5.0039   5.0625
     5.1406   5.1779   5.2228   5.3791   5.3871   5.4074   5.4779   5.5934
     5.5944   5.6225   5.6357   5.7348   5.7983   5.9236   6.0626   6.1801
     6.2211   6.3969   6.4613   6.4974   6.5252   6.5933   6.6116   6.6396
     6.6622   6.6711   6.6884   6.7263   6.7783   6.8174   6.8297   6.9039
     7.0307   7.0559   7.8359   7.8365   7.8898   7.9240   7.9756   8.0046
     9.7879   9.8158   9.8952   9.9436   9.9699  10.0551  12.1847  12.2578
    12.2968  12.3184  12.3506  12.3802  12.5359  12.5435  12.5817  12.6892
    12.8547  12.9031  13.2756  13.2828  13.6397  13.6558  13.8291  13.8592
    14.3677  14.5067  14.6302  14.9134  15.2278  15.2378  15.4772  16.1261
    16.1891  16.7768  16.8164  17.1013  17.2612

          k = 0.1667 0.0000 0.3325 ( 62945 PWs)   bands (ev):

   -66.2224 -66.2220 -66.2218 -66.2216 -66.2214 -66.2212 -66.2211 -66.2207
   -30.6393 -30.6368 -30.6340 -30.6315 -30.5815 -30.5781 -30.5708 -30.5644
   -30.5604 -30.5581 -30.5552 -30.5433 -30.5421 -30.5407 -30.5397 -30.5296
   -30.5019 -30.5002 -30.4989 -30.4980 -30.4779 -30.4748 -30.4725 -30.4695
   -20.3762 -20.3761 -20.3759 -20.3758 -20.3752 -20.3751 -20.3750 -20.3749
   -20.3675 -20.3673 -20.3669 -20.3668 -20.3650 -20.3645 -20.3644 -20.3637
   -20.3630 -20.3625 -20.3623 -20.3615 -20.3611 -20.3606 -20.3604 -20.3599
   -20.3598 -20.3591 -20.3589 -20.3587 -20.3583 -20.3579 -20.3577 -20.3575
   -20.3507 -20.3504 -20.3504 -20.3502 -20.3491 -20.3489 -20.3487 -20.3485
   -20.3271 -20.3270 -20.3256 -20.3256 -20.3248 -20.3247 -20.3234 -20.3234
   -20.3232 -20.3232 -20.3224 -20.3224 -20.3195 -20.3195 -20.3187 -20.3187
    -9.8690  -9.6814  -9.5107  -9.5009  -9.3457  -9.3125  -9.0470  -9.0395
    -9.0171  -8.9134  -8.9115  -8.8835  -8.2986  -8.2923  -8.2557  -8.2467
    -7.9909  -7.9592  -7.9386  -7.9217  -7.8923  -7.8856  -7.8798  -7.8587
     1.2269   1.2397   1.2967   1.3183   1.4778   1.4786   1.5474   1.5853
     2.1397   2.2008   2.2625   2.3601   2.5264   2.5948   2.7552   2.7862
     2.8905   2.8930   3.6506   3.7548   3.8152   3.8842   3.9145   4.2040
     4.2269   4.3201   4.3330   4.4080   4.4511   4.6058   4.6214   4.7273
     4.8245   4.9055   4.9567   5.0574   5.0970   5.2454   5.4287   5.5203
     5.6169   5.6793   5.7010   5.7651   5.7965   5.8472   5.9588   5.9638
     6.2804   6.2965   6.3543   6.4009   6.4326   6.5113   6.5810   6.6510
     6.6555   6.7478   6.7490   6.7700   6.9039   6.9488   7.0423   7.0581
     7.1186   7.1697   7.7175   7.7286   7.8047   7.8449   7.9172   7.9224
     9.9037   9.9112  10.4251  10.4902  10.5953  10.6748  11.8478  11.8915
    12.0381  12.1835  12.3035  12.4170  12.5137  12.5802  12.6034  12.6627
    12.7512  12.9244  13.1102  13.1548  13.4780  13.5016  13.6567  13.6777
    14.5035  14.6174  14.8715  15.2243  15.3805  15.5764  15.7645  16.0991
    16.2334  17.0529  17.2139  17.3357  17.4541

          k = 0.1667 0.0000-0.4988 ( 62852 PWs)   bands (ev):

   -66.2222 -66.2222 -66.2216 -66.2216 -66.2214 -66.2214 -66.2209 -66.2209
   -30.6381 -30.6381 -30.6327 -30.6327 -30.5796 -30.5796 -30.5667 -30.5667
   -30.5571 -30.5571 -30.5476 -30.5476 -30.5222 -30.5222 -30.5218 -30.5218
   -30.5192 -30.5192 -30.5171 -30.5171 -30.4766 -30.4766 -30.4712 -30.4712
   -20.3760 -20.3760 -20.3760 -20.3759 -20.3751 -20.3751 -20.3750 -20.3750
   -20.3674 -20.3674 -20.3669 -20.3668 -20.3647 -20.3647 -20.3641 -20.3641
   -20.3626 -20.3626 -20.3620 -20.3620 -20.3608 -20.3608 -20.3603 -20.3603
   -20.3595 -20.3595 -20.3588 -20.3588 -20.3581 -20.3581 -20.3575 -20.3575
   -20.3506 -20.3506 -20.3503 -20.3503 -20.3490 -20.3490 -20.3486 -20.3486
   -20.3259 -20.3259 -20.3259 -20.3259 -20.3244 -20.3244 -20.3244 -20.3244
   -20.3230 -20.3230 -20.3229 -20.3229 -20.3191 -20.3191 -20.3191 -20.3191
    -9.7588  -9.7588  -9.4039  -9.4039  -9.3811  -9.3811  -9.0284  -9.0284
    -8.6820  -8.6819  -8.6518  -8.6518  -8.6346  -8.6345  -8.6052  -8.6052
    -7.9748  -7.9748  -7.9246  -7.9246  -7.8967  -7.8967  -7.8698  -7.8698
     1.2323   1.2323   1.3092   1.3092   1.4869   1.4869   1.5840   1.5840
     2.5505   2.5505   2.9488   2.9488   2.9828   2.9828   3.0861   3.0861
     3.1273   3.1273   3.2512   3.2512   3.4491   3.4492   3.6256   3.6256
     3.6477   3.6478   4.2612   4.2612   4.3935   4.3935   4.8076   4.8076
     4.8586   4.8586   4.8886   4.8886   5.0581   5.0581   5.5438   5.5438
     5.6018   5.6018   5.6994   5.6994   5.7773   5.7773   5.9191   5.9191
     6.1939   6.1939   6.3347   6.3347   6.4349   6.4349   6.6592   6.6592
     6.7031   6.7031   6.7925   6.7925   6.8489   6.8489   7.4357   7.4358
     7.4680   7.4680   7.5200   7.5200   7.5598   7.5598   7.9217   7.9217
     9.9122   9.9122  11.1649  11.1649  11.2257  11.2257  11.3665  11.3665
    11.4599  11.4599  12.4184  12.4184  12.5959  12.5959  12.7643  12.7643
    12.8564  12.8564  13.0987  13.0987  13.1416  13.1416  13.6564  13.6564
    14.5832  14.5832  15.1896  15.1896  15.6735  15.6735  15.9001  15.9001
    16.6166  16.6166  17.6386  17.6390  17.7821

          k = 0.1667 0.1619 0.0000 ( 62957 PWs)   bands (ev):

   -66.2225 -66.2221 -66.2218 -66.2217 -66.2213 -66.2213 -66.2210 -66.2206
   -30.6363 -30.6312 -30.6308 -30.6257 -30.5885 -30.5817 -30.5798 -30.5725
   -30.5715 -30.5671 -30.5635 -30.5566 -30.5533 -30.5524 -30.5416 -30.5377
   -30.4824 -30.4815 -30.4789 -30.4785 -30.4774 -30.4741 -30.4689 -30.4660
   -20.3762 -20.3761 -20.3757 -20.3756 -20.3754 -20.3753 -20.3749 -20.3749
   -20.3673 -20.3670 -20.3668 -20.3664 -20.3654 -20.3649 -20.3643 -20.3635
   -20.3634 -20.3631 -20.3619 -20.3615 -20.3612 -20.3608 -20.3602 -20.3597
   -20.3596 -20.3594 -20.3589 -20.3587 -20.3585 -20.3579 -20.3577 -20.3575
   -20.3508 -20.3505 -20.3503 -20.3501 -20.3493 -20.3488 -20.3487 -20.3484
   -20.3282 -20.3282 -20.3268 -20.3268 -20.3240 -20.3240 -20.3236 -20.3236
   -20.3217 -20.3217 -20.3217 -20.3217 -20.3199 -20.3198 -20.3183 -20.3183
    -9.9853  -9.7064  -9.6485  -9.5759  -9.3941  -9.2762  -9.2302  -9.1005
    -9.0728  -9.0114  -9.0112  -8.9726  -8.0804  -8.0250  -8.0135  -7.9835
    -7.9723  -7.9574  -7.9066  -7.8793  -7.8687  -7.8381  -7.7922  -7.7638
     1.1402   1.1416   1.1535   1.1674   1.3827   1.4001   1.4666   1.5597
     1.6098   1.6376   1.7006   1.8879   2.4461   2.5263   2.5333   2.5811
     2.6450   2.7001   3.9094   3.9767   4.0557   4.1273   4.2369   4.2983
     4.3830   4.4647   4.5937   4.6478   4.7078   4.7534   4.8282   5.1237
     5.1270   5.1828   5.2483   5.3126   5.3452   5.4554   5.5057   5.6124
     5.6417   5.6478   5.7705   5.8283   5.8615   5.9270   5.9882   6.0216
     6.1264   6.3012   6.3082   6.3294   6.5686   6.6039   6.6216   6.6957
     6.7162   6.7614   6.8152   6.8368   6.8579   6.8647   6.9460   6.9633
     6.9652   6.9701   7.8332   7.8380   7.8774   7.8974   7.9659   7.9799
     9.6010   9.6027   9.8627   9.8818  10.1329  10.1354  12.0516  12.2575
    12.2677  12.2867  12.2970  12.3718  12.4260  12.4715  12.5647  12.8102
    12.9002  13.0573  13.2424  13.2738  13.6261  13.6319  13.8625  13.8727
    14.5180  14.6078  14.8416  14.9354  15.1156  15.1299  15.7483  15.9210
    16.1855  16.6226  16.7592  17.2793  17.4910

          k = 0.1667 0.1619 0.1663 ( 62921 PWs)   bands (ev):

   -66.2225 -66.2220 -66.2218 -66.2217 -66.2213 -66.2213 -66.2211 -66.2206
   -30.6360 -30.6315 -30.6305 -30.6260 -30.5870 -30.5802 -30.5790 -30.5687
   -30.5675 -30.5673 -30.5579 -30.5538 -30.5531 -30.5503 -30.5421 -30.5364
   -30.4871 -30.4854 -30.4843 -30.4831 -30.4783 -30.4738 -30.4714 -30.4676
   -20.3761 -20.3760 -20.3757 -20.3757 -20.3753 -20.3753 -20.3750 -20.3749
   -20.3673 -20.3670 -20.3667 -20.3664 -20.3653 -20.3648 -20.3643 -20.3635
   -20.3632 -20.3629 -20.3620 -20.3615 -20.3612 -20.3609 -20.3602 -20.3599
   -20.3597 -20.3593 -20.3589 -20.3588 -20.3584 -20.3579 -20.3577 -20.3575
   -20.3508 -20.3505 -20.3503 -20.3501 -20.3492 -20.3488 -20.3488 -20.3485
   -20.3279 -20.3279 -20.3265 -20.3265 -20.3241 -20.3241 -20.3237 -20.3236
   -20.3222 -20.3222 -20.3218 -20.3218 -20.3198 -20.3197 -20.3185 -20.3184
    -9.9385  -9.6481  -9.5897  -9.5880  -9.3060  -9.2870  -9.2383  -9.0594
    -9.0393  -9.0056  -8.9815  -8.9755  -8.0867  -8.0298  -8.0206  -7.9980
    -7.9854  -7.9771  -7.9563  -7.9500  -7.9299  -7.8980  -7.8937  -7.8673
     1.3277   1.3384   1.3658   1.3843   1.4077   1.4312   1.4706   1.5584
     1.6657   1.6993   1.7061   1.9448   2.5321   2.5819   2.6094   2.6271
     2.6936   2.7316   3.9229   3.9625   4.0594   4.1028   4.2701   4.3073
     4.3401   4.3678   4.4024   4.4473   4.4733   4.5588   4.8189   4.9927
     5.0634   5.1279   5.1965   5.2284   5.2644   5.3404   5.3451   5.5065
     5.6051   5.6299   5.7429   5.7805   5.7886   5.8609   6.0765   6.1632
     6.2076   6.3011   6.4110   6.5027   6.5463   6.5637   6.5731   6.6108
     6.6487   6.7255   6.7526   6.7767   6.8206   6.8373   6.8590   6.9083
     7.0340   7.0585   7.8233   7.8301   7.8581   7.8876   7.9224   7.9362
     9.8306   9.8428  10.0694  10.1016  10.1450  10.2027  12.1082  12.2208
    12.2933  12.3078  12.3182  12.3296  12.3895  12.4235  12.5858  12.7272
    12.8231  12.8714  13.2692  13.2711  13.6053  13.6429  13.7176  13.7604
    14.6130  14.7887  14.8494  15.0412  15.2315  15.2355  15.8808  16.1034
    16.1570  16.7466  16.8955  16.9291  17.3151

          k = 0.1667 0.1619 0.3325 ( 62933 PWs)   bands (ev):

   -66.2223 -66.2219 -66.2219 -66.2216 -66.2215 -66.2212 -66.2211 -66.2208
   -30.6350 -30.6324 -30.6295 -30.6269 -30.5845 -30.5812 -30.5743 -30.5688
   -30.5602 -30.5582 -30.5548 -30.5445 -30.5426 -30.5414 -30.5397 -30.5313
   -30.5019 -30.5004 -30.4990 -30.4981 -30.4776 -30.4745 -30.4730 -30.4699
   -20.3761 -20.3760 -20.3758 -20.3757 -20.3753 -20.3752 -20.3750 -20.3750
   -20.3673 -20.3671 -20.3667 -20.3665 -20.3651 -20.3645 -20.3645 -20.3638
   -20.3629 -20.3625 -20.3622 -20.3614 -20.3613 -20.3608 -20.3604 -20.3601
   -20.3598 -20.3592 -20.3590 -20.3588 -20.3583 -20.3579 -20.3578 -20.3575
   -20.3507 -20.3504 -20.3504 -20.3502 -20.3491 -20.3489 -20.3487 -20.3485
   -20.3271 -20.3270 -20.3256 -20.3256 -20.3248 -20.3247 -20.3234 -20.3234
   -20.3232 -20.3232 -20.3224 -20.3224 -20.3195 -20.3195 -20.3187 -20.3187
    -9.8269  -9.6330  -9.5129  -9.4486  -9.3219  -9.2664  -9.0552  -9.0078
    -8.9840  -8.9133  -8.9034  -8.8643  -8.3009  -8.2962  -8.2688  -8.2441
    -8.0476  -8.0293  -7.9966  -7.9725  -7.9622  -7.9354  -7.9192  -7.8940
     1.3822   1.3897   1.4745   1.4762   1.5302   1.5485   1.6359   1.6970
     2.1395   2.2075   2.2628   2.3733   2.6031   2.6680   2.7874   2.8520
     2.8854   2.9604   3.6632   3.7794   3.8033   3.8435   3.9664   4.0653
     4.1275   4.2406   4.2841   4.3679   4.3984   4.5463   4.5739   4.6637
     4.7033   4.7675   4.8063   4.9868   4.9934   5.1141   5.2586   5.3937
     5.5276   5.5806   5.6487   5.7301   5.7825   5.8045   5.9104   5.9445
     6.2127   6.3533   6.4284   6.5008   6.5294   6.5723   6.5751   6.6259
     6.6783   6.7552   6.8017   6.8464   6.8986   6.9693   7.0439   7.0596
     7.1228   7.1713   7.7167   7.7237   7.7649   7.7944   7.8701   7.8778
    10.0895  10.1073  10.4466  10.4998  10.7048  10.7646  11.8501  11.8904
    12.0555  12.2256  12.2761  12.4087  12.4377  12.4626  12.5275  12.6177
    12.6378  12.8658  13.0897  13.1535  13.3597  13.3938  13.6247  13.6372
    14.7571  14.8364  15.2202  15.3326  15.5696  15.7682  15.8055  16.0711
    16.3412  17.0248  17.1233  17.2819  17.3976

          k = 0.1667 0.1619-0.4988 ( 62894 PWs)   bands (ev):

   -66.2221 -66.2221 -66.2217 -66.2217 -66.2214 -66.2214 -66.2209 -66.2209
   -30.6337 -30.6337 -30.6282 -30.6282 -30.5826 -30.5826 -30.5709 -30.5709
   -30.5567 -30.5567 -30.5486 -30.5486 -30.5223 -30.5223 -30.5220 -30.5219
   -30.5193 -30.5193 -30.5178 -30.5178 -30.4763 -30.4763 -30.4717 -30.4717
   -20.3759 -20.3759 -20.3759 -20.3759 -20.3752 -20.3751 -20.3751 -20.3751
   -20.3672 -20.3672 -20.3666 -20.3666 -20.3648 -20.3648 -20.3641 -20.3641
   -20.3625 -20.3625 -20.3619 -20.3619 -20.3609 -20.3609 -20.3605 -20.3605
   -20.3595 -20.3595 -20.3589 -20.3589 -20.3581 -20.3581 -20.3576 -20.3576
   -20.3506 -20.3505 -20.3503 -20.3503 -20.3490 -20.3490 -20.3486 -20.3486
   -20.3259 -20.3259 -20.3259 -20.3259 -20.3244 -20.3244 -20.3244 -20.3244
   -20.3230 -20.3230 -20.3229 -20.3229 -20.3191 -20.3191 -20.3191 -20.3191
    -9.7124  -9.7124  -9.3918  -9.3918  -9.3288  -9.3288  -8.9952  -8.9951
    -8.6897  -8.6897  -8.6533  -8.6533  -8.6331  -8.6331  -8.5999  -8.5998
    -8.0408  -8.0407  -7.9867  -7.9867  -7.9423  -7.9423  -7.9139  -7.9139
     1.3857   1.3857   1.4837   1.4837   1.5449   1.5449   1.6888   1.6888
     2.6238   2.6239   2.9650   2.9650   3.0131   3.0131   3.0845   3.0845
     3.1290   3.1290   3.2739   3.2739   3.4413   3.4413   3.6586   3.6586
     3.6888   3.6888   4.1715   4.1715   4.2755   4.2755   4.6095   4.6095
     4.7515   4.7515   4.8445   4.8446   4.9122   4.9122   5.3652   5.3652
     5.5270   5.5271   5.6049   5.6049   5.7285   5.7285   5.8361   5.8361
     6.3292   6.3292   6.4733   6.4733   6.5101   6.5101   6.5977   6.5977
     6.7389   6.7389   6.8026   6.8026   6.8976   6.8976   7.4353   7.4353
     7.4632   7.4632   7.5010   7.5011   7.5373   7.5373   7.8741   7.8741
    10.1075  10.1075  11.1744  11.1744  11.2283  11.2283  11.4360  11.4360
    11.5193  11.5193  12.4093  12.4093  12.4610  12.4610  12.7363  12.7363
    12.8355  12.8355  12.9719  12.9719  13.0595  13.0595  13.6174  13.6174
    14.8141  14.8141  15.5703  15.5703  15.7867  15.7867  15.8830  15.8830
    16.6684  16.6684  17.5142  17.5143  17.7067

          k = 0.1667 0.3238 0.0000 ( 63006 PWs)   bands (ev):

   -66.2224 -66.2222 -66.2217 -66.2216 -66.2214 -66.2214 -66.2209 -66.2207
   -30.6248 -30.6193 -30.6188 -30.6133 -30.5965 -30.5894 -30.5888 -30.5795
   -30.5726 -30.5719 -30.5636 -30.5609 -30.5518 -30.5507 -30.5454 -30.5426
   -30.4821 -30.4815 -30.4787 -30.4779 -30.4777 -30.4752 -30.4686 -30.4669
   -20.3759 -20.3758 -20.3755 -20.3755 -20.3754 -20.3754 -20.3751 -20.3750
   -20.3668 -20.3664 -20.3661 -20.3657 -20.3656 -20.3650 -20.3648 -20.3639
   -20.3631 -20.3629 -20.3622 -20.3619 -20.3613 -20.3606 -20.3603 -20.3600
   -20.3599 -20.3597 -20.3592 -20.3589 -20.3584 -20.3581 -20.3578 -20.3577
   -20.3508 -20.3506 -20.3503 -20.3502 -20.3492 -20.3489 -20.3487 -20.3485
   -20.3282 -20.3282 -20.3268 -20.3268 -20.3240 -20.3240 -20.3236 -20.3236
   -20.3217 -20.3217 -20.3217 -20.3217 -20.3198 -20.3198 -20.3183 -20.3183
    -9.8998  -9.7436  -9.5540  -9.4628  -9.4193  -9.3040  -9.0910  -9.0772
    -9.0032  -8.8745  -8.8690  -8.8527  -8.3358  -8.2942  -8.2898  -8.2708
    -7.9884  -7.9694  -7.9073  -7.8892  -7.8626  -7.8453  -7.7867  -7.7709
     1.1418   1.1454   1.1683   1.1688   1.4559   1.4677   1.5816   1.6272
     2.1707   2.2693   2.3046   2.4239   2.4678   2.5164   2.7756   2.8071
     2.8881   2.9151   3.5045   3.5340   3.6403   3.6856   3.9938   4.2413
     4.2699   4.3424   4.3936   4.5514   4.5661   4.6319   4.7091   4.7103
     4.8416   4.8854   5.0330   5.1562   5.1937   5.3342   5.4267   5.5346
     5.6127   5.6406   5.7349   5.8202   5.9403   5.9831   5.9903   6.0195
     6.0756   6.2381   6.3090   6.3793   6.4648   6.6433   6.6662   6.7522
     6.8019   6.8394   6.8872   6.9145   6.9147   6.9323   7.0081   7.0232
     7.0495   7.0655   7.6809   7.6993   7.7514   7.7673   7.8760   7.8807
     9.6087   9.6130  10.3829  10.4297  10.6246  10.6423  11.6717  11.7998
    11.8809  11.9403  12.2849  12.2864  12.4312  12.4453  12.6912  12.8459
    12.9971  13.1241  13.2017  13.2485  13.4390  13.5062  13.6116  13.6154
    14.9714  15.0826  15.1124  15.1420  15.3970  15.5671  15.6689  16.0676
    16.0724  16.9192  17.1198  17.2532  17.7369

          k = 0.1667 0.3238 0.1663 ( 62963 PWs)   bands (ev):

   -66.2224 -66.2221 -66.2217 -66.2217 -66.2214 -66.2214 -66.2210 -66.2207
   -30.6244 -30.6196 -30.6184 -30.6136 -30.5955 -30.5895 -30.5876 -30.5798
   -30.5684 -30.5675 -30.5581 -30.5564 -30.5522 -30.5489 -30.5459 -30.5412
   -30.4867 -30.4858 -30.4843 -30.4835 -30.4775 -30.4749 -30.4708 -30.4687
   -20.3759 -20.3758 -20.3755 -20.3755 -20.3754 -20.3754 -20.3751 -20.3750
   -20.3667 -20.3664 -20.3661 -20.3657 -20.3655 -20.3650 -20.3648 -20.3640
   -20.3630 -20.3628 -20.3621 -20.3618 -20.3614 -20.3608 -20.3604 -20.3602
   -20.3599 -20.3596 -20.3591 -20.3590 -20.3584 -20.3581 -20.3578 -20.3577
   -20.3507 -20.3506 -20.3503 -20.3502 -20.3492 -20.3489 -20.3487 -20.3485
   -20.3279 -20.3279 -20.3265 -20.3265 -20.3241 -20.3241 -20.3236 -20.3236
   -20.3222 -20.3222 -20.3218 -20.3218 -20.3198 -20.3197 -20.3184 -20.3184
    -9.8485  -9.6861  -9.4810  -9.4763  -9.3320  -9.3155  -9.0547  -9.0435
    -9.0114  -8.8631  -8.8578  -8.8555  -8.3380  -8.2979  -8.2900  -8.2763
    -7.9944  -7.9913  -7.9619  -7.9597  -7.9310  -7.9138  -7.8909  -7.8746
     1.3310   1.3365   1.4239   1.4307   1.4601   1.4717   1.6411   1.7010
     2.1741   2.2692   2.2991   2.4243   2.5549   2.6064   2.8144   2.8621
     2.9099   2.9707   3.5378   3.5825   3.6430   3.6850   3.9809   4.2639
     4.2876   4.3086   4.3370   4.3630   4.4268   4.5479   4.6107   4.6486
     4.6797   4.7187   4.9398   4.9803   5.1971   5.2024   5.2471   5.2972
     5.5878   5.5959   5.6142   5.6253   5.7481   5.7551   6.1217   6.1440
     6.2405   6.3398   6.4067   6.5019   6.5755   6.6135   6.6223   6.6635
     6.7540   6.7798   6.8680   6.8810   6.9498   6.9637   7.0097   7.0244
     7.0850   7.0903   7.6818   7.6916   7.7221   7.7398   7.8473   7.8554
     9.8549   9.8572  10.5454  10.5726  10.6453  10.6649  11.7514  11.8551
    11.9037  11.9384  12.3048  12.3252  12.3269  12.3488  12.7146  12.8398
    12.8616  12.9267  13.2007  13.2291  13.3725  13.4417  13.5140  13.5555
    15.1387  15.1986  15.2330  15.3665  15.4063  15.6261  16.0058  16.0496
    16.1942  16.8877  17.1881  17.2681  17.3271

          k = 0.1667 0.3238 0.3325 ( 62942 PWs)   bands (ev):

   -66.2222 -66.2220 -66.2218 -66.2216 -66.2215 -66.2212 -66.2211 -66.2208
   -30.6233 -30.6206 -30.6173 -30.6146 -30.5937 -30.5905 -30.5850 -30.5809
   -30.5597 -30.5584 -30.5534 -30.5478 -30.5430 -30.5425 -30.5392 -30.5348
   -30.5017 -30.5008 -30.4991 -30.4985 -30.4767 -30.4741 -30.4737 -30.4711
   -20.3758 -20.3757 -20.3756 -20.3755 -20.3754 -20.3753 -20.3752 -20.3751
   -20.3667 -20.3665 -20.3661 -20.3658 -20.3654 -20.3649 -20.3647 -20.3642
   -20.3626 -20.3624 -20.3619 -20.3616 -20.3615 -20.3612 -20.3607 -20.3606
   -20.3598 -20.3595 -20.3592 -20.3592 -20.3583 -20.3580 -20.3579 -20.3577
   -20.3506 -20.3505 -20.3504 -20.3503 -20.3491 -20.3488 -20.3488 -20.3486
   -20.3271 -20.3270 -20.3256 -20.3256 -20.3248 -20.3247 -20.3234 -20.3234
   -20.3232 -20.3232 -20.3224 -20.3224 -20.3195 -20.3195 -20.3187 -20.3187
    -9.7261  -9.5513  -9.5203  -9.3527  -9.2965  -9.0845  -9.0422  -8.9487
    -8.9186  -8.8654  -8.8257  -8.7851  -8.3996  -8.3601  -8.2944  -8.2894
    -8.2801  -8.2364  -8.2216  -8.1679  -7.9639  -7.9452  -7.9208  -7.9029
     1.4625   1.4686   1.4780   1.4798   2.0266   2.0809   2.1376   2.1859
     2.2600   2.2966   2.3498   2.5264   2.8049   2.8200   2.8660   2.9104
     3.0949   3.1820   3.5740   3.5951   3.6346   3.7143   3.7723   3.8320
     3.9664   4.0784   4.1574   4.2084   4.2759   4.3948   4.4319   4.5399
     4.5587   4.6258   4.6728   4.7061   4.7555   4.8060   4.9233   5.0920
     5.1805   5.2195   5.2520   5.5301   5.6411   5.7539   5.9277   5.9469
     6.3943   6.4430   6.5046   6.5963   6.6234   6.6622   6.7842   6.8064
     6.8453   6.8961   6.9174   6.9422   6.9937   7.0605   7.0627   7.1052
     7.1667   7.1774   7.6164   7.6256   7.6629   7.7029   7.7323   7.7656
    10.4292  10.4536  10.6277  10.6744  11.0269  11.0845  11.8068  11.8615
    11.9040  11.9855  12.0262  12.1270  12.3709  12.4205  12.4664  12.5199
    12.7270  12.8583  12.9361  13.0630  13.1338  13.2268  13.4275  13.4562
    15.2420  15.3452  15.5477  15.7884  15.8975  15.9918  16.0343  16.6079
    16.6784  16.7763  16.9285  17.4120  17.5432

          k = 0.1667 0.3238-0.4988 ( 62926 PWs)   bands (ev):

   -66.2220 -66.2220 -66.2218 -66.2218 -66.2213 -66.2213 -66.2210 -66.2210
   -30.6219 -30.6219 -30.6159 -30.6159 -30.5919 -30.5919 -30.5827 -30.5827
   -30.5555 -30.5555 -30.5510 -30.5510 -30.5225 -30.5225 -30.5222 -30.5222
   -30.5195 -30.5195 -30.5190 -30.5190 -30.4754 -30.4754 -30.4728 -30.4728
   -20.3757 -20.3757 -20.3756 -20.3756 -20.3753 -20.3753 -20.3752 -20.3752
   -20.3666 -20.3666 -20.3659 -20.3659 -20.3651 -20.3651 -20.3644 -20.3644
   -20.3622 -20.3622 -20.3618 -20.3618 -20.3612 -20.3612 -20.3610 -20.3610
   -20.3595 -20.3595 -20.3593 -20.3593 -20.3581 -20.3581 -20.3578 -20.3578
   -20.3505 -20.3505 -20.3504 -20.3504 -20.3489 -20.3489 -20.3487 -20.3487
   -20.3259 -20.3259 -20.3259 -20.3259 -20.3244 -20.3244 -20.3244 -20.3244
   -20.3230 -20.3230 -20.3229 -20.3229 -20.3191 -20.3191 -20.3191 -20.3191
    -9.6029  -9.6029  -9.4268  -9.4268  -9.1226  -9.1226  -8.8838  -8.8838
    -8.7272  -8.7271  -8.6646  -8.6646  -8.6201  -8.6201  -8.5767  -8.5766
    -8.2899  -8.2899  -8.2536  -8.2536  -7.9428  -7.9428  -7.9243  -7.9243
     1.4730   1.4730   1.4859   1.4859   2.1732   2.1732   2.2790   2.2790
     2.8274   2.8275   3.0098   3.0098   3.0448   3.0448   3.0973   3.0973
     3.1319   3.1319   3.3453   3.3453   3.4078   3.4079   3.6357   3.6357
     3.8479   3.8479   3.9006   3.9006   3.9243   3.9243   4.1881   4.1881
     4.5814   4.5814   4.7227   4.7227   4.8152   4.8153   4.8547   4.8547
     4.9689   4.9689   5.3551   5.3551   5.7163   5.7164   5.7869   5.7869
     6.4973   6.4973   6.6009   6.6009   6.6597   6.6597   6.6945   6.6945
     6.9126   6.9126   6.9543   6.9543   7.0562   7.0562   7.3997   7.3997
     7.4241   7.4241   7.4486   7.4486   7.4956   7.4956   7.7126   7.7126
    10.6112  10.6112  11.1888  11.1888  11.2355  11.2355  11.6360  11.6360
    11.7247  11.7247  11.9954  11.9954  12.4024  12.4024  12.4998  12.4998
    12.7219  12.7219  12.8097  12.8097  13.0252  13.0252  13.4096  13.4096
    15.3132  15.3132  15.7977  15.7977  16.1835  16.1835  16.5153  16.5153
    16.8764  16.8764  17.1282  17.1282  17.7031

          k = 0.1667-0.4857 0.0000 ( 62960 PWs)   bands (ev):

   -66.2223 -66.2223 -66.2216 -66.2216 -66.2215 -66.2215 -66.2208 -66.2208
   -30.6098 -30.6098 -30.6037 -30.6037 -30.6029 -30.6029 -30.5963 -30.5963
   -30.5724 -30.5724 -30.5632 -30.5632 -30.5495 -30.5495 -30.5471 -30.5471
   -30.4818 -30.4818 -30.4784 -30.4784 -30.4765 -30.4765 -30.4679 -30.4679
   -20.3757 -20.3757 -20.3756 -20.3756 -20.3752 -20.3752 -20.3752 -20.3752
   -20.3661 -20.3661 -20.3655 -20.3655 -20.3654 -20.3654 -20.3648 -20.3648
   -20.3627 -20.3627 -20.3626 -20.3626 -20.3608 -20.3608 -20.3604 -20.3603
   -20.3599 -20.3599 -20.3591 -20.3591 -20.3583 -20.3583 -20.3578 -20.3578
   -20.3507 -20.3507 -20.3502 -20.3502 -20.3491 -20.3491 -20.3486 -20.3486
   -20.3282 -20.3282 -20.3268 -20.3268 -20.3240 -20.3240 -20.3236 -20.3236
   -20.3217 -20.3217 -20.3217 -20.3217 -20.3198 -20.3198 -20.3183 -20.3183
    -9.8095  -9.8095  -9.4698  -9.4698  -9.3619  -9.3619  -9.0836  -9.0836
    -8.6755  -8.6755  -8.6234  -8.6234  -8.6103  -8.6103  -8.6067  -8.6067
    -7.9798  -7.9798  -7.8989  -7.8989  -7.8541  -7.8541  -7.7790  -7.7790
     1.1439   1.1439   1.1701   1.1701   1.4664   1.4664   1.6187   1.6187
     2.4905   2.4905   2.9310   2.9310   3.0294   3.0294   3.0671   3.0671
     3.1630   3.1630   3.1867   3.1867   3.4099   3.4099   3.4735   3.4735
     3.5768   3.5769   4.2865   4.2865   4.5661   4.5661   4.8530   4.8530
     4.9328   4.9328   5.0215   5.0215   5.1584   5.1584   5.4100   5.4100
     5.6453   5.6453   5.6601   5.6601   5.9793   5.9793   6.0126   6.0126
     6.2334   6.2334   6.2733   6.2733   6.5116   6.5116   6.7079   6.7079
     6.8520   6.8520   6.9278   6.9278   6.9421   6.9421   7.3687   7.3687
     7.3980   7.3980   7.4039   7.4039   7.4295   7.4296   7.8765   7.8765
     9.6134   9.6134  11.0508  11.0508  11.1082  11.1082  11.2677  11.2677
    11.3300  11.3300  12.2906  12.2906  12.4401  12.4401  12.8671  12.8671
    13.1002  13.1002  13.2587  13.2587  13.3234  13.3234  13.4452  13.4452
    15.0894  15.0894  15.4760  15.4760  15.5158  15.5158  15.8265  15.8265
    16.4818  16.4818  17.6541  17.6542  17.9608

          k = 0.1667-0.4857 0.1663 ( 62958 PWs)   bands (ev):

   -66.2223 -66.2222 -66.2216 -66.2216 -66.2215 -66.2215 -66.2208 -66.2208
   -30.6092 -30.6092 -30.6040 -30.6040 -30.6023 -30.6023 -30.5967 -30.5967
   -30.5680 -30.5680 -30.5579 -30.5579 -30.5498 -30.5498 -30.5456 -30.5456
   -30.4863 -30.4862 -30.4840 -30.4839 -30.4763 -30.4763 -30.4699 -30.4699
   -20.3757 -20.3756 -20.3756 -20.3756 -20.3753 -20.3753 -20.3752 -20.3752
   -20.3661 -20.3660 -20.3656 -20.3656 -20.3654 -20.3654 -20.3648 -20.3648
   -20.3626 -20.3625 -20.3624 -20.3624 -20.3609 -20.3609 -20.3605 -20.3605
   -20.3599 -20.3599 -20.3591 -20.3591 -20.3582 -20.3582 -20.3578 -20.3578
   -20.3507 -20.3507 -20.3502 -20.3502 -20.3490 -20.3490 -20.3486 -20.3486
   -20.3279 -20.3279 -20.3265 -20.3265 -20.3241 -20.3241 -20.3236 -20.3236
   -20.3222 -20.3222 -20.3218 -20.3218 -20.3197 -20.3197 -20.3184 -20.3184
    -9.7541  -9.7541  -9.3864  -9.3861  -9.3746  -9.3745  -9.0490  -9.0490
    -8.6826  -8.6823  -8.6201  -8.6194  -8.6133  -8.6124  -8.6041  -8.6033
    -7.9917  -7.9910  -7.9636  -7.9635  -7.9237  -7.9233  -7.8831  -7.8830
     1.3326   1.3343   1.4303   1.4317   1.4700   1.4709   1.6897   1.6908
     2.5766   2.5776   2.9460   2.9482   3.0210   3.0397   3.0705   3.0836
     3.1592   3.1711   3.2131   3.2404   3.4319   3.4490   3.4807   3.4883
     3.5993   3.6034   4.2932   4.3189   4.3310   4.3613   4.7260   4.7648
     4.8216   4.8397   4.8917   4.9297   4.9400   4.9735   5.3345   5.3475
     5.3932   5.3966   5.6190   5.6460   5.6683   5.6803   6.1483   6.1501
[...]
    11.3364  11.3364  11.3364  11.3364  11.4768  11.4768  11.4768  11.4768
    11.9532  11.9532  11.9532  11.9532  12.0446  12.0446  12.0447  12.0447
    12.8534  12.8534  12.8534  12.8534  13.0274  13.0274  13.0274  13.0274
    15.3662  15.3662  15.3662  15.3662  16.6204  16.6204  16.6204  16.6204
    17.5559  17.5559  17.5559  17.5559  17.7241

          k =-0.5000 0.3238 0.0000 ( 62936 PWs)   bands (ev):

   -66.2221 -66.2221 -66.2218 -66.2218 -66.2213 -66.2213 -66.2210 -66.2210
   -30.6215 -30.6215 -30.6160 -30.6159 -30.5919 -30.5919 -30.5829 -30.5829
   -30.5665 -30.5664 -30.5649 -30.5648 -30.5166 -30.5166 -30.5152 -30.5152
   -30.5119 -30.5118 -30.5114 -30.5113 -30.4762 -30.4761 -30.4755 -30.4755
   -20.3759 -20.3759 -20.3755 -20.3755 -20.3754 -20.3754 -20.3750 -20.3750
   -20.3665 -20.3664 -20.3661 -20.3660 -20.3653 -20.3653 -20.3644 -20.3643
   -20.3630 -20.3630 -20.3621 -20.3621 -20.3609 -20.3609 -20.3602 -20.3602
   -20.3591 -20.3591 -20.3589 -20.3589 -20.3584 -20.3584 -20.3584 -20.3583
   -20.3500 -20.3499 -20.3498 -20.3497 -20.3495 -20.3494 -20.3493 -20.3493
   -20.3275 -20.3275 -20.3275 -20.3275 -20.3228 -20.3228 -20.3228 -20.3228
   -20.3217 -20.3217 -20.3217 -20.3217 -20.3203 -20.3202 -20.3202 -20.3202
    -9.6755  -9.6755  -9.5226  -9.5225  -9.1146  -9.1146  -8.9121  -8.9120
    -8.7019  -8.7018  -8.6645  -8.6644  -8.6119  -8.6119  -8.5641  -8.5641
    -8.2851  -8.2851  -8.2500  -8.2500  -7.8258  -7.8257  -7.8093  -7.8093
     1.1794   1.1794   1.1836   1.1836   2.1695   2.1695   2.2778   2.2779
     2.8138   2.8139   2.9498   2.9498   3.0093   3.0093   3.1039   3.1039
     3.1434   3.1434   3.3091   3.3091   3.3681   3.3681   3.5631   3.5631
     3.7951   3.7951   3.8439   3.8439   4.0725   4.0725   4.2481   4.2481
     4.6948   4.6948   4.7346   4.7346   4.9445   4.9445   5.0617   5.0617
     5.2469   5.2469   5.6118   5.6118   6.0993   6.0993   6.1127   6.1127
     6.2952   6.2952   6.3557   6.3557   6.4178   6.4178   6.6127   6.6128
     6.9140   6.9140   6.9553   6.9553   6.9918   6.9918   7.3867   7.3867
     7.4042   7.4042   7.4723   7.4723   7.5043   7.5043   7.7691   7.7691
    10.4034  10.4035  11.1064  11.1064  11.1426  11.1427  11.5123  11.5123
    11.7290  11.7290  11.9547  11.9547  12.5189  12.5189  12.5288  12.5288
    12.8681  12.8681  12.9249  12.9249  13.1233  13.1233  13.5980  13.5980
    15.0442  15.0443  15.4460  15.4460  16.1044  16.1045  16.5043  16.5043
    16.7218  16.7218  17.1111  17.1111  17.8282

          k =-0.5000 0.3238 0.1663 ( 62930 PWs)   bands (ev):

   -66.2220 -66.2220 -66.2218 -66.2217 -66.2213 -66.2213 -66.2211 -66.2211
   -30.6210 -30.6210 -30.6163 -30.6163 -30.5906 -30.5906 -30.5833 -30.5833
   -30.5609 -30.5609 -30.5602 -30.5601 -30.5163 -30.5163 -30.5156 -30.5156
   -30.5123 -30.5123 -30.5113 -30.5112 -30.4816 -30.4816 -30.4812 -30.4812
   -20.3759 -20.3759 -20.3755 -20.3755 -20.3754 -20.3754 -20.3751 -20.3750
   -20.3664 -20.3664 -20.3661 -20.3661 -20.3652 -20.3652 -20.3644 -20.3644
   -20.3629 -20.3628 -20.3620 -20.3620 -20.3610 -20.3610 -20.3603 -20.3603
   -20.3591 -20.3591 -20.3589 -20.3589 -20.3584 -20.3584 -20.3584 -20.3584
   -20.3499 -20.3499 -20.3497 -20.3497 -20.3495 -20.3495 -20.3494 -20.3493
   -20.3272 -20.3272 -20.3272 -20.3272 -20.3231 -20.3231 -20.3231 -20.3231
   -20.3217 -20.3217 -20.3217 -20.3217 -20.3204 -20.3204 -20.3204 -20.3204
    -9.6079  -9.6078  -9.4407  -9.4406  -9.1267  -9.1267  -8.8908  -8.8907
    -8.7163  -8.7163  -8.6565  -8.6564  -8.6053  -8.6053  -8.5675  -8.5675
    -8.2828  -8.2828  -8.2545  -8.2545  -7.9485  -7.9485  -7.9317  -7.9317
     1.4373   1.4373   1.4464   1.4464   2.1737   2.1737   2.2704   2.2704
     2.8884   2.8884   2.9665   2.9665   3.0117   3.0117   3.1192   3.1192
     3.1556   3.1556   3.3743   3.3743   3.4186   3.4186   3.6096   3.6096
     3.7891   3.7891   3.8561   3.8561   4.0673   4.0673   4.2459   4.2459
     4.5515   4.5515   4.6772   4.6772   4.8267   4.8267   4.8524   4.8524
     4.9695   4.9695   5.3545   5.3545   5.7075   5.7076   5.7782   5.7782
     6.5015   6.5016   6.6185   6.6185   6.6759   6.6759   6.7013   6.7013
     6.8947   6.8947   6.9594   6.9595   7.0437   7.0437   7.3822   7.3822
     7.4087   7.4087   7.4787   7.4787   7.5056   7.5056   7.7415   7.7415
    10.5680  10.5680  11.1825  11.1825  11.2318  11.2318  11.5518  11.5518
    11.7428  11.7428  11.9961  11.9961  12.5057  12.5057  12.5167  12.5167
    12.7625  12.7625  12.8535  12.8535  12.9686  12.9686  13.4496  13.4496
    15.3122  15.3122  15.7586  15.7586  16.1763  16.1764  16.4967  16.4967
    16.7744  16.7744  17.1539  17.1539  17.6677

          k =-0.5000 0.3238 0.3325 ( 62920 PWs)   bands (ev):

   -66.2219 -66.2219 -66.2216 -66.2216 -66.2215 -66.2215 -66.2212 -66.2212
   -30.6199 -30.6199 -30.6172 -30.6172 -30.5882 -30.5881 -30.5844 -30.5843
   -30.5465 -30.5465 -30.5458 -30.5458 -30.5179 -30.5178 -30.5169 -30.5169
   -30.5134 -30.5134 -30.5100 -30.5100 -30.4959 -30.4959 -30.4951 -30.4951
   -20.3758 -20.3758 -20.3756 -20.3756 -20.3753 -20.3753 -20.3751 -20.3751
   -20.3664 -20.3663 -20.3662 -20.3661 -20.3650 -20.3650 -20.3645 -20.3645
   -20.3625 -20.3625 -20.3618 -20.3618 -20.3612 -20.3612 -20.3607 -20.3606
   -20.3591 -20.3590 -20.3588 -20.3588 -20.3585 -20.3585 -20.3584 -20.3584
   -20.3498 -20.3498 -20.3497 -20.3497 -20.3495 -20.3495 -20.3494 -20.3494
   -20.3264 -20.3264 -20.3264 -20.3263 -20.3239 -20.3239 -20.3239 -20.3239
   -20.3215 -20.3215 -20.3215 -20.3215 -20.3207 -20.3207 -20.3207 -20.3207
    -9.4381  -9.4381  -9.2161  -9.2161  -9.1689  -9.1689  -8.8120  -8.8120
    -8.7688  -8.7687  -8.6306  -8.6305  -8.5878  -8.5877  -8.5740  -8.5739
    -8.3025  -8.3025  -8.2688  -8.2688  -8.2441  -8.2441  -8.1943  -8.1942
     2.0408   2.0408   2.1477   2.1477   2.1861   2.1861   2.3355   2.3355
     2.9721   2.9721   3.0066   3.0067   3.0796   3.0796   3.1395   3.1395
     3.2054   3.2054   3.5519   3.5519   3.5894   3.5894   3.6953   3.6953
     3.7674   3.7674   3.9018   3.9019   4.0428   4.0428   4.0552   4.0552
     4.1902   4.1902   4.3673   4.3673   4.4532   4.4533   4.6811   4.6811
     4.7680   4.7681   4.8783   4.8783   4.8936   4.8936   5.2032   5.2032
     6.7378   6.7378   6.8010   6.8010   6.8688   6.8688   6.8988   6.8988
     7.0158   7.0158   7.1049   7.1049   7.2009   7.2009   7.3663   7.3663
     7.4096   7.4096   7.4860   7.4860   7.4940   7.4940   7.6589   7.6589
    11.0161  11.0161  11.4071  11.4071  11.5000  11.5000  11.6231  11.6232
    11.8041  11.8041  12.1555  12.1555  12.2605  12.2605  12.3790  12.3790
    12.5517  12.5517  12.6280  12.6280  12.6583  12.6583  13.0679  13.0679
    15.9427  15.9427  16.3785  16.3785  16.4234  16.4235  16.6340  16.6340
    16.9881  16.9881  17.2317  17.2317  17.3785

          k =-0.5000 0.3238-0.4988 ( 62912 PWs)   bands (ev):

   -66.2217 -66.2217 -66.2217 -66.2217 -66.2214 -66.2214 -66.2214 -66.2214
   -30.6186 -30.6185 -30.6185 -30.6185 -30.5860 -30.5860 -30.5860 -30.5860
   -30.5288 -30.5288 -30.5288 -30.5288 -30.5265 -30.5265 -30.5265 -30.5265
   -30.5099 -30.5099 -30.5099 -30.5099 -30.5059 -30.5059 -30.5059 -30.5059
   -20.3757 -20.3757 -20.3757 -20.3757 -20.3752 -20.3752 -20.3752 -20.3752
   -20.3663 -20.3663 -20.3662 -20.3662 -20.3648 -20.3648 -20.3648 -20.3648
   -20.3620 -20.3620 -20.3620 -20.3620 -20.3611 -20.3611 -20.3611 -20.3611
   -20.3589 -20.3589 -20.3589 -20.3589 -20.3585 -20.3585 -20.3584 -20.3584
   -20.3497 -20.3497 -20.3497 -20.3497 -20.3495 -20.3495 -20.3495 -20.3495
   -20.3252 -20.3252 -20.3252 -20.3252 -20.3251 -20.3251 -20.3251 -20.3251
   -20.3212 -20.3212 -20.3212 -20.3212 -20.3211 -20.3211 -20.3211 -20.3211
    -9.2666  -9.2666  -9.2666  -9.2666  -8.9358  -8.9358  -8.9358  -8.9357
    -8.6541  -8.6541  -8.6540  -8.6540  -8.5267  -8.5267  -8.5267  -8.5266
    -8.5056  -8.5056  -8.5055  -8.5055  -8.2569  -8.2569  -8.2569  -8.2569
     2.1796   2.1796   2.1796   2.1797   2.9048   2.9048   2.9048   2.9048
     3.0019   3.0019   3.0019   3.0019   3.0994   3.0994   3.0994   3.0994
     3.2451   3.2451   3.2452   3.2452   3.7090   3.7090   3.7090   3.7090
     3.8311   3.8311   3.8311   3.8312   3.9431   3.9431   3.9432   3.9432
     4.1472   4.1472   4.1472   4.1473   4.2520   4.2520   4.2520   4.2520
     4.5544   4.5544   4.5544   4.5544   4.9231   4.9231   4.9231   4.9231
     6.8143   6.8143   6.8143   6.8143   6.8986   6.8986   6.8986   6.8986
     7.2535   7.2535   7.2535   7.2535   7.3197   7.3197   7.3197   7.3197
     7.4165   7.4165   7.4166   7.4166   7.5473   7.5473   7.5473   7.5473
    11.5516  11.5516  11.5516  11.5516  11.6692  11.6692  11.6692  11.6692
    11.9628  11.9628  11.9628  11.9628  12.0757  12.0757  12.0757  12.0757
    12.4971  12.4971  12.4971  12.4971  12.6840  12.6840  12.6840  12.6840
    16.3083  16.3083  16.3083  16.3084  16.7937  16.7937  16.7938  16.7938
    17.3448  17.3448  17.3448  17.3448  17.7262

          k =-0.5000-0.4857 0.0000 ( 62952 PWs)   bands (ev):

   -66.2220 -66.2219 -66.2219 -66.2219 -66.2212 -66.2212 -66.2211 -66.2211
   -30.6061 -30.6061 -30.6056 -30.6056 -30.5996 -30.5996 -30.5990 -30.5990
   -30.5664 -30.5664 -30.5662 -30.5662 -30.5156 -30.5156 -30.5149 -30.5149
   -30.5130 -30.5130 -30.5122 -30.5122 -30.4760 -30.4760 -30.4759 -30.4759
   -20.3757 -20.3756 -20.3756 -20.3756 -20.3752 -20.3752 -20.3752 -20.3752
   -20.3658 -20.3658 -20.3657 -20.3657 -20.3652 -20.3652 -20.3651 -20.3651
   -20.3627 -20.3627 -20.3626 -20.3626 -20.3606 -20.3606 -20.3605 -20.3605
   -20.3591 -20.3591 -20.3590 -20.3590 -20.3585 -20.3585 -20.3584 -20.3584
   -20.3499 -20.3499 -20.3498 -20.3498 -20.3494 -20.3494 -20.3494 -20.3494
   -20.3275 -20.3275 -20.3275 -20.3275 -20.3228 -20.3228 -20.3228 -20.3228
   -20.3217 -20.3217 -20.3217 -20.3217 -20.3203 -20.3202 -20.3202 -20.3202
    -9.5851  -9.5851  -9.5805  -9.5805  -8.8612  -8.8612  -8.8418  -8.8418
    -8.7430  -8.7430  -8.7272  -8.7272  -8.5501  -8.5501  -8.5174  -8.5173
    -8.4990  -8.4990  -8.4681  -8.4680  -7.8178  -7.8178  -7.8177  -7.8177
     1.1810   1.1810   1.1852   1.1852   2.8310   2.8310   2.9225   2.9225
     2.9449   2.9450   2.9840   2.9840   3.0902   3.0902   3.1382   3.1382
     3.1651   3.1651   3.2551   3.2552   3.3251   3.3251   3.3594   3.3594
     3.3915   3.3916   3.6703   3.6703   4.0777   4.0777   4.1575   4.1575
     4.1804   4.1804   4.2665   4.2665   4.9799   4.9799   5.0222   5.0222
     5.3337   5.3338   5.4026   5.4026   6.1116   6.1117   6.1164   6.1164
     6.3859   6.3859   6.4048   6.4048   6.4300   6.4300   6.4766   6.4766
     7.1480   7.1480   7.1627   7.1627   7.2141   7.2141   7.3102   7.3102
     7.3452   7.3453   7.4205   7.4205   7.5252   7.5252   7.5295   7.5296
    11.0259  11.0259  11.0604  11.0604  11.1457  11.1457  11.1832  11.1832
    12.0265  12.0265  12.0762  12.0762  12.1654  12.1654  12.1733  12.1733
    12.8792  12.8792  12.8948  12.8948  13.2935  13.2935  13.3380  13.3380
    15.3140  15.3140  15.3203  15.3203  16.5759  16.5759  16.6548  16.6548
    17.3478  17.3479  17.3872  17.3873  17.4840

          k =-0.5000-0.4857 0.1663 ( 62996 PWs)   bands (ev):

   -66.2219 -66.2219 -66.2219 -66.2219 -66.2212 -66.2212 -66.2212 -66.2212
   -30.6054 -30.6054 -30.6049 -30.6049 -30.6000 -30.6000 -30.5993 -30.5993
   -30.5611 -30.5611 -30.5609 -30.5609 -30.5156 -30.5155 -30.5150 -30.5150
   -30.5132 -30.5132 -30.5123 -30.5123 -30.4816 -30.4816 -30.4815 -30.4815
   -20.3756 -20.3756 -20.3756 -20.3756 -20.3753 -20.3752 -20.3752 -20.3752
   -20.3658 -20.3658 -20.3657 -20.3657 -20.3652 -20.3652 -20.3651 -20.3651
   -20.3625 -20.3625 -20.3625 -20.3625 -20.3607 -20.3607 -20.3607 -20.3607
   -20.3591 -20.3591 -20.3590 -20.3590 -20.3585 -20.3585 -20.3585 -20.3585
   -20.3498 -20.3498 -20.3498 -20.3498 -20.3494 -20.3494 -20.3494 -20.3494
   -20.3272 -20.3272 -20.3272 -20.3272 -20.3231 -20.3231 -20.3231 -20.3231
   -20.3217 -20.3217 -20.3217 -20.3217 -20.3204 -20.3204 -20.3204 -20.3204
    -9.5081  -9.5081  -9.5029  -9.5029  -8.8760  -8.8759  -8.8565  -8.8565
    -8.7291  -8.7291  -8.7127  -8.7127  -8.5475  -8.5475  -8.5171  -8.5170
    -8.4991  -8.4991  -8.4706  -8.4706  -7.9406  -7.9406  -7.9405  -7.9405
     1.4431   1.4431   1.4482   1.4482   2.8417   2.8417   2.9359   2.9359
     2.9465   2.9465   2.9945   2.9945   3.0823   3.0823   3.1157   3.1157
     3.2346   3.2346   3.2948   3.2948   3.3849   3.3849   3.4085   3.4085
     3.4367   3.4367   3.6980   3.6980   4.0828   4.0828   4.1458   4.1459
     4.1828   4.1828   4.2568   4.2568   4.7058   4.7058   4.8066   4.8067
     5.0306   5.0306   5.1296   5.1296   5.7157   5.7157   5.7321   5.7321
     6.5766   6.5767   6.6424   6.6424   6.6732   6.6732   6.7163   6.7163
     7.1337   7.1337   7.1693   7.1693   7.2410   7.2410   7.2983   7.2983
     7.3377   7.3377   7.4232   7.4232   7.5058   7.5058   7.5428   7.5428
    11.1123  11.1123  11.1691  11.1691  11.2221  11.2221  11.3035  11.3035
    12.0333  12.0333  12.0764  12.0764  12.1655  12.1655  12.1765  12.1765
    12.7511  12.7511  12.8278  12.8278  13.1232  13.1232  13.1915  13.1915
    15.6189  15.6189  15.6351  15.6351  16.6442  16.6442  16.7174  16.7174
    17.3398  17.3399  17.3934  17.3936  17.4819

          k =-0.5000-0.4857 0.3325 ( 62904 PWs)   bands (ev):

   -66.2218 -66.2217 -66.2217 -66.2217 -66.2214 -66.2214 -66.2213 -66.2213
   -30.6040 -30.6040 -30.6034 -30.6034 -30.6009 -30.6009 -30.6003 -30.6003
   -30.5464 -30.5464 -30.5462 -30.5462 -30.5174 -30.5174 -30.5171 -30.5171
   -30.5125 -30.5125 -30.5116 -30.5116 -30.4958 -30.4958 -30.4956 -30.4956
   -20.3755 -20.3755 -20.3755 -20.3755 -20.3753 -20.3753 -20.3753 -20.3753
   -20.3656 -20.3656 -20.3655 -20.3655 -20.3653 -20.3653 -20.3652 -20.3652
   -20.3622 -20.3622 -20.3621 -20.3621 -20.3611 -20.3611 -20.3610 -20.3610
   -20.3590 -20.3590 -20.3589 -20.3589 -20.3585 -20.3585 -20.3585 -20.3585
   -20.3498 -20.3498 -20.3497 -20.3497 -20.3495 -20.3495 -20.3495 -20.3495
   -20.3264 -20.3264 -20.3263 -20.3263 -20.3239 -20.3239 -20.3239 -20.3239
   -20.3215 -20.3215 -20.3215 -20.3215 -20.3207 -20.3207 -20.3207 -20.3207
    -9.3028  -9.3028  -9.2950  -9.2950  -8.9300  -8.9299  -8.9111  -8.9111
    -8.6759  -8.6759  -8.6602  -8.6602  -8.5407  -8.5407  -8.5199  -8.5198
    -8.4958  -8.4958  -8.4775  -8.4775  -8.2348  -8.2348  -8.2337  -8.2337
     2.1344   2.1344   2.1456   2.1456   2.8660   2.8660   2.9155   2.9156
     2.9765   2.9765   3.0162   3.0163   3.0838   3.0838   3.1108   3.1109
     3.3039   3.3039   3.3435   3.3435   3.4916   3.4916   3.5476   3.5476
     3.6728   3.6728   3.8074   3.8074   4.0778   4.0778   4.0884   4.0884
     4.1410   4.1410   4.1970   4.1971   4.3017   4.3017   4.3730   4.3730
     4.5406   4.5406   4.6386   4.6386   4.9116   4.9116   4.9299   4.9299
     6.8512   6.8513   6.9510   6.9510   7.0066   7.0066   7.0217   7.0217
     7.1240   7.1240   7.1967   7.1967   7.2602   7.2602   7.2788   7.2789
     7.3458   7.3458   7.4319   7.4319   7.4814   7.4815   7.5329   7.5330
    11.3846  11.3846  11.4444  11.4444  11.5136  11.5136  11.6305  11.6305
    12.0326  12.0326  12.0855  12.0855  12.1308  12.1308  12.2062  12.2062
    12.3778  12.3778  12.5316  12.5316  12.6956  12.6956  12.7911  12.7911
    16.4169  16.4169  16.4729  16.4729  16.8509  16.8510  16.8976  16.8976
    17.2632  17.2633  17.3829  17.3830  17.4757

          k =-0.5000-0.4857-0.4988 ( 62848 PWs)   bands (ev):

   -66.2216 -66.2216 -66.2216 -66.2215 -66.2215 -66.2215 -66.2215 -66.2215
   -30.6024 -30.6024 -30.6024 -30.6024 -30.6018 -30.6018 -30.6018 -30.6018
   -30.5287 -30.5287 -30.5287 -30.5287 -30.5266 -30.5266 -30.5266 -30.5266
   -30.5092 -30.5092 -30.5092 -30.5092 -30.5071 -30.5071 -30.5071 -30.5071
   -20.3754 -20.3754 -20.3754 -20.3754 -20.3754 -20.3754 -20.3754 -20.3754
   -20.3655 -20.3655 -20.3655 -20.3655 -20.3654 -20.3654 -20.3654 -20.3654
   -20.3618 -20.3618 -20.3618 -20.3618 -20.3615 -20.3615 -20.3614 -20.3614
   -20.3589 -20.3589 -20.3589 -20.3589 -20.3586 -20.3586 -20.3586 -20.3586
   -20.3497 -20.3497 -20.3497 -20.3497 -20.3496 -20.3495 -20.3495 -20.3495
   -20.3252 -20.3252 -20.3252 -20.3252 -20.3251 -20.3251 -20.3251 -20.3251
   -20.3212 -20.3212 -20.3212 -20.3212 -20.3211 -20.3211 -20.3211 -20.3211
    -9.0681  -9.0681  -9.0681  -9.0681  -9.0523  -9.0523  -9.0523  -9.0523
    -8.5505  -8.5505  -8.5505  -8.5505  -8.5203  -8.5203  -8.5202  -8.5202
    -8.5050  -8.5050  -8.5050  -8.5050  -8.4851  -8.4851  -8.4850  -8.4850
     2.8220   2.8220   2.8220   2.8221   2.9070   2.9070   2.9070   2.9070
     3.0168   3.0169   3.0169   3.0169   3.1164   3.1164   3.1164   3.1164
     3.2292   3.2292   3.2292   3.2292   3.3859   3.3859   3.3860   3.3860
     4.0083   4.0083   4.0083   4.0083   4.0359   4.0359   4.0359   4.0359
     4.1488   4.1488   4.1488   4.1488   4.2060   4.2060   4.2060   4.2060
     4.2811   4.2811   4.2811   4.2811   4.3594   4.3594   4.3594   4.3594
     7.0041   7.0041   7.0041   7.0041   7.1420   7.1420   7.1420   7.1420
     7.1887   7.1887   7.1887   7.1887   7.2454   7.2454   7.2454   7.2454
     7.4241   7.4241   7.4241   7.4242   7.4819   7.4819   7.4819   7.4819
    11.7646  11.7646  11.7646  11.7646  11.8110  11.8110  11.8110  11.8110
    11.9912  11.9912  11.9912  11.9912  12.1418  12.1418  12.1418  12.1418
    12.2578  12.2578  12.2578  12.2578  12.3494  12.3494  12.3494  12.3494
    16.9842  16.9842  16.9843  16.9843  17.0705  17.0705  17.0706  17.0706
    17.4254  17.4254  17.4254  17.4254  17.4570

     the Fermi energy is     9.6403 ev

!    total energy              =   -6260.69105844 Ry
     Harris-Foulkes estimate   =   -6260.69105844 Ry
     estimated scf accuracy    <          2.8E-09 Ry

     The total energy is the sum of the following terms:

     one-electron contribution =   -4764.73566109 Ry
     hartree contribution      =    2618.46233206 Ry
     xc contribution           =    -966.32899925 Ry
     ewald contribution        =   -3148.08871426 Ry
     smearing contrib. (-TS)   =      -0.00001590 Ry

     convergence has been achieved in  13 iterations

     Writing output data file Landau_12.save
 
     init_run     :     41.24s CPU     42.88s WALL (       1 calls)
     electrons    :   1637.94s CPU   1667.92s WALL (       1 calls)

     Called by init_run:
     wfcinit      :     37.81s CPU     39.31s WALL (       1 calls)
     potinit      :      1.38s CPU      1.41s WALL (       1 calls)

     Called by electrons:
     c_bands      :   1436.44s CPU   1464.60s WALL (      13 calls)
     sum_band     :    194.05s CPU    194.95s WALL (      13 calls)
     v_of_rho     :      1.85s CPU      1.87s WALL (      14 calls)
     mix_rho      :      3.58s CPU      4.10s WALL (      13 calls)

     Called by c_bands:
     init_us_2    :     15.10s CPU     15.63s WALL (      54 calls)
     cegterg      :   1225.21s CPU   1252.18s WALL (      26 calls)

     Called by sum_band:

     Called by *egterg:
     h_psi        :    962.37s CPU    966.33s WALL (     123 calls)
     g_psi        :      3.87s CPU      3.88s WALL (      95 calls)
     cdiaghg      :     15.19s CPU     15.22s WALL (     121 calls)

     Called by h_psi:
     h_psi:pot    :    954.84s CPU    958.56s WALL (     123 calls)
     h_psi:calbec :    110.14s CPU    112.60s WALL (     123 calls)
     vloc_psi     :    725.64s CPU    726.49s WALL (     123 calls)
     add_vuspsi   :    119.05s CPU    119.47s WALL (     123 calls)

     General routines
     calbec       :    110.14s CPU    112.60s WALL (     123 calls)
     fft          :      1.11s CPU      1.12s WALL (      56 calls)
     fftw         :    722.35s CPU    722.87s WALL (   33934 calls)
 
     Parallel routines
 
     PWSCF        : 28m 1.09s CPU    28m36.22s WALL

 
   This run was terminated on:   2:57:34  21Mar2020            

=------------------------------------------------------------------------------=
   JOB DONE.
=------------------------------------------------------------------------------=
