
     Program PWSCF v.6.4.1 starts on 22Nov2019 at  0: 5:41 

     This program is part of the open-source Quantum ESPRESSO suite
     for quantum simulation of materials; please cite
         "P. Giannozzi et al., J. Phys.:Condens. Matter 21 395502 (2009);
         "P. Giannozzi et al., J. Phys.:Condens. Matter 29 465901 (2017);
          URL http://www.quantum-espresso.org", 
     in publications or presentations arising from this work. More details at
     http://www.quantum-espresso.org/quote

     Parallel version (MPI), running on    40 processors

     MPI processes distributed on     4 nodes
     K-points division:     npool     =      40
     Reading input from scf.in

     Current dimensions of program PWSCF are:
     Max number of different atomic species (ntypx) = 10
     Max number of k-points (npk) =  40000
     Max angular momentum in pseudopotentials (lmaxx) =  3

     Subspace diagonalization in iterative solution of the eigenvalue problem:
     a serial algorithm will be used

     Message from routine setup:
     using ibrav=0 with symmetry is DISCOURAGED, use correct ibrav instead
 
     G-vector sticks info
     --------------------
     sticks:   dense  smooth     PW     G-vecs:    dense   smooth      PW
     Sum        7727    7727   2061               504607   504607   70003
 


     bravais-lattice index     =            0
     lattice parameter (alat)  =      14.0601  a.u.
     unit-cell volume          =    2841.6683 (a.u.)^3
     number of atoms/cell      =           32
     number of atomic types    =            2
     number of electrons       =       368.15
     number of Kohn-Sham states=          221
     kinetic-energy cutoff     =     120.0000  Ry
     charge density cutoff     =     480.0000  Ry
     convergence threshold     =      1.0E-08
     mixing beta               =       0.7000
     number of iterations used =            8  plain     mixing
     Exchange-correlation      = SLA PW NOGX NOGC ( 1  4  0  0 0 0)

     celldm(1)=  14.060057  celldm(2)=   0.000000  celldm(3)=   0.000000
     celldm(4)=   0.000000  celldm(5)=   0.000000  celldm(6)=   0.000000

     crystal axes: (cart. coord. in units of alat)
               a(1) = (   1.000000   0.000000   0.000000 )  
               a(2) = (   0.000000   1.023006   0.000000 )  
               a(3) = (   0.000000   0.000000   0.999388 )  

     reciprocal axes: (cart. coord. in units 2 pi/alat)
               b(1) = (  1.000000  0.000000  0.000000 )  
               b(2) = (  0.000000  0.977511  0.000000 )  
               b(3) = (  0.000000  0.000000  1.000613 )  


     PseudoPot. # 1 for W  read from file:
     /cluster/scratch/mnoe/QE/pps/W_ONCV_LDA-4.0.upf
     MD5 check sum: ba0307d5d4cd419d6f1d13dc49d7c13a
     Pseudo is Norm-conserving + core correction, Zval = 28.0
     Generated using ONCVPSP code by D. R. Hamann
     Using radial grid of 1380 points,  8 beta functions with: 
                l(1) =   0
                l(2) =   0
                l(3) =   1
                l(4) =   1
                l(5) =   2
                l(6) =   2
                l(7) =   3
                l(8) =   3

     PseudoPot. # 2 for O  read from file:
     /cluster/scratch/mnoe/QE/pps/O_ONCV_LDA-3.0.upf
     MD5 check sum: b55cdb4f45ae2203d24ad12cf8d61a31
     Pseudo is Norm-conserving + core correction, Zval =  6.0
     Generated using ONCVPSP code by D. R. Hamann
     Using radial grid of  926 points,  5 beta functions with: 
                l(1) =   0
                l(2) =   0
                l(3) =   1
                l(4) =   1
                l(5) =   2

     atomic species   valence    mass     pseudopotential
        W             28.00   183.84000     W ( 1.00)
        O              6.00    15.99940     O ( 1.00)

      8 Sym. Ops., with inversion, found ( 6 have fractional translation)



   Cartesian axes

     site n.     atom                  positions (alat units)
         1           W   tau(   1) = (   0.2393600   0.2963350   0.0100438  )
         2           W   tau(   2) = (   0.7606400   0.7266710   0.9893437  )
         3           W   tau(   3) = (   0.2606400   0.2151680   0.5097376  )
         4           W   tau(   4) = (   0.7393600   0.8078379   0.4896500  )
         5           W   tau(   5) = (   0.7606400   0.2963350   0.4896500  )
         6           W   tau(   6) = (   0.2393600   0.7266710   0.5097376  )
         7           W   tau(   7) = (   0.7393600   0.2151680   0.9893437  )
         8           W   tau(   8) = (   0.2606400   0.8078379   0.0100438  )
         9           O   tau(   9) = (   0.2303800   0.0236312   0.0031181  )
        10           O   tau(  10) = (   0.7696200   0.9993748   0.9962695  )
        11           O   tau(  11) = (   0.2696200   0.4878717   0.5028119  )
        12           O   tau(  12) = (   0.7303800   0.5351342   0.4965757  )
        13           O   tau(  13) = (   0.7696200   0.0236312   0.4965757  )
        14           O   tau(  14) = (   0.2303800   0.9993748   0.5028119  )
        15           O   tau(  15) = (   0.7303800   0.4878717   0.9962695  )
        16           O   tau(  16) = (   0.2696200   0.5351342   0.0031181  )
        17           O   tau(  17) = (   0.5029100   0.2351584   0.4896119  )
        18           O   tau(  18) = (   0.4970900   0.7878476   0.5097757  )
        19           O   tau(  19) = (   0.9970900   0.2763446   0.9893057  )
        20           O   tau(  20) = (   0.0029100   0.7466614   0.0100819  )
        21           O   tau(  21) = (   0.4970900   0.2351584   0.0100819  )
        22           O   tau(  22) = (   0.5029100   0.7878476   0.9893057  )
        23           O   tau(  23) = (   0.0029100   0.2763446   0.5097757  )
        24           O   tau(  24) = (   0.9970900   0.7466614   0.4896119  )
        25           O   tau(  25) = (   0.7399120   0.2512503   0.7451334  )
        26           O   tau(  26) = (   0.2600881   0.7717558   0.2542542  )
        27           O   tau(  27) = (   0.7600881   0.2602527   0.2454396  )
        28           O   tau(  28) = (   0.2399119   0.7627532   0.7539480  )
        29           O   tau(  29) = (   0.2600881   0.2512503   0.7539480  )
        30           O   tau(  30) = (   0.7399120   0.7717558   0.2454396  )
        31           O   tau(  31) = (   0.2399119   0.2602527   0.2542542  )
        32           O   tau(  32) = (   0.7600881   0.7627532   0.7451334  )

     number of k points=    64  gaussian smearing, width (Ry)=  0.0007
                       cart. coord. in units 2pi/alat
        k(    1) = (   0.0000000   0.0000000   0.0000000), wk =   0.0092593
        k(    2) = (   0.0000000   0.0000000   0.1667688), wk =   0.0185185
        k(    3) = (   0.0000000   0.0000000   0.3335376), wk =   0.0185185
        k(    4) = (   0.0000000   0.0000000  -0.5003064), wk =   0.0092593
        k(    5) = (   0.0000000   0.1629186   0.0000000), wk =   0.0185185
        k(    6) = (   0.0000000   0.1629186   0.1667688), wk =   0.0370370
        k(    7) = (   0.0000000   0.1629186   0.3335376), wk =   0.0370370
        k(    8) = (   0.0000000   0.1629186  -0.5003064), wk =   0.0185185
        k(    9) = (   0.0000000   0.3258371   0.0000000), wk =   0.0185185
        k(   10) = (   0.0000000   0.3258371   0.1667688), wk =   0.0370370
        k(   11) = (   0.0000000   0.3258371   0.3335376), wk =   0.0370370
        k(   12) = (   0.0000000   0.3258371  -0.5003064), wk =   0.0185185
        k(   13) = (   0.0000000  -0.4887557   0.0000000), wk =   0.0092593
        k(   14) = (   0.0000000  -0.4887557   0.1667688), wk =   0.0185185
        k(   15) = (   0.0000000  -0.4887557   0.3335376), wk =   0.0185185
        k(   16) = (   0.0000000  -0.4887557  -0.5003064), wk =   0.0092593
        k(   17) = (   0.1666667   0.0000000   0.0000000), wk =   0.0185185
        k(   18) = (   0.1666667   0.0000000   0.1667688), wk =   0.0370370
        k(   19) = (   0.1666667   0.0000000   0.3335376), wk =   0.0370370
        k(   20) = (   0.1666667   0.0000000  -0.5003064), wk =   0.0185185
        k(   21) = (   0.1666667   0.1629186   0.0000000), wk =   0.0370370
        k(   22) = (   0.1666667   0.1629186   0.1667688), wk =   0.0740741
        k(   23) = (   0.1666667   0.1629186   0.3335376), wk =   0.0740741
        k(   24) = (   0.1666667   0.1629186  -0.5003064), wk =   0.0370370
        k(   25) = (   0.1666667   0.3258371   0.0000000), wk =   0.0370370
        k(   26) = (   0.1666667   0.3258371   0.1667688), wk =   0.0740741
        k(   27) = (   0.1666667   0.3258371   0.3335376), wk =   0.0740741
        k(   28) = (   0.1666667   0.3258371  -0.5003064), wk =   0.0370370
        k(   29) = (   0.1666667  -0.4887557   0.0000000), wk =   0.0185185
        k(   30) = (   0.1666667  -0.4887557   0.1667688), wk =   0.0370370
        k(   31) = (   0.1666667  -0.4887557   0.3335376), wk =   0.0370370
        k(   32) = (   0.1666667  -0.4887557  -0.5003064), wk =   0.0185185
        k(   33) = (   0.3333333   0.0000000   0.0000000), wk =   0.0185185
        k(   34) = (   0.3333333   0.0000000   0.1667688), wk =   0.0370370
        k(   35) = (   0.3333333   0.0000000   0.3335376), wk =   0.0370370
        k(   36) = (   0.3333333   0.0000000  -0.5003064), wk =   0.0185185
        k(   37) = (   0.3333333   0.1629186   0.0000000), wk =   0.0370370
        k(   38) = (   0.3333333   0.1629186   0.1667688), wk =   0.0740741
        k(   39) = (   0.3333333   0.1629186   0.3335376), wk =   0.0740741
        k(   40) = (   0.3333333   0.1629186  -0.5003064), wk =   0.0370370
        k(   41) = (   0.3333333   0.3258371   0.0000000), wk =   0.0370370
        k(   42) = (   0.3333333   0.3258371   0.1667688), wk =   0.0740741
        k(   43) = (   0.3333333   0.3258371   0.3335376), wk =   0.0740741
        k(   44) = (   0.3333333   0.3258371  -0.5003064), wk =   0.0370370
        k(   45) = (   0.3333333  -0.4887557   0.0000000), wk =   0.0185185
        k(   46) = (   0.3333333  -0.4887557   0.1667688), wk =   0.0370370
        k(   47) = (   0.3333333  -0.4887557   0.3335376), wk =   0.0370370
        k(   48) = (   0.3333333  -0.4887557  -0.5003064), wk =   0.0185185
        k(   49) = (  -0.5000000   0.0000000   0.0000000), wk =   0.0092593
        k(   50) = (  -0.5000000   0.0000000   0.1667688), wk =   0.0185185
        k(   51) = (  -0.5000000   0.0000000   0.3335376), wk =   0.0185185
        k(   52) = (  -0.5000000   0.0000000  -0.5003064), wk =   0.0092593
        k(   53) = (  -0.5000000   0.1629186   0.0000000), wk =   0.0185185
        k(   54) = (  -0.5000000   0.1629186   0.1667688), wk =   0.0370370
        k(   55) = (  -0.5000000   0.1629186   0.3335376), wk =   0.0370370
        k(   56) = (  -0.5000000   0.1629186  -0.5003064), wk =   0.0185185
        k(   57) = (  -0.5000000   0.3258371   0.0000000), wk =   0.0185185
        k(   58) = (  -0.5000000   0.3258371   0.1667688), wk =   0.0370370
        k(   59) = (  -0.5000000   0.3258371   0.3335376), wk =   0.0370370
        k(   60) = (  -0.5000000   0.3258371  -0.5003064), wk =   0.0185185
        k(   61) = (  -0.5000000  -0.4887557   0.0000000), wk =   0.0092593
        k(   62) = (  -0.5000000  -0.4887557   0.1667688), wk =   0.0185185
        k(   63) = (  -0.5000000  -0.4887557   0.3335376), wk =   0.0185185
        k(   64) = (  -0.5000000  -0.4887557  -0.5003064), wk =   0.0092593

     Dense  grid:   504607 G-vectors     FFT dimensions: ( 100, 108, 100)

     Estimated max dynamical RAM per process >       3.17 GB

     Estimated total dynamical RAM >     126.66 GB

     Initial potential from superposition of free atoms

     starting charge  367.99656, renormalised to  368.15000
     Starting wfcs are  232 randomized atomic wfcs

     total cpu time spent up to now is       31.8 secs

     Self-consistent Calculation

     iteration #  1     ecut=   120.00 Ry     beta= 0.70
     Davidson diagonalization with overlap
     ethr =  1.00E-02,  avg # of iterations =  5.2

     total cpu time spent up to now is      147.8 secs

     total energy              =   -6253.67323057 Ry
     Harris-Foulkes estimate   =   -6264.50334385 Ry
     estimated scf accuracy    <      13.68925119 Ry

     iteration #  2     ecut=   120.00 Ry     beta= 0.70
     Davidson diagonalization with overlap
     ethr =  3.72E-03,  avg # of iterations =  3.6

     total cpu time spent up to now is      254.3 secs

     total energy              =   -6250.49914033 Ry
     Harris-Foulkes estimate   =   -6270.89988323 Ry
     estimated scf accuracy    <      54.85267094 Ry

     iteration #  3     ecut=   120.00 Ry     beta= 0.70
     Davidson diagonalization with overlap
     ethr =  3.72E-03,  avg # of iterations =  3.4

     total cpu time spent up to now is      352.8 secs

     total energy              =   -6260.93562990 Ry
     Harris-Foulkes estimate   =   -6261.21409243 Ry
     estimated scf accuracy    <       0.92713954 Ry

     iteration #  4     ecut=   120.00 Ry     beta= 0.70
     Davidson diagonalization with overlap
     ethr =  2.52E-04,  avg # of iterations =  3.5

     total cpu time spent up to now is      439.2 secs

     total energy              =   -6260.92438997 Ry
     Harris-Foulkes estimate   =   -6261.00067243 Ry
     estimated scf accuracy    <       0.22516400 Ry

     iteration #  5     ecut=   120.00 Ry     beta= 0.70
     Davidson diagonalization with overlap
     ethr =  6.12E-05,  avg # of iterations =  4.7

     total cpu time spent up to now is      532.3 secs

     total energy              =   -6260.93429203 Ry
     Harris-Foulkes estimate   =   -6260.96126578 Ry
     estimated scf accuracy    <       0.06139752 Ry

     iteration #  6     ecut=   120.00 Ry     beta= 0.70
     Davidson diagonalization with overlap
     ethr =  1.67E-05,  avg # of iterations =  6.3

     total cpu time spent up to now is      631.3 secs

     total energy              =   -6260.94704143 Ry
     Harris-Foulkes estimate   =   -6260.94987813 Ry
     estimated scf accuracy    <       0.00739310 Ry

     iteration #  7     ecut=   120.00 Ry     beta= 0.70
     Davidson diagonalization with overlap
     ethr =  2.01E-06,  avg # of iterations =  6.2

     total cpu time spent up to now is      725.6 secs

     total energy              =   -6260.94805211 Ry
     Harris-Foulkes estimate   =   -6260.94813025 Ry
     estimated scf accuracy    <       0.00013888 Ry

     iteration #  8     ecut=   120.00 Ry     beta= 0.70
     Davidson diagonalization with overlap
     ethr =  3.77E-08,  avg # of iterations =  3.2

     total cpu time spent up to now is      833.2 secs

     total energy              =   -6260.94811315 Ry
     Harris-Foulkes estimate   =   -6260.94812660 Ry
     estimated scf accuracy    <       0.00005557 Ry

     iteration #  9     ecut=   120.00 Ry     beta= 0.70
     Davidson diagonalization with overlap
     ethr =  1.51E-08,  avg # of iterations =  2.0

     total cpu time spent up to now is      915.0 secs

     total energy              =   -6260.94811415 Ry
     Harris-Foulkes estimate   =   -6260.94812056 Ry
     estimated scf accuracy    <       0.00003100 Ry

     iteration # 10     ecut=   120.00 Ry     beta= 0.70
     Davidson diagonalization with overlap
     ethr =  8.42E-09,  avg # of iterations =  1.5

     total cpu time spent up to now is      993.3 secs

     total energy              =   -6260.94811101 Ry
     Harris-Foulkes estimate   =   -6260.94811583 Ry
     estimated scf accuracy    <       0.00001124 Ry

     iteration # 11     ecut=   120.00 Ry     beta= 0.70
     Davidson diagonalization with overlap
     ethr =  3.05E-09,  avg # of iterations =  2.9

     total cpu time spent up to now is     1077.8 secs

     total energy              =   -6260.94811337 Ry
     Harris-Foulkes estimate   =   -6260.94811344 Ry
     estimated scf accuracy    <       0.00000017 Ry

     iteration # 12     ecut=   120.00 Ry     beta= 0.70
     Davidson diagonalization with overlap
     ethr =  4.68E-11,  avg # of iterations =  2.0

     total cpu time spent up to now is     1175.2 secs

     total energy              =   -6260.94811340 Ry
     Harris-Foulkes estimate   =   -6260.94811342 Ry
     estimated scf accuracy    <       0.00000004 Ry

     iteration # 13     ecut=   120.00 Ry     beta= 0.70
     Davidson diagonalization with overlap
     ethr =  1.21E-11,  avg # of iterations =  2.5

     total cpu time spent up to now is     1267.7 secs

     End of self-consistent calculation

          k = 0.0000 0.0000 0.0000 ( 63023 PWs)   bands (ev):

   -66.3418 -66.3413 -66.3412 -66.3412 -66.3406 -66.3406 -66.3405 -66.3400
   -30.7134 -30.7091 -30.7017 -30.6982 -30.6961 -30.6944 -30.6931 -30.6897
   -30.6864 -30.6810 -30.6783 -30.6726 -30.6334 -30.6308 -30.6229 -30.6163
   -30.6160 -30.6157 -30.6117 -30.6019 -30.6010 -30.5996 -30.5961 -30.5910
   -20.5066 -20.5066 -20.5063 -20.5063 -20.5057 -20.5057 -20.5054 -20.5054
   -20.4935 -20.4933 -20.4927 -20.4926 -20.4920 -20.4918 -20.4914 -20.4912
   -20.4839 -20.4838 -20.4826 -20.4825 -20.4821 -20.4819 -20.4808 -20.4806
   -20.4794 -20.4790 -20.4785 -20.4779 -20.4761 -20.4760 -20.4746 -20.4744
   -20.4744 -20.4736 -20.4734 -20.4727 -20.4700 -20.4696 -20.4693 -20.4688
   -20.4682 -20.4681 -20.4681 -20.4678 -20.4668 -20.4666 -20.4663 -20.4662
   -20.4601 -20.4600 -20.4598 -20.4598 -20.4590 -20.4589 -20.4586 -20.4585
   -10.1478  -9.7687  -9.7662  -9.7642  -9.4108  -9.3945  -9.3375  -9.1231
    -9.0947  -9.0088  -9.0082  -9.0061  -8.0369  -7.9628  -7.9577  -7.9364
    -7.9342  -7.9105  -7.8986  -7.8941  -7.8732  -7.8405  -7.8244  -7.8075
     1.0159   1.0162   1.0814   1.0928   1.1135   1.1245   1.1801   1.2760
     1.2803   1.3165   1.3379   1.4661   2.3051   2.3197   2.3685   2.3717
     2.3968   2.4848   3.9386   3.9937   4.1124   4.1932   4.4611   4.4858
     4.5116   4.5362   4.5803   4.6739   4.6856   4.6971   5.0058   5.3869
     5.3918   5.4049   5.4170   5.4789   5.4921   5.5543   5.6234   5.6968
     5.7495   5.7670   5.7902   5.7903   5.8086   5.8330   5.9936   6.0293
     6.0601   6.2213   6.2876   6.2948   6.3082   6.5330   6.5556   6.5908
     6.5965   6.6377   6.9522   6.9594   6.9646   6.9723   6.9864   6.9923
     6.9939   6.9950   8.0338   8.0602   8.1651   8.1762   8.1856   8.1887
     9.0698   9.0878   9.5496   9.5836   9.6769   9.7266  12.3196  12.3916
    12.4063  12.4278  12.4359  12.4822  12.4935  12.5206  12.7266  12.9223
    13.0598  13.1101  13.2574  13.4250  13.5659  13.7057  13.9396  13.9534
    14.0160  14.0225  14.3155  14.4606  14.4914  14.5732  15.2670  15.3594
    15.5304  16.3004  16.7775  16.8413  16.9428

          k = 0.0000 0.0000 0.1668 ( 63023 PWs)   bands (ev):

   -66.3418 -66.3412 -66.3412 -66.3411 -66.3407 -66.3406 -66.3406 -66.3400
   -30.7132 -30.7094 -30.7010 -30.6980 -30.6964 -30.6934 -30.6918 -30.6849
   -30.6814 -30.6813 -30.6737 -30.6689 -30.6331 -30.6314 -30.6253 -30.6177
   -30.6157 -30.6156 -30.6153 -30.6070 -30.6024 -30.6007 -30.6004 -30.5928
   -20.5066 -20.5065 -20.5062 -20.5062 -20.5058 -20.5057 -20.5055 -20.5055
   -20.4934 -20.4933 -20.4927 -20.4926 -20.4920 -20.4918 -20.4914 -20.4912
   -20.4837 -20.4837 -20.4825 -20.4824 -20.4822 -20.4820 -20.4809 -20.4807
   -20.4794 -20.4790 -20.4784 -20.4779 -20.4761 -20.4760 -20.4746 -20.4745
   -20.4744 -20.4735 -20.4734 -20.4727 -20.4700 -20.4696 -20.4692 -20.4687
   -20.4684 -20.4683 -20.4679 -20.4676 -20.4668 -20.4668 -20.4664 -20.4664
   -20.4600 -20.4599 -20.4598 -20.4598 -20.4590 -20.4589 -20.4587 -20.4586
   -10.1072  -9.7824  -9.7142  -9.7117  -9.4035  -9.3476  -9.3269  -9.0901
    -9.0593  -9.0081  -8.9950  -8.9779  -8.0827  -8.0668  -8.0285  -8.0179
    -7.9776  -7.9614  -7.9394  -7.8975  -7.8817  -7.8440  -7.8435  -7.8107
     1.0653   1.1085   1.1102   1.1576   1.1793   1.1882   1.2684   1.3111
     1.3745   1.4372   1.5043   1.6003   2.3088   2.3650   2.4040   2.4542
     2.4790   2.5659   3.9131   3.9541   4.1047   4.1485   4.2101   4.2401
     4.3830   4.4276   4.5671   4.5683   4.5871   4.6908   5.0112   5.2190
     5.3293   5.3561   5.4342   5.4562   5.4672   5.4935   5.5365   5.5378
     5.6237   5.6903   5.7682   5.8104   5.8124   5.9354   5.9956   6.0667
     6.1175   6.2877   6.3890   6.4258   6.4410   6.4704   6.5544   6.5946
     6.6423   6.7406   6.7539   6.7852   6.8248   6.8343   6.8696   6.8734
     6.9676   6.9766   8.0364   8.0584   8.1011   8.1089   8.1232   8.1330
     9.4120   9.4275   9.5960   9.7252   9.8753   9.9726  12.2729  12.2993
    12.3889  12.4585  12.4586  12.4767  12.4833  12.4885  12.7613  12.8439
    12.8835  12.9247  13.3108  13.4226  13.5683  13.6154  13.8076  13.8671
    14.1733  14.2021  14.4587  14.4798  14.5729  14.6837  15.3408  15.4967
    15.6828  16.4851  16.5789  16.9376  17.0314

          k = 0.0000 0.0000 0.3335 ( 63071 PWs)   bands (ev):

   -66.3417 -66.3413 -66.3411 -66.3410 -66.3408 -66.3407 -66.3405 -66.3402
   -30.7125 -30.7103 -30.6998 -30.6973 -30.6970 -30.6944 -30.6877 -30.6827
   -30.6712 -30.6673 -30.6608 -30.6569 -30.6362 -30.6331 -30.6323 -30.6261
   -30.6253 -30.6205 -30.6146 -30.6140 -30.6086 -30.6079 -30.5997 -30.5958
   -20.5064 -20.5064 -20.5061 -20.5061 -20.5059 -20.5059 -20.5056 -20.5056
   -20.4933 -20.4931 -20.4929 -20.4928 -20.4919 -20.4917 -20.4915 -20.4914
   -20.4834 -20.4833 -20.4825 -20.4823 -20.4821 -20.4820 -20.4812 -20.4811
   -20.4793 -20.4791 -20.4783 -20.4780 -20.4761 -20.4760 -20.4746 -20.4745
   -20.4741 -20.4736 -20.4733 -20.4729 -20.4697 -20.4694 -20.4688 -20.4687
   -20.4687 -20.4682 -20.4677 -20.4673 -20.4673 -20.4670 -20.4669 -20.4666
   -20.4598 -20.4597 -20.4596 -20.4595 -20.4592 -20.4591 -20.4590 -20.4589
   -10.0086  -9.8256  -9.5992  -9.5817  -9.4334  -9.3824  -9.0883  -9.0404
    -9.0139  -8.9312  -8.8968  -8.8652  -8.3571  -8.3429  -8.3316  -8.3070
    -7.9945  -7.9713  -7.9317  -7.9068  -7.8775  -7.8534  -7.8415  -7.8194
     1.0748   1.0969   1.1635   1.1775   1.2187   1.2518   1.2570   1.2992
     2.0424   2.0638   2.1454   2.1772   2.3168   2.3659   2.6285   2.6666
     2.7144   2.8024   3.5840   3.6690   3.7223   3.8463   3.8983   3.9343
     4.0875   4.1027   4.4278   4.5779   4.5830   4.6199   4.8038   4.8948
     4.9885   5.0298   5.1620   5.2478   5.3038   5.4151   5.5808   5.5941
     5.6371   5.6697   5.8195   5.8442   5.8536   5.9999   6.0464   6.0997
     6.1109   6.1459   6.2631   6.2868   6.2901   6.3788   6.3955   6.5735
     6.5856   6.6105   6.7014   6.7470   6.9672   6.9766   7.0291   7.0511
     7.1446   7.1845   7.8822   7.9134   7.9286   7.9542   8.0437   8.0545
     9.6267   9.6894  10.1598  10.1748  10.6141  10.6689  11.7394  11.7642
    12.2435  12.2998  12.4826  12.4963  12.5971  12.6251  12.6274  12.6895
    12.7993  12.9436  13.2546  13.3121  13.3969  13.4151  13.4527  13.4943
    14.3919  14.4520  14.7226  14.8627  14.9947  15.1889  15.2769  15.3830
    16.0371  16.7091  16.9005  17.0972  17.4502

          k = 0.0000 0.0000-0.5003 ( 63048 PWs)   bands (ev):

   -66.3415 -66.3415 -66.3409 -66.3409 -66.3408 -66.3408 -66.3403 -66.3403
   -30.7114 -30.7114 -30.6985 -30.6985 -30.6957 -30.6957 -30.6847 -30.6847
   -30.6527 -30.6527 -30.6486 -30.6486 -30.6425 -30.6425 -30.6387 -30.6387
   -30.6308 -30.6308 -30.6127 -30.6127 -30.6118 -30.6118 -30.5981 -30.5981
   -20.5062 -20.5062 -20.5062 -20.5062 -20.5059 -20.5059 -20.5058 -20.5058
   -20.4931 -20.4931 -20.4929 -20.4929 -20.4917 -20.4917 -20.4915 -20.4915
   -20.4829 -20.4829 -20.4828 -20.4828 -20.4817 -20.4817 -20.4815 -20.4815
   -20.4792 -20.4792 -20.4782 -20.4782 -20.4761 -20.4761 -20.4746 -20.4746
   -20.4739 -20.4739 -20.4731 -20.4731 -20.4693 -20.4693 -20.4691 -20.4691
   -20.4680 -20.4680 -20.4676 -20.4676 -20.4673 -20.4673 -20.4669 -20.4669
   -20.4595 -20.4595 -20.4594 -20.4593 -20.4593 -20.4593 -20.4592 -20.4592
    -9.9029  -9.9029  -9.4948  -9.4948  -9.4567  -9.4567  -9.0232  -9.0232
    -8.7366  -8.7366  -8.6764  -8.6764  -8.6574  -8.6574  -8.6309  -8.6309
    -7.9842  -7.9841  -7.9194  -7.9194  -7.8659  -7.8659  -7.8310  -7.8310
     1.0846   1.0846   1.1743   1.1743   1.2346   1.2346   1.2845   1.2845
     2.3257   2.3257   2.7127   2.7127   2.7758   2.7758   2.9442   2.9442
     2.9991   2.9991   3.0973   3.0973   3.3140   3.3140   3.7286   3.7286
     3.7658   3.7658   4.0909   4.0909   4.5774   4.5774   4.9450   4.9450
     5.0367   5.0367   5.1489   5.1489   5.1765   5.1765   5.6387   5.6387
     5.7291   5.7291   5.8273   5.8273   5.9275   5.9275   5.9787   5.9787
     6.0856   6.0856   6.2102   6.2102   6.2166   6.2166   6.4181   6.4181
     6.5908   6.5908   6.6736   6.6736   6.9732   6.9732   7.5124   7.5124
     7.5473   7.5473   7.6060   7.6060   7.6289   7.6289   8.0492   8.0492
     9.6623   9.6623  10.9851  10.9851  11.0074  11.0074  11.4671  11.4671
    11.5052  11.5052  12.4842  12.4842  12.7770  12.7770  12.9139  12.9139
    12.9379  12.9379  13.0441  13.0441  13.0893  13.0893  13.4020  13.4020
    14.4361  14.4361  15.1376  15.1376  15.1455  15.1455  15.4707  15.4708
    16.1182  16.1182  17.4364  17.4364  17.6405

          k = 0.0000 0.1629 0.0000 ( 63118 PWs)   bands (ev):

   -66.3418 -66.3413 -66.3411 -66.3411 -66.3407 -66.3407 -66.3405 -66.3400
   -30.7116 -30.7072 -30.7020 -30.6965 -30.6946 -30.6934 -30.6897 -30.6885
   -30.6862 -30.6781 -30.6775 -30.6706 -30.6362 -30.6340 -30.6263 -30.6204
   -30.6161 -30.6156 -30.6122 -30.6033 -30.6021 -30.6007 -30.5961 -30.5922
   -20.5066 -20.5066 -20.5063 -20.5063 -20.5057 -20.5057 -20.5054 -20.5054
   -20.4935 -20.4933 -20.4927 -20.4926 -20.4920 -20.4918 -20.4914 -20.4912
   -20.4839 -20.4838 -20.4826 -20.4826 -20.4821 -20.4819 -20.4808 -20.4806
   -20.4793 -20.4789 -20.4785 -20.4779 -20.4759 -20.4757 -20.4745 -20.4742
   -20.4741 -20.4734 -20.4734 -20.4725 -20.4700 -20.4697 -20.4694 -20.4688
   -20.4686 -20.4686 -20.4684 -20.4681 -20.4668 -20.4666 -20.4663 -20.4662
   -20.4601 -20.4600 -20.4599 -20.4598 -20.4589 -20.4588 -20.4586 -20.4586
   -10.1092  -9.7794  -9.7234  -9.7207  -9.4207  -9.4051  -9.2557  -9.1212
    -9.0966  -8.9701  -8.9680  -8.9627  -8.0906  -8.0106  -7.9907  -7.9626
    -7.9542  -7.9370  -7.9280  -7.9103  -7.8996  -7.8969  -7.8962  -7.8600
     1.0156   1.0159   1.1164   1.1248   1.1550   1.1796   1.2264   1.3371
     1.4648   1.5108   1.5355   1.6461   2.3603   2.3757   2.4180   2.4406
     2.4732   2.4818   3.7618   3.8221   3.8605   3.9324   4.4631   4.4763
     4.5041   4.5217   4.5289   4.7075   4.7515   4.7529   4.8895   5.1082
     5.1604   5.4108   5.4355   5.4853   5.4915   5.4921   5.5200   5.5387
     5.7330   5.8151   5.8254   5.8645   5.8647   5.8777   5.9737   6.0299
     6.0561   6.1732   6.2294   6.3326   6.3856   6.5344   6.5675   6.6009
     6.6437   6.6778   6.8087   6.8520   6.9144   6.9575   6.9643   6.9665
     6.9804   6.9871   7.9752   8.0010   8.0780   8.1013   8.1754   8.1879
     9.0750   9.0925   9.7679   9.8309   9.8814   9.9535  12.1636  12.2199
    12.2921  12.3079  12.4081  12.4235  12.4911  12.4952  12.7614  12.9504
    13.0838  13.1381  13.3325  13.4977  13.6466  13.7010  13.8664  13.9186
    14.0825  14.1810  14.2974  14.4457  14.5225  14.7881  15.2414  15.3288
    15.9416  16.0348  16.9731  17.0420  17.1587

          k = 0.0000 0.1629 0.1668 ( 63097 PWs)   bands (ev):

   -66.3417 -66.3413 -66.3412 -66.3411 -66.3407 -66.3406 -66.3405 -66.3401
   -30.7113 -30.7075 -30.7014 -30.6968 -30.6942 -30.6904 -30.6887 -30.6848
   -30.6811 -30.6784 -30.6733 -30.6674 -30.6359 -30.6346 -30.6283 -30.6199
   -30.6175 -30.6158 -30.6153 -30.6071 -30.6040 -30.6029 -30.6003 -30.5943
   -20.5066 -20.5065 -20.5062 -20.5062 -20.5058 -20.5057 -20.5055 -20.5055
   -20.4934 -20.4933 -20.4927 -20.4926 -20.4920 -20.4918 -20.4914 -20.4913
   -20.4837 -20.4837 -20.4825 -20.4824 -20.4822 -20.4820 -20.4809 -20.4807
   -20.4793 -20.4789 -20.4785 -20.4780 -20.4759 -20.4757 -20.4744 -20.4742
   -20.4741 -20.4735 -20.4733 -20.4726 -20.4700 -20.4697 -20.4692 -20.4688
   -20.4687 -20.4687 -20.4683 -20.4679 -20.4669 -20.4668 -20.4664 -20.4664
   -20.4600 -20.4600 -20.4598 -20.4598 -20.4590 -20.4589 -20.4587 -20.4587
   -10.0673  -9.7362  -9.7295  -9.6628  -9.4145  -9.3369  -9.2659  -9.0873
    -9.0612  -8.9703  -8.9517  -8.9432  -8.1218  -8.0647  -8.0571  -8.0161
    -8.0119  -7.9871  -7.9500  -7.9417  -7.9412  -7.9181  -7.9014  -7.8998
     1.0987   1.1096   1.1530   1.1788   1.3159   1.3248   1.3746   1.4807
     1.5035   1.5300   1.5534   1.7045   2.3817   2.4366   2.4429   2.5051
     2.5529   2.5607   3.7594   3.8084   3.8796   3.9096   4.1900   4.2354
     4.4342   4.4895   4.5105   4.5553   4.5692   4.7154   4.9029   5.0721
     5.1328   5.2258   5.3106   5.3851   5.3854   5.4475   5.4599   5.5067
     5.6216   5.7836   5.7897   5.8515   5.8613   5.9130   5.9964   6.0066
     6.0973   6.3639   6.3646   6.3769   6.4266   6.5317   6.5594   6.6433
     6.6550   6.7319   6.7762   6.7866   6.8273   6.8487   6.8500   6.8561
     6.8789   6.9284   7.9783   7.9962   8.0299   8.0507   8.1075   8.1237
     9.4163   9.4299   9.8427   9.9494  10.0458  10.1385  12.2323  12.2507
    12.2924  12.3069  12.3075  12.3369  12.4615  12.4745  12.7973  12.8764
    12.9142  12.9508  13.3708  13.4983  13.6042  13.6096  13.7215  13.7659
    14.2711  14.4249  14.4716  14.5445  14.5508  14.8859  15.3093  15.6565
    15.9074  16.2015  16.7496  17.0857  17.1244

          k = 0.0000 0.1629 0.3335 ( 63077 PWs)   bands (ev):

   -66.3416 -66.3413 -66.3411 -66.3410 -66.3408 -66.3407 -66.3405 -66.3402
   -30.7105 -30.7083 -30.7002 -30.6977 -30.6928 -30.6899 -30.6853 -30.6797
   -30.6713 -30.6673 -30.6606 -30.6563 -30.6383 -30.6355 -30.6347 -30.6263
   -30.6254 -30.6205 -30.6185 -30.6142 -30.6108 -30.6083 -30.6019 -30.5978
   -20.5064 -20.5064 -20.5061 -20.5061 -20.5059 -20.5059 -20.5056 -20.5056
   -20.4933 -20.4931 -20.4929 -20.4928 -20.4918 -20.4917 -20.4915 -20.4914
   -20.4834 -20.4833 -20.4825 -20.4824 -20.4821 -20.4820 -20.4812 -20.4811
   -20.4792 -20.4790 -20.4784 -20.4781 -20.4758 -20.4757 -20.4743 -20.4742
   -20.4742 -20.4737 -20.4732 -20.4727 -20.4698 -20.4696 -20.4691 -20.4690
   -20.4687 -20.4682 -20.4680 -20.4676 -20.4673 -20.4671 -20.4669 -20.4667
   -20.4598 -20.4597 -20.4596 -20.4596 -20.4592 -20.4591 -20.4590 -20.4589
    -9.9657  -9.7793  -9.6141  -9.5203  -9.4452  -9.3019  -9.0987  -9.0182
    -8.9769  -8.9337  -8.8758  -8.8430  -8.3700  -8.3418  -8.3400  -8.3039
    -8.0363  -8.0185  -7.9551  -7.9401  -7.9341  -7.9303  -7.9107  -7.9091
     1.1350   1.1486   1.1627   1.1769   1.4224   1.4462   1.5152   1.5270
     2.0424   2.0731   2.1444   2.1921   2.3902   2.4350   2.6724   2.7321
     2.7603   2.7962   3.5806   3.5991   3.7155   3.7901   3.8286   3.8975
     3.9638   4.0332   4.4323   4.4883   4.5866   4.6183   4.7527   4.8490
     4.8568   4.8791   4.9638   4.9753   5.2818   5.2924   5.3139   5.5458
     5.6617   5.7109   5.7916   5.8254   5.8498   5.8753   5.9070   6.0259
     6.2416   6.2453   6.3008   6.3565   6.3784   6.4969   6.5164   6.5515
     6.5732   6.5993   6.7625   6.8203   6.8571   6.8636   7.0442   7.0675
     7.1440   7.1891   7.8697   7.8814   7.9024   7.9054   7.9853   8.0031
     9.8596   9.9160  10.1610  10.1844  10.7168  10.7750  11.7414  11.7632
    12.2448  12.3133  12.3402  12.3705  12.4682  12.5157  12.6285  12.6324
    12.8352  12.9582  13.2594  13.2796  13.3639  13.3833  13.4725  13.4941
    14.4395  14.4966  14.8505  15.0559  15.1488  15.2470  15.2756  15.7895
    16.1917  16.6752  16.7092  16.9930  17.3431

          k = 0.0000 0.1629-0.5003 ( 63036 PWs)   bands (ev):

   -66.3415 -66.3415 -66.3410 -66.3410 -66.3408 -66.3408 -66.3403 -66.3403
   -30.7095 -30.7094 -30.6989 -30.6989 -30.6913 -30.6913 -30.6819 -30.6819
   -30.6531 -30.6531 -30.6491 -30.6491 -30.6425 -30.6425 -30.6386 -30.6386
   -30.6331 -30.6331 -30.6158 -30.6158 -30.6123 -30.6123 -30.6002 -30.6002
   -20.5062 -20.5062 -20.5062 -20.5062 -20.5059 -20.5059 -20.5058 -20.5058
   -20.4931 -20.4931 -20.4930 -20.4930 -20.4917 -20.4917 -20.4915 -20.4915
   -20.4829 -20.4829 -20.4828 -20.4828 -20.4816 -20.4816 -20.4815 -20.4815
   -20.4791 -20.4791 -20.4782 -20.4782 -20.4758 -20.4758 -20.4742 -20.4742
   -20.4739 -20.4739 -20.4730 -20.4730 -20.4695 -20.4695 -20.4694 -20.4694
   -20.4680 -20.4680 -20.4676 -20.4676 -20.4675 -20.4675 -20.4671 -20.4671
   -20.4595 -20.4595 -20.4594 -20.4594 -20.4593 -20.4593 -20.4592 -20.4592
    -9.8575  -9.8575  -9.5082  -9.5082  -9.3819  -9.3819  -8.9890  -8.9890
    -8.7479  -8.7479  -8.6811  -8.6811  -8.6508  -8.6508  -8.6223  -8.6222
    -8.0303  -8.0303  -7.9465  -7.9465  -7.9229  -7.9229  -7.9218  -7.9218
     1.1435   1.1435   1.1736   1.1736   1.4416   1.4416   1.5231   1.5231
     2.3971   2.3971   2.7410   2.7411   2.8100   2.8100   2.9336   2.9336
     2.9909   2.9909   3.1123   3.1123   3.3013   3.3013   3.7512   3.7512
     3.8160   3.8160   3.9114   3.9115   4.4765   4.4765   4.7815   4.7815
     4.8480   4.8480   5.0928   5.0928   5.1014   5.1015   5.4103   5.4103
     5.6373   5.6373   5.8162   5.8162   5.8695   5.8695   5.9608   5.9608
     6.1324   6.1324   6.3142   6.3142   6.4092   6.4092   6.5011   6.5011
     6.5524   6.5524   6.7543   6.7543   6.8560   6.8560   7.5257   7.5258
     7.5410   7.5410   7.5811   7.5811   7.5989   7.5990   7.9919   7.9919
     9.8947   9.8947  10.9860  10.9860  11.0081  11.0081  11.5296  11.5296
    11.5704  11.5704  12.3157  12.3157  12.7808  12.7808  12.8422  12.8422
    12.9146  12.9146  12.9389  12.9389  13.0457  13.0457  13.4807  13.4807
    14.4806  14.4806  15.1133  15.1133  15.5240  15.5240  15.6353  15.6353
    16.2103  16.2103  17.2146  17.2146  17.6618

          k = 0.0000 0.3258 0.0000 ( 63100 PWs)   bands (ev):

   -66.3417 -66.3414 -66.3410 -66.3410 -66.3408 -66.3408 -66.3404 -66.3401
   -30.7079 -30.7033 -30.7030 -30.6978 -30.6913 -30.6896 -30.6878 -30.6857
   -30.6761 -30.6728 -30.6681 -30.6630 -30.6453 -30.6440 -30.6371 -30.6328
   -30.6154 -30.6143 -30.6132 -30.6079 -30.6024 -30.6021 -30.5961 -30.5944
   -20.5066 -20.5066 -20.5063 -20.5063 -20.5057 -20.5057 -20.5054 -20.5054
   -20.4934 -20.4934 -20.4927 -20.4926 -20.4920 -20.4919 -20.4913 -20.4912
   -20.4839 -20.4838 -20.4826 -20.4826 -20.4821 -20.4820 -20.4808 -20.4807
   -20.4791 -20.4786 -20.4786 -20.4781 -20.4753 -20.4749 -20.4746 -20.4737
   -20.4732 -20.4730 -20.4727 -20.4720 -20.4703 -20.4703 -20.4698 -20.4697
   -20.4694 -20.4693 -20.4688 -20.4686 -20.4667 -20.4666 -20.4663 -20.4662
   -20.4601 -20.4601 -20.4599 -20.4599 -20.4589 -20.4588 -20.4587 -20.4586
   -10.0140  -9.8267  -9.6182  -9.6130  -9.4534  -9.4400  -9.1161  -9.1019
    -9.0236  -8.8376  -8.8362  -8.8179  -8.3369  -8.2712  -8.2635  -8.2308
    -7.9704  -7.9639  -7.9366  -7.9252  -7.9156  -7.9024  -7.8917  -7.8758
     1.0152   1.0154   1.1251   1.1255   1.1720   1.1785   1.3125   1.3345
     2.0683   2.1840   2.2207   2.3278   2.3960   2.4416   2.6133   2.6487
     2.6598   2.7111   3.3642   3.3837   3.4383   3.4594   3.9539   4.2651
     4.3039   4.4697   4.4825   4.5097   4.5255   4.5775   4.9163   4.9310
     4.9408   4.9606   5.2943   5.3068   5.4792   5.4875   5.5155   5.5252
     5.7873   5.7893   5.8193   5.8302   5.8401   5.8773   5.9482   5.9669
     6.0489   6.1365   6.1416   6.3905   6.4483   6.4729   6.6549   6.7238
     6.7331   6.8317   6.9145   6.9176   6.9644   6.9651   6.9736   6.9815
     6.9893   6.9952   7.7671   7.7890   7.8172   7.8451   8.1778   8.1851
     9.0844   9.0955  10.3308  10.4179  10.4304  10.5139  11.6987  11.7532
    11.8254  11.8473  12.4114  12.4181  12.4895  12.4947  12.8682  13.0554
    13.1432  13.2417  13.2971  13.4468  13.6153  13.6853  13.7394  13.7462
    14.2786  14.2953  14.4673  14.6231  14.7750  15.1524  15.2320  15.4524
    15.5012  16.8985  16.9540  17.5843  17.6590

          k = 0.0000 0.3258 0.1668 ( 63129 PWs)   bands (ev):

   -66.3416 -66.3414 -66.3411 -66.3410 -66.3408 -66.3407 -66.3404 -66.3402
   -30.7076 -30.7036 -30.7025 -30.6981 -30.6879 -30.6849 -30.6849 -30.6808
   -30.6765 -30.6702 -30.6685 -30.6611 -30.6449 -30.6446 -30.6382 -30.6323
   -30.6171 -30.6161 -30.6139 -30.6076 -30.6074 -30.6063 -30.6001 -30.5972
   -20.5065 -20.5065 -20.5062 -20.5062 -20.5058 -20.5057 -20.5055 -20.5055
   -20.4934 -20.4933 -20.4927 -20.4926 -20.4919 -20.4918 -20.4914 -20.4913
   -20.4837 -20.4837 -20.4825 -20.4824 -20.4822 -20.4821 -20.4809 -20.4808
   -20.4791 -20.4787 -20.4786 -20.4781 -20.4753 -20.4749 -20.4745 -20.4737
   -20.4732 -20.4730 -20.4727 -20.4721 -20.4704 -20.4703 -20.4699 -20.4697
   -20.4692 -20.4690 -20.4687 -20.4684 -20.4669 -20.4668 -20.4664 -20.4664
   -20.4600 -20.4600 -20.4598 -20.4598 -20.4590 -20.4589 -20.4588 -20.4587
    -9.9690  -9.7772  -9.6271  -9.5478  -9.4503  -9.3703  -9.0811  -9.0664
    -9.0343  -8.8407  -8.8206  -8.8112  -8.3480  -8.2821  -8.2627  -8.2354
    -8.0589  -8.0345  -8.0108  -7.9887  -7.9613  -7.9478  -7.9189  -7.9058
     1.1049   1.1083   1.1709   1.1775   1.3678   1.3747   1.4719   1.5009
     2.0735   2.1762   2.2170   2.3234   2.4745   2.5158   2.6184   2.6492
     2.7481   2.7927   3.3868   3.4306   3.4334   3.4555   3.9433   4.1894
     4.2135   4.2749   4.3068   4.5142   4.5520   4.5984   4.6509   4.6850
     4.9257   4.9838   5.1281   5.2426   5.2617   5.2874   5.4752   5.4779
     5.5287   5.6132   5.6801   5.7755   5.8309   5.8372   5.9374   6.0169
     6.1891   6.3146   6.3878   6.4041   6.5187   6.6556   6.6841   6.7339
     6.7490   6.7713   6.8056   6.8332   6.8604   6.8763   6.9291   6.9552
     7.0083   7.0258   7.7714   7.7817   7.7902   7.8126   8.1115   8.1210
     9.4236   9.4316  10.4382  10.5096  10.5200  10.5995  11.7870  11.8262
    11.8419  11.8469  12.2954  12.3005  12.4644  12.4698  12.9065  12.9788
    13.0245  13.0538  13.3104  13.4458  13.4543  13.5081  13.6467  13.6472
    14.4601  14.4730  14.6298  14.7432  14.9881  15.2092  15.5416  15.5646
    15.6639  16.9154  16.9883  17.1837  17.3065

          k = 0.0000 0.3258 0.3335 ( 63109 PWs)   bands (ev):

   -66.3415 -66.3412 -66.3412 -66.3409 -66.3409 -66.3406 -66.3406 -66.3403
   -30.7067 -30.7045 -30.7014 -30.6990 -30.6823 -30.6790 -30.6772 -30.6718
   -30.6703 -30.6676 -30.6596 -30.6533 -30.6467 -30.6438 -30.6422 -30.6304
   -30.6262 -30.6257 -30.6205 -30.6165 -30.6128 -30.6073 -30.6065 -30.6018
   -20.5064 -20.5064 -20.5061 -20.5061 -20.5059 -20.5059 -20.5056 -20.5056
   -20.4932 -20.4932 -20.4929 -20.4928 -20.4918 -20.4917 -20.4915 -20.4914
   -20.4834 -20.4833 -20.4825 -20.4824 -20.4821 -20.4820 -20.4812 -20.4811
   -20.4790 -20.4787 -20.4785 -20.4782 -20.4752 -20.4750 -20.4743 -20.4739
   -20.4732 -20.4731 -20.4726 -20.4722 -20.4704 -20.4703 -20.4701 -20.4699
   -20.4687 -20.4685 -20.4682 -20.4680 -20.4673 -20.4673 -20.4669 -20.4668
   -20.4598 -20.4597 -20.4596 -20.4596 -20.4592 -20.4591 -20.4591 -20.4590
    -9.8603  -9.6690  -9.6613  -9.4838  -9.3687  -9.1354  -9.0750  -8.9780
    -8.9412  -8.8519  -8.7766  -8.7570  -8.4628  -8.3991  -8.3308  -8.2936
    -8.2645  -8.2476  -8.2058  -8.1744  -7.9545  -7.9406  -7.9286  -7.9153
     1.1536   1.1609   1.1681   1.1754   1.9399   2.0032   2.0393   2.0925
     2.1383   2.2136   2.2381   2.3863   2.5971   2.6363   2.7099   2.7867
     2.9544   2.9742   3.3774   3.4070   3.4518   3.4783   3.6823   3.6948
     3.9288   4.1283   4.1890   4.2168   4.2647   4.4264   4.4868   4.6237
     4.7263   4.7338   4.8420   4.8635   4.9428   5.0158   5.1491   5.1986
     5.2099   5.3704   5.5763   5.7352   5.8710   5.8777   6.0023   6.0478
     6.3145   6.3292   6.3557   6.4253   6.4652   6.5686   6.6161   6.6492
     6.7306   6.8881   6.8966   6.9462   6.9535   7.0163   7.0539   7.1233
     7.1705   7.1856   7.6921   7.7028   7.7548   7.7810   7.9058   7.9310
    10.1474  10.1624  10.4623  10.5027  11.0321  11.0957  11.7238  11.7587
    11.8371  11.8732  12.0681  12.1121  12.4555  12.4825  12.6283  12.6300
    12.9252  13.0272  13.0482  13.1057  13.2377  13.3458  13.4321  13.4656
    14.5917  14.7248  14.8113  15.1522  15.3676  15.7494  15.8636  16.1820
    16.5580  16.5886  16.7804  17.2957  17.3412

          k = 0.0000 0.3258-0.5003 ( 63054 PWs)   bands (ev):

   -66.3414 -66.3414 -66.3411 -66.3411 -66.3407 -66.3407 -66.3404 -66.3404
   -30.7056 -30.7056 -30.7002 -30.7002 -30.6794 -30.6794 -30.6732 -30.6732
   -30.6557 -30.6557 -30.6521 -30.6521 -30.6426 -30.6426 -30.6387 -30.6387
   -30.6379 -30.6379 -30.6257 -30.6257 -30.6110 -30.6110 -30.6047 -30.6047
   -20.5062 -20.5062 -20.5062 -20.5061 -20.5059 -20.5058 -20.5058 -20.5058
   -20.4930 -20.4930 -20.4930 -20.4930 -20.4917 -20.4917 -20.4916 -20.4916
   -20.4829 -20.4829 -20.4828 -20.4828 -20.4816 -20.4816 -20.4815 -20.4815
   -20.4789 -20.4789 -20.4784 -20.4784 -20.4751 -20.4751 -20.4741 -20.4741
   -20.4732 -20.4732 -20.4724 -20.4724 -20.4703 -20.4703 -20.4702 -20.4702
   -20.4680 -20.4680 -20.4679 -20.4679 -20.4676 -20.4676 -20.4674 -20.4674
   -20.4595 -20.4595 -20.4594 -20.4594 -20.4593 -20.4593 -20.4593 -20.4593
    -9.7474  -9.7474  -9.5514  -9.5514  -9.1791  -9.1791  -8.8825  -8.8825
    -8.7949  -8.7949  -8.6982  -8.6982  -8.6226  -8.6226  -8.5878  -8.5878
    -8.2627  -8.2627  -8.2200  -8.2200  -7.9417  -7.9417  -7.9281  -7.9281
     1.1641   1.1641   1.1719   1.1719   2.0771   2.0771   2.2046   2.2046
     2.5956   2.5956   2.8232   2.8232   2.8976   2.8977   2.9004   2.9004
     2.9664   2.9664   3.1552   3.1552   3.2599   3.2600   3.4637   3.4637
     3.9370   3.9370   3.9389   3.9389   3.9840   3.9840   4.1974   4.1974
     4.7630   4.7630   4.8793   4.8793   4.9367   4.9367   5.0322   5.0322
     5.1613   5.1613   5.6531   5.6531   5.9406   5.9406   5.9647   5.9647
     6.2867   6.2867   6.3603   6.3603   6.4030   6.4030   6.6332   6.6332
     6.8591   6.8591   6.9358   6.9358   7.0181   7.0182   7.4791   7.4791
     7.4931   7.4931   7.5097   7.5097   7.5605   7.5605   7.8001   7.8001
    10.4624  10.4624  10.9859  10.9859  11.0136  11.0136  11.7139  11.7139
    11.7725  11.7725  11.8821  11.8821  12.5002  12.5002  12.5503  12.5503
    12.8770  12.8770  12.9127  12.9127  13.0918  13.0918  13.4379  13.4379
    14.6752  14.6752  15.0350  15.0350  16.0223  16.0223  16.4282  16.4282
    16.5983  16.5983  16.8022  16.8022  17.7199

          k = 0.0000-0.4888 0.0000 ( 63242 PWs)   bands (ev):

   -66.3415 -66.3415 -66.3409 -66.3409 -66.3409 -66.3409 -66.3403 -66.3403
   -30.7049 -30.7049 -30.7000 -30.7000 -30.6900 -30.6900 -30.6856 -30.6856
   -30.6596 -30.6596 -30.6596 -30.6595 -30.6529 -30.6528 -30.6490 -30.6490
   -30.6144 -30.6144 -30.6118 -30.6118 -30.6026 -30.6026 -30.5957 -30.5957
   -20.5066 -20.5066 -20.5063 -20.5063 -20.5057 -20.5057 -20.5054 -20.5054
   -20.4934 -20.4934 -20.4926 -20.4926 -20.4919 -20.4919 -20.4913 -20.4913
   -20.4838 -20.4838 -20.4826 -20.4826 -20.4820 -20.4820 -20.4807 -20.4807
   -20.4789 -20.4789 -20.4783 -20.4783 -20.4749 -20.4749 -20.4741 -20.4741
   -20.4717 -20.4717 -20.4716 -20.4716 -20.4715 -20.4714 -20.4710 -20.4710
   -20.4695 -20.4695 -20.4688 -20.4688 -20.4667 -20.4667 -20.4663 -20.4663
   -20.4601 -20.4601 -20.4599 -20.4599 -20.4588 -20.4588 -20.4587 -20.4587
    -9.9081  -9.9081  -9.5175  -9.5175  -9.5078  -9.5078  -9.1090  -9.1090
    -8.6876  -8.6876  -8.5908  -8.5908  -8.5864  -8.5864  -8.5647  -8.5647
    -7.9682  -7.9682  -7.9324  -7.9324  -7.9102  -7.9102  -7.8845  -7.8845
     1.0151   1.0152   1.1261   1.1261   1.1765   1.1765   1.3288   1.3288
     2.4158   2.4158   2.8243   2.8243   2.9032   2.9032   2.9187   2.9187
     2.9667   2.9667   3.1067   3.1068   3.3060   3.3060   3.3173   3.3174
     3.4743   3.4743   4.4854   4.4854   4.4987   4.4987   5.1105   5.1105
     5.1582   5.1583   5.2073   5.2073   5.2278   5.2279   5.5964   5.5964
     5.6315   5.6315   5.8191   5.8191   5.8563   5.8563   5.9572   5.9572
     6.1298   6.1298   6.1930   6.1930   6.4981   6.4981   6.5677   6.5677
     6.8059   6.8059   6.9589   6.9589   6.9768   6.9768   7.3991   7.3991
     7.4061   7.4061   7.4175   7.4175   7.4383   7.4383   8.1813   8.1813
     9.0922   9.0922  11.0343  11.0343  11.0810  11.0810  11.1560  11.1560
    11.2244  11.2244  12.4150  12.4150  12.4925  12.4925  13.0361  13.0361
    13.2417  13.2417  13.3981  13.3981  13.4327  13.4327  13.7387  13.7387
    14.2837  14.2837  14.9363  14.9363  14.9626  14.9626  15.0520  15.0520
    16.2773  16.2773  17.5820  17.5820  17.8348

          k = 0.0000-0.4888 0.1668 ( 63124 PWs)   bands (ev):

   -66.3415 -66.3415 -66.3410 -66.3409 -66.3409 -66.3408 -66.3403 -66.3403
   -30.7045 -30.7045 -30.7003 -30.7003 -30.6855 -30.6855 -30.6811 -30.6811
   -30.6600 -30.6600 -30.6587 -30.6587 -30.6535 -30.6535 -30.6480 -30.6480
   -30.6166 -30.6166 -30.6115 -30.6115 -30.6073 -30.6073 -30.5992 -30.5992
   -20.5065 -20.5065 -20.5062 -20.5062 -20.5058 -20.5057 -20.5055 -20.5055
   -20.4933 -20.4933 -20.4927 -20.4927 -20.4919 -20.4919 -20.4913 -20.4913
   -20.4837 -20.4837 -20.4824 -20.4824 -20.4821 -20.4821 -20.4808 -20.4808
   -20.4788 -20.4788 -20.4784 -20.4784 -20.4748 -20.4748 -20.4742 -20.4742
   -20.4717 -20.4717 -20.4716 -20.4716 -20.4715 -20.4715 -20.4710 -20.4710
   -20.4693 -20.4692 -20.4686 -20.4686 -20.4669 -20.4668 -20.4664 -20.4664
   -20.4600 -20.4600 -20.4598 -20.4598 -20.4589 -20.4589 -20.4588 -20.4588
    -9.8600  -9.8600  -9.5199  -9.5199  -9.4379  -9.4379  -9.0736  -9.0736
    -8.6984  -8.6984  -8.5968  -8.5968  -8.5802  -8.5802  -8.5627  -8.5627
    -8.0498  -8.0498  -8.0025  -8.0025  -7.9556  -7.9556  -7.9136  -7.9136
     1.1068   1.1068   1.1754   1.1755   1.3736   1.3736   1.4943   1.4943
     2.4972   2.4972   2.8336   2.8336   2.8915   2.8915   2.9291   2.9291
     3.0249   3.0249   3.0951   3.0951   3.3076   3.3076   3.3542   3.3542
     3.4961   3.4961   4.2071   4.2071   4.5394   4.5394   4.9011   4.9011
     4.9790   4.9790   5.1227   5.1227   5.2421   5.2421   5.3567   5.3567
     5.5243   5.5243   5.5757   5.5757   5.8418   5.8418   5.9951   5.9951
     6.3053   6.3053   6.3697   6.3697   6.5024   6.5024   6.7462   6.7462
     6.7730   6.7730   6.8084   6.8084   6.9142   6.9142   7.3910   7.3911
     7.4101   7.4101   7.4142   7.4143   7.4313   7.4313   8.1165   8.1165
     9.4293   9.4293  11.1325  11.1326  11.1565  11.1565  11.1901  11.1901
    11.2642  11.2642  12.2976  12.2976  12.4674  12.4674  13.0603  13.0603
    13.2125  13.2125  13.2343  13.2343  13.2584  13.2584  13.6418  13.6418
    14.4595  14.4595  15.0241  15.0241  15.1082  15.1082  15.3636  15.3636
    16.3697  16.3697  17.5296  17.5297  17.6175

          k = 0.0000-0.4888 0.3335 ( 63100 PWs)   bands (ev):

   -66.3414 -66.3414 -66.3411 -66.3411 -66.3407 -66.3407 -66.3404 -66.3404
   -30.7036 -30.7036 -30.7012 -30.7012 -30.6742 -30.6742 -30.6705 -30.6705
   -30.6614 -30.6614 -30.6564 -30.6563 -30.6540 -30.6540 -30.6442 -30.6442
   -30.6260 -30.6260 -30.6197 -30.6197 -30.6104 -30.6104 -30.6052 -30.6052
   -20.5064 -20.5064 -20.5061 -20.5061 -20.5059 -20.5059 -20.5056 -20.5056
   -20.4932 -20.4932 -20.4928 -20.4928 -20.4918 -20.4918 -20.4915 -20.4915
   -20.4833 -20.4833 -20.4824 -20.4824 -20.4821 -20.4821 -20.4811 -20.4811
   -20.4787 -20.4787 -20.4785 -20.4785 -20.4747 -20.4747 -20.4743 -20.4743
   -20.4718 -20.4718 -20.4716 -20.4716 -20.4715 -20.4715 -20.4712 -20.4712
   -20.4687 -20.4687 -20.4682 -20.4681 -20.4673 -20.4673 -20.4669 -20.4669
   -20.4598 -20.4598 -20.4596 -20.4596 -20.4591 -20.4591 -20.4590 -20.4590
    -9.7457  -9.7457  -9.5578  -9.5578  -9.2193  -9.2193  -8.9543  -8.9543
    -8.7522  -8.7522  -8.6244  -8.6244  -8.5572  -8.5572  -8.5523  -8.5523
    -8.3089  -8.3089  -8.2693  -8.2693  -7.9488  -7.9488  -7.9232  -7.9232
     1.1583   1.1583   1.1731   1.1731   2.0276   2.0276   2.1198   2.1198
     2.7216   2.7216   2.8383   2.8383   2.9015   2.9015   2.9539   2.9539
     3.0726   3.0726   3.1261   3.1261   3.2841   3.2841   3.4446   3.4446
     3.5355   3.5355   3.6863   3.6863   4.3895   4.3895   4.4905   4.4905
     4.6662   4.6662   4.7631   4.7631   4.8725   4.8725   5.0968   5.0968
     5.2768   5.2769   5.4850   5.4850   5.8806   5.8806   6.0443   6.0443
     6.3542   6.3542   6.4152   6.4152   6.4977   6.4977   6.5542   6.5542
     6.9548   6.9548   7.0667   7.0667   7.1207   7.1207   7.3640   7.3640
     7.3758   7.3758   7.4036   7.4036   7.4465   7.4465   7.9163   7.9163
    10.1606  10.1606  11.1626  11.1626  11.1828  11.1828  11.5322  11.5322
    11.5881  11.5881  11.7705  11.7705  12.6293  12.6293  12.7036  12.7036
    12.7347  12.7347  13.1305  13.1305  13.2341  13.2341  13.3706  13.3706
    14.7319  14.7319  14.9796  14.9796  15.7064  15.7065  16.2920  16.2920
    16.6877  16.6877  17.0090  17.0090  17.6866

          k = 0.0000-0.4888-0.5003 ( 63088 PWs)   bands (ev):

   -66.3412 -66.3412 -66.3412 -66.3412 -66.3406 -66.3406 -66.3406 -66.3406
   -30.7024 -30.7024 -30.7024 -30.7024 -30.6648 -30.6648 -30.6648 -30.6648
   -30.6612 -30.6612 -30.6612 -30.6612 -30.6420 -30.6420 -30.6420 -30.6420
   -30.6345 -30.6345 -30.6345 -30.6345 -30.6086 -30.6086 -30.6086 -30.6086
   -20.5062 -20.5062 -20.5062 -20.5062 -20.5059 -20.5058 -20.5058 -20.5058
   -20.4930 -20.4930 -20.4930 -20.4930 -20.4916 -20.4916 -20.4916 -20.4916
   -20.4829 -20.4829 -20.4829 -20.4829 -20.4816 -20.4816 -20.4816 -20.4816
   -20.4786 -20.4786 -20.4786 -20.4786 -20.4745 -20.4745 -20.4745 -20.4745
   -20.4717 -20.4717 -20.4717 -20.4717 -20.4714 -20.4714 -20.4714 -20.4714
   -20.4680 -20.4680 -20.4680 -20.4680 -20.4675 -20.4675 -20.4675 -20.4675
   -20.4595 -20.4595 -20.4595 -20.4595 -20.4593 -20.4593 -20.4593 -20.4593
    -9.6319  -9.6319  -9.6319  -9.6319  -8.9355  -8.9355  -8.9355  -8.9355
    -8.7515  -8.7515  -8.7515  -8.7515  -8.5107  -8.5107  -8.5107  -8.5107
    -8.4803  -8.4803  -8.4803  -8.4803  -7.9362  -7.9362  -7.9362  -7.9362
     1.1693   1.1693   1.1693   1.1693   2.7144   2.7144   2.7144   2.7144
     2.8181   2.8181   2.8181   2.8181   3.0057   3.0057   3.0057   3.0057
     3.0874   3.0874   3.0874   3.0874   3.2628   3.2628   3.2628   3.2628
     3.3846   3.3846   3.3846   3.3846   4.2424   4.2424   4.2425   4.2425
     4.3098   4.3098   4.3098   4.3098   4.9970   4.9970   4.9970   4.9970
     5.3511   5.3511   5.3511   5.3511   5.9649   5.9649   5.9649   5.9649
     6.3488   6.3488   6.3488   6.3488   6.4766   6.4766   6.4766   6.4766
     7.2613   7.2613   7.2613   7.2613   7.2889   7.2889   7.2889   7.2889
     7.3288   7.3288   7.3288   7.3288   7.6072   7.6072   7.6072   7.6072
    10.9631  10.9631  10.9631  10.9631  11.2112  11.2112  11.2112  11.2112
    12.0835  12.0835  12.0835  12.0835  12.1408  12.1408  12.1408  12.1408
    12.9023  12.9023  12.9023  12.9023  13.2463  13.2463  13.2463  13.2463
    14.8895  14.8895  14.8895  14.8895  16.4007  16.4007  16.4007  16.4007
    17.2963  17.2965  17.2966  17.2968  17.3598

          k = 0.1667 0.0000 0.0000 ( 63017 PWs)   bands (ev):

   -66.3418 -66.3412 -66.3412 -66.3411 -66.3407 -66.3406 -66.3406 -66.3400
   -30.7107 -30.7066 -30.6987 -30.6973 -30.6936 -30.6934 -30.6908 -30.6888
   -30.6867 -30.6788 -30.6780 -30.6708 -30.6367 -30.6338 -30.6225 -30.6209
   -30.6207 -30.6152 -30.6135 -30.6032 -30.6016 -30.5993 -30.5968 -30.5923
   -20.5066 -20.5066 -20.5063 -20.5063 -20.5057 -20.5057 -20.5054 -20.5054
   -20.4934 -20.4932 -20.4926 -20.4925 -20.4921 -20.4919 -20.4915 -20.4913
   -20.4838 -20.4837 -20.4827 -20.4826 -20.4821 -20.4818 -20.4809 -20.4807
   -20.4792 -20.4787 -20.4782 -20.4776 -20.4763 -20.4761 -20.4748 -20.4745
   -20.4744 -20.4740 -20.4734 -20.4728 -20.4700 -20.4696 -20.4693 -20.4689
   -20.4682 -20.4681 -20.4680 -20.4678 -20.4668 -20.4666 -20.4663 -20.4662
   -20.4601 -20.4600 -20.4598 -20.4598 -20.4589 -20.4589 -20.4586 -20.4585
   -10.1077  -9.7803  -9.7200  -9.7124  -9.4198  -9.3484  -9.3124  -9.0930
    -9.0586  -9.0112  -8.9927  -8.9751  -8.1171  -8.0653  -8.0553  -8.0288
    -7.9473  -7.9439  -7.9142  -7.9022  -7.8724  -7.8498  -7.8281  -7.8112
     1.0576   1.0794   1.0895   1.1245   1.1450   1.1929   1.2691   1.2748
     1.4235   1.4763   1.5356   1.6178   2.3279   2.3907   2.3918   2.4306
     2.4672   2.5670   3.9245   3.9413   4.1105   4.1371   4.1795   4.2210
     4.3537   4.3698   4.5722   4.5909   4.7065   4.7071   4.9625   5.2038
     5.3478   5.3679   5.4086   5.4437   5.4595   5.5050   5.5541   5.5965
     5.5967   5.7548   5.7801   5.8101   5.8333   5.9366   5.9710   6.1096
     6.1730   6.2894   6.3276   6.3621   6.4512   6.4763   6.4777   6.5324
     6.5538   6.6930   6.8206   6.8289   6.8305   6.8418   6.8961   6.9146
     6.9949   7.0048   7.9899   8.0093   8.1057   8.1225   8.1682   8.1837
     9.3910   9.4058   9.5592   9.6760   9.9098  10.0064  12.2048  12.2088
    12.3457  12.3901  12.4899  12.5201  12.5687  12.5750  12.6278  12.7507
    13.0739  13.1090  13.4104  13.4799  13.5222  13.6515  13.9496  13.9509
    13.9674  14.0149  14.3665  14.5513  14.5765  14.6809  15.2457  15.4973
    15.7281  16.4752  16.5217  16.9990  17.0312

          k = 0.1667 0.0000 0.1668 ( 63081 PWs)   bands (ev):

   -66.3417 -66.3412 -66.3412 -66.3412 -66.3406 -66.3406 -66.3406 -66.3401
   -30.7105 -30.7069 -30.6984 -30.6963 -30.6939 -30.6924 -30.6892 -30.6843
   -30.6816 -30.6784 -30.6741 -30.6676 -30.6364 -30.6342 -30.6250 -30.6220
   -30.6203 -30.6173 -30.6148 -30.6067 -30.6029 -30.6021 -30.6014 -30.5943
   -20.5065 -20.5065 -20.5062 -20.5062 -20.5057 -20.5057 -20.5055 -20.5055
   -20.4933 -20.4932 -20.4927 -20.4925 -20.4921 -20.4919 -20.4915 -20.4913
   -20.4837 -20.4836 -20.4826 -20.4825 -20.4822 -20.4819 -20.4810 -20.4808
   -20.4791 -20.4788 -20.4782 -20.4777 -20.4763 -20.4762 -20.4747 -20.4746
   -20.4744 -20.4740 -20.4734 -20.4729 -20.4699 -20.4696 -20.4691 -20.4687
   -20.4683 -20.4683 -20.4679 -20.4676 -20.4668 -20.4668 -20.4664 -20.4664
   -20.4600 -20.4599 -20.4598 -20.4598 -20.4590 -20.4589 -20.4587 -20.4586
   -10.0654  -9.7295  -9.7261  -9.6619  -9.3590  -9.3358  -9.3214  -9.0560
    -9.0280  -8.9855  -8.9798  -8.9769  -8.1304  -8.0792  -8.0627  -8.0533
    -8.0492  -8.0387  -8.0089  -7.9871  -7.8859  -7.8531  -7.8472  -7.8144
     1.1213   1.1782   1.1837   1.2611   1.2631   1.2647   1.3748   1.4216
     1.4389   1.4765   1.6069   1.6940   2.3938   2.4098   2.4452   2.4699
     2.5396   2.6492   3.8977   3.9051   4.0676   4.0909   4.2633   4.2675
     4.3141   4.3227   4.3446   4.3944   4.4132   4.4906   4.9613   5.1672
     5.1880   5.2785   5.3439   5.3662   5.4648   5.4932   5.5255   5.5641
     5.5657   5.6248   5.6327   5.7473   5.8020   5.9710   6.0721   6.1188
     6.1943   6.3963   6.4275   6.4375   6.4508   6.4710   6.4773   6.5053
     6.5859   6.5954   6.6356   6.7488   6.8038   6.8587   6.8874   6.9223
     6.9508   6.9654   7.9922   8.0047   8.0506   8.0642   8.1117   8.1307
     9.6583   9.6664   9.8536   9.9076  10.0036  10.0066  12.2612  12.2620
    12.3287  12.3485  12.4036  12.4604  12.5428  12.5493  12.6510  12.7624
    12.8636  12.8893  13.4326  13.4410  13.4749  13.5749  13.8162  13.8652
    14.1288  14.1968  14.4441  14.7010  14.7019  14.7953  15.4612  15.6652
    15.7102  16.6175  16.6536  16.7160  17.2462

          k = 0.1667 0.0000 0.3335 ( 63104 PWs)   bands (ev):

   -66.3416 -66.3413 -66.3411 -66.3411 -66.3407 -66.3407 -66.3405 -66.3402
   -30.7098 -30.7077 -30.6975 -30.6950 -30.6948 -30.6928 -30.6848 -30.6797
   -30.6709 -30.6676 -30.6610 -30.6565 -30.6370 -30.6357 -30.6336 -30.6286
   -30.6275 -30.6204 -30.6192 -30.6136 -30.6114 -30.6075 -30.6019 -30.5977
   -20.5064 -20.5064 -20.5061 -20.5061 -20.5059 -20.5059 -20.5057 -20.5056
   -20.4932 -20.4930 -20.4928 -20.4927 -20.4919 -20.4918 -20.4916 -20.4915
   -20.4833 -20.4832 -20.4824 -20.4823 -20.4822 -20.4821 -20.4813 -20.4811
   -20.4791 -20.4788 -20.4781 -20.4778 -20.4763 -20.4762 -20.4746 -20.4745
   -20.4745 -20.4741 -20.4734 -20.4730 -20.4697 -20.4694 -20.4688 -20.4687
   -20.4686 -20.4682 -20.4676 -20.4673 -20.4673 -20.4670 -20.4669 -20.4666
   -20.4598 -20.4597 -20.4596 -20.4595 -20.4592 -20.4591 -20.4590 -20.4589
    -9.9626  -9.7733  -9.5961  -9.5341  -9.3945  -9.3522  -9.0978  -9.0035
    -8.9831  -8.9119  -8.8939  -8.8674  -8.3660  -8.3405  -8.3335  -8.3133
    -8.0864  -8.0654  -8.0469  -8.0235  -7.8843  -7.8621  -7.8453  -7.8232
     1.1346   1.1663   1.2109   1.2443   1.4066   1.4211   1.4365   1.4726
     2.0459   2.0646   2.1480   2.1827   2.4001   2.4426   2.6365   2.6685
     2.7919   2.8895   3.6010   3.6639   3.7923   3.8445   3.9260   3.9587
     4.0233   4.0713   4.3359   4.3522   4.4119   4.5449   4.5864   4.6563
     4.9371   5.0034   5.0578   5.1248   5.2448   5.2620   5.4986   5.5705
     5.5930   5.6762   5.7202   5.7321   5.7893   5.8254   5.8566   5.9838
     6.1942   6.2774   6.3005   6.3316   6.3561   6.4503   6.4686   6.5013
     6.5819   6.7705   6.7818   6.8103   6.8445   6.8974   7.0617   7.0964
     7.1427   7.2147   7.8557   7.8735   7.9296   7.9444   8.0004   8.0194
     9.9182   9.9760  10.3053  10.3179  10.6203  10.6734  11.8037  11.8225
    12.2599  12.2940  12.4338  12.4507  12.5415  12.5500  12.5857  12.6784
    12.6807  12.8105  13.1490  13.1611  13.4472  13.4893  13.4928  13.5352
    14.3634  14.4596  14.7135  15.1025  15.1593  15.3246  15.3541  15.6526
    16.1476  16.6896  17.0166  17.0272  17.1374

          k = 0.1667 0.0000-0.5003 ( 63030 PWs)   bands (ev):

   -66.3415 -66.3415 -66.3409 -66.3409 -66.3409 -66.3409 -66.3404 -66.3403
   -30.7088 -30.7088 -30.6961 -30.6961 -30.6938 -30.6938 -30.6817 -30.6817
   -30.6524 -30.6524 -30.6489 -30.6489 -30.6430 -30.6430 -30.6387 -30.6387
   -30.6343 -30.6343 -30.6171 -30.6171 -30.6113 -30.6113 -30.6002 -30.6002
   -20.5061 -20.5061 -20.5061 -20.5061 -20.5059 -20.5059 -20.5059 -20.5059
   -20.4930 -20.4930 -20.4928 -20.4928 -20.4918 -20.4918 -20.4916 -20.4916
   -20.4829 -20.4829 -20.4827 -20.4827 -20.4817 -20.4817 -20.4816 -20.4816
   -20.4789 -20.4789 -20.4779 -20.4779 -20.4763 -20.4762 -20.4745 -20.4745
   -20.4742 -20.4742 -20.4732 -20.4732 -20.4693 -20.4693 -20.4691 -20.4691
   -20.4679 -20.4679 -20.4676 -20.4676 -20.4673 -20.4673 -20.4669 -20.4669
   -20.4595 -20.4595 -20.4594 -20.4593 -20.4593 -20.4593 -20.4592 -20.4592
    -9.8527  -9.8527  -9.4702  -9.4702  -9.4179  -9.4179  -8.9909  -8.9909
    -8.7470  -8.7470  -8.6697  -8.6697  -8.6537  -8.6536  -8.6342  -8.6342
    -8.0771  -8.0771  -8.0370  -8.0370  -7.8739  -7.8739  -7.8348  -7.8348
     1.1484   1.1484   1.2269   1.2269   1.4226   1.4226   1.4653   1.4653
     2.4054   2.4054   2.7122   2.7122   2.7657   2.7657   2.9442   2.9442
     2.9823   2.9823   3.2062   3.2062   3.3908   3.3908   3.7393   3.7394
     3.7572   3.7572   4.0461   4.0461   4.3406   4.3406   4.8052   4.8052
     4.8894   4.8894   4.9436   4.9436   5.1213   5.1213   5.5500   5.5500
     5.6460   5.6460   5.6826   5.6826   5.7831   5.7831   5.9064   5.9064
     6.1412   6.1412   6.2036   6.2036   6.4360   6.4360   6.4617   6.4617
     6.6818   6.6818   6.8093   6.8093   6.8395   6.8395   7.5236   7.5236
     7.5335   7.5336   7.6085   7.6085   7.6306   7.6306   8.0068   8.0068
     9.9521   9.9521  11.0731  11.0731  11.0933  11.0933  11.4742  11.4742
    11.5084  11.5084  12.5428  12.5428  12.6307  12.6307  12.7436  12.7436
    12.8260  12.8260  13.0292  13.0292  13.0632  13.0632  13.5141  13.5141
    14.4362  14.4362  15.1258  15.1258  15.4813  15.4813  15.5803  15.5803
    16.2538  16.2538  17.3805  17.3805  17.5819

          k = 0.1667 0.1629 0.0000 ( 63109 PWs)   bands (ev):

   -66.3417 -66.3413 -66.3412 -66.3411 -66.3407 -66.3406 -66.3405 -66.3401
   -30.7084 -30.7043 -30.6975 -30.6950 -30.6931 -30.6911 -30.6890 -30.6889
   -30.6865 -30.6783 -30.6754 -30.6688 -30.6391 -30.6365 -30.6259 -30.6207
   -30.6204 -30.6197 -30.6144 -30.6058 -30.6018 -30.6003 -30.5969 -30.5935
   -20.5066 -20.5066 -20.5063 -20.5063 -20.5057 -20.5057 -20.5054 -20.5054
   -20.4934 -20.4932 -20.4926 -20.4925 -20.4921 -20.4919 -20.4915 -20.4913
   -20.4838 -20.4837 -20.4827 -20.4826 -20.4820 -20.4819 -20.4809 -20.4807
   -20.4791 -20.4786 -20.4783 -20.4777 -20.4761 -20.4759 -20.4748 -20.4742
   -20.4740 -20.4739 -20.4733 -20.4727 -20.4700 -20.4697 -20.4693 -20.4689
   -20.4686 -20.4685 -20.4684 -20.4681 -20.4667 -20.4666 -20.4663 -20.4662
   -20.4601 -20.4600 -20.4599 -20.4598 -20.4589 -20.4588 -20.4586 -20.4586
   -10.0680  -9.7359  -9.7317  -9.6651  -9.4299  -9.3233  -9.2665  -9.0892
    -9.0605  -8.9726  -8.9502  -8.9412  -8.1380  -8.0790  -8.0619  -8.0494
    -7.9895  -7.9871  -7.9494  -7.9448  -7.9250  -7.9071  -7.9004  -7.8632
     1.0770   1.0793   1.1160   1.1249   1.3248   1.3429   1.4177   1.4927
     1.4979   1.5412   1.5820   1.7114   2.4017   2.4558   2.4573   2.4718
     2.5271   2.5657   3.7565   3.7814   3.8788   3.9481   4.1543   4.2153
     4.3727   4.4035   4.5522   4.5904   4.7548   4.7683   4.7731   5.1013
     5.1161   5.2298   5.2369   5.3780   5.4144   5.4224   5.4576   5.5755
     5.6421   5.7668   5.8363   5.8548   5.8997   5.9209   5.9777   6.1004
     6.1079   6.2522   6.2964   6.3194   6.4406   6.5273   6.5718   6.5850
     6.5982   6.7367   6.7636   6.8162   6.8361   6.8371   6.8935   6.9038
     6.9235   6.9651   7.9376   7.9581   8.0805   8.0916   8.1059   8.1277
     9.4063   9.4064   9.7774   9.8729  10.1035  10.1928  12.1380  12.1980
    12.2303  12.2523  12.3626  12.3708  12.5397  12.5466  12.6684  12.7785
    13.1022  13.1377  13.4338  13.4762  13.5809  13.6534  13.8659  13.9177
    14.0624  14.1842  14.3971  14.5733  14.6555  14.8797  15.2224  15.6949
    15.9059  16.1930  16.7018  17.1652  17.2310

          k = 0.1667 0.1629 0.1668 ( 63088 PWs)   bands (ev):

   -66.3417 -66.3412 -66.3411 -66.3411 -66.3407 -66.3407 -66.3406 -66.3401
   -30.7082 -30.7046 -30.6967 -30.6946 -30.6926 -30.6894 -30.6884 -30.6843
   -30.6814 -30.6759 -30.6737 -30.6660 -30.6388 -30.6370 -30.6279 -30.6218
   -30.6200 -30.6193 -30.6177 -30.6069 -30.6055 -30.6037 -30.6014 -30.5959
   -20.5065 -20.5065 -20.5062 -20.5062 -20.5057 -20.5057 -20.5055 -20.5055
   -20.4933 -20.4932 -20.4926 -20.4925 -20.4920 -20.4919 -20.4915 -20.4913
   -20.4837 -20.4836 -20.4826 -20.4825 -20.4821 -20.4820 -20.4810 -20.4808
   -20.4790 -20.4787 -20.4782 -20.4777 -20.4761 -20.4759 -20.4747 -20.4742
   -20.4740 -20.4740 -20.4733 -20.4727 -20.4700 -20.4697 -20.4692 -20.4688
   -20.4687 -20.4686 -20.4683 -20.4679 -20.4668 -20.4668 -20.4664 -20.4664
   -20.4600 -20.4599 -20.4598 -20.4598 -20.4590 -20.4589 -20.4587 -20.4587
   -10.0241  -9.6825  -9.6765  -9.6746  -9.3464  -9.3326  -9.2771  -9.0540
    -9.0297  -8.9462  -8.9436  -8.9417  -8.1576  -8.0825  -8.0783  -8.0636
    -8.0586  -8.0462  -8.0083  -7.9959  -7.9695  -7.9470  -7.9419  -7.9190
     1.2595   1.2614   1.3151   1.3359   1.3440   1.3763   1.4195   1.4917
     1.5468   1.5781   1.6084   1.7654   2.4671   2.4852   2.5091   2.5424
     2.5631   2.6449   3.7520   3.7701   3.8883   3.9108   4.2406   4.2643
     4.2806   4.2947   4.3839   4.4021   4.4690   4.5391   4.7707   5.0677
     5.0865   5.1785   5.1939   5.2106   5.3012   5.4135   5.4247   5.4334
     5.4762   5.5857   5.8128   5.8410   5.8801   5.9242   6.0431   6.0593
     6.2364   6.2973   6.3012   6.4054   6.4402   6.5254   6.5563   6.5821
     6.6314   6.6668   6.6945   6.7753   6.8181   6.8318   6.8766   6.9071
     6.9473   6.9902   7.9401   7.9524   8.0323   8.0404   8.0501   8.0736
     9.6649   9.6679  10.0359  10.0849  10.1737  10.1897  12.2070  12.2548
    12.2866  12.3030  12.3233  12.3453  12.3854  12.4017  12.6918  12.7844
    12.8940  12.9181  13.4216  13.4422  13.5271  13.5765  13.7196  13.7635
    14.2748  14.4509  14.5700  14.6992  14.7255  14.9761  15.6342  15.6782
    15.8746  16.3268  16.8086  16.8520  17.2892

          k = 0.1667 0.1629 0.3335 ( 63085 PWs)   bands (ev):

   -66.3416 -66.3413 -66.3411 -66.3410 -66.3408 -66.3407 -66.3405 -66.3402
   -30.7075 -30.7054 -30.6954 -30.6932 -30.6932 -30.6903 -30.6831 -30.6772
   -30.6710 -30.6676 -30.6609 -30.6558 -30.6393 -30.6380 -30.6355 -30.6285
   -30.6275 -30.6205 -30.6189 -30.6179 -30.6112 -30.6105 -30.6044 -30.5999
   -20.5064 -20.5064 -20.5061 -20.5061 -20.5059 -20.5059 -20.5057 -20.5056
   -20.4932 -20.4930 -20.4928 -20.4927 -20.4919 -20.4918 -20.4916 -20.4915
   -20.4833 -20.4832 -20.4824 -20.4823 -20.4822 -20.4821 -20.4813 -20.4812
   -20.4790 -20.4787 -20.4781 -20.4778 -20.4760 -20.4759 -20.4745 -20.4742
   -20.4741 -20.4741 -20.4732 -20.4729 -20.4698 -20.4696 -20.4691 -20.4690
   -20.4686 -20.4682 -20.4679 -20.4676 -20.4673 -20.4671 -20.4669 -20.4667
   -20.4598 -20.4597 -20.4596 -20.4596 -20.4592 -20.4591 -20.4590 -20.4589
    -9.9175  -9.7234  -9.5495  -9.5347  -9.3644  -9.3141  -9.1085  -8.9828
    -8.9501  -8.9139  -8.8736  -8.8452  -8.3816  -8.3423  -8.3375  -8.3101
    -8.0929  -8.0786  -8.0524  -8.0342  -7.9744  -7.9563  -7.9523  -7.9321
     1.3213   1.3329   1.3993   1.4136   1.4523   1.4628   1.5307   1.5699
     2.0453   2.0739   2.1467   2.1968   2.4741   2.5142   2.7049   2.7374
     2.8087   2.8836   3.5791   3.5972   3.7843   3.8129   3.8507   3.9172
     3.9658   4.0220   4.3313   4.3871   4.4050   4.5345   4.5753   4.6318
     4.7420   4.8030   4.9156   4.9639   5.0634   5.1234   5.2628   5.4490
     5.4624   5.6119   5.6401   5.7641   5.7792   5.8107   5.8510   5.8712
     6.1511   6.3468   6.3642   6.4179   6.4591   6.5430   6.5516   6.5720
     6.6213   6.7822   6.8117   6.8164   6.8315   6.9360   7.0564   7.1022
     7.1429   7.2133   7.8542   7.8627   7.8753   7.8871   7.9485   7.9716
    10.0989  10.1582  10.3067  10.3330  10.7239  10.7784  11.8048  11.8214
    12.2774  12.3319  12.3718  12.4066  12.4351  12.4394  12.4849  12.5350
    12.7199  12.7989  13.1459  13.1606  13.3380  13.3735  13.5134  13.5393
    14.5099  14.5978  15.0477  15.1513  15.2523  15.3684  15.6247  15.7607
    16.2819  16.6570  16.7627  17.0861  17.1480

          k = 0.1667 0.1629-0.5003 ( 63030 PWs)   bands (ev):

   -66.3414 -66.3414 -66.3409 -66.3409 -66.3409 -66.3409 -66.3404 -66.3404
   -30.7064 -30.7064 -30.6942 -30.6942 -30.6917 -30.6917 -30.6794 -30.6794
   -30.6529 -30.6529 -30.6493 -30.6493 -30.6431 -30.6431 -30.6386 -30.6386
   -30.6362 -30.6362 -30.6167 -30.6167 -30.6153 -30.6153 -30.6027 -30.6027
   -20.5061 -20.5061 -20.5061 -20.5061 -20.5059 -20.5059 -20.5059 -20.5059
   -20.4930 -20.4930 -20.4929 -20.4929 -20.4918 -20.4918 -20.4916 -20.4916
   -20.4828 -20.4828 -20.4827 -20.4827 -20.4817 -20.4817 -20.4816 -20.4816
   -20.4789 -20.4789 -20.4780 -20.4780 -20.4760 -20.4760 -20.4743 -20.4743
   -20.4742 -20.4741 -20.4731 -20.4731 -20.4695 -20.4695 -20.4694 -20.4694
   -20.4680 -20.4680 -20.4676 -20.4676 -20.4675 -20.4675 -20.4671 -20.4671
   -20.4595 -20.4595 -20.4594 -20.4594 -20.4593 -20.4593 -20.4592 -20.4592
    -9.8043  -9.8042  -9.4318  -9.4318  -9.3956  -9.3956  -8.9596  -8.9596
    -8.7589  -8.7589  -8.6739  -8.6739  -8.6473  -8.6473  -8.6255  -8.6255
    -8.0873  -8.0873  -8.0461  -8.0461  -7.9664  -7.9664  -7.9433  -7.9433
     1.3271   1.3271   1.4136   1.4136   1.4624   1.4624   1.5612   1.5612
     2.4766   2.4766   2.7409   2.7409   2.7995   2.7995   2.9338   2.9339
     2.9763   2.9763   3.2181   3.2181   3.3799   3.3799   3.7610   3.7610
     3.8075   3.8075   3.9030   3.9030   4.3490   4.3490   4.6635   4.6636
     4.7586   4.7586   4.8518   4.8518   4.9064   4.9064   5.3910   5.3910
     5.5258   5.5258   5.5673   5.5673   5.6750   5.6750   5.8582   5.8582
     6.2867   6.2867   6.3975   6.3975   6.4949   6.4949   6.5317   6.5317
     6.6750   6.6750   6.8112   6.8112   6.8730   6.8730   7.5243   7.5243
     7.5297   7.5297   7.5811   7.5811   7.6018   7.6018   7.9553   7.9553
    10.1393  10.1393  11.0738  11.0738  11.0936  11.0936  11.5357  11.5357
    11.5741  11.5741  12.3784  12.3784  12.6453  12.6453  12.7353  12.7353
    12.8199  12.8199  12.9088  12.9088  12.9461  12.9461  13.5265  13.5266
    14.5763  14.5763  15.4579  15.4579  15.5087  15.5087  15.7250  15.7250
    16.3251  16.3251  17.2297  17.2297  17.5395

          k = 0.1667 0.3258 0.0000 ( 63135 PWs)   bands (ev):

   -66.3416 -66.3414 -66.3411 -66.3410 -66.3408 -66.3407 -66.3404 -66.3402
   -30.7038 -30.6998 -30.6981 -30.6933 -30.6908 -30.6891 -30.6881 -30.6861
   -30.6767 -30.6736 -30.6665 -30.6616 -30.6473 -30.6456 -30.6366 -30.6322
   -30.6198 -30.6189 -30.6164 -30.6114 -30.6021 -30.6018 -30.5970 -30.5956
   -20.5066 -20.5066 -20.5063 -20.5063 -20.5057 -20.5057 -20.5054 -20.5054
   -20.4933 -20.4933 -20.4926 -20.4925 -20.4920 -20.4920 -20.4914 -20.4913
   -20.4838 -20.4837 -20.4827 -20.4826 -20.4820 -20.4819 -20.4809 -20.4807
   -20.4789 -20.4784 -20.4784 -20.4778 -20.4756 -20.4752 -20.4749 -20.4741
   -20.4731 -20.4730 -20.4727 -20.4721 -20.4703 -20.4703 -20.4698 -20.4697
   -20.4694 -20.4692 -20.4689 -20.4687 -20.4667 -20.4666 -20.4663 -20.4663
   -20.4601 -20.4600 -20.4599 -20.4599 -20.4589 -20.4588 -20.4587 -20.4586
    -9.9700  -9.7794  -9.6304  -9.5463  -9.4633  -9.3590  -9.0822  -9.0660
    -9.0346  -8.8403  -8.8211  -8.8108  -8.3475  -8.2763  -8.2697  -8.2383
    -8.0739  -8.0603  -8.0260  -8.0094  -7.9398  -7.9229  -7.8953  -7.8792
     1.0793   1.0794   1.1251   1.1257   1.4065   1.4187   1.4957   1.5280
     2.0741   2.1755   2.2118   2.3166   2.4699   2.5212   2.6626   2.6985
     2.7191   2.7372   3.3617   3.3644   3.4837   3.5003   3.9425   4.1711
     4.1763   4.2741   4.3177   4.5173   4.5639   4.5996   4.6732   4.7079
     4.9140   4.9626   5.1089   5.2340   5.2504   5.3014   5.4653   5.4854
     5.5412   5.5861   5.6320   5.8293   5.8485   5.9196   5.9960   6.0696
     6.1430   6.2403   6.2896   6.4126   6.5428   6.6126   6.6976   6.7429
     6.7721   6.7954   6.8252   6.8255   6.8418   6.8795   6.9178   6.9780
     7.0123   7.0530   7.7450   7.7639   7.8225   7.8382   8.1097   8.1203
     9.4116   9.4163  10.3374  10.4081  10.6118  10.6787  11.6976  11.7488
    11.9077  11.9254  12.2180  12.2288  12.5382  12.5437  12.7914  12.8875
    13.1822  13.2394  13.2967  13.3442  13.6116  13.6163  13.6635  13.6944
    14.3365  14.4068  14.6262  14.6668  15.0258  15.1375  15.5316  15.5897
    15.6579  16.9111  16.9812  17.1686  17.3087

          k = 0.1667 0.3258 0.1668 ( 63118 PWs)   bands (ev):

   -66.3416 -66.3413 -66.3410 -66.3410 -66.3408 -66.3408 -66.3405 -66.3402
   -30.7035 -30.7000 -30.6976 -30.6936 -30.6875 -30.6850 -30.6845 -30.6811
   -30.6771 -30.6708 -30.6670 -30.6598 -30.6468 -30.6461 -30.6377 -30.6316
   -30.6211 -30.6192 -30.6182 -30.6110 -30.6071 -30.6061 -30.6013 -30.5988
   -20.5065 -20.5065 -20.5062 -20.5062 -20.5057 -20.5057 -20.5055 -20.5055
   -20.4933 -20.4932 -20.4926 -20.4926 -20.4920 -20.4919 -20.4915 -20.4914
   -20.4836 -20.4836 -20.4825 -20.4825 -20.4821 -20.4820 -20.4810 -20.4809
   -20.4788 -20.4784 -20.4784 -20.4779 -20.4756 -20.4752 -20.4748 -20.4741
   -20.4731 -20.4730 -20.4727 -20.4722 -20.4704 -20.4703 -20.4699 -20.4697
   -20.4692 -20.4690 -20.4687 -20.4685 -20.4669 -20.4668 -20.4665 -20.4664
   -20.4600 -20.4600 -20.4598 -20.4598 -20.4590 -20.4589 -20.4588 -20.4587
    -9.9222  -9.7256  -9.5627  -9.5583  -9.3808  -9.3691  -9.0505  -9.0444
    -9.0347  -8.8250  -8.8233  -8.8048  -8.3611  -8.2809  -8.2745  -8.2418
    -8.0727  -8.0716  -8.0440  -8.0381  -8.0271  -8.0139  -7.9996  -7.9834
     1.2604   1.2618   1.3668   1.3732   1.4089   1.4208   1.5591   1.6005
     2.0788   2.1734   2.2026   2.3078   2.5526   2.5992   2.7128   2.7355
     2.7511   2.7916   3.3820   3.3973   3.4897   3.4966   3.9331   4.2093
     4.2387   4.2546   4.2831   4.2917   4.3374   4.5789   4.6062   4.6792
     4.7180   4.7307   5.0682   5.1048   5.2125   5.2327   5.2786   5.2975
     5.4723   5.4869   5.5641   5.6018   5.6491   5.6841   6.0700   6.0836
     6.3240   6.3700   6.4080   6.5253   6.5452   6.6016   6.6260   6.6924
     6.7582   6.7794   6.8603   6.8716   6.8887   6.9274   6.9407   6.9751
     7.0359   7.0736   7.7470   7.7564   7.7935   7.8098   8.0520   8.0636
     9.6691   9.6740  10.5182  10.5700  10.6458  10.6753  11.7838  11.8331
    11.9147  11.9248  12.2678  12.2829  12.3489  12.3546  12.8159  12.8912
    12.9984  13.0266  13.2955  13.3407  13.4498  13.4908  13.5325  13.5587
    14.6492  14.6565  14.7273  14.9541  15.0358  15.5383  15.5716  15.6174
    15.7885  16.8764  17.0592  17.2155  17.2364

          k = 0.1667 0.3258 0.3335 ( 63086 PWs)   bands (ev):

   -66.3415 -66.3412 -66.3412 -66.3409 -66.3409 -66.3406 -66.3406 -66.3403
   -30.7027 -30.7006 -30.6966 -30.6944 -30.6826 -30.6787 -30.6772 -30.6715
   -30.6688 -30.6678 -30.6602 -30.6526 -30.6478 -30.6455 -30.6422 -30.6299
   -30.6280 -30.6277 -30.6204 -30.6174 -30.6162 -30.6103 -30.6098 -30.6045
   -20.5064 -20.5064 -20.5061 -20.5061 -20.5059 -20.5059 -20.5057 -20.5056
   -20.4931 -20.4931 -20.4928 -20.4927 -20.4919 -20.4918 -20.4916 -20.4915
   -20.4833 -20.4832 -20.4824 -20.4823 -20.4822 -20.4821 -20.4813 -20.4812
   -20.4787 -20.4785 -20.4783 -20.4780 -20.4755 -20.4753 -20.4747 -20.4742
   -20.4732 -20.4731 -20.4726 -20.4723 -20.4704 -20.4703 -20.4701 -20.4699
   -20.4687 -20.4685 -20.4682 -20.4680 -20.4673 -20.4673 -20.4669 -20.4669
   -20.4598 -20.4597 -20.4596 -20.4596 -20.4592 -20.4591 -20.4591 -20.4590
    -9.8064  -9.6041  -9.5970  -9.4041  -9.3833  -9.1466  -9.0880  -8.9497
    -8.9212  -8.8342  -8.7732  -8.7596  -8.4800  -8.3958  -8.3282  -8.2994
    -8.2706  -8.2508  -8.2065  -8.1793  -8.0605  -8.0438  -8.0335  -8.0191
     1.3904   1.3986   1.4087   1.4194   1.9428   1.9974   2.0413   2.0953
     2.1400   2.1967   2.2361   2.3709   2.6861   2.7244   2.7950   2.8746
     2.9538   2.9742   3.3732   3.3957   3.4758   3.5128   3.7616   3.7815
     3.9224   4.1274   4.1815   4.1980   4.2563   4.3877   4.4030   4.5541
     4.5931   4.6481   4.6779   4.7418   4.7765   4.8227   5.0014   5.0823
     5.1513   5.2278   5.3195   5.5038   5.5277   5.6423   5.7951   5.8034
     6.3962   6.4958   6.5278   6.5936   6.6608   6.6810   6.7136   6.7781
     6.7950   6.8946   6.9108   6.9544   6.9833   7.0380   7.0896   7.1235
     7.1804   7.2041   7.6897   7.6956   7.7356   7.7607   7.8692   7.8953
    10.2895  10.3045  10.6301  10.6653  11.0405  11.0968  11.7862  11.8140
    11.9108  11.9515  12.0712  12.1135  12.4243  12.4520  12.4685  12.5046
    12.8358  12.8860  13.0239  13.0784  13.1487  13.1892  13.3668  13.3987
    14.8396  14.9732  15.1260  15.4246  15.5411  15.7433  15.9014  16.2484
    16.5347  16.6575  16.7523  17.3153  17.3713

          k = 0.1667 0.3258-0.5003 ( 63056 PWs)   bands (ev):

   -66.3413 -66.3413 -66.3410 -66.3410 -66.3408 -66.3408 -66.3405 -66.3405
   -30.7017 -30.7017 -30.6955 -30.6955 -30.6799 -30.6799 -30.6718 -30.6718
   -30.6556 -30.6556 -30.6523 -30.6523 -30.6433 -30.6433 -30.6407 -30.6407
   -30.6377 -30.6377 -30.6252 -30.6252 -30.6152 -30.6152 -30.6080 -30.6080
   -20.5061 -20.5061 -20.5061 -20.5061 -20.5059 -20.5059 -20.5059 -20.5059
   -20.4930 -20.4929 -20.4929 -20.4929 -20.4918 -20.4918 -20.4917 -20.4917
   -20.4828 -20.4828 -20.4827 -20.4827 -20.4817 -20.4817 -20.4816 -20.4816
   -20.4786 -20.4786 -20.4781 -20.4781 -20.4754 -20.4754 -20.4745 -20.4745
   -20.4731 -20.4731 -20.4725 -20.4725 -20.4703 -20.4703 -20.4702 -20.4702
   -20.4680 -20.4680 -20.4678 -20.4678 -20.4676 -20.4676 -20.4674 -20.4674
   -20.4595 -20.4595 -20.4594 -20.4594 -20.4593 -20.4593 -20.4593 -20.4593
    -9.6859  -9.6859  -9.4765  -9.4765  -9.1940  -9.1940  -8.8608  -8.8608
    -8.8079  -8.8078  -8.6895  -8.6895  -8.6198  -8.6198  -8.5906  -8.5906
    -8.2642  -8.2642  -8.2274  -8.2274  -8.0484  -8.0484  -8.0311  -8.0311
     1.4043   1.4044   1.4174   1.4174   2.0814   2.0814   2.1852   2.1852
     2.6709   2.6709   2.8239   2.8240   2.8884   2.8884   2.9029   2.9029
     2.9621   2.9622   3.2457   3.2457   3.3431   3.3431   3.5012   3.5012
     3.9281   3.9281   3.9459   3.9459   3.9763   3.9763   4.2040   4.2040
     4.6262   4.6262   4.7635   4.7635   4.7991   4.7991   4.8646   4.8646
     4.9434   4.9434   5.3962   5.3962   5.5842   5.5842   5.6632   5.6632
     6.5103   6.5103   6.5753   6.5753   6.6467   6.6467   6.7172   6.7172
     6.8731   6.8731   6.9419   6.9420   7.0599   7.0599   7.4713   7.4713
     7.4839   7.4839   7.5145   7.5145   7.5527   7.5527   7.7790   7.7790
    10.6248  10.6248  11.0731  11.0731  11.1010  11.1010  11.7282  11.7282
    11.7783  11.7783  11.9465  11.9465  12.4926  12.4926  12.5467  12.5467
    12.7189  12.7189  12.7722  12.7722  12.9479  12.9479  13.3764  13.3764
    14.9310  14.9310  15.3783  15.3783  16.1107  16.1107  16.4147  16.4147
    16.6430  16.6430  16.8560  16.8560  17.5740

          k = 0.1667-0.4888 0.0000 ( 63128 PWs)   bands (ev):

   -66.3415 -66.3415 -66.3409 -66.3409 -66.3409 -66.3409 -66.3403 -66.3403
   -30.7004 -30.7004 -30.6956 -30.6956 -30.6897 -30.6897 -30.6859 -30.6859
   -30.6609 -30.6609 -30.6604 -30.6604 -30.6520 -30.6520 -30.6481 -30.6481
   -30.6186 -30.6185 -30.6159 -30.6159 -30.6023 -30.6023 -30.5967 -30.5967
   -20.5066 -20.5066 -20.5063 -20.5063 -20.5057 -20.5057 -20.5054 -20.5054
   -20.4933 -20.4933 -20.4925 -20.4925 -20.4920 -20.4920 -20.4914 -20.4914
   -20.4837 -20.4837 -20.4827 -20.4827 -20.4819 -20.4819 -20.4808 -20.4808
   -20.4786 -20.4786 -20.4781 -20.4781 -20.4752 -20.4752 -20.4745 -20.4745
   -20.4716 -20.4716 -20.4716 -20.4716 -20.4714 -20.4714 -20.4710 -20.4710
   -20.4694 -20.4694 -20.4689 -20.4688 -20.4667 -20.4666 -20.4663 -20.4663
   -20.4601 -20.4601 -20.4599 -20.4599 -20.4588 -20.4588 -20.4587 -20.4587
    -9.8616  -9.8616  -9.5286  -9.5286  -9.4309  -9.4309  -9.0737  -9.0737
    -8.6989  -8.6989  -8.5943  -8.5942  -8.5840  -8.5840  -8.5618  -8.5618
    -8.0708  -8.0708  -8.0221  -8.0221  -7.9320  -7.9320  -7.8881  -7.8881
     1.0794   1.0794   1.1262   1.1262   1.4155   1.4155   1.5203   1.5203
     2.4959   2.4959   2.8254   2.8254   2.8993   2.8993   2.9185   2.9185
     3.0254   3.0254   3.1101   3.1101   3.3042   3.3043   3.3585   3.3585
     3.4929   3.4929   4.1888   4.1888   4.5501   4.5501   4.8921   4.8921
     4.9721   4.9721   5.1294   5.1294   5.2506   5.2506   5.3322   5.3322
     5.4992   5.4992   5.6033   5.6034   5.8700   5.8700   6.0536   6.0536
     6.2765   6.2765   6.3124   6.3124   6.5474   6.5474   6.7055   6.7055
     6.7945   6.7945   6.8305   6.8305   6.9030   6.9030   7.3884   7.3884
     7.4068   7.4068   7.4284   7.4284   7.4391   7.4391   8.1151   8.1151
     9.4163   9.4163  11.0386  11.0386  11.0817  11.0817  11.2670  11.2670
    11.3305  11.3305  12.2231  12.2231  12.5410  12.5410  12.9858  12.9858
    13.1184  13.1184  13.3984  13.3984  13.4271  13.4271  13.6304  13.6304
    14.4008  14.4008  14.9565  14.9565  15.0985  15.0985  15.3797  15.3797
    16.3616  16.3616  17.5236  17.5236  17.6341

          k = 0.1667-0.4888 0.1668 ( 63132 PWs)   bands (ev):

   -66.3415 -66.3415 -66.3409 -66.3409 -66.3409 -66.3409 -66.3404 -66.3403
   -30.7000 -30.6999 -30.6959 -30.6959 -30.6852 -30.6852 -30.6814 -30.6813
   -30.6610 -30.6609 -30.6599 -30.6598 -30.6527 -30.6527 -30.6471 -30.6471
   -30.6202 -30.6202 -30.6156 -30.6156 -30.6071 -30.6070 -30.6007 -30.6006
   -20.5065 -20.5065 -20.5062 -20.5062 -20.5057 -20.5057 -20.5055 -20.5055
   -20.4932 -20.4932 -20.4926 -20.4926 -20.4920 -20.4920 -20.4914 -20.4914
   -20.4836 -20.4836 -20.4825 -20.4825 -20.4820 -20.4820 -20.4809 -20.4809
   -20.4786 -20.4786 -20.4781 -20.4781 -20.4751 -20.4751 -20.4745 -20.4745
   -20.4717 -20.4717 -20.4716 -20.4715 -20.4715 -20.4715 -20.4711 -20.4711
   -20.4692 -20.4692 -20.4687 -20.4687 -20.4668 -20.4668 -20.4665 -20.4665
   -20.4600 -20.4600 -20.4598 -20.4598 -20.4589 -20.4589 -20.4588 -20.4588
    -9.8100  -9.8100  -9.4508  -9.4503  -9.4425  -9.4420  -9.0418  -9.0418
    -8.7108  -8.7106  -8.5903  -8.5900  -8.5874  -8.5874  -8.5595  -8.5594
    -8.0739  -8.0736  -8.0450  -8.0411  -8.0312  -8.0259  -7.9941  -7.9923
     1.2606   1.2614   1.3719   1.3732   1.4176   1.4177   1.5914   1.5917
     2.5757   2.5791   2.8325   2.8406   2.8987   2.9000   2.9284   2.9290
     3.0647   3.0680   3.1048   3.1061   3.3353   3.3494   3.3535   3.3642
     3.5098   3.5104   4.2467   4.2538   4.2716   4.2826   4.8316   4.8783
     4.8951   4.9249   4.9724   4.9985   5.0119   5.0195   5.2930   5.3094
[...]
    11.8168  11.8168  11.8168  11.8168  11.8819  11.8819  11.8819  11.8819
    12.8593  12.8593  12.8593  12.8593  12.9908  12.9908  12.9908  12.9908
    15.2889  15.2889  15.2889  15.2889  16.4452  16.4452  16.4452  16.4452
    17.3477  17.3478  17.3478  17.3479  17.4082

          k =-0.5000 0.3258 0.0000 ( 63042 PWs)   bands (ev):

   -66.3414 -66.3414 -66.3411 -66.3411 -66.3407 -66.3407 -66.3405 -66.3404
   -30.6905 -30.6905 -30.6882 -30.6882 -30.6832 -30.6832 -30.6818 -30.6818
   -30.6677 -30.6677 -30.6648 -30.6648 -30.6482 -30.6482 -30.6454 -30.6454
   -30.6312 -30.6312 -30.6261 -30.6261 -30.6000 -30.6000 -30.5995 -30.5995
   -20.5064 -20.5064 -20.5064 -20.5064 -20.5056 -20.5056 -20.5056 -20.5055
   -20.4927 -20.4927 -20.4926 -20.4926 -20.4920 -20.4920 -20.4919 -20.4919
   -20.4832 -20.4832 -20.4832 -20.4832 -20.4814 -20.4814 -20.4813 -20.4813
   -20.4773 -20.4773 -20.4768 -20.4768 -20.4767 -20.4767 -20.4761 -20.4761
   -20.4729 -20.4729 -20.4726 -20.4726 -20.4703 -20.4703 -20.4697 -20.4697
   -20.4691 -20.4691 -20.4689 -20.4689 -20.4665 -20.4665 -20.4664 -20.4664
   -20.4599 -20.4599 -20.4599 -20.4599 -20.4588 -20.4588 -20.4587 -20.4587
    -9.7516  -9.7516  -9.5628  -9.5628  -9.1845  -9.1845  -8.8891  -8.8891
    -8.7913  -8.7913  -8.7011  -8.7011  -8.6265  -8.6265  -8.5933  -8.5933
    -8.2594  -8.2594  -8.2211  -8.2211  -7.9183  -7.9183  -7.9015  -7.9015
     1.1215   1.1215   1.1262   1.1262   2.0763   2.0763   2.1992   2.1992
     2.6655   2.6655   2.7834   2.7834   2.8865   2.8865   2.9203   2.9203
     2.9900   2.9900   3.1991   3.1992   3.2140   3.2140   3.4101   3.4101
     3.8921   3.8921   3.9087   3.9087   4.0538   4.0538   4.2481   4.2481
     4.7397   4.7397   4.8359   4.8359   4.9214   4.9214   5.0556   5.0556
     5.1738   5.1738   5.6813   5.6814   5.9767   5.9767   5.9970   5.9970
     6.2967   6.2967   6.3657   6.3657   6.4202   6.4202   6.6723   6.6723
     6.8391   6.8391   6.9121   6.9121   6.9995   6.9995   7.4613   7.4613
     7.4810   7.4810   7.5258   7.5258   7.5555   7.5555   7.8481   7.8481
    10.3561  10.3561  10.9408  10.9408  10.9574  10.9574  11.6422  11.6422
    11.7460  11.7460  11.8583  11.8583  12.5524  12.5524  12.6015  12.6015
    12.9602  12.9602  12.9791  12.9791  13.2423  13.2423  13.6775  13.6775
    14.5313  14.5313  14.9509  14.9509  16.0250  16.0250  16.3705  16.3705
    16.5091  16.5091  16.8123  16.8123  17.6592

          k =-0.5000 0.3258 0.1668 ( 63074 PWs)   bands (ev):

   -66.3413 -66.3413 -66.3410 -66.3410 -66.3408 -66.3408 -66.3405 -66.3405
   -30.6890 -30.6890 -30.6838 -30.6838 -30.6829 -30.6829 -30.6784 -30.6784
   -30.6674 -30.6674 -30.6649 -30.6649 -30.6488 -30.6488 -30.6447 -30.6447
   -30.6327 -30.6327 -30.6256 -30.6256 -30.6050 -30.6050 -30.6037 -30.6037
   -20.5064 -20.5064 -20.5064 -20.5064 -20.5056 -20.5056 -20.5056 -20.5056
   -20.4926 -20.4926 -20.4926 -20.4926 -20.4920 -20.4920 -20.4920 -20.4920
   -20.4831 -20.4831 -20.4830 -20.4830 -20.4815 -20.4815 -20.4814 -20.4814
   -20.4773 -20.4772 -20.4768 -20.4768 -20.4767 -20.4767 -20.4761 -20.4761
   -20.4729 -20.4729 -20.4726 -20.4726 -20.4703 -20.4703 -20.4698 -20.4698
   -20.4690 -20.4689 -20.4687 -20.4687 -20.4667 -20.4667 -20.4666 -20.4666
   -20.4599 -20.4599 -20.4599 -20.4598 -20.4589 -20.4589 -20.4588 -20.4587
    -9.6889  -9.6889  -9.4862  -9.4862  -9.1987  -9.1987  -8.8681  -8.8681
    -8.8032  -8.8032  -8.6922  -8.6922  -8.6239  -8.6239  -8.5958  -8.5957
    -8.2626  -8.2625  -8.2253  -8.2253  -8.0307  -8.0307  -8.0088  -8.0088
     1.3672   1.3672   1.3767   1.3767   2.0812   2.0812   2.1849   2.1849
     2.7336   2.7336   2.7949   2.7949   2.8686   2.8686   2.9260   2.9260
     2.9852   2.9852   3.2760   3.2760   3.3061   3.3061   3.4495   3.4495
     3.8862   3.8862   3.9152   3.9152   4.0467   4.0467   4.2518   4.2518
     4.6256   4.6256   4.7124   4.7124   4.8222   4.8222   4.8759   4.8759
     4.9228   4.9228   5.4129   5.4129   5.5922   5.5922   5.6976   5.6976
     6.5261   6.5261   6.6202   6.6202   6.6736   6.6736   6.7336   6.7336
     6.8393   6.8393   6.9140   6.9140   7.0427   7.0427   7.4549   7.4549
     7.4769   7.4769   7.5240   7.5240   7.5467   7.5467   7.8194   7.8194
    10.5376  10.5376  11.0300  11.0300  11.0517  11.0517  11.6794  11.6794
    11.7596  11.7596  11.9032  11.9032  12.5471  12.5471  12.5979  12.5979
    12.7916  12.7916  12.8328  12.8328  13.0429  13.0429  13.5071  13.5071
    14.8776  14.8776  15.3452  15.3452  16.1158  16.1158  16.3700  16.3700
    16.5517  16.5517  16.8655  16.8655  17.5270

          k =-0.5000 0.3258 0.3335 ( 63052 PWs)   bands (ev):

   -66.3412 -66.3412 -66.3409 -66.3409 -66.3409 -66.3409 -66.3406 -66.3406
   -30.6870 -30.6870 -30.6843 -30.6843 -30.6705 -30.6705 -30.6683 -30.6683
   -30.6662 -30.6662 -30.6648 -30.6648 -30.6507 -30.6507 -30.6419 -30.6419
   -30.6386 -30.6386 -30.6240 -30.6240 -30.6181 -30.6181 -30.6131 -30.6131
   -20.5062 -20.5062 -20.5062 -20.5062 -20.5058 -20.5058 -20.5058 -20.5058
   -20.4925 -20.4925 -20.4924 -20.4924 -20.4922 -20.4922 -20.4921 -20.4921
   -20.4827 -20.4827 -20.4827 -20.4827 -20.4818 -20.4818 -20.4817 -20.4817
   -20.4772 -20.4772 -20.4769 -20.4769 -20.4766 -20.4766 -20.4763 -20.4762
   -20.4729 -20.4729 -20.4727 -20.4727 -20.4703 -20.4703 -20.4700 -20.4700
   -20.4685 -20.4685 -20.4682 -20.4682 -20.4671 -20.4671 -20.4670 -20.4670
   -20.4597 -20.4597 -20.4596 -20.4596 -20.4591 -20.4591 -20.4590 -20.4590
    -9.5296  -9.5296  -9.2784  -9.2784  -9.2476  -9.2476  -8.8628  -8.8628
    -8.7810  -8.7810  -8.6596  -8.6596  -8.6162  -8.6162  -8.6023  -8.6023
    -8.3477  -8.3477  -8.3021  -8.3021  -8.2311  -8.2311  -8.1878  -8.1878
     1.9493   1.9493   2.0394   2.0394   2.0988   2.0988   2.2177   2.2177
     2.7761   2.7761   2.8280   2.8280   2.9252   2.9252   2.9444   2.9444
     2.9923   2.9923   3.3854   3.3854   3.5410   3.5410   3.5849   3.5849
     3.8600   3.8600   3.9388   3.9388   4.0195   4.0195   4.1620   4.1620
     4.1893   4.1893   4.3815   4.3816   4.4777   4.4777   4.7252   4.7252
     4.7581   4.7581   4.8016   4.8016   4.9277   4.9277   5.2137   5.2137
     6.7473   6.7473   6.8062   6.8062   6.8370   6.8370   6.9031   6.9031
     7.0340   7.0340   7.0742   7.0742   7.1964   7.1964   7.4192   7.4192
     7.4548   7.4548   7.5112   7.5112   7.5363   7.5363   7.7295   7.7295
    11.0279  11.0279  11.3046  11.3046  11.3446  11.3446  11.7157  11.7157
    11.7905  11.7905  12.1098  12.1098  12.3308  12.3308  12.3502  12.3502
    12.5161  12.5161  12.6176  12.6176  12.6268  12.6268  13.0814  13.0814
    15.6449  15.6449  16.2405  16.2405  16.3424  16.3424  16.4113  16.4113
    16.7598  16.7598  16.9994  16.9995  17.1358

          k =-0.5000 0.3258-0.5003 ( 63020 PWs)   bands (ev):

   -66.3410 -66.3410 -66.3410 -66.3410 -66.3408 -66.3408 -66.3408 -66.3408
   -30.6855 -30.6855 -30.6855 -30.6855 -30.6666 -30.6666 -30.6666 -30.6666
   -30.6560 -30.6560 -30.6560 -30.6560 -30.6520 -30.6520 -30.6520 -30.6520
   -30.6333 -30.6333 -30.6333 -30.6332 -30.6204 -30.6204 -30.6204 -30.6204
   -20.5060 -20.5060 -20.5060 -20.5060 -20.5060 -20.5060 -20.5060 -20.5060
   -20.4924 -20.4924 -20.4923 -20.4923 -20.4923 -20.4923 -20.4923 -20.4922
   -20.4823 -20.4823 -20.4823 -20.4823 -20.4822 -20.4821 -20.4821 -20.4821
   -20.4770 -20.4770 -20.4770 -20.4770 -20.4764 -20.4764 -20.4764 -20.4764
   -20.4728 -20.4728 -20.4728 -20.4728 -20.4702 -20.4702 -20.4702 -20.4702
   -20.4678 -20.4678 -20.4678 -20.4678 -20.4676 -20.4676 -20.4676 -20.4676
   -20.4594 -20.4594 -20.4594 -20.4594 -20.4593 -20.4593 -20.4593 -20.4593
    -9.3581  -9.3580  -9.3580  -9.3580  -9.0188  -9.0188  -9.0187  -9.0187
    -8.6334  -8.6334  -8.6334  -8.6334  -8.5739  -8.5739  -8.5739  -8.5739
    -8.5559  -8.5559  -8.5559  -8.5558  -8.2224  -8.2224  -8.2224  -8.2224
     2.0910   2.0911   2.0911   2.0911   2.6970   2.6970   2.6970   2.6970
     2.8216   2.8216   2.8216   2.8216   2.8960   2.8960   2.8960   2.8960
     3.0611   3.0611   3.0611   3.0611   3.7893   3.7893   3.7893   3.7893
     3.8655   3.8655   3.8655   3.8655   3.9869   3.9869   3.9869   3.9869
     4.0794   4.0794   4.0794   4.0794   4.2282   4.2283   4.2283   4.2283
     4.6086   4.6086   4.6086   4.6086   4.9620   4.9620   4.9620   4.9620
     6.8195   6.8195   6.8195   6.8195   6.8743   6.8743   6.8743   6.8743
     7.2688   7.2689   7.2689   7.2689   7.3580   7.3580   7.3580   7.3580
     7.4231   7.4231   7.4231   7.4231   7.5980   7.5980   7.5980   7.5980
    11.5745  11.5745  11.5745  11.5745  11.7328  11.7328  11.7328  11.7328
    11.8669  11.8669  11.8669  11.8669  11.9466  11.9466  11.9466  11.9466
    12.5171  12.5171  12.5171  12.5171  12.6561  12.6561  12.6561  12.6561
    16.1712  16.1713  16.1713  16.1713  16.6730  16.6730  16.6730  16.6730
    17.1428  17.1428  17.1428  17.1428  17.4135

          k =-0.5000-0.4888 0.0000 ( 63068 PWs)   bands (ev):

   -66.3412 -66.3412 -66.3412 -66.3412 -66.3406 -66.3406 -66.3406 -66.3406
   -30.6879 -30.6879 -30.6879 -30.6879 -30.6756 -30.6756 -30.6738 -30.6738
   -30.6724 -30.6724 -30.6703 -30.6703 -30.6427 -30.6427 -30.6407 -30.6407
   -30.6388 -30.6388 -30.6367 -30.6367 -30.6002 -30.6002 -30.6001 -30.6001
   -20.5064 -20.5064 -20.5064 -20.5064 -20.5056 -20.5056 -20.5056 -20.5055
   -20.4927 -20.4926 -20.4926 -20.4926 -20.4920 -20.4920 -20.4919 -20.4919
   -20.4832 -20.4832 -20.4832 -20.4832 -20.4814 -20.4814 -20.4814 -20.4814
   -20.4771 -20.4771 -20.4769 -20.4769 -20.4765 -20.4765 -20.4763 -20.4763
   -20.4716 -20.4716 -20.4716 -20.4715 -20.4713 -20.4713 -20.4711 -20.4711
   -20.4692 -20.4692 -20.4691 -20.4691 -20.4665 -20.4665 -20.4664 -20.4664
   -20.4600 -20.4599 -20.4599 -20.4599 -20.4588 -20.4588 -20.4588 -20.4587
    -9.6442  -9.6442  -9.6356  -9.6356  -8.9586  -8.9586  -8.9180  -8.9180
    -8.7704  -8.7704  -8.7386  -8.7386  -8.5373  -8.5373  -8.5086  -8.5085
    -8.4844  -8.4844  -8.4589  -8.4589  -7.9109  -7.9109  -7.9105  -7.9105
     1.1224   1.1224   1.1269   1.1269   2.7175   2.7175   2.7770   2.7770
     2.8144   2.8144   2.8182   2.8182   2.9613   2.9613   3.0196   3.0196
     3.0585   3.0585   3.1818   3.1819   3.2217   3.2217   3.2410   3.2410
     3.2769   3.2769   3.5273   3.5273   4.1735   4.1735   4.2436   4.2437
     4.2592   4.2592   4.3281   4.3281   4.9878   4.9879   5.0322   5.0322
     5.3098   5.3098   5.4220   5.4220   5.9820   5.9820   5.9901   5.9901
     6.3680   6.3680   6.3878   6.3878   6.4844   6.4844   6.5246   6.5246
     7.1097   7.1097   7.1597   7.1597   7.3015   7.3015   7.3213   7.3213
     7.3919   7.3920   7.4379   7.4380   7.5884   7.5884   7.6126   7.6126
    10.8575  10.8575  10.9408  10.9408  11.0622  11.0622  11.1595  11.1595
    11.9785  11.9785  12.0967  12.0967  12.2191  12.2191  12.2592  12.2592
    12.9571  12.9571  12.9772  12.9772  13.4226  13.4226  13.4350  13.4350
    14.7956  14.7956  14.8177  14.8177  16.3177  16.3177  16.4651  16.4651
    17.1774  17.1775  17.2409  17.2410  17.3016

          k =-0.5000-0.4888 0.1668 ( 63088 PWs)   bands (ev):

   -66.3412 -66.3412 -66.3412 -66.3412 -66.3406 -66.3406 -66.3406 -66.3406
   -30.6835 -30.6835 -30.6834 -30.6834 -30.6751 -30.6751 -30.6732 -30.6732
   -30.6724 -30.6724 -30.6705 -30.6705 -30.6435 -30.6435 -30.6415 -30.6415
   -30.6382 -30.6382 -30.6361 -30.6361 -30.6050 -30.6050 -30.6048 -30.6048
   -20.5064 -20.5064 -20.5064 -20.5064 -20.5056 -20.5056 -20.5056 -20.5056
   -20.4926 -20.4926 -20.4926 -20.4926 -20.4920 -20.4920 -20.4920 -20.4920
   -20.4831 -20.4831 -20.4831 -20.4830 -20.4815 -20.4815 -20.4815 -20.4815
   -20.4771 -20.4770 -20.4769 -20.4769 -20.4765 -20.4765 -20.4763 -20.4763
   -20.4716 -20.4716 -20.4715 -20.4715 -20.4713 -20.4713 -20.4712 -20.4712
   -20.4690 -20.4690 -20.4689 -20.4689 -20.4667 -20.4667 -20.4666 -20.4666
   -20.4599 -20.4599 -20.4599 -20.4599 -20.4588 -20.4588 -20.4588 -20.4588
    -9.5730  -9.5730  -9.5633  -9.5633  -8.9734  -8.9733  -8.9337  -8.9337
    -8.7566  -8.7566  -8.7255  -8.7255  -8.5354  -8.5353  -8.5110  -8.5109
    -8.4821  -8.4821  -8.4617  -8.4617  -8.0224  -8.0224  -8.0219  -8.0219
     1.3716   1.3716   1.3769   1.3769   2.7259   2.7259   2.7819   2.7819
     2.8022   2.8022   2.8125   2.8126   2.9673   2.9673   3.0116   3.0116
     3.1200   3.1200   3.2058   3.2058   3.2606   3.2606   3.3003   3.3003
     3.3408   3.3408   3.5608   3.5608   4.1773   4.1773   4.2352   4.2352
     4.2621   4.2621   4.3184   4.3185   4.7455   4.7455   4.8023   4.8023
     5.0412   5.0412   5.1401   5.1401   5.6090   5.6090   5.6133   5.6133
     6.6108   6.6108   6.6429   6.6429   6.6857   6.6857   6.7240   6.7240
     7.1063   7.1063   7.1672   7.1672   7.2994   7.2994   7.3215   7.3215
     7.3840   7.3840   7.4415   7.4415   7.5690   7.5690   7.6059   7.6059
    10.9587  10.9587  11.0318  11.0318  11.1804  11.1804  11.2715  11.2715
    11.9882  11.9882  12.0969  12.0969  12.2234  12.2234  12.2546  12.2546
    12.7869  12.7869  12.8243  12.8243  13.2300  13.2300  13.2527  13.2527
    15.1836  15.1836  15.1981  15.1981  16.4023  16.4023  16.5423  16.5424
    17.1682  17.1682  17.2343  17.2343  17.2919

          k =-0.5000-0.4888 0.3335 ( 63072 PWs)   bands (ev):

   -66.3411 -66.3411 -66.3411 -66.3411 -66.3408 -66.3407 -66.3407 -66.3407
   -30.6767 -30.6767 -30.6752 -30.6751 -30.6741 -30.6741 -30.6718 -30.6718
   -30.6677 -30.6677 -30.6674 -30.6674 -30.6465 -30.6465 -30.6448 -30.6448
   -30.6358 -30.6358 -30.6339 -30.6339 -30.6171 -30.6171 -30.6166 -30.6166
   -20.5062 -20.5062 -20.5062 -20.5062 -20.5058 -20.5058 -20.5058 -20.5058
   -20.4925 -20.4925 -20.4925 -20.4925 -20.4921 -20.4921 -20.4921 -20.4921
   -20.4827 -20.4827 -20.4827 -20.4827 -20.4818 -20.4818 -20.4818 -20.4818
   -20.4770 -20.4769 -20.4768 -20.4768 -20.4766 -20.4765 -20.4764 -20.4764
   -20.4717 -20.4717 -20.4716 -20.4715 -20.4714 -20.4714 -20.4713 -20.4713
   -20.4685 -20.4685 -20.4684 -20.4684 -20.4671 -20.4671 -20.4671 -20.4671
   -20.4597 -20.4597 -20.4597 -20.4597 -20.4591 -20.4591 -20.4591 -20.4591
    -9.3845  -9.3845  -9.3701  -9.3701  -9.0295  -9.0295  -8.9938  -8.9938
    -8.7039  -8.7039  -8.6766  -8.6766  -8.5305  -8.5305  -8.5177  -8.5177
    -8.4762  -8.4762  -8.4712  -8.4712  -8.2848  -8.2848  -8.2830  -8.2830
     2.0222   2.0222   2.0336   2.0336   2.7456   2.7456   2.7724   2.7724
     2.7884   2.7884   2.8075   2.8075   2.9905   2.9905   3.0212   3.0212
     3.1527   3.1527   3.2394   3.2394   3.3661   3.3661   3.3790   3.3790
     3.5922   3.5922   3.7028   3.7028   4.1735   4.1735   4.1970   4.1970
     4.2393   4.2393   4.2617   4.2617   4.3553   4.3553   4.4039   4.4039
     4.5618   4.5618   4.6680   4.6680   4.8446   4.8446   4.8520   4.8520
     6.9003   6.9003   6.9695   6.9695   6.9936   6.9936   7.0235   7.0235
     7.1096   7.1096   7.1947   7.1947   7.2700   7.2700   7.3518   7.3518
     7.3663   7.3663   7.4526   7.4526   7.5264   7.5264   7.5721   7.5721
    11.2670  11.2670  11.3083  11.3083  11.5265  11.5265  11.6042  11.6042
    11.9887  11.9887  12.1019  12.1019  12.1946  12.1946  12.2433  12.2433
    12.3594  12.3594  12.4562  12.4562  12.7475  12.7475  12.7796  12.7796
    16.0796  16.0796  16.1304  16.1304  16.6584  16.6584  16.7669  16.7669
    17.0926  17.0926  17.1188  17.1188  17.3177

          k =-0.5000-0.4888-0.5003 ( 63016 PWs)   bands (ev):

   -66.3409 -66.3409 -66.3409 -66.3409 -66.3409 -66.3409 -66.3409 -66.3409
   -30.6749 -30.6749 -30.6749 -30.6749 -30.6729 -30.6729 -30.6729 -30.6729
   -30.6549 -30.6549 -30.6548 -30.6548 -30.6536 -30.6535 -30.6535 -30.6535
   -30.6296 -30.6296 -30.6296 -30.6296 -30.6282 -30.6282 -30.6282 -30.6282
   -20.5060 -20.5060 -20.5060 -20.5060 -20.5060 -20.5060 -20.5060 -20.5060
   -20.4923 -20.4923 -20.4923 -20.4923 -20.4923 -20.4923 -20.4923 -20.4923
   -20.4823 -20.4823 -20.4823 -20.4823 -20.4822 -20.4821 -20.4821 -20.4821
   -20.4768 -20.4768 -20.4768 -20.4768 -20.4765 -20.4765 -20.4765 -20.4765
   -20.4716 -20.4716 -20.4716 -20.4716 -20.4714 -20.4714 -20.4714 -20.4714
   -20.4678 -20.4678 -20.4678 -20.4678 -20.4677 -20.4677 -20.4677 -20.4677
   -20.4594 -20.4594 -20.4594 -20.4594 -20.4594 -20.4594 -20.4593 -20.4593
    -9.1666  -9.1666  -9.1666  -9.1666  -9.1408  -9.1408  -9.1408  -9.1408
    -8.5779  -8.5779  -8.5779  -8.5779  -8.5615  -8.5615  -8.5615  -8.5615
    -8.4968  -8.4968  -8.4968  -8.4968  -8.4565  -8.4565  -8.4565  -8.4565
     2.6301   2.6301   2.6301   2.6301   2.7530   2.7530   2.7530   2.7530
     2.8182   2.8182   2.8183   2.8183   2.9906   2.9906   2.9906   2.9907
     3.1422   3.1422   3.1422   3.1423   3.2824   3.2824   3.2824   3.2824
     3.9865   3.9865   3.9865   3.9865   4.0461   4.0461   4.0461   4.0461
     4.1736   4.1736   4.1736   4.1736   4.2227   4.2227   4.2227   4.2227
     4.3398   4.3398   4.3398   4.3398   4.4130   4.4130   4.4130   4.4130
     7.0231   7.0231   7.0231   7.0231   7.1540   7.1540   7.1540   7.1540
     7.1971   7.1971   7.1971   7.1971   7.2741   7.2741   7.2741   7.2741
     7.4412   7.4412   7.4412   7.4412   7.5101   7.5101   7.5101   7.5101
    11.6832  11.6832  11.6832  11.6832  11.7714  11.7714  11.7714  11.7714
    12.0185  12.0185  12.0185  12.0185  12.1511  12.1511  12.1511  12.1511
    12.2153  12.2153  12.2153  12.2153  12.3227  12.3227  12.3227  12.3227
    16.7336  16.7336  16.7336  16.7336  16.8620  16.8620  16.8620  16.8620
    17.3162  17.3162  17.3162  17.3163  17.4047

     the Fermi energy is     9.4002 ev

!    total energy              =   -6260.94811340 Ry
     Harris-Foulkes estimate   =   -6260.94811341 Ry
     estimated scf accuracy    <          1.9E-09 Ry

     The total energy is the sum of the following terms:

     one-electron contribution =   -4775.47711525 Ry
     hartree contribution      =    2622.35397339 Ry
     xc contribution           =    -965.87499317 Ry
     ewald contribution        =   -3141.94995866 Ry
     smearing contrib. (-TS)   =      -0.00001971 Ry

     convergence has been achieved in  13 iterations

     Writing output data file Landau_23.save/
 
     init_run     :     28.89s CPU     30.74s WALL (       1 calls)
     electrons    :   1210.34s CPU   1236.06s WALL (       1 calls)

     Called by init_run:
     wfcinit      :     26.41s CPU     28.09s WALL (       1 calls)
     potinit      :      1.01s CPU      1.06s WALL (       1 calls)
     hinit0       :      1.27s CPU      1.33s WALL (       1 calls)

     Called by electrons:
     c_bands      :   1046.66s CPU   1070.38s WALL (      13 calls)
     sum_band     :    157.40s CPU    158.56s WALL (      13 calls)
     v_of_rho     :      1.48s CPU      1.56s WALL (      14 calls)
     mix_rho      :      3.04s CPU      3.59s WALL (      13 calls)

     Called by c_bands:
     init_us_2    :     10.21s CPU     10.93s WALL (      54 calls)
     cegterg      :    891.88s CPU    914.22s WALL (      26 calls)

     Called by sum_band:

     Called by *egterg:
     h_psi        :    716.63s CPU    727.63s WALL (     131 calls)
     g_psi        :      1.70s CPU      1.72s WALL (     103 calls)
     cdiaghg      :     13.83s CPU     13.93s WALL (     129 calls)

     Called by h_psi:
     h_psi:pot    :    713.87s CPU    718.35s WALL (     131 calls)
     h_psi:calbec :     69.24s CPU     71.21s WALL (     131 calls)
     vloc_psi     :    570.32s CPU    572.47s WALL (     131 calls)
     add_vuspsi   :     74.31s CPU     74.66s WALL (     131 calls)

     General routines
     calbec       :     69.24s CPU     71.21s WALL (     131 calls)
     fft          :      0.72s CPU      0.72s WALL (      42 calls)
     ffts         :      0.23s CPU      0.23s WALL (      13 calls)
     fftw         :    577.05s CPU    578.74s WALL (   33984 calls)
 
     Parallel routines
 
     PWSCF        :  20m40.56s CPU  21m18.72s WALL

 
   This run was terminated on:   0:26:59  22Nov2019            

=------------------------------------------------------------------------------=
   JOB DONE.
=------------------------------------------------------------------------------=
