
     Program PWSCF v.6.2 (svn rev. 14038) starts on 12Mar2020 at 22: 9:28 

     This program is part of the open-source Quantum ESPRESSO suite
     for quantum simulation of materials; please cite
         "P. Giannozzi et al., J. Phys.:Condens. Matter 21 395502 (2009);
         "P. Giannozzi et al., J. Phys.:Condens. Matter 29 465901 (2017);
          URL http://www.quantum-espresso.org", 
     in publications or presentations arising from this work. More details at
     http://www.quantum-espresso.org/quote

     Parallel version (MPI), running on    40 processors

     MPI processes distributed on     5 nodes
     K-points division:     npool     =      40
     Reading input from rscf.in

     Current dimensions of program PWSCF are:
     Max number of different atomic species (ntypx) = 10
     Max number of k-points (npk) =  40000
     Max angular momentum in pseudopotentials (lmaxx) =  3

     Subspace diagonalization in iterative solution of the eigenvalue problem:
     a serial algorithm will be used

 
     G-vector sticks info
     --------------------
     sticks:   dense  smooth     PW     G-vecs:    dense   smooth      PW
     Sum        7747    7747   2077               498127   498127   69057
 


     bravais-lattice index     =            0
     lattice parameter (alat)  =      13.8397  a.u.
     unit-cell volume          =    2804.9816 (a.u.)^3
     number of atoms/cell      =           32
     number of atomic types    =            2
     number of electrons       =       368.00
     number of Kohn-Sham states=          221
     kinetic-energy cutoff     =     120.0000  Ry
     charge density cutoff     =     480.0000  Ry
     convergence threshold     =      1.0E-08
     mixing beta               =       0.7000
     number of iterations used =            8  plain     mixing
     Exchange-correlation      = SLA PW NOGX NOGC ( 1  4  0  0 0 0)
     nstep                     =           50


     celldm(1)=  13.839685  celldm(2)=   0.000000  celldm(3)=   0.000000
     celldm(4)=   0.000000  celldm(5)=   0.000000  celldm(6)=   0.000000

     crystal axes: (cart. coord. in units of alat)
               a(1) = (   1.000000   0.000000   0.000000 )  
               a(2) = (   0.000000   1.058160   0.000000 )  
               a(3) = (   0.000000   0.000000   1.000000 )  

     reciprocal axes: (cart. coord. in units 2 pi/alat)
               b(1) = (  1.000000  0.000000  0.000000 )  
               b(2) = (  0.000000  0.945037  0.000000 )  
               b(3) = (  0.000000  0.000000  1.000000 )  


     PseudoPot. # 1 for W  read from file:
     /cluster/scratch/mnoe/QE/pps/W_ONCV_LDA-4.0.upf
     MD5 check sum: ba0307d5d4cd419d6f1d13dc49d7c13a
     Pseudo is Norm-conserving + core correction, Zval = 28.0
     Generated using ONCVPSP code by D. R. Hamann
     Using radial grid of 1380 points,  8 beta functions with: 
                l(1) =   0
                l(2) =   0
                l(3) =   1
                l(4) =   1
                l(5) =   2
                l(6) =   2
                l(7) =   3
                l(8) =   3

     PseudoPot. # 2 for O  read from file:
     /cluster/scratch/mnoe/QE/pps/O_ONCV_LDA-3.0.upf
     MD5 check sum: a1bd6164e7280c17a38c229939bfbd54
     Pseudo is Norm-conserving + core correction, Zval =  6.0
     Generated using ONCVPSP code by D. R. Hamann
     Using radial grid of  926 points,  5 beta functions with: 
                l(1) =   0
                l(2) =   0
                l(3) =   1
                l(4) =   1
                l(5) =   2

     atomic species   valence    mass     pseudopotential
        W             28.00   183.84000     W ( 1.00)
        O              6.00    15.99940     O ( 1.00)

      8 Sym. Ops., with inversion, found ( 6 have fractional translation)



   Cartesian axes

     site n.     atom                  positions (alat units)
         1           W   tau(   1) = (   0.2444500   0.2951088   0.0052400  )
         2           W   tau(   2) = (   0.7555500   0.7630513   0.9947600  )
         3           W   tau(   3) = (   0.2555500   0.2339713   0.5052400  )
         4           W   tau(   4) = (   0.7444500   0.8241888   0.4947600  )
         5           W   tau(   5) = (   0.7555500   0.2951088   0.4947600  )
         6           W   tau(   6) = (   0.2444500   0.7630513   0.5052400  )
         7           W   tau(   7) = (   0.7444500   0.2339713   0.9947600  )
         8           W   tau(   8) = (   0.2555500   0.8241888   0.0052400  )
         9           O   tau(   9) = (   0.2397600   0.0079473   0.0016300  )
        10           O   tau(  10) = (   0.7602400   1.0502128   0.9983700  )
        11           O   tau(  11) = (   0.2602400   0.5211327   0.5016300  )
        12           O   tau(  12) = (   0.7397600   0.5370273   0.4983700  )
        13           O   tau(  13) = (   0.7602400   0.0079473   0.4983700  )
        14           O   tau(  14) = (   0.2397600   1.0502128   0.5016300  )
        15           O   tau(  15) = (   0.7397600   0.5211327   0.9983700  )
        16           O   tau(  16) = (   0.2602400   0.5370273   0.0016300  )
        17           O   tau(  17) = (   0.5015200   0.2534293   0.4568057  )
        18           O   tau(  18) = (   0.4984800   0.8047307   0.5431943  )
        19           O   tau(  19) = (   0.9984800   0.2756507   0.9568058  )
        20           O   tau(  20) = (   0.0015199   0.7825094   0.0431943  )
        21           O   tau(  21) = (   0.4984800   0.2534293   0.0431943  )
        22           O   tau(  22) = (   0.5015200   0.8047307   0.9568058  )
        23           O   tau(  23) = (   0.0015199   0.2756507   0.5431943  )
        24           O   tau(  24) = (   0.9984800   0.7825094   0.4568057  )
        25           O   tau(  25) = (   0.7068057   0.2621168   0.7477000  )
        26           O   tau(  26) = (   0.2931943   0.7960433   0.2523000  )
        27           O   tau(  27) = (   0.7931943   0.2669632   0.2477000  )
        28           O   tau(  28) = (   0.2068057   0.7911969   0.7523000  )
        29           O   tau(  29) = (   0.2931943   0.2621168   0.7523000  )
        30           O   tau(  30) = (   0.7068057   0.7960433   0.2477000  )
        31           O   tau(  31) = (   0.2068057   0.2669632   0.2523000  )
        32           O   tau(  32) = (   0.7931943   0.7911969   0.7477000  )

     number of k points=    64  gaussian smearing, width (Ry)=  0.0007
                       cart. coord. in units 2pi/alat
        k(    1) = (   0.0000000   0.0000000   0.0000000), wk =   0.0092593
        k(    2) = (   0.0000000   0.0000000   0.1666667), wk =   0.0185185
        k(    3) = (   0.0000000   0.0000000   0.3333333), wk =   0.0185185
        k(    4) = (   0.0000000   0.0000000  -0.5000000), wk =   0.0092593
        k(    5) = (   0.0000000   0.1575061   0.0000000), wk =   0.0185185
        k(    6) = (   0.0000000   0.1575061   0.1666667), wk =   0.0370370
        k(    7) = (   0.0000000   0.1575061   0.3333333), wk =   0.0370370
        k(    8) = (   0.0000000   0.1575061  -0.5000000), wk =   0.0185185
        k(    9) = (   0.0000000   0.3150122   0.0000000), wk =   0.0185185
        k(   10) = (   0.0000000   0.3150122   0.1666667), wk =   0.0370370
        k(   11) = (   0.0000000   0.3150122   0.3333333), wk =   0.0370370
        k(   12) = (   0.0000000   0.3150122  -0.5000000), wk =   0.0185185
        k(   13) = (   0.0000000  -0.4725183   0.0000000), wk =   0.0092593
        k(   14) = (   0.0000000  -0.4725183   0.1666667), wk =   0.0185185
        k(   15) = (   0.0000000  -0.4725183   0.3333333), wk =   0.0185185
        k(   16) = (   0.0000000  -0.4725183  -0.5000000), wk =   0.0092593
        k(   17) = (   0.1666667   0.0000000   0.1666667), wk =   0.0370370
        k(   18) = (   0.1666667   0.0000000   0.3333333), wk =   0.0370370
        k(   19) = (   0.1666667   0.0000000  -0.5000000), wk =   0.0185185
        k(   20) = (   0.1666667   0.1575061   0.1666667), wk =   0.0740741
        k(   21) = (   0.1666667   0.1575061   0.3333333), wk =   0.0740741
        k(   22) = (   0.1666667   0.1575061  -0.5000000), wk =   0.0370370
        k(   23) = (   0.1666667   0.3150122   0.1666667), wk =   0.0740741
        k(   24) = (   0.1666667   0.3150122   0.3333333), wk =   0.0740741
        k(   25) = (   0.1666667   0.3150122  -0.5000000), wk =   0.0370370
        k(   26) = (   0.1666667  -0.4725183   0.1666667), wk =   0.0370370
        k(   27) = (   0.1666667  -0.4725183   0.3333333), wk =   0.0370370
        k(   28) = (   0.1666667  -0.4725183  -0.5000000), wk =   0.0185185
        k(   29) = (   0.3333333   0.0000000   0.3333333), wk =   0.0370370
        k(   30) = (   0.3333333   0.0000000  -0.5000000), wk =   0.0185185
        k(   31) = (   0.3333333   0.1575061   0.3333333), wk =   0.0740741
        k(   32) = (   0.3333333   0.1575061  -0.5000000), wk =   0.0370370
        k(   33) = (   0.3333333   0.3150122   0.3333333), wk =   0.0740741
        k(   34) = (   0.3333333   0.3150122  -0.5000000), wk =   0.0370370
        k(   35) = (   0.3333333  -0.4725183   0.3333333), wk =   0.0370370
        k(   36) = (   0.3333333  -0.4725183  -0.5000000), wk =   0.0185185
        k(   37) = (  -0.5000000   0.0000000  -0.5000000), wk =   0.0092593
        k(   38) = (  -0.5000000   0.1575061  -0.5000000), wk =   0.0185185
        k(   39) = (  -0.5000000   0.3150122  -0.5000000), wk =   0.0185185
        k(   40) = (  -0.5000000  -0.4725183  -0.5000000), wk =   0.0092593
        k(   41) = (   0.1666667   0.0000000   0.0000000), wk =   0.0185185
        k(   42) = (   0.3333333   0.0000000   0.0000000), wk =   0.0185185
        k(   43) = (  -0.5000000   0.0000000   0.0000000), wk =   0.0092593
        k(   44) = (   0.1666667  -0.1575061   0.0000000), wk =   0.0370370
        k(   45) = (   0.3333333  -0.1575061   0.0000000), wk =   0.0370370
        k(   46) = (  -0.5000000  -0.1575061   0.0000000), wk =   0.0185185
        k(   47) = (   0.1666667  -0.3150122   0.0000000), wk =   0.0370370
        k(   48) = (   0.3333333  -0.3150122   0.0000000), wk =   0.0370370
        k(   49) = (  -0.5000000  -0.3150122   0.0000000), wk =   0.0185185
        k(   50) = (   0.1666667   0.4725183   0.0000000), wk =   0.0185185
        k(   51) = (   0.3333333   0.4725183   0.0000000), wk =   0.0185185
        k(   52) = (  -0.5000000   0.4725183   0.0000000), wk =   0.0092593
        k(   53) = (   0.3333333   0.0000000   0.1666667), wk =   0.0370370
        k(   54) = (  -0.5000000   0.0000000   0.1666667), wk =   0.0185185
        k(   55) = (   0.3333333  -0.1575061   0.1666667), wk =   0.0740741
        k(   56) = (  -0.5000000  -0.1575061   0.1666667), wk =   0.0370370
        k(   57) = (   0.3333333  -0.3150122   0.1666667), wk =   0.0740741
        k(   58) = (  -0.5000000  -0.3150122   0.1666667), wk =   0.0370370
        k(   59) = (   0.3333333   0.4725183   0.1666667), wk =   0.0370370
        k(   60) = (  -0.5000000   0.4725183   0.1666667), wk =   0.0185185
        k(   61) = (  -0.5000000   0.0000000   0.3333333), wk =   0.0185185
        k(   62) = (  -0.5000000  -0.1575061   0.3333333), wk =   0.0370370
        k(   63) = (  -0.5000000  -0.3150122   0.3333333), wk =   0.0370370
        k(   64) = (  -0.5000000   0.4725183   0.3333333), wk =   0.0185185

     Dense  grid:   498127 G-vectors     FFT dimensions: ( 100, 108, 100)

     Estimated max dynamical RAM per process >       3.15 GB

     Estimated total dynamical RAM >     125.81 GB

     Initial potential from superposition of free atoms

     starting charge  367.99656, renormalised to  368.00000
     Starting wfc are  232 randomized atomic wfcs

     total cpu time spent up to now is       64.1 secs

     Self-consistent Calculation

     iteration #  1     ecut=   120.00 Ry     beta= 0.70
     Davidson diagonalization with overlap
     ethr =  1.00E-02,  avg # of iterations =  5.1

     total cpu time spent up to now is      298.8 secs

     total energy              =   -6254.02463177 Ry
     Harris-Foulkes estimate   =   -6264.58315388 Ry
     estimated scf accuracy    <      13.38048436 Ry

     iteration #  2     ecut=   120.00 Ry     beta= 0.70
     Davidson diagonalization with overlap
     ethr =  3.64E-03,  avg # of iterations =  3.5

     total cpu time spent up to now is      467.1 secs

     total energy              =   -6250.95518789 Ry
     Harris-Foulkes estimate   =   -6270.64186241 Ry
     estimated scf accuracy    <      52.72807670 Ry

     iteration #  3     ecut=   120.00 Ry     beta= 0.70
     Davidson diagonalization with overlap
     ethr =  3.64E-03,  avg # of iterations =  3.5

     total cpu time spent up to now is      625.8 secs

     total energy              =   -6261.06770106 Ry
     Harris-Foulkes estimate   =   -6261.39420316 Ry
     estimated scf accuracy    <       1.05041865 Ry

     iteration #  4     ecut=   120.00 Ry     beta= 0.70
     Davidson diagonalization with overlap
     ethr =  2.85E-04,  avg # of iterations =  3.0

     total cpu time spent up to now is      758.2 secs

     total energy              =   -6261.09113287 Ry
     Harris-Foulkes estimate   =   -6261.16848977 Ry
     estimated scf accuracy    <       0.26831122 Ry

     iteration #  5     ecut=   120.00 Ry     beta= 0.70
     Davidson diagonalization with overlap
     ethr =  7.29E-05,  avg # of iterations =  4.3

     total cpu time spent up to now is      902.1 secs

     total energy              =   -6261.08134240 Ry
     Harris-Foulkes estimate   =   -6261.11970018 Ry
     estimated scf accuracy    <       0.08330866 Ry

     iteration #  6     ecut=   120.00 Ry     beta= 0.70
     Davidson diagonalization with overlap
     ethr =  2.26E-05,  avg # of iterations =  5.4

     total cpu time spent up to now is     1055.7 secs

     total energy              =   -6261.10009588 Ry
     Harris-Foulkes estimate   =   -6261.10182143 Ry
     estimated scf accuracy    <       0.00493117 Ry

     iteration #  7     ecut=   120.00 Ry     beta= 0.70
     Davidson diagonalization with overlap
     ethr =  1.34E-06,  avg # of iterations =  5.1

     total cpu time spent up to now is     1301.7 secs

     total energy              =   -6261.10061290 Ry
     Harris-Foulkes estimate   =   -6261.10072381 Ry
     estimated scf accuracy    <       0.00026764 Ry

     iteration #  8     ecut=   120.00 Ry     beta= 0.70
     Davidson diagonalization with overlap
     ethr =  7.27E-08,  avg # of iterations =  3.1

     total cpu time spent up to now is     1448.3 secs

     total energy              =   -6261.10067066 Ry
     Harris-Foulkes estimate   =   -6261.10068097 Ry
     estimated scf accuracy    <       0.00002226 Ry

     iteration #  9     ecut=   120.00 Ry     beta= 0.70
     Davidson diagonalization with overlap
     ethr =  6.05E-09,  avg # of iterations =  2.9

     total cpu time spent up to now is     1591.6 secs

     total energy              =   -6261.10067624 Ry
     Harris-Foulkes estimate   =   -6261.10067868 Ry
     estimated scf accuracy    <       0.00000996 Ry

     iteration # 10     ecut=   120.00 Ry     beta= 0.70
     Davidson diagonalization with overlap
     ethr =  2.71E-09,  avg # of iterations =  2.0

     total cpu time spent up to now is     1756.4 secs

     total energy              =   -6261.10067555 Ry
     Harris-Foulkes estimate   =   -6261.10067704 Ry
     estimated scf accuracy    <       0.00000330 Ry

     iteration # 11     ecut=   120.00 Ry     beta= 0.70
     Davidson diagonalization with overlap
     ethr =  8.96E-10,  avg # of iterations =  2.6

     total cpu time spent up to now is     1918.9 secs

     total energy              =   -6261.10067624 Ry
     Harris-Foulkes estimate   =   -6261.10067627 Ry
     estimated scf accuracy    <       0.00000006 Ry

     iteration # 12     ecut=   120.00 Ry     beta= 0.70
     Davidson diagonalization with overlap
     ethr =  1.75E-11,  avg # of iterations =  2.0

     total cpu time spent up to now is     2162.3 secs

     total energy              =   -6261.10067625 Ry
     Harris-Foulkes estimate   =   -6261.10067626 Ry
     estimated scf accuracy    <       0.00000002 Ry

     iteration # 13     ecut=   120.00 Ry     beta= 0.70
     Davidson diagonalization with overlap
     ethr =  4.55E-12,  avg # of iterations =  2.0

     total cpu time spent up to now is     2446.7 secs

     End of self-consistent calculation

          k = 0.0000 0.0000 0.0000 ( 62239 PWs)   bands (ev):

   -66.1664 -66.1660 -66.1653 -66.1653 -66.1650 -66.1649 -66.1643 -66.1639
   -30.5489 -30.5475 -30.5457 -30.5433 -30.5420 -30.5412 -30.5411 -30.5366
   -30.5185 -30.5174 -30.5166 -30.5155 -30.4620 -30.4619 -30.4616 -30.4603
   -30.4413 -30.4404 -30.4394 -30.4384 -30.4369 -30.4352 -30.4339 -30.4300
   -20.3225 -20.3224 -20.3224 -20.3223 -20.3223 -20.3222 -20.3222 -20.3221
   -20.3015 -20.3011 -20.3011 -20.3007 -20.2990 -20.2989 -20.2986 -20.2986
   -20.2983 -20.2982 -20.2979 -20.2976 -20.2976 -20.2975 -20.2974 -20.2970
   -20.2970 -20.2967 -20.2962 -20.2960 -20.2954 -20.2950 -20.2948 -20.2945
   -20.2913 -20.2910 -20.2909 -20.2905 -20.2905 -20.2904 -20.2900 -20.2898
   -20.2859 -20.2858 -20.2856 -20.2854 -20.2854 -20.2852 -20.2851 -20.2850
   -20.2816 -20.2815 -20.2812 -20.2812 -20.2811 -20.2811 -20.2801 -20.2801
   -10.0093  -9.7798  -9.5737  -9.5623  -9.3849  -9.3667  -9.1665  -9.1523
    -8.9779  -8.8350  -8.8347  -8.8321  -7.8155  -7.8024  -7.7745  -7.7698
    -7.7529  -7.7187  -7.7101  -7.6783  -7.6640  -7.6540  -7.6520  -7.6486
     1.0002   1.0023   1.1210   1.1258   1.1424   1.1503   1.3290   1.4745
     1.6836   1.6879   1.6900   1.8137   2.2738   2.3518   2.5727   2.5749
     2.7141   2.7145   4.1230   4.1471   4.2640   4.2974   4.6572   4.6626
     4.6883   4.6952   4.8880   4.9467   5.0630   5.0688   5.0832   5.4764
     5.5012   5.5114   5.5333   5.5498   5.5549   5.5767   5.6024   5.8300
     5.8850   5.8893   5.9220   5.9460   6.0095   6.0176   6.0243   6.0975
     6.1103   6.2715   6.2817   6.4452   6.4644   6.7878   6.8921   6.9150
     6.9305   6.9451   6.9496   7.0323   7.0455   7.0623   7.2633   7.2830
     7.2863   7.3050   7.8766   7.8904   8.0860   8.1071   8.1553   8.1768
     9.2164   9.2246   9.8695   9.8749   9.8767   9.8839  12.2630  12.2877
    12.4048  12.4051  12.4496  12.4554  12.4634  12.4657  12.9985  13.1164
    13.2717  13.3532  13.3539  13.3820  13.7819  14.0311  14.1551  14.1665
    14.2274  14.3483  14.4561  14.8842  15.4233  15.4574  15.4710  16.1767
    16.1768  16.9801  17.1674  17.1805  17.5059

          k = 0.0000 0.0000 0.1667 ( 62262 PWs)   bands (ev):

   -66.1663 -66.1659 -66.1654 -66.1653 -66.1650 -66.1649 -66.1644 -66.1640
   -30.5464 -30.5425 -30.5415 -30.5413 -30.5405 -30.5369 -30.5366 -30.5356
   -30.5171 -30.5171 -30.5160 -30.5160 -30.4635 -30.4618 -30.4616 -30.4615
   -30.4473 -30.4469 -30.4437 -30.4430 -30.4391 -30.4349 -30.4349 -30.4306
   -20.3225 -20.3224 -20.3224 -20.3223 -20.3223 -20.3223 -20.3222 -20.3222
   -20.3015 -20.3011 -20.3011 -20.3007 -20.2989 -20.2988 -20.2986 -20.2985
   -20.2983 -20.2981 -20.2979 -20.2977 -20.2976 -20.2975 -20.2974 -20.2970
   -20.2970 -20.2967 -20.2962 -20.2960 -20.2954 -20.2950 -20.2948 -20.2946
   -20.2913 -20.2909 -20.2908 -20.2904 -20.2902 -20.2900 -20.2895 -20.2893
   -20.2859 -20.2858 -20.2856 -20.2855 -20.2853 -20.2852 -20.2852 -20.2851
   -20.2821 -20.2817 -20.2816 -20.2814 -20.2814 -20.2811 -20.2803 -20.2802
    -9.9582  -9.7238  -9.5778  -9.4961  -9.3789  -9.2910  -9.1248  -9.1097
    -8.9873  -8.8365  -8.8268  -8.8166  -7.9338  -7.9185  -7.8208  -7.8178
    -7.7885  -7.7610  -7.7465  -7.7233  -7.7001  -7.6713  -7.6574  -7.6566
     1.1019   1.1037   1.1452   1.1548   1.3686   1.3996   1.4268   1.6493
     1.6803   1.6823   1.7112   1.8958   2.3635   2.4427   2.5837   2.6630
     2.7054   2.8018   4.0938   4.1296   4.2620   4.2823   4.2942   4.3273
     4.6938   4.7343   4.7481   4.7620   4.8746   5.0592   5.0718   5.2852
     5.2946   5.4667   5.4719   5.5342   5.6044   5.6181   5.6445   5.6562
     5.7038   5.8932   5.9198   5.9353   6.0258   6.0318   6.0987   6.1134
     6.2673   6.3697   6.4543   6.4628   6.7563   6.7677   6.7979   6.8048
     6.8569   6.9381   6.9412   6.9681   7.0082   7.0456   7.0499   7.0695
     7.1022   7.1583   7.8696   7.8743   8.0660   8.1085   8.1323   8.1569
     9.5793   9.5888   9.8739   9.8765  10.1519  10.1797  12.2458  12.3284
    12.3362  12.3377  12.4547  12.4599  12.4686  12.5760  12.9930  13.0339
    13.0832  13.3435  13.3536  13.3562  13.8819  14.0028  14.0297  14.0314
    14.2400  14.4512  14.4736  15.0047  15.3909  15.5084  15.5459  16.1504
    16.5125  16.8853  17.1537  17.3756  17.5569

          k = 0.0000 0.0000 0.3333 ( 62268 PWs)   bands (ev):

   -66.1661 -66.1657 -66.1656 -66.1652 -66.1651 -66.1647 -66.1646 -66.1642
   -30.5453 -30.5425 -30.5407 -30.5380 -30.5276 -30.5250 -30.5236 -30.5185
   -30.5184 -30.5174 -30.5103 -30.5075 -30.4749 -30.4712 -30.4659 -30.4612
   -30.4605 -30.4604 -30.4554 -30.4540 -30.4382 -30.4358 -30.4340 -30.4316
   -20.3224 -20.3224 -20.3223 -20.3223 -20.3223 -20.3223 -20.3222 -20.3222
   -20.3014 -20.3012 -20.3010 -20.3008 -20.2987 -20.2986 -20.2984 -20.2984
   -20.2983 -20.2981 -20.2980 -20.2979 -20.2978 -20.2976 -20.2974 -20.2971
   -20.2970 -20.2968 -20.2962 -20.2960 -20.2953 -20.2950 -20.2950 -20.2947
   -20.2913 -20.2910 -20.2906 -20.2905 -20.2889 -20.2888 -20.2881 -20.2880
   -20.2864 -20.2862 -20.2858 -20.2857 -20.2854 -20.2852 -20.2848 -20.2846
   -20.2832 -20.2829 -20.2827 -20.2824 -20.2812 -20.2810 -20.2806 -20.2805
    -9.8364  -9.6259  -9.5976  -9.4164  -9.2997  -9.0231  -9.0218  -8.9995
    -8.9548  -8.8508  -8.7874  -8.7394  -8.2591  -8.2548  -8.1771  -8.1571
    -7.7799  -7.7387  -7.7365  -7.7358  -7.6920  -7.6907  -7.6783  -7.6667
     1.1526   1.1586   1.1664   1.1748   1.5960   1.6247   1.6634   1.6668
     2.1325   2.1848   2.3222   2.4122   2.6062   2.6245   2.6875   2.7102
     2.9090   3.0312   3.6351   3.7171   3.8721   3.9399   4.1776   4.2035
     4.2415   4.4352   4.5066   4.7345   4.8155   4.8262   4.8479   5.0131
     5.0315   5.0755   5.1462   5.3426   5.3928   5.4261   5.6692   5.7610
     5.7988   5.8562   5.8873   5.9700   6.0581   6.1474   6.1948   6.2623
     6.2752   6.4200   6.4268   6.5012   6.5345   6.5777   6.6377   6.7494
     6.7636   6.9203   6.9317   6.9501   7.0062   7.0249   7.0630   7.0797
     7.2833   7.3321   7.7635   7.7817   7.9357   7.9889   8.1425   8.1587
     9.8579   9.8705  10.3250  10.3855  10.8063  10.8783  11.8691  11.9141
    12.1194  12.4722  12.4750  12.5468  12.5993  12.6223  12.6863  12.8350
    13.0039  13.2121  13.2328  13.3621  13.6450  13.6905  14.0035  14.0264
    14.3201  14.4350  14.7877  15.2866  15.3063  15.6993  15.9998  16.0678
    16.3194  17.4049  17.5129  17.7021  17.7081

          k = 0.0000 0.0000-0.5000 ( 62264 PWs)   bands (ev):

   -66.1659 -66.1659 -66.1655 -66.1655 -66.1648 -66.1648 -66.1644 -66.1644
   -30.5439 -30.5439 -30.5393 -30.5393 -30.5210 -30.5210 -30.5198 -30.5198
   -30.4986 -30.4986 -30.4937 -30.4937 -30.4903 -30.4903 -30.4857 -30.4857
   -30.4587 -30.4587 -30.4583 -30.4583 -30.4371 -30.4370 -30.4328 -30.4328
   -20.3224 -20.3224 -20.3223 -20.3223 -20.3223 -20.3223 -20.3222 -20.3222
   -20.3013 -20.3013 -20.3009 -20.3009 -20.2985 -20.2985 -20.2984 -20.2984
   -20.2982 -20.2982 -20.2980 -20.2980 -20.2979 -20.2978 -20.2972 -20.2972
   -20.2969 -20.2969 -20.2961 -20.2961 -20.2952 -20.2952 -20.2949 -20.2949
   -20.2912 -20.2912 -20.2905 -20.2905 -20.2874 -20.2874 -20.2874 -20.2874
   -20.2866 -20.2866 -20.2866 -20.2866 -20.2845 -20.2845 -20.2844 -20.2844
   -20.2839 -20.2839 -20.2837 -20.2837 -20.2809 -20.2809 -20.2807 -20.2807
    -9.7123  -9.7123  -9.4857  -9.4857  -9.1114  -9.1114  -8.8859  -8.8859
    -8.6529  -8.6529  -8.6233  -8.6232  -8.6026  -8.6026  -8.5217  -8.5217
    -7.7567  -7.7567  -7.7149  -7.7149  -7.7083  -7.7083  -7.6795  -7.6795
     1.1607   1.1608   1.1785   1.1785   1.6429   1.6429   1.6509   1.6509
     2.6363   2.6363   2.9288   2.9288   3.0402   3.0402   3.0976   3.0976
     3.1781   3.1781   3.2027   3.2027   3.3746   3.3746   3.7280   3.7281
     3.8510   3.8510   4.3545   4.3545   4.7499   4.7499   4.8873   4.8873
     5.2129   5.2129   5.2220   5.2220   5.2257   5.2257   5.7790   5.7790
     5.8159   5.8159   6.0104   6.0104   6.1212   6.1213   6.2286   6.2286
     6.2635   6.2635   6.3532   6.3532   6.4789   6.4790   6.5385   6.5385
     6.7950   6.7950   6.9258   6.9258   7.0471   7.0471   7.4684   7.4684
     7.5170   7.5170   7.6851   7.6851   7.7224   7.7224   8.1566   8.1566
     9.8652   9.8652  11.1525  11.1525  11.2129  11.2129  11.5563  11.5563
    11.7080  11.7080  12.5110  12.5110  12.7974  12.7974  12.9064  12.9064
    12.9289  12.9289  13.2274  13.2275  13.4200  13.4200  14.0225  14.0225
    14.3991  14.3991  15.0900  15.0900  15.7555  15.7556  15.9182  15.9182
    16.7924  16.7924  17.8964  17.8964  18.0715

          k = 0.0000 0.1575 0.0000 ( 62231 PWs)   bands (ev):

   -66.1663 -66.1660 -66.1653 -66.1653 -66.1650 -66.1650 -66.1643 -66.1640
   -30.5487 -30.5471 -30.5457 -30.5431 -30.5423 -30.5412 -30.5406 -30.5368
   -30.5150 -30.5138 -30.5130 -30.5117 -30.4660 -30.4655 -30.4651 -30.4637
   -30.4415 -30.4406 -30.4392 -30.4384 -30.4370 -30.4357 -30.4338 -30.4305
   -20.3225 -20.3224 -20.3224 -20.3223 -20.3223 -20.3222 -20.3222 -20.3221
   -20.3012 -20.3008 -20.3008 -20.3003 -20.2991 -20.2988 -20.2986 -20.2985
   -20.2983 -20.2981 -20.2978 -20.2977 -20.2975 -20.2975 -20.2974 -20.2970
   -20.2970 -20.2966 -20.2963 -20.2960 -20.2957 -20.2953 -20.2951 -20.2948
   -20.2913 -20.2910 -20.2909 -20.2905 -20.2905 -20.2904 -20.2900 -20.2898
   -20.2859 -20.2857 -20.2857 -20.2855 -20.2853 -20.2853 -20.2851 -20.2850
   -20.2816 -20.2814 -20.2812 -20.2812 -20.2811 -20.2811 -20.2801 -20.2801
    -9.9866  -9.7897  -9.5499  -9.5377  -9.3911  -9.3731  -9.1656  -9.1532
    -8.9047  -8.7843  -8.7825  -8.7821  -7.8733  -7.8125  -7.8082  -7.8007
    -7.7905  -7.7750  -7.7716  -7.7603  -7.6768  -7.6689  -7.6559  -7.6503
     1.0003   1.0021   1.1238   1.1260   1.1461   1.1504   1.3944   1.4741
     1.8645   1.9199   1.9262   2.0485   2.2790   2.3464   2.6442   2.6456
     2.7812   2.7828   3.9805   4.0064   4.0311   4.0598   4.6594   4.6628
     4.6837   4.6909   4.7709   5.0069   5.0444   5.0482   5.0562   5.2894
     5.3001   5.4512   5.4549   5.6049   5.6100   5.6597   5.6734   5.7098
     5.8248   5.8409   5.8786   6.0068   6.0128   6.0227   6.0233   6.1018
     6.1037   6.2621   6.2836   6.4680   6.4922   6.8015   6.8243   6.8848
     6.9092   6.9420   6.9505   6.9507   6.9520   6.9625   7.2703   7.2816
     7.2941   7.3039   7.8803   7.8898   8.0486   8.0654   8.0816   8.0964
     9.2188   9.2247  10.0657  10.0658  10.0821  10.0835  12.1310  12.1626
    12.2920  12.3064  12.4119  12.4215  12.4552  12.4609  13.0165  13.1211
    13.2979  13.3650  13.3732  13.3917  13.9733  14.0075  14.0590  14.0756
    14.3024  14.6395  14.6786  15.0200  15.4576  15.4691  15.8306  16.1397
    16.1422  16.6615  17.2892  17.3035  17.5258

          k = 0.0000 0.1575 0.1667 ( 62237 PWs)   bands (ev):

   -66.1663 -66.1659 -66.1654 -66.1652 -66.1650 -66.1649 -66.1644 -66.1640
   -30.5459 -30.5425 -30.5414 -30.5410 -30.5404 -30.5372 -30.5364 -30.5354
   -30.5139 -30.5135 -30.5126 -30.5122 -30.4666 -30.4656 -30.4651 -30.4649
   -30.4475 -30.4474 -30.4440 -30.4431 -30.4389 -30.4353 -30.4346 -30.4311
   -20.3225 -20.3224 -20.3223 -20.3223 -20.3223 -20.3223 -20.3222 -20.3222
   -20.3012 -20.3008 -20.3007 -20.3004 -20.2990 -20.2987 -20.2985 -20.2985
   -20.2984 -20.2981 -20.2979 -20.2977 -20.2976 -20.2975 -20.2975 -20.2970
   -20.2970 -20.2967 -20.2963 -20.2960 -20.2957 -20.2954 -20.2951 -20.2949
   -20.2913 -20.2909 -20.2908 -20.2904 -20.2902 -20.2901 -20.2894 -20.2893
   -20.2859 -20.2858 -20.2856 -20.2856 -20.2853 -20.2852 -20.2852 -20.2851
   -20.2821 -20.2817 -20.2816 -20.2814 -20.2814 -20.2812 -20.2803 -20.2802
    -9.9346  -9.7337  -9.5529  -9.4691  -9.3854  -9.2973  -9.1237  -9.1106
    -8.9142  -8.7869  -8.7756  -8.7690  -7.9320  -7.9270  -7.8731  -7.8162
    -7.8162  -7.8106  -7.7938  -7.7808  -7.7628  -7.7506  -7.6769  -7.6582
     1.1034   1.1038   1.1497   1.1549   1.3847   1.3996   1.5293   1.6488
     1.8693   1.9176   1.9304   2.0774   2.3690   2.4372   2.6540   2.7367
     2.7729   2.8708   3.9797   4.0009   4.0466   4.0742   4.2799   4.3246
     4.7250   4.7286   4.7349   4.7595   4.7631   5.0336   5.0555   5.2186
     5.2495   5.2913   5.3369   5.4509   5.5570   5.5703   5.6794   5.7026
     5.7629   5.8283   5.8684   5.9442   5.9846   6.0561   6.0993   6.1230
     6.2012   6.3468   6.4410   6.4820   6.7297   6.7814   6.8134   6.8343
     6.8481   6.9177   6.9406   6.9469   6.9736   6.9764   7.0464   7.0510
     7.1223   7.1607   7.8715   7.8747   8.0261   8.0560   8.0575   8.0836
     9.5841   9.5937  10.0676  10.0848  10.3154  10.3341  12.1452  12.2100
    12.3019  12.3200  12.3357  12.3503  12.4719  12.5303  13.0203  13.0540
    13.1014  13.3455  13.3628  13.3698  13.9036  13.9410  13.9987  14.0065
    14.3855  14.6719  14.7906  15.1288  15.5073  15.5468  15.7991  16.1144
    16.4749  16.8167  16.9976  17.4779  17.5975

          k = 0.0000 0.1575 0.3333 ( 62284 PWs)   bands (ev):

   -66.1661 -66.1657 -66.1656 -66.1652 -66.1651 -66.1647 -66.1646 -66.1642
   -30.5448 -30.5420 -30.5410 -30.5382 -30.5262 -30.5235 -30.5230 -30.5183
   -30.5150 -30.5137 -30.5082 -30.5060 -30.4759 -30.4726 -30.4659 -30.4643
   -30.4639 -30.4613 -30.4579 -30.4562 -30.4380 -30.4356 -30.4345 -30.4321
   -20.3224 -20.3224 -20.3223 -20.3223 -20.3223 -20.3223 -20.3222 -20.3222
   -20.3011 -20.3009 -20.3007 -20.3005 -20.2988 -20.2985 -20.2984 -20.2984
   -20.2983 -20.2980 -20.2980 -20.2979 -20.2978 -20.2976 -20.2974 -20.2971
   -20.2970 -20.2968 -20.2962 -20.2961 -20.2956 -20.2954 -20.2953 -20.2951
   -20.2912 -20.2910 -20.2907 -20.2905 -20.2889 -20.2888 -20.2881 -20.2880
   -20.2864 -20.2862 -20.2858 -20.2857 -20.2854 -20.2852 -20.2847 -20.2846
   -20.2832 -20.2830 -20.2827 -20.2824 -20.2812 -20.2810 -20.2806 -20.2805
    -9.8112  -9.6070  -9.6005  -9.4235  -9.2597  -9.0295  -8.9925  -8.9564
    -8.9497  -8.8029  -8.7440  -8.7047  -8.2638  -8.2521  -8.1855  -8.1544
    -7.8495  -7.8231  -7.7923  -7.7676  -7.7586  -7.7405  -7.6987  -7.6800
     1.1590   1.1664   1.1665   1.1748   1.7975   1.8181   1.8959   1.9127
     2.1316   2.2084   2.3220   2.4415   2.6312   2.6736   2.7017   2.7592
     2.9839   3.0958   3.6356   3.7125   3.8577   3.8873   4.0565   4.0821
     4.2350   4.3137   4.5234   4.6837   4.7098   4.7511   4.7564   4.9462
     5.0291   5.0297   5.0843   5.1715   5.3612   5.3835   5.4398   5.6896
     5.7456   5.8253   5.8926   5.9540   5.9735   6.0958   6.1581   6.1949
     6.2950   6.4473   6.4981   6.5299   6.5681   6.6802   6.7380   6.7464
     6.8485   6.8491   6.9171   6.9328   6.9573   7.0050   7.0679   7.0777
     7.2803   7.3280   7.7687   7.7800   7.9018   7.9314   8.0751   8.0861
    10.0622  10.0716  10.3332  10.3902  10.9191  10.9722  11.8690  11.9123
    12.0724  12.3183  12.4546  12.5155  12.5157  12.6232  12.6555  12.7571
    13.0123  13.2212  13.2236  13.3649  13.5455  13.6137  14.0039  14.0093
    14.5513  14.6590  15.1468  15.4090  15.6876  15.6993  16.0226  16.0344
    16.4312  17.2637  17.3575  17.5671  17.7601

          k = 0.0000 0.1575-0.5000 ( 62234 PWs)   bands (ev):

   -66.1658 -66.1658 -66.1655 -66.1655 -66.1648 -66.1648 -66.1645 -66.1645
   -30.5434 -30.5434 -30.5396 -30.5396 -30.5178 -30.5178 -30.5164 -30.5164
   -30.4986 -30.4986 -30.4939 -30.4939 -30.4900 -30.4900 -30.4856 -30.4856
   -30.4622 -30.4622 -30.4618 -30.4618 -30.4368 -30.4368 -30.4333 -30.4333
   -20.3224 -20.3224 -20.3223 -20.3223 -20.3223 -20.3223 -20.3222 -20.3222
   -20.3010 -20.3010 -20.3006 -20.3006 -20.2986 -20.2986 -20.2983 -20.2983
   -20.2981 -20.2981 -20.2981 -20.2981 -20.2978 -20.2978 -20.2973 -20.2973
   -20.2969 -20.2969 -20.2962 -20.2961 -20.2955 -20.2955 -20.2953 -20.2953
   -20.2911 -20.2911 -20.2906 -20.2906 -20.2874 -20.2874 -20.2874 -20.2874
   -20.2866 -20.2866 -20.2866 -20.2866 -20.2845 -20.2845 -20.2844 -20.2844
   -20.2839 -20.2839 -20.2837 -20.2837 -20.2809 -20.2809 -20.2807 -20.2807
    -9.6865  -9.6865  -9.4938  -9.4938  -9.0487  -9.0487  -8.8483  -8.8483
    -8.6562  -8.6562  -8.6300  -8.6300  -8.5902  -8.5901  -8.5098  -8.5098
    -7.8369  -7.8369  -7.7803  -7.7803  -7.7286  -7.7286  -7.7101  -7.7100
     1.1690   1.1690   1.1785   1.1785   1.8379   1.8380   1.9125   1.9125
     2.7028   2.7028   2.9414   2.9415   3.0341   3.0341   3.1197   3.1197
     3.2000   3.2000   3.2025   3.2025   3.3661   3.3662   3.7412   3.7412
     3.9041   3.9042   4.1804   4.1804   4.5859   4.5860   4.7654   4.7654
     5.1105   5.1105   5.1971   5.1971   5.2245   5.2245   5.5111   5.5111
     5.7688   5.7688   5.9362   5.9362   6.1197   6.1197   6.2529   6.2529
     6.2914   6.2914   6.3836   6.3836   6.4677   6.4677   6.7194   6.7194
     6.8718   6.8718   6.9095   6.9095   6.9399   6.9399   7.4830   7.4830
     7.5120   7.5121   7.6631   7.6632   7.6919   7.6919   8.0850   8.0850
    10.0715  10.0715  11.1575  11.1575  11.2116  11.2116  11.6208  11.6208
    11.7681  11.7681  12.3679  12.3679  12.7680  12.7680  12.8541  12.8541
    12.9211  12.9211  13.1390  13.1390  13.3992  13.3992  14.0042  14.0042
    14.6294  14.6294  15.4713  15.4713  15.8769  15.8770  15.8920  15.8920
    16.8371  16.8371  17.6975  17.6975  18.2164

          k = 0.0000 0.3150 0.0000 ( 62175 PWs)   bands (ev):

   -66.1663 -66.1661 -66.1653 -66.1652 -66.1651 -66.1650 -66.1642 -66.1640
   -30.5481 -30.5469 -30.5451 -30.5430 -30.5426 -30.5414 -30.5396 -30.5375
   -30.5051 -30.5037 -30.5030 -30.5014 -30.4767 -30.4756 -30.4750 -30.4735
   -30.4416 -30.4409 -30.4386 -30.4381 -30.4373 -30.4367 -30.4333 -30.4315
   -20.3225 -20.3224 -20.3223 -20.3223 -20.3223 -20.3223 -20.3222 -20.3222
   -20.3005 -20.3000 -20.3000 -20.2995 -20.2993 -20.2988 -20.2985 -20.2984
   -20.2982 -20.2980 -20.2979 -20.2976 -20.2976 -20.2975 -20.2973 -20.2970
   -20.2969 -20.2966 -20.2965 -20.2964 -20.2962 -20.2961 -20.2959 -20.2957
   -20.2912 -20.2910 -20.2908 -20.2906 -20.2906 -20.2905 -20.2900 -20.2898
   -20.2858 -20.2857 -20.2857 -20.2855 -20.2853 -20.2853 -20.2851 -20.2850
   -20.2815 -20.2814 -20.2813 -20.2812 -20.2812 -20.2811 -20.2801 -20.2801
    -9.9311  -9.8197  -9.4968  -9.4825  -9.4105  -9.3931  -9.1630  -9.1558
    -8.6986  -8.6264  -8.6254  -8.6239  -8.1096  -8.0647  -8.0619  -8.0321
    -7.7962  -7.7927  -7.7795  -7.7764  -7.6727  -7.6665  -7.6610  -7.6548
     1.0006   1.0017   1.1262   1.1264   1.1496   1.1507   1.4494   1.4722
     2.2927   2.3318   2.4344   2.5696   2.5811   2.7238   2.8526   2.8628
     2.9764   2.9878   3.5913   3.6193   3.6385   3.6679   4.1683   4.4979
     4.5073   4.6658   4.6675   4.6964   4.7034   4.7969   5.1310   5.1388
     5.1750   5.1839   5.3853   5.3887   5.6636   5.6652   5.6701   5.6721
     5.8808   5.8919   5.9543   5.9558   5.9831   6.0095   6.0143   6.1199
     6.1229   6.2094   6.2432   6.4808   6.5340   6.5489   6.7785   6.7829
     6.8357   6.9181   7.1301   7.1350   7.1360   7.1369   7.2806   7.2823
     7.3045   7.3069   7.8460   7.8567   7.8772   7.8843   7.8933   7.8942
     9.2218   9.2245  10.5469  10.5612  10.6037  10.6107  11.7392  11.7692
    11.8585  11.8718  12.4328  12.4435  12.4529  12.4585  13.0603  13.1217
    13.3945  13.4362  13.4447  13.4622  13.8242  13.8263  13.8297  13.8587
    14.9267  15.2515  15.2586  15.4584  15.4650  15.5527  16.0143  16.0213
    16.0967  16.8392  17.1981  17.7133  17.7298

          k = 0.0000 0.3150 0.1667 ( 62260 PWs)   bands (ev):

   -66.1662 -66.1660 -66.1653 -66.1652 -66.1651 -66.1650 -66.1643 -66.1641
   -30.5448 -30.5428 -30.5413 -30.5405 -30.5400 -30.5379 -30.5360 -30.5352
   -30.5043 -30.5036 -30.5029 -30.5019 -30.4762 -30.4760 -30.4751 -30.4743
   -30.4481 -30.4478 -30.4442 -30.4435 -30.4383 -30.4364 -30.4341 -30.4321
   -20.3225 -20.3224 -20.3223 -20.3223 -20.3223 -20.3223 -20.3222 -20.3222
   -20.3004 -20.3000 -20.3000 -20.2995 -20.2992 -20.2988 -20.2985 -20.2984
   -20.2982 -20.2980 -20.2980 -20.2977 -20.2976 -20.2975 -20.2974 -20.2970
   -20.2969 -20.2967 -20.2965 -20.2964 -20.2963 -20.2962 -20.2959 -20.2958
   -20.2912 -20.2909 -20.2908 -20.2905 -20.2902 -20.2901 -20.2894 -20.2893
   -20.2858 -20.2857 -20.2857 -20.2856 -20.2853 -20.2852 -20.2852 -20.2851
   -20.2820 -20.2818 -20.2816 -20.2814 -20.2813 -20.2812 -20.2803 -20.2803
    -9.8774  -9.7638  -9.4971  -9.4096  -9.4060  -9.3171  -9.1208  -9.1133
    -8.7078  -8.6316  -8.6197  -8.6172  -8.1109  -8.0777  -8.0598  -8.0419
    -7.9273  -7.9090  -7.8120  -7.7974  -7.7796  -7.7676  -7.6745  -7.6627
     1.1040   1.1043   1.1538   1.1551   1.3961   1.3997   1.6161   1.6465
     2.3821   2.4223   2.4370   2.5478   2.5776   2.7102   2.8599   2.9663
     2.9689   3.0850   3.6197   3.6365   3.6591   3.6876   4.1553   4.2895
     4.3114   4.5079   4.5157   4.7242   4.7565   4.8005   4.8210   4.9260
     5.1096   5.1812   5.1917   5.2947   5.4350   5.4389   5.6215   5.6592
     5.7205   5.7534   5.8163   5.9349   6.0481   6.0560   6.0743   6.1167
     6.2063   6.3595   6.3811   6.5366   6.5555   6.7688   6.8162   6.8871
     6.9236   6.9385   7.0287   7.0439   7.0601   7.0694   7.1243   7.1582
     7.1992   7.1996   7.8332   7.8439   7.8531   7.8643   7.8798   7.8943
     9.5911   9.5961  10.5661  10.6107  10.7327  10.7803  11.7686  11.8351
    11.8721  11.9440  12.3208  12.3348  12.4940  12.5125  13.0760  13.0984
    13.1970  13.3738  13.4163  13.4335  13.6674  13.7336  13.8205  13.8296
    15.0442  15.2484  15.4723  15.5016  15.5580  15.6276  15.9918  16.2585
    16.3430  16.8049  17.2717  17.3639  17.6963

          k = 0.0000 0.3150 0.3333 ( 62269 PWs)   bands (ev):

   -66.1660 -66.1658 -66.1655 -66.1653 -66.1650 -66.1648 -66.1645 -66.1643
   -30.5438 -30.5417 -30.5410 -30.5389 -30.5240 -30.5232 -30.5196 -30.5181
   -30.5053 -30.5037 -30.5007 -30.4995 -30.4808 -30.4787 -30.4746 -30.4738
   -30.4660 -30.4630 -30.4615 -30.4598 -30.4374 -30.4355 -30.4350 -30.4331
   -20.3224 -20.3224 -20.3223 -20.3223 -20.3223 -20.3223 -20.3222 -20.3222
   -20.3003 -20.3001 -20.2999 -20.2996 -20.2990 -20.2986 -20.2986 -20.2983
   -20.2981 -20.2981 -20.2979 -20.2978 -20.2976 -20.2976 -20.2975 -20.2972
   -20.2970 -20.2968 -20.2964 -20.2963 -20.2962 -20.2962 -20.2961 -20.2959
   -20.2911 -20.2909 -20.2908 -20.2906 -20.2889 -20.2889 -20.2881 -20.2880
   -20.2863 -20.2862 -20.2857 -20.2857 -20.2853 -20.2853 -20.2847 -20.2846
   -20.2832 -20.2830 -20.2827 -20.2825 -20.2811 -20.2810 -20.2806 -20.2805
    -9.7507  -9.6361  -9.5428  -9.4458  -9.1713  -9.0509  -8.9794  -8.9611
    -8.7476  -8.6546  -8.6023  -8.5815  -8.2877  -8.2427  -8.2382  -8.1450
    -8.0795  -8.0585  -8.0392  -7.9986  -7.7577  -7.7453  -7.6965  -7.6846
     1.1645   1.1665   1.1726   1.1748   2.0884   2.1289   2.2167   2.3185
     2.4454   2.5389   2.5782   2.6429   2.6850   2.7487   2.8795   2.9525
     3.2128   3.2937   3.5725   3.6327   3.6768   3.7153   3.7348   3.7590
     4.1266   4.2962   4.3996   4.4120   4.4733   4.5702   4.5876   4.7131
     4.7502   4.8761   4.9745   5.0436   5.1401   5.2130   5.2479   5.3255
     5.3954   5.5316   5.7292   5.8912   6.1356   6.1503   6.1591   6.2028
     6.3750   6.4904   6.5435   6.5633   6.6277   6.7412   6.7458   6.7491
     6.8761   6.9552   7.0277   7.0546   7.0886   7.1407   7.1785   7.2119
     7.2643   7.3221   7.7512   7.7603   7.7627   7.7824   7.8637   7.8813
    10.3481  10.3515  10.5818  10.6179  11.2287  11.2613  11.7514  11.8624
    11.9065  11.9270  12.1317  12.2029  12.6371  12.6444  12.6887  12.6936
    12.9849  13.1367  13.2331  13.3407  13.4289  13.5161  13.8130  13.8246
    15.1591  15.2324  15.6410  15.8636  15.9216  15.9792  16.1277  16.6872
    16.7562  16.7979  17.1862  17.5353  17.7599

          k = 0.0000 0.3150-0.5000 ( 62306 PWs)   bands (ev):

   -66.1658 -66.1658 -66.1656 -66.1656 -66.1647 -66.1647 -66.1645 -66.1645
   -30.5424 -30.5424 -30.5403 -30.5403 -30.5095 -30.5095 -30.5076 -30.5076
   -30.4991 -30.4991 -30.4947 -30.4947 -30.4884 -30.4884 -30.4847 -30.4847
   -30.4716 -30.4716 -30.4707 -30.4707 -30.4362 -30.4362 -30.4343 -30.4343
   -20.3224 -20.3224 -20.3224 -20.3224 -20.3223 -20.3223 -20.3222 -20.3222
   -20.3002 -20.3002 -20.2998 -20.2998 -20.2988 -20.2988 -20.2983 -20.2983
   -20.2981 -20.2981 -20.2979 -20.2979 -20.2978 -20.2978 -20.2973 -20.2973
   -20.2969 -20.2969 -20.2963 -20.2963 -20.2963 -20.2963 -20.2961 -20.2961
   -20.2910 -20.2910 -20.2907 -20.2907 -20.2874 -20.2874 -20.2874 -20.2874
   -20.2866 -20.2866 -20.2866 -20.2866 -20.2845 -20.2845 -20.2844 -20.2844
   -20.2839 -20.2839 -20.2838 -20.2838 -20.2809 -20.2809 -20.2808 -20.2808
    -9.6262  -9.6262  -9.5193  -9.5193  -8.8881  -8.8881  -8.7562  -8.7562
    -8.6684  -8.6684  -8.6544  -8.6544  -8.5275  -8.5275  -8.4587  -8.4587
    -8.0729  -8.0729  -8.0308  -8.0308  -7.7270  -7.7269  -7.7148  -7.7148
     1.1758   1.1758   1.1785   1.1785   2.4298   2.4298   2.5566   2.5566
     2.8889   2.8889   2.9792   2.9792   3.0183   3.0184   3.1551   3.1551
     3.1932   3.1932   3.2892   3.2892   3.3350   3.3351   3.6197   3.6197
     4.0302   4.0302   4.0914   4.0914   4.0921   4.0922   4.3450   4.3450
     4.8408   4.8408   4.9717   4.9717   5.1800   5.1800   5.1880   5.1880
     5.3402   5.3402   5.8062   5.8062   6.2356   6.2356   6.2712   6.2712
     6.3968   6.3968   6.4434   6.4434   6.4778   6.4778   6.7118   6.7118
     7.0654   7.0654   7.0784   7.0784   7.1199   7.1200   7.4975   7.4975
     7.5049   7.5049   7.5739   7.5739   7.5980   7.5980   7.8717   7.8717
    10.5845  10.5845  11.1680  11.1680  11.2092  11.2092  11.6936  11.6936
    11.9551  11.9551  12.0848  12.0848  12.5950  12.5950  12.6051  12.6051
    12.9405  12.9405  13.0026  13.0026  13.4354  13.4354  13.8149  13.8149
    15.2038  15.2038  15.8011  15.8011  16.2554  16.2555  16.4440  16.4440
    17.0095  17.0095  17.3051  17.3052  18.0319

          k = 0.0000-0.4725 0.0000 ( 62212 PWs)   bands (ev):

   -66.1662 -66.1662 -66.1652 -66.1652 -66.1651 -66.1651 -66.1641 -66.1641
   -30.5475 -30.5475 -30.5440 -30.5440 -30.5419 -30.5419 -30.5385 -30.5385
   -30.4910 -30.4910 -30.4897 -30.4897 -30.4890 -30.4890 -30.4873 -30.4873
   -30.4414 -30.4414 -30.4377 -30.4377 -30.4377 -30.4377 -30.4325 -30.4325
   -20.3225 -20.3225 -20.3223 -20.3223 -20.3223 -20.3223 -20.3222 -20.3222
   -20.2997 -20.2997 -20.2993 -20.2992 -20.2990 -20.2990 -20.2985 -20.2985
   -20.2979 -20.2979 -20.2976 -20.2976 -20.2975 -20.2975 -20.2974 -20.2974
   -20.2968 -20.2968 -20.2967 -20.2967 -20.2966 -20.2966 -20.2963 -20.2963
   -20.2911 -20.2911 -20.2907 -20.2907 -20.2906 -20.2906 -20.2899 -20.2899
   -20.2858 -20.2858 -20.2856 -20.2856 -20.2853 -20.2853 -20.2851 -20.2851
   -20.2814 -20.2814 -20.2813 -20.2813 -20.2811 -20.2811 -20.2801 -20.2801
    -9.8691  -9.8691  -9.4457  -9.4457  -9.4295  -9.4295  -9.1594  -9.1594
    -8.4089  -8.4089  -8.3688  -8.3688  -8.3670  -8.3670  -8.3596  -8.3596
    -7.7915  -7.7915  -7.7814  -7.7814  -7.6669  -7.6669  -7.6608  -7.6608
     1.0011   1.0011   1.1267   1.1267   1.1507   1.1507   1.4666   1.4666
     2.3121   2.3121   3.1357   3.1357   3.1831   3.1831   3.2487   3.2487
     3.2639   3.2639   3.3268   3.3268   3.5375   3.5375   3.5484   3.5484
     3.7287   3.7287   4.6763   4.6763   4.6771   4.6771   5.2685   5.2686
     5.2860   5.2860   5.4136   5.4136   5.4264   5.4264   5.7738   5.7738
     5.7820   5.7820   5.9620   5.9620   5.9945   5.9945   6.1306   6.1306
     6.1581   6.1581   6.2249   6.2249   6.6380   6.6380   6.6455   6.6455
     6.8775   6.8775   7.2760   7.2760   7.2922   7.2922   7.5040   7.5040
     7.5064   7.5064   7.5489   7.5490   7.5527   7.5527   7.8885   7.8885
     9.2237   9.2237  11.1626  11.1626  11.1873  11.1873  11.2408  11.2408
    11.2711  11.2711  12.4464  12.4464  12.4547  12.4547  13.1020  13.1020
    13.5666  13.5666  13.5991  13.5991  13.6141  13.6141  13.6267  13.6267
    15.4557  15.4557  15.5175  15.5175  15.7448  15.7448  15.7552  15.7552
    16.4466  16.4466  17.9365  17.9366  18.0714

          k = 0.0000-0.4725 0.1667 ( 62246 PWs)   bands (ev):

   -66.1661 -66.1661 -66.1652 -66.1652 -66.1651 -66.1651 -66.1642 -66.1642
   -30.5437 -30.5437 -30.5409 -30.5409 -30.5388 -30.5388 -30.5355 -30.5355
   -30.4905 -30.4905 -30.4898 -30.4897 -30.4890 -30.4890 -30.4879 -30.4879
   -30.4481 -30.4481 -30.4439 -30.4439 -30.4374 -30.4374 -30.4332 -30.4332
   -20.3224 -20.3224 -20.3223 -20.3223 -20.3223 -20.3223 -20.3222 -20.3222
   -20.2997 -20.2997 -20.2992 -20.2992 -20.2991 -20.2991 -20.2986 -20.2986
   -20.2979 -20.2979 -20.2976 -20.2976 -20.2976 -20.2976 -20.2974 -20.2974
   -20.2969 -20.2969 -20.2967 -20.2967 -20.2966 -20.2966 -20.2963 -20.2963
   -20.2910 -20.2910 -20.2907 -20.2907 -20.2901 -20.2901 -20.2894 -20.2894
   -20.2858 -20.2858 -20.2857 -20.2857 -20.2852 -20.2852 -20.2852 -20.2852
   -20.2819 -20.2819 -20.2815 -20.2815 -20.2813 -20.2813 -20.2803 -20.2803
    -9.8139  -9.8139  -9.4432  -9.4431  -9.3539  -9.3539  -9.1170  -9.1170
    -8.4138  -8.4138  -8.3765  -8.3765  -8.3632  -8.3632  -8.3616  -8.3616
    -7.9202  -7.9202  -7.8057  -7.8057  -7.7739  -7.7739  -7.6688  -7.6688
     1.1043   1.1043   1.1550   1.1550   1.3991   1.3991   1.6394   1.6394
     2.4025   2.4025   3.1532   3.1532   3.1902   3.1902   3.2617   3.2617
     3.3004   3.3004   3.3244   3.3244   3.5405   3.5405   3.5819   3.5819
     3.7524   3.7524   4.3057   4.3057   4.7332   4.7332   5.0020   5.0020
     5.1790   5.1790   5.2534   5.2534   5.4298   5.4298   5.4907   5.4907
     5.7482   5.7482   5.7605   5.7605   6.0646   6.0646   6.1202   6.1202
     6.3349   6.3349   6.3736   6.3736   6.6327   6.6327   6.8610   6.8610
     6.9582   6.9582   7.0413   7.0413   7.1100   7.1100   7.4922   7.4922
     7.5124   7.5124   7.5336   7.5336   7.5423   7.5423   7.8775   7.8775
     9.5951   9.5951  11.1910  11.1910  11.2576  11.2576  11.2951  11.2951
    11.3725  11.3725  12.3290  12.3290  12.5057  12.5057  13.1164  13.1164
    13.3848  13.3848  13.4692  13.4692  13.5948  13.5948  13.6349  13.6349
    15.4571  15.4571  15.7187  15.7187  15.7406  15.7406  16.0424  16.0424
    16.5153  16.5153  17.8743  17.8743  18.0371

          k = 0.0000-0.4725 0.3333 ( 62268 PWs)   bands (ev):

   -66.1659 -66.1659 -66.1654 -66.1654 -66.1649 -66.1649 -66.1644 -66.1644
   -30.5426 -30.5426 -30.5399 -30.5399 -30.5232 -30.5232 -30.5182 -30.5182
   -30.4922 -30.4922 -30.4904 -30.4904 -30.4882 -30.4882 -30.4872 -30.4872
   -30.4655 -30.4655 -30.4613 -30.4613 -30.4365 -30.4365 -30.4342 -30.4342
   -20.3224 -20.3224 -20.3223 -20.3223 -20.3223 -20.3223 -20.3222 -20.3222
   -20.2995 -20.2995 -20.2992 -20.2992 -20.2990 -20.2990 -20.2987 -20.2987
   -20.2979 -20.2978 -20.2977 -20.2977 -20.2975 -20.2975 -20.2973 -20.2973
   -20.2971 -20.2971 -20.2969 -20.2969 -20.2965 -20.2965 -20.2963 -20.2963
   -20.2910 -20.2910 -20.2908 -20.2908 -20.2889 -20.2889 -20.2880 -20.2880
   -20.2863 -20.2863 -20.2857 -20.2857 -20.2853 -20.2853 -20.2847 -20.2847
   -20.2831 -20.2831 -20.2826 -20.2826 -20.2811 -20.2811 -20.2805 -20.2805
    -9.6856  -9.6856  -9.4857  -9.4857  -9.0950  -9.0950  -8.9686  -8.9686
    -8.4646  -8.4646  -8.4266  -8.4266  -8.3616  -8.3616  -8.3478  -8.3478
    -8.2120  -8.2120  -8.1197  -8.1197  -7.7517  -7.7517  -7.6908  -7.6908
     1.1662   1.1662   1.1744   1.1744   2.1220   2.1220   2.3029   2.3029
     2.6654   2.6654   3.1652   3.1652   3.2140   3.2140   3.2678   3.2678
     3.2985   3.2985   3.4073   3.4073   3.5183   3.5183   3.7022   3.7022
     3.7082   3.7082   3.7970   3.7970   4.4627   4.4627   4.6098   4.6099
     4.7817   4.7817   4.8230   4.8230   5.1026   5.1026   5.2732   5.2732
     5.4663   5.4663   5.6639   5.6639   6.1614   6.1614   6.2027   6.2027
     6.4714   6.4714   6.5602   6.5602   6.6186   6.6186   6.7562   6.7562
     6.9630   6.9630   7.1813   7.1813   7.1883   7.1883   7.4635   7.4635
     7.4909   7.4909   7.5216   7.5216   7.5346   7.5346   7.7885   7.7885
    10.3582  10.3582  11.2033  11.2033  11.2451  11.2451  11.6764  11.6764
    11.7354  11.7354  11.9037  11.9037  12.6696  12.6696  12.8209  12.8209
    12.8970  12.8970  13.2524  13.2524  13.5852  13.5852  13.6113  13.6113
    15.5080  15.5080  15.6836  15.6836  16.3245  16.3245  16.7615  16.7615
    16.7880  16.7880  17.3462  17.3462  17.8882

          k = 0.0000-0.4725-0.5000 ( 62284 PWs)   bands (ev):

   -66.1657 -66.1657 -66.1657 -66.1657 -66.1646 -66.1646 -66.1646 -66.1646
   -30.5413 -30.5413 -30.5413 -30.5413 -30.5018 -30.5018 -30.5018 -30.5018
   -30.4986 -30.4986 -30.4986 -30.4986 -30.4824 -30.4824 -30.4824 -30.4824
   -30.4805 -30.4804 -30.4804 -30.4804 -30.4354 -30.4354 -30.4354 -30.4354
   -20.3224 -20.3224 -20.3224 -20.3224 -20.3223 -20.3223 -20.3223 -20.3223
   -20.2993 -20.2993 -20.2993 -20.2993 -20.2989 -20.2988 -20.2988 -20.2988
   -20.2978 -20.2978 -20.2978 -20.2978 -20.2974 -20.2974 -20.2974 -20.2974
   -20.2971 -20.2971 -20.2971 -20.2971 -20.2964 -20.2964 -20.2964 -20.2964
   -20.2909 -20.2909 -20.2909 -20.2909 -20.2874 -20.2874 -20.2874 -20.2874
   -20.2866 -20.2866 -20.2866 -20.2866 -20.2845 -20.2845 -20.2845 -20.2845
   -20.2838 -20.2838 -20.2838 -20.2838 -20.2808 -20.2808 -20.2808 -20.2808
    -9.5642  -9.5642  -9.5642  -9.5642  -8.7310  -8.7310  -8.7310  -8.7310
    -8.6896  -8.6896  -8.6896  -8.6896  -8.3426  -8.3426  -8.3426  -8.3426
    -8.3040  -8.3040  -8.3040  -8.3040  -7.7211  -7.7211  -7.7211  -7.7211
     1.1780   1.1780   1.1780   1.1780   2.9565   2.9565   2.9565   2.9565
     3.0870   3.0870   3.0870   3.0870   3.1837   3.1837   3.1837   3.1837
     3.2600   3.2600   3.2600   3.2600   3.4271   3.4271   3.4271   3.4271
     3.6193   3.6193   3.6193   3.6193   4.3036   4.3036   4.3036   4.3036
     4.4130   4.4131   4.4131   4.4131   5.1743   5.1743   5.1743   5.1743
     5.5385   5.5385   5.5385   5.5385   6.2705   6.2705   6.2705   6.2705
     6.4438   6.4438   6.4438   6.4438   6.5703   6.5703   6.5703   6.5703
     7.3038   7.3038   7.3039   7.3039   7.3886   7.3886   7.3886   7.3886
     7.4626   7.4626   7.4626   7.4626   7.6013   7.6013   7.6013   7.6013
    11.1337  11.1337  11.1337  11.1337  11.2794  11.2794  11.2794  11.2794
    12.2506  12.2506  12.2506  12.2506  12.2771  12.2771  12.2771  12.2771
    12.9569  12.9569  12.9569  12.9569  13.5887  13.5888  13.5888  13.5888
    15.6032  15.6032  15.6032  15.6032  16.8585  16.8585  16.8586  16.8586
    17.4346  17.4346  17.4346  17.4346  17.5347

          k = 0.1667 0.0000 0.1667 ( 62234 PWs)   bands (ev):

   -66.1662 -66.1658 -66.1653 -66.1653 -66.1650 -66.1649 -66.1645 -66.1641
   -30.5418 -30.5416 -30.5389 -30.5372 -30.5363 -30.5359 -30.5345 -30.5308
   -30.5166 -30.5164 -30.5156 -30.5155 -30.4634 -30.4630 -30.4626 -30.4612
   -30.4477 -30.4472 -30.4458 -30.4443 -30.4439 -30.4409 -30.4402 -30.4359
   -20.3225 -20.3224 -20.3224 -20.3223 -20.3223 -20.3223 -20.3222 -20.3222
   -20.3015 -20.3011 -20.3011 -20.3007 -20.2989 -20.2988 -20.2986 -20.2985
   -20.2983 -20.2981 -20.2979 -20.2977 -20.2977 -20.2975 -20.2973 -20.2971
   -20.2969 -20.2968 -20.2963 -20.2961 -20.2954 -20.2951 -20.2948 -20.2946
   -20.2908 -20.2906 -20.2904 -20.2901 -20.2899 -20.2898 -20.2895 -20.2893
   -20.2861 -20.2860 -20.2858 -20.2857 -20.2852 -20.2851 -20.2850 -20.2849
   -20.2821 -20.2818 -20.2818 -20.2816 -20.2815 -20.2814 -20.2806 -20.2805
    -9.9053  -9.6646  -9.5117  -9.5016  -9.3033  -9.2857  -9.0852  -9.0708
    -8.9971  -8.8213  -8.8187  -8.8172  -7.9294  -7.9259  -7.9038  -7.9001
    -7.8431  -7.8427  -7.8032  -7.7793  -7.7471  -7.7046  -7.7039  -7.6611
     1.2743   1.2777   1.3699   1.3855   1.4045   1.4242   1.4556   1.6738
     1.7052   1.7136   1.7511   1.9660   2.4549   2.5369   2.6706   2.6735
     2.7819   2.8066   4.0831   4.0955   4.2332   4.2368   4.3898   4.3944
     4.3958   4.4050   4.6741   4.6925   4.7085   4.8169   5.0185   5.2253
     5.2352   5.2976   5.3224   5.5055   5.5300   5.5951   5.5990   5.7037
     5.7062   5.7714   5.7762   5.8739   5.9417   6.0549   6.2718   6.3801
     6.3808   6.4411   6.4960   6.6240   6.6321   6.7530   6.7635   6.7784
     6.8004   6.8007   6.8046   6.8219   6.8960   6.9613   6.9662   7.0515
     7.1839   7.2351   7.8591   7.8594   8.0623   8.1010   8.1152   8.1332
     9.8150   9.8659  10.1237  10.1518  10.1566  10.2373  12.2946  12.3185
    12.3568  12.3722  12.3792  12.3902  12.5437  12.5571  12.9346  13.0064
    13.0685  13.1545  13.2805  13.4096  13.8827  13.9372  14.0007  14.0434
    14.1737  14.4658  14.5090  15.1387  15.3584  15.6174  15.6299  16.4795
    16.4813  17.0561  17.0610  17.2913  17.6056

          k = 0.1667 0.0000 0.3333 ( 62265 PWs)   bands (ev):

   -66.1660 -66.1656 -66.1655 -66.1652 -66.1651 -66.1648 -66.1647 -66.1643
   -30.5395 -30.5369 -30.5342 -30.5321 -30.5269 -30.5244 -30.5232 -30.5187
   -30.5178 -30.5169 -30.5099 -30.5076 -30.4747 -30.4714 -30.4656 -30.4620
   -30.4616 -30.4600 -30.4569 -30.4540 -30.4446 -30.4425 -30.4397 -30.4374
   -20.3224 -20.3224 -20.3223 -20.3223 -20.3223 -20.3223 -20.3222 -20.3222
   -20.3014 -20.3012 -20.3010 -20.3008 -20.2987 -20.2986 -20.2984 -20.2984
   -20.2983 -20.2981 -20.2979 -20.2979 -20.2978 -20.2976 -20.2973 -20.2971
   -20.2970 -20.2969 -20.2962 -20.2961 -20.2953 -20.2951 -20.2950 -20.2948
   -20.2908 -20.2906 -20.2902 -20.2900 -20.2888 -20.2887 -20.2881 -20.2880
   -20.2865 -20.2863 -20.2857 -20.2856 -20.2855 -20.2854 -20.2846 -20.2845
   -20.2833 -20.2830 -20.2827 -20.2824 -20.2816 -20.2814 -20.2809 -20.2809
    -9.7746  -9.5511  -9.5224  -9.3243  -9.3156  -9.0362  -9.0334  -8.9657
    -8.9313  -8.8304  -8.7825  -8.7440  -8.2507  -8.2468  -8.1912  -8.1668
    -7.8985  -7.8777  -7.8389  -7.8188  -7.7407  -7.7148  -7.6959  -7.6705
     1.3868   1.3899   1.4383   1.4388   1.6155   1.6239   1.6582   1.7023
     2.1378   2.1897   2.3120   2.4074   2.6937   2.7272   2.7769   2.8206
     2.9151   3.0291   3.6896   3.7911   3.8834   3.9213   4.1646   4.2144
     4.2302   4.4248   4.4793   4.5761   4.5805   4.6619   4.6765   4.8236
     4.9612   4.9639   5.0141   5.1491   5.2143   5.3444   5.5835   5.6278
     5.7230   5.7995   5.8547   5.9188   5.9376   6.0067   6.0985   6.1063
     6.4027   6.4742   6.5317   6.5575   6.6084   6.6611   6.7259   6.7705
     6.7742   6.8551   6.8558   6.8684   7.0415   7.0902   7.1135   7.1519
     7.2919   7.3539   7.7685   7.7792   7.9516   7.9906   8.1072   8.1176
    10.1306  10.1384  10.4745  10.5337  10.8124  10.8981  11.9294  11.9700
    12.1658  12.4673  12.4905  12.5265  12.5493  12.5506  12.7305  12.8006
    12.9173  13.1101  13.1342  13.2867  13.6263  13.6529  13.9284  13.9584
    14.3157  14.4834  14.7730  15.2572  15.4625  15.9246  16.1049  16.3902
    16.4733  17.3766  17.5135  17.6340  17.7033

          k = 0.1667 0.0000-0.5000 ( 62322 PWs)   bands (ev):

   -66.1658 -66.1658 -66.1654 -66.1654 -66.1649 -66.1649 -66.1645 -66.1645
   -30.5381 -30.5381 -30.5331 -30.5331 -30.5204 -30.5204 -30.5192 -30.5192
   -30.4982 -30.4982 -30.4940 -30.4940 -30.4900 -30.4900 -30.4860 -30.4860
   -30.4603 -30.4603 -30.4580 -30.4580 -30.4436 -30.4436 -30.4387 -30.4387
   -20.3224 -20.3224 -20.3223 -20.3223 -20.3223 -20.3223 -20.3222 -20.3222
   -20.3013 -20.3013 -20.3010 -20.3009 -20.2985 -20.2985 -20.2984 -20.2984
   -20.2982 -20.2982 -20.2981 -20.2981 -20.2978 -20.2978 -20.2972 -20.2972
   -20.2970 -20.2970 -20.2962 -20.2962 -20.2952 -20.2952 -20.2950 -20.2949
   -20.2907 -20.2907 -20.2901 -20.2901 -20.2874 -20.2874 -20.2873 -20.2873
   -20.2866 -20.2866 -20.2866 -20.2866 -20.2847 -20.2847 -20.2845 -20.2845
   -20.2839 -20.2839 -20.2836 -20.2836 -20.2813 -20.2813 -20.2811 -20.2811
    -9.6418  -9.6418  -9.3975  -9.3975  -9.1257  -9.1257  -8.8613  -8.8613
    -8.6494  -8.6494  -8.6398  -8.6398  -8.5877  -8.5877  -8.5249  -8.5249
    -7.8692  -7.8692  -7.8478  -7.8478  -7.7283  -7.7283  -7.6833  -7.6833
     1.3913   1.3913   1.4511   1.4512   1.6420   1.6420   1.6853   1.6853
     2.7173   2.7173   2.9488   2.9488   3.0245   3.0245   3.1307   3.1307
     3.1811   3.1811   3.2939   3.2939   3.4220   3.4220   3.7426   3.7426
     3.8429   3.8429   4.3348   4.3348   4.5741   4.5741   4.8120   4.8120
     4.9245   4.9245   4.9559   4.9559   5.1654   5.1655   5.6845   5.6845
     5.7293   5.7293   5.8143   5.8143   5.9136   5.9136   6.0621   6.0621
     6.3559   6.3559   6.5125   6.5125   6.6590   6.6590   6.7760   6.7760
     6.7772   6.7772   6.9174   6.9174   6.9723   6.9723   7.5092   7.5092
     7.5367   7.5367   7.6957   7.6957   7.7266   7.7267   8.1169   8.1169
    10.1424  10.1424  11.2342  11.2342  11.2960  11.2960  11.5742  11.5742
    11.7203  11.7203  12.5743  12.5743  12.7062  12.7062  12.7940  12.7940
    12.9383  12.9383  13.1991  13.1991  13.3016  13.3016  13.9413  13.9413
    14.4286  14.4286  15.0666  15.0666  15.9147  15.9147  16.2130  16.2130
    16.9082  16.9082  17.8950  17.8952  17.9617

          k = 0.1667 0.1575 0.1667 ( 62255 PWs)   bands (ev):

   -66.1662 -66.1659 -66.1653 -66.1653 -66.1650 -66.1650 -66.1644 -66.1641
   -30.5416 -30.5410 -30.5388 -30.5370 -30.5360 -30.5357 -30.5343 -30.5310
   -30.5132 -30.5128 -30.5123 -30.5122 -30.4664 -30.4663 -30.4658 -30.4650
   -30.4478 -30.4473 -30.4460 -30.4444 -30.4440 -30.4412 -30.4404 -30.4366
   -20.3225 -20.3224 -20.3224 -20.3223 -20.3223 -20.3223 -20.3222 -20.3222
   -20.3012 -20.3008 -20.3008 -20.3004 -20.2990 -20.2987 -20.2986 -20.2985
   -20.2983 -20.2980 -20.2978 -20.2978 -20.2976 -20.2975 -20.2973 -20.2971
   -20.2970 -20.2967 -20.2963 -20.2961 -20.2957 -20.2954 -20.2951 -20.2949
   -20.2908 -20.2906 -20.2904 -20.2901 -20.2899 -20.2898 -20.2895 -20.2893
   -20.2861 -20.2860 -20.2858 -20.2857 -20.2852 -20.2851 -20.2850 -20.2849
   -20.2821 -20.2819 -20.2818 -20.2816 -20.2815 -20.2814 -20.2806 -20.2805
    -9.8807  -9.6745  -9.4846  -9.4736  -9.3097  -9.2923  -9.0843  -9.0717
    -8.9241  -8.7738  -8.7707  -8.7685  -7.9362  -7.9243  -7.9088  -7.9077
    -7.8754  -7.8443  -7.8231  -7.8116  -7.8011  -7.7860  -7.7772  -7.7507
     1.2746   1.2773   1.3881   1.4038   1.4072   1.4258   1.5856   1.7497
     1.8709   1.9231   1.9296   2.1087   2.4608   2.5318   2.7440   2.7458
     2.8535   2.8723   3.9713   3.9937   4.0647   4.0739   4.3484   4.3596
     4.3917   4.3979   4.6714   4.6912   4.7436   4.8096   4.8610   5.1631
     5.1996   5.2541   5.2728   5.3170   5.3326   5.5593   5.5615   5.6651
     5.7121   5.7388   5.8677   5.8794   5.8881   5.9829   6.2660   6.3425
     6.3494   6.3825   6.4777   6.5949   6.6397   6.7156   6.7546   6.7702
     6.7849   6.8502   6.8652   6.8785   6.9400   6.9575   6.9696   7.0603
     7.1881   7.2356   7.8591   7.8602   8.0107   8.0473   8.0481   8.0586
     9.8327   9.8666  10.2827  10.3169  10.3287  10.3825  12.1838  12.2308
    12.3259  12.3293  12.3643  12.3679  12.4379  12.4429  12.9700  13.0300
    13.0781  13.1640  13.2808  13.4135  13.8599  13.8714  13.9032  13.9629
    14.4533  14.7822  14.7965  15.2520  15.6184  15.6286  15.7681  16.4418
    16.4461  16.9352  17.1502  17.1548  17.6650

          k = 0.1667 0.1575 0.3333 ( 62260 PWs)   bands (ev):

   -66.1660 -66.1657 -66.1655 -66.1652 -66.1651 -66.1648 -66.1646 -66.1643
   -30.5388 -30.5363 -30.5344 -30.5321 -30.5256 -30.5231 -30.5227 -30.5186
   -30.5141 -30.5136 -30.5079 -30.5060 -30.4757 -30.4729 -30.4657 -30.4652
   -30.4638 -30.4617 -30.4589 -30.4564 -30.4444 -30.4423 -30.4404 -30.4381
   -20.3224 -20.3224 -20.3223 -20.3223 -20.3223 -20.3223 -20.3222 -20.3222
   -20.3011 -20.3009 -20.3007 -20.3005 -20.2988 -20.2985 -20.2984 -20.2984
   -20.2984 -20.2980 -20.2979 -20.2979 -20.2978 -20.2976 -20.2973 -20.2971
   -20.2970 -20.2969 -20.2963 -20.2962 -20.2956 -20.2954 -20.2953 -20.2951
   -20.2908 -20.2906 -20.2903 -20.2901 -20.2888 -20.2888 -20.2881 -20.2880
   -20.2865 -20.2863 -20.2857 -20.2856 -20.2855 -20.2854 -20.2846 -20.2845
   -20.2833 -20.2831 -20.2827 -20.2824 -20.2816 -20.2814 -20.2809 -20.2809
    -9.7475  -9.5321  -9.5226  -9.3314  -9.2759  -9.0426  -8.9636  -8.9601
    -8.9313  -8.7855  -8.7390  -8.7093  -8.2554  -8.2442  -8.2003  -8.1639
    -7.9003  -7.8870  -7.8452  -7.8434  -7.8145  -7.8020  -7.7905  -7.7634
     1.4137   1.4194   1.4381   1.4387   1.8024   1.8161   1.8874   1.9208
     2.1370   2.2126   2.3120   2.4341   2.7365   2.7634   2.8140   2.8482
     2.9890   3.0926   3.6873   3.7852   3.8605   3.8898   4.0568   4.1199
     4.2298   4.3224   4.4760   4.5493   4.5788   4.6407   4.6790   4.7715
     4.8383   4.8637   4.8867   5.1254   5.1440   5.1751   5.3366   5.5978
     5.6688   5.6924   5.7580   5.8539   5.9262   5.9378   6.0520   6.0892
     6.3323   6.5063   6.5282   6.6584   6.7047   6.7147   6.7302   6.7472
     6.8224   6.8678   6.9121   6.9575   7.0327   7.0935   7.1094   7.1644
     7.2862   7.3498   7.7703   7.7767   7.9063   7.9329   8.0446   8.0506
    10.2815  10.3092  10.4917  10.5446  10.9248  10.9887  11.9290  11.9668
    12.1301  12.3943  12.4290  12.4677  12.5187  12.5455  12.6677  12.6974
    12.9467  13.0915  13.1277  13.2958  13.5209  13.5616  13.8715  13.8953
    14.6312  14.7754  15.1349  15.5381  15.6853  15.9180  16.1175  16.3569
    16.5677  17.3189  17.3334  17.5678  17.6767

          k = 0.1667 0.1575-0.5000 ( 62292 PWs)   bands (ev):

   -66.1658 -66.1658 -66.1654 -66.1654 -66.1649 -66.1649 -66.1645 -66.1645
   -30.5374 -30.5374 -30.5333 -30.5333 -30.5171 -30.5171 -30.5162 -30.5162
   -30.4983 -30.4983 -30.4942 -30.4941 -30.4897 -30.4897 -30.4859 -30.4859
   -30.4634 -30.4633 -30.4616 -30.4616 -30.4434 -30.4434 -30.4394 -30.4393
   -20.3224 -20.3224 -20.3223 -20.3223 -20.3223 -20.3223 -20.3222 -20.3222
   -20.3010 -20.3010 -20.3006 -20.3006 -20.2986 -20.2986 -20.2983 -20.2983
   -20.2982 -20.2982 -20.2981 -20.2981 -20.2978 -20.2978 -20.2972 -20.2972
   -20.2970 -20.2970 -20.2962 -20.2962 -20.2955 -20.2955 -20.2953 -20.2953
   -20.2907 -20.2907 -20.2902 -20.2902 -20.2874 -20.2874 -20.2873 -20.2873
   -20.2866 -20.2866 -20.2866 -20.2866 -20.2847 -20.2847 -20.2845 -20.2845
   -20.2839 -20.2839 -20.2836 -20.2836 -20.2813 -20.2813 -20.2811 -20.2811
    -9.6133  -9.6133  -9.4059  -9.4059  -9.0635  -9.0635  -8.8262  -8.8261
    -8.6533  -8.6533  -8.6424  -8.6423  -8.5785  -8.5784  -8.5131  -8.5131
    -7.8755  -7.8755  -7.8563  -7.8563  -7.8153  -7.8153  -7.7775  -7.7775
     1.4244   1.4244   1.4509   1.4509   1.8424   1.8424   1.9142   1.9142
     2.7829   2.7829   2.9635   2.9635   3.0308   3.0309   3.1427   3.1427
     3.1871   3.1871   3.3075   3.3075   3.4147   3.4147   3.7578   3.7579
     3.8961   3.8961   4.1897   4.1897   4.5394   4.5394   4.6662   4.6662
     4.8637   4.8637   4.9239   4.9239   5.0139   5.0139   5.4629   5.4629
     5.7042   5.7042   5.7538   5.7538   5.8390   5.8390   5.9514   5.9514
     6.4650   6.4650   6.6339   6.6339   6.6662   6.6662   6.7595   6.7596
     6.8513   6.8513   6.9106   6.9106   7.0180   7.0180   7.5121   7.5121
     7.5318   7.5318   7.6687   7.6687   7.6955   7.6955   8.0505   8.0506
    10.3115  10.3115  11.2396  11.2396  11.2960  11.2960  11.6403  11.6403
    11.7799  11.7799  12.4305  12.4305  12.6963  12.6963  12.7674  12.7674
    12.9174  12.9174  13.1004  13.1004  13.2543  13.2543  13.8773  13.8773
    14.7317  14.7317  15.4522  15.4522  16.0168  16.0168  16.1895  16.1895
    16.9419  16.9419  17.7174  17.7175  17.9630

          k = 0.1667 0.3150 0.1667 ( 62249 PWs)   bands (ev):

   -66.1661 -66.1659 -66.1653 -66.1652 -66.1651 -66.1650 -66.1644 -66.1642
   -30.5411 -30.5402 -30.5383 -30.5366 -30.5361 -30.5356 -30.5335 -30.5315
   -30.5035 -30.5034 -30.5027 -30.5023 -30.4761 -30.4758 -30.4755 -30.4750
   -30.4481 -30.4476 -30.4459 -30.4448 -30.4439 -30.4423 -30.4401 -30.4380
   -20.3225 -20.3224 -20.3223 -20.3223 -20.3223 -20.3223 -20.3222 -20.3222
   -20.3004 -20.3000 -20.3000 -20.2996 -20.2992 -20.2988 -20.2985 -20.2984
   -20.2982 -20.2980 -20.2979 -20.2976 -20.2975 -20.2974 -20.2974 -20.2970
   -20.2970 -20.2967 -20.2965 -20.2965 -20.2963 -20.2962 -20.2959 -20.2958
   -20.2907 -20.2906 -20.2904 -20.2902 -20.2900 -20.2899 -20.2894 -20.2893
   -20.2860 -20.2859 -20.2859 -20.2858 -20.2851 -20.2851 -20.2850 -20.2850
   -20.2821 -20.2819 -20.2817 -20.2816 -20.2816 -20.2815 -20.2806 -20.2806
    -9.8212  -9.7049  -9.4244  -9.4111  -9.3300  -9.3133  -9.0816  -9.0743
    -8.7177  -8.6231  -8.6218  -8.6151  -8.1146  -8.0747  -8.0725  -8.0514
    -7.9195  -7.9120  -7.8995  -7.8943  -7.8342  -7.8153  -7.7948  -7.7837
     1.2750   1.2766   1.4005   1.4044   1.4210   1.4259   1.7076   1.7470
     2.4370   2.4757   2.5126   2.5462   2.5541   2.6949   2.9656   2.9727
     3.0652   3.0824   3.6320   3.6547   3.6744   3.7237   4.1467   4.3443
     4.3524   4.3682   4.3813   4.5212   4.5391   4.7840   4.7899   4.8915
     4.9312   4.9440   5.1056   5.1421   5.3247   5.3734   5.4388   5.4397
     5.6960   5.7115   5.7226   5.7282   5.8433   5.8439   6.2880   6.3249
     6.3903   6.3996   6.4527   6.5965   6.6580   6.6807   6.8042   6.8137
     6.8879   6.8925   6.9826   6.9973   7.0909   7.1067   7.1355   7.1456
     7.2339   7.2573   7.8195   7.8309   7.8365   7.8528   7.8652   7.8873
     9.8528   9.8657  10.7120  10.7545  10.7840  10.8032  11.8216  11.8724
    11.9459  11.9541  12.3695  12.3740  12.3967  12.3998  13.0592  13.0680
    13.1821  13.2357  13.2931  13.4363  13.6356  13.6640  13.6738  13.7659
    15.1985  15.4487  15.4681  15.6237  15.6284  15.7037  16.3103  16.3178
    16.3770  16.7720  17.3288  17.4594  17.4619

          k = 0.1667 0.3150 0.3333 ( 62265 PWs)   bands (ev):

   -66.1659 -66.1657 -66.1654 -66.1652 -66.1651 -66.1649 -66.1646 -66.1644
   -30.5374 -30.5354 -30.5345 -30.5326 -30.5236 -30.5229 -30.5197 -30.5184
   -30.5044 -30.5041 -30.5004 -30.4996 -30.4806 -30.4790 -30.4747 -30.4741
   -30.4657 -30.4631 -30.4619 -30.4602 -30.4440 -30.4421 -30.4414 -30.4394
   -20.3224 -20.3224 -20.3223 -20.3223 -20.3223 -20.3223 -20.3222 -20.3222
   -20.3004 -20.3001 -20.2999 -20.2997 -20.2990 -20.2986 -20.2986 -20.2982
   -20.2982 -20.2981 -20.2978 -20.2978 -20.2976 -20.2976 -20.2974 -20.2971
   -20.2970 -20.2968 -20.2964 -20.2964 -20.2963 -20.2962 -20.2961 -20.2959
   -20.2907 -20.2905 -20.2904 -20.2902 -20.2888 -20.2888 -20.2881 -20.2880
   -20.2865 -20.2863 -20.2857 -20.2856 -20.2855 -20.2854 -20.2846 -20.2845
   -20.2833 -20.2831 -20.2827 -20.2825 -20.2815 -20.2814 -20.2809 -20.2809
    -9.6829  -9.5622  -9.4584  -9.3542  -9.1874  -9.0647  -8.9513  -8.9374
    -8.7595  -8.6435  -8.5979  -8.5867  -8.2801  -8.2544  -8.2350  -8.1539
    -8.0772  -8.0655  -8.0407  -8.0049  -7.8879  -7.8723  -7.8282  -7.8147
     1.4305   1.4333   1.4380   1.4393   2.0930   2.1342   2.2086   2.3093
     2.4449   2.5409   2.5539   2.6847   2.7547   2.8265   2.9818   3.0544
     3.2146   3.2894   3.6107   3.6557   3.6825   3.7447   3.7724   3.8579
     4.1196   4.2964   4.3866   4.4175   4.4445   4.5019   4.5662   4.6007
     4.6131   4.8105   4.8299   4.8641   4.9209   4.9656   5.0951   5.1612
     5.3034   5.3592   5.4732   5.6622   5.7449   5.8457   6.0761   6.0899
     6.4711   6.5632   6.6026   6.7391   6.7752   6.7863   6.9132   6.9378
     6.9740   7.0179   7.0357   7.0585   7.1054   7.1628   7.2019   7.2397
     7.2751   7.3403   7.7476   7.7540   7.7592   7.7806   7.8429   7.8665
    10.4775  10.5011  10.7665  10.7912  11.2377  11.2732  11.8370  11.9091
    11.9506  12.0366  12.1362  12.1985  12.5298  12.5943  12.6549  12.6843
    12.9681  13.0973  13.1050  13.2884  13.3372  13.3852  13.6561  13.6958
    15.3595  15.4416  15.8839  15.9448  15.9738  16.1703  16.2548  16.6584
    16.8160  16.8744  17.1799  17.5653  17.7183

          k = 0.1667 0.3150-0.5000 ( 62264 PWs)   bands (ev):

   -66.1657 -66.1657 -66.1655 -66.1655 -66.1648 -66.1648 -66.1646 -66.1646
   -30.5361 -30.5361 -30.5339 -30.5339 -30.5090 -30.5090 -30.5077 -30.5077
   -30.4988 -30.4988 -30.4950 -30.4950 -30.4882 -30.4882 -30.4849 -30.4849
   -30.4720 -30.4720 -30.4708 -30.4708 -30.4428 -30.4428 -30.4407 -30.4407
   -20.3224 -20.3224 -20.3223 -20.3223 -20.3223 -20.3223 -20.3222 -20.3222
   -20.3002 -20.3002 -20.2998 -20.2998 -20.2988 -20.2988 -20.2984 -20.2984
   -20.2980 -20.2980 -20.2979 -20.2979 -20.2977 -20.2977 -20.2973 -20.2973
   -20.2969 -20.2969 -20.2963 -20.2963 -20.2963 -20.2963 -20.2961 -20.2961
   -20.2906 -20.2906 -20.2903 -20.2903 -20.2874 -20.2874 -20.2874 -20.2873
   -20.2866 -20.2866 -20.2866 -20.2866 -20.2846 -20.2846 -20.2846 -20.2846
   -20.2838 -20.2838 -20.2837 -20.2837 -20.2813 -20.2813 -20.2812 -20.2812
    -9.5470  -9.5470  -9.4324  -9.4324  -8.9050  -8.9050  -8.7421  -8.7421
    -8.6710  -8.6709  -8.6517  -8.6517  -8.5217  -8.5216  -8.4623  -8.4623
    -8.0716  -8.0716  -8.0393  -8.0392  -7.8582  -7.8582  -7.8434  -7.8434
     1.4439   1.4439   1.4505   1.4505   2.4319   2.4319   2.5347   2.5347
     2.9472   2.9472   3.0122   3.0122   3.0448   3.0448   3.1703   3.1703
     3.2094   3.2094   3.3585   3.3585   3.3872   3.3872   3.6615   3.6615
     4.0353   4.0353   4.0834   4.0834   4.0900   4.0900   4.3532   4.3532
     4.7395   4.7395   4.8170   4.8170   4.9649   4.9649   5.0211   5.0211
     5.0695   5.0695   5.5459   5.5459   5.8281   5.8281   5.8824   5.8824
     6.6236   6.6236   6.7504   6.7504   6.7735   6.7735   6.8154   6.8154
     7.0388   7.0388   7.0880   7.0880   7.1794   7.1794   7.5146   7.5146
     7.5170   7.5170   7.5767   7.5767   7.6036   7.6036   7.8515   7.8515
    10.7528  10.7528  11.2502  11.2502  11.2974  11.2974  11.7552  11.7552
    11.9660  11.9660  12.1164  12.1164  12.5837  12.5837  12.5883  12.5883
    12.8527  12.8527  12.9389  12.9390  13.2669  13.2669  13.6653  13.6653
    15.4142  15.4142  16.0971  16.0971  16.3303  16.3304  16.4397  16.4397
    17.0771  17.0771  17.3500  17.3500  17.9207

          k = 0.1667-0.4725 0.1667 ( 62220 PWs)   bands (ev):

   -66.1660 -66.1660 -66.1652 -66.1652 -66.1651 -66.1651 -66.1643 -66.1643
   -30.5405 -30.5405 -30.5372 -30.5372 -30.5359 -30.5358 -30.5324 -30.5324
   -30.4899 -30.4899 -30.4898 -30.4897 -30.4891 -30.4891 -30.4885 -30.4885
   -30.4480 -30.4479 -30.4455 -30.4453 -30.4434 -30.4433 -30.4392 -30.4392
   -20.3224 -20.3224 -20.3223 -20.3223 -20.3223 -20.3223 -20.3222 -20.3222
   -20.2997 -20.2997 -20.2992 -20.2992 -20.2991 -20.2991 -20.2986 -20.2986
   -20.2978 -20.2978 -20.2976 -20.2976 -20.2975 -20.2975 -20.2974 -20.2974
   -20.2969 -20.2969 -20.2967 -20.2967 -20.2966 -20.2966 -20.2963 -20.2963
   -20.2906 -20.2906 -20.2903 -20.2903 -20.2900 -20.2900 -20.2894 -20.2894
   -20.2860 -20.2860 -20.2858 -20.2858 -20.2851 -20.2851 -20.2850 -20.2850
   -20.2820 -20.2820 -20.2817 -20.2817 -20.2815 -20.2815 -20.2806 -20.2806
    -9.7559  -9.7559  -9.3678  -9.3677  -9.3524  -9.3523  -9.0779  -9.0779
    -8.4214  -8.4213  -8.3730  -8.3726  -8.3705  -8.3704  -8.3617  -8.3613
    -7.9139  -7.9134  -7.9031  -7.9030  -7.8272  -7.8271  -7.7895  -7.7894
     1.2755   1.2760   1.4035   1.4041   1.4247   1.4252   1.7380   1.7384
     2.4949   2.4953   3.1642   3.1645   3.1953   3.2065   3.2633   3.2687
     3.3196   3.3225   3.3469   3.3583   3.5753   3.5758   3.5829   3.5879
     3.7692   3.7704   4.3506   4.3604   4.3854   4.3926   4.9504   4.9587
     5.0404   5.0439   5.1605   5.1742   5.1962   5.2075   5.4283   5.4313
     5.4848   5.4850   5.7338   5.7493   5.7641   5.7750   6.3335   6.3420
     6.4135   6.4305   6.5166   6.5193   6.6490   6.6583   6.8508   6.8538
     6.8580   6.8674   7.0390   7.0403   7.1761   7.1778   7.4918   7.4946
     7.4952   7.5041   7.5159   7.5257   7.5452   7.5471   7.8648   7.8654
     9.8618   9.8623  11.2723  11.2825  11.3187  11.3364  11.3637  11.3731
    11.3913  11.3927  12.3724  12.3771  12.3930  12.3974  13.1086  13.1092
    13.3711  13.3816  13.3845  13.3948  13.4121  13.4193  13.5872  13.5882
    15.6169  15.6184  15.8023  15.8073  16.0129  16.0246  16.0251  16.0329
    16.5743  16.5751  17.8786  17.8814  17.9075

          k = 0.1667-0.4725 0.3333 ( 62252 PWs)   bands (ev):

   -66.1658 -66.1658 -66.1653 -66.1653 -66.1650 -66.1650 -66.1645 -66.1645
   -30.5362 -30.5362 -30.5335 -30.5335 -30.5228 -30.5228 -30.5185 -30.5184
   -30.4917 -30.4916 -30.4909 -30.4909 -30.4879 -30.4879 -30.4876 -30.4876
   -30.4653 -30.4653 -30.4618 -30.4617 -30.4431 -30.4431 -30.4407 -30.4407
   -20.3224 -20.3224 -20.3223 -20.3223 -20.3223 -20.3223 -20.3222 -20.3222
   -20.2995 -20.2995 -20.2992 -20.2992 -20.2991 -20.2991 -20.2987 -20.2987
   -20.2978 -20.2978 -20.2976 -20.2976 -20.2975 -20.2975 -20.2973 -20.2973
   -20.2971 -20.2971 -20.2969 -20.2969 -20.2966 -20.2966 -20.2964 -20.2964
   -20.2905 -20.2905 -20.2903 -20.2903 -20.2888 -20.2888 -20.2881 -20.2881
   -20.2864 -20.2864 -20.2857 -20.2856 -20.2855 -20.2855 -20.2846 -20.2846
   -20.2832 -20.2832 -20.2826 -20.2826 -20.2815 -20.2815 -20.2809 -20.2809
    -9.6140  -9.6139  -9.3964  -9.3963  -9.1100  -9.1097  -8.9433  -8.9432
    -8.4786  -8.4786  -8.4204  -8.4179  -8.3619  -8.3599  -8.3533  -8.3525
    -8.2060  -8.2049  -8.1269  -8.1260  -7.8821  -7.8816  -7.8226  -7.8224
     1.4344   1.4345   1.4382   1.4399   2.1269   2.1279   2.2945   2.2952
     2.7669   2.7703   3.1777   3.1870   3.2213   3.2276   3.2631   3.2888
     3.3061   3.3070   3.4346   3.4528   3.5512   3.5688   3.6793   3.6829
     3.7735   3.7851   3.8227   3.8449   4.4311   4.4607   4.5327   4.5346
     4.6292   4.6856   4.7756   4.7990   4.9671   4.9694   4.9916   5.0777
     5.1855   5.2364   5.3175   5.4186   5.7594   5.7782   6.0791   6.0906
     6.5477   6.5532   6.6766   6.6963   6.8132   6.8217   6.9564   6.9870
     7.0137   7.0599   7.1677   7.1817   7.2057   7.2172   7.4618   7.4660
     7.4838   7.4861   7.5104   7.5193   7.5310   7.5401   7.7844   7.7879
    10.5004  10.5018  11.3189  11.3266  11.3656  11.3689  11.6840  11.6890
    11.7199  11.7398  11.9482  11.9909  12.5313  12.5850  12.8080  12.8405
    12.8901  12.9229  13.1236  13.2152  13.3924  13.4121  13.4586  13.5235
    15.7602  15.7744  15.9636  15.9730  16.3730  16.3963  16.7435  16.7699
    16.8107  16.8109  17.3816  17.4064  17.8290

          k = 0.1667-0.4725-0.5000 ( 62232 PWs)   bands (ev):

   -66.1656 -66.1656 -66.1656 -66.1656 -66.1647 -66.1647 -66.1647 -66.1647
   -30.5348 -30.5348 -30.5348 -30.5348 -30.5015 -30.5015 -30.5015 -30.5015
   -30.4988 -30.4988 -30.4987 -30.4987 -30.4824 -30.4824 -30.4824 -30.4824
   -30.4806 -30.4806 -30.4806 -30.4806 -30.4419 -30.4419 -30.4419 -30.4419
   -20.3224 -20.3224 -20.3224 -20.3224 -20.3223 -20.3223 -20.3223 -20.3223
   -20.2993 -20.2993 -20.2993 -20.2993 -20.2989 -20.2989 -20.2989 -20.2989
   -20.2977 -20.2977 -20.2977 -20.2977 -20.2974 -20.2974 -20.2974 -20.2974
   -20.2971 -20.2971 -20.2971 -20.2971 -20.2965 -20.2965 -20.2965 -20.2965
   -20.2904 -20.2904 -20.2904 -20.2904 -20.2874 -20.2874 -20.2874 -20.2874
   -20.2866 -20.2866 -20.2866 -20.2866 -20.2846 -20.2846 -20.2846 -20.2846
   -20.2838 -20.2838 -20.2838 -20.2838 -20.2812 -20.2812 -20.2812 -20.2812
    -9.4799  -9.4799  -9.4798  -9.4798  -8.7533  -8.7533  -8.7510  -8.7510
    -8.6725  -8.6725  -8.6694  -8.6694  -8.3418  -8.3418  -8.3374  -8.3373
    -8.3106  -8.3105  -8.3065  -8.3064  -7.8524  -7.8524  -7.8519  -7.8519
     1.4485   1.4485   1.4495   1.4495   2.9605   2.9605   2.9654   2.9654
     3.0786   3.0786   3.1201   3.1201   3.1882   3.1882   3.2146   3.2146
     3.3040   3.3040   3.3305   3.3305   3.4496   3.4496   3.4648   3.4648
     3.6422   3.6422   3.6577   3.6577   4.3008   4.3008   4.3070   4.3070
     4.3994   4.3995   4.4089   4.4089   4.8207   4.8207   4.9493   4.9493
     5.1795   5.1795   5.3077   5.3077   5.8322   5.8322   5.8503   5.8503
     6.7008   6.7008   6.7288   6.7288   6.8072   6.8072   6.8343   6.8343
     7.2873   7.2873   7.3371   7.3371   7.3751   7.3751   7.4016   7.4016
     7.4555   7.4556   7.4842   7.4842   7.5892   7.5892   7.6207   7.6207
    11.1968  11.1968  11.2396  11.2396  11.3660  11.3660  11.4339  11.4339
    12.2451  12.2451  12.2616  12.2616  12.2706  12.2706  12.2884  12.2884
    12.8326  12.8326  12.9030  12.9030  13.4007  13.4007  13.4505  13.4505
    15.8794  15.8794  15.8943  15.8943  16.9145  16.9145  16.9222  16.9222
    17.4337  17.4342  17.4553  17.4556  17.5384

          k = 0.3333 0.0000 0.3333 ( 62316 PWs)   bands (ev):

   -66.1659 -66.1655 -66.1653 -66.1653 -66.1650 -66.1650 -66.1648 -66.1644
   -30.5304 -30.5267 -30.5264 -30.5224 -30.5197 -30.5191 -30.5189 -30.5161
   -30.5145 -30.5098 -30.5079 -30.5039 -30.4748 -30.4724 -30.4706 -30.4668
   -30.4657 -30.4633 -30.4610 -30.4591 -30.4587 -30.4531 -30.4510 -30.4475
   -20.3224 -20.3224 -20.3224 -20.3223 -20.3223 -20.3223 -20.3223 -20.3222
   -20.3014 -20.3012 -20.3012 -20.3009 -20.2987 -20.2986 -20.2985 -20.2984
   -20.2983 -20.2981 -20.2980 -20.2979 -20.2977 -20.2974 -20.2972 -20.2970
   -20.2970 -20.2968 -20.2964 -20.2963 -20.2953 -20.2951 -20.2950 -20.2948
   -20.2897 -20.2895 -20.2892 -20.2890 -20.2887 -20.2886 -20.2880 -20.2879
   -20.2870 -20.2868 -20.2861 -20.2860 -20.2853 -20.2852 -20.2843 -20.2841
   -20.2837 -20.2835 -20.2827 -20.2825 -20.2824 -20.2823 -20.2818 -20.2816
    -9.6233  -9.3678  -9.3620  -9.3361  -9.0778  -9.0740  -9.0621  -8.8548
    -8.8376  -8.7602  -8.7555  -8.7494  -8.2972  -8.2371  -8.2274  -8.2231
    -8.2121  -8.2116  -8.1183  -8.0975  -7.7338  -7.7073  -7.7063  -7.6806
     1.5621   1.5978   1.5989   1.6419   2.0205   2.0215   2.1499   2.1657
     2.2006   2.2146   2.4177   2.5241   2.9243   2.9274   2.9657   2.9804
     3.1120   3.1267   3.7604   3.8136   3.8198   3.8818   4.0031   4.0070
     4.1392   4.1412   4.1851   4.2932   4.3416   4.3432   4.4570   4.4757
     4.7591   4.8013   4.8615   4.9180   4.9639   4.9708   5.0932   5.3869
     5.3921   5.4061   5.4190   5.6880   5.9878   5.9887   6.0104   6.1054
     6.4934   6.5264   6.5424   6.5479   6.5628   6.5906   6.5930   6.6441
     6.9852   7.1362   7.1417   7.1646   7.1678   7.2171   7.2995   7.3130
     7.3155   7.4723   7.7145   7.7158   7.9167   7.9845   7.9953   8.0298
    10.7099  10.7680  10.7973  10.8296  10.9642  11.1279  12.0957  12.1100
    12.1514  12.1652  12.2241  12.2845  12.4936  12.5109  12.7648  12.7781
    12.8102  12.8671  12.9101  13.0561  13.5358  13.6029  13.6157  13.7110
    14.4637  14.7241  14.7260  15.1635  15.8606  16.5008  16.5407  16.8444
    16.8474  17.3439  17.3506  17.8299  17.9035

          k = 0.3333 0.0000-0.5000 ( 62288 PWs)   bands (ev):

   -66.1656 -66.1656 -66.1652 -66.1652 -66.1651 -66.1651 -66.1647 -66.1647
   -30.5278 -30.5277 -30.5215 -30.5215 -30.5162 -30.5162 -30.5095 -30.5095
   -30.4974 -30.4974 -30.4948 -30.4948 -30.4892 -30.4892 -30.4868 -30.4868
   -30.4696 -30.4696 -30.4610 -30.4610 -30.4568 -30.4568 -30.4497 -30.4497
   -20.3224 -20.3224 -20.3223 -20.3223 -20.3223 -20.3223 -20.3223 -20.3223
   -20.3013 -20.3013 -20.3011 -20.3011 -20.2985 -20.2985 -20.2983 -20.2983
   -20.2983 -20.2983 -20.2981 -20.2981 -20.2976 -20.2976 -20.2972 -20.2972
   -20.2969 -20.2969 -20.2964 -20.2964 -20.2952 -20.2952 -20.2950 -20.2950
   -20.2896 -20.2895 -20.2890 -20.2890 -20.2876 -20.2876 -20.2874 -20.2874
   -20.2865 -20.2865 -20.2864 -20.2864 -20.2852 -20.2852 -20.2850 -20.2850
   -20.2837 -20.2837 -20.2834 -20.2834 -20.2822 -20.2822 -20.2821 -20.2821
    -9.4645  -9.4645  -9.1751  -9.1750  -9.1537  -9.1537  -8.7710  -8.7710
    -8.6952  -8.6952  -8.6160  -8.6160  -8.5664  -8.5663  -8.5314  -8.5314
    -8.1849  -8.1849  -8.1792  -8.1792  -7.7207  -7.7207  -7.6936  -7.6936
     1.5815   1.5815   1.6243   1.6243   2.1739   2.1739   2.2101   2.2101
     2.9078   2.9078   2.9867   2.9868   3.0205   3.0205   3.1483   3.1483
     3.2221   3.2221   3.5101   3.5101   3.6264   3.6264   3.7860   3.7860
     3.8213   3.8213   4.0245   4.0245   4.1517   4.1517   4.2865   4.2866
     4.6083   4.6083   4.8470   4.8470   4.9468   4.9468   5.0319   5.0319
[...]
   -20.4456 -20.4455 -20.4452 -20.4452 -20.4450 -20.4450 -20.4445 -20.4445
   -20.4380 -20.4380 -20.4378 -20.4378 -20.4357 -20.4357 -20.4356 -20.4356
   -20.4351 -20.4351 -20.4351 -20.4351 -20.4327 -20.4327 -20.4327 -20.4327
   -20.4323 -20.4323 -20.4322 -20.4322 -20.4299 -20.4299 -20.4296 -20.4296
    -9.5961  -9.5961  -9.4453  -9.4453  -9.0742  -9.0742  -8.8560  -8.8560
    -8.7099  -8.7099  -8.6745  -8.6745  -8.6097  -8.6097  -8.5499  -8.5499
    -8.2573  -8.2573  -8.2283  -8.2283  -7.9342  -7.9342  -7.9205  -7.9205
     1.4291   1.4291   1.4392   1.4392   2.2268   2.2268   2.3333   2.3333
     2.8801   2.8801   2.9601   2.9601   2.9892   2.9892   3.1373   3.1373
     3.1712   3.1712   3.3372   3.3372   3.3579   3.3579   3.5890   3.5890
     3.8972   3.8972   3.9308   3.9308   4.0417   4.0417   4.2519   4.2519
     4.5969   4.5969   4.6843   4.6843   4.8581   4.8582   4.8742   4.8742
     4.9830   4.9830   5.3891   5.3891   5.7375   5.7375   5.7732   5.7732
     6.5484   6.5484   6.6668   6.6668   6.7089   6.7090   6.7371   6.7371
     6.9149   6.9149   6.9690   6.9690   7.0668   7.0668   7.4091   7.4091
     7.4310   7.4310   7.4833   7.4833   7.5111   7.5111   7.7404   7.7404
    10.6251  10.6251  11.0892  11.0892  11.1311  11.1311  11.5924  11.5924
    11.8069  11.8069  12.0076  12.0076  12.4369  12.4369  12.4770  12.4770
    12.6607  12.6607  12.7710  12.7710  13.0664  13.0664  13.5092  13.5092
    15.2434  15.2434  15.7942  15.7942  16.2624  16.2625  16.3827  16.3828
    16.7864  16.7864  17.2020  17.2020  17.7716

          k = 0.3312 0.4756 0.1655 ( 62730 PWs)   bands (ev):

   -66.3072 -66.3072 -66.3067 -66.3067 -66.3064 -66.3064 -66.3059 -66.3059
   -30.6613 -30.6613 -30.6585 -30.6584 -30.6569 -30.6568 -30.6537 -30.6537
   -30.6415 -30.6414 -30.6386 -30.6385 -30.6225 -30.6225 -30.6191 -30.6190
   -30.5769 -30.5768 -30.5733 -30.5733 -30.5601 -30.5601 -30.5579 -30.5579
   -20.4711 -20.4711 -20.4711 -20.4711 -20.4710 -20.4710 -20.4709 -20.4709
   -20.4484 -20.4484 -20.4481 -20.4481 -20.4477 -20.4477 -20.4475 -20.4474
   -20.4465 -20.4465 -20.4463 -20.4463 -20.4460 -20.4460 -20.4459 -20.4459
   -20.4457 -20.4457 -20.4455 -20.4455 -20.4454 -20.4454 -20.4450 -20.4450
   -20.4381 -20.4381 -20.4377 -20.4377 -20.4368 -20.4368 -20.4364 -20.4364
   -20.4347 -20.4347 -20.4342 -20.4342 -20.4335 -20.4335 -20.4330 -20.4330
   -20.4315 -20.4315 -20.4311 -20.4311 -20.4299 -20.4299 -20.4295 -20.4295
    -9.6331  -9.6331  -9.4222  -9.4220  -9.1391  -9.1389  -8.9469  -8.9469
    -8.6755  -8.6747  -8.5957  -8.5946  -8.5561  -8.5551  -8.5472  -8.5471
    -8.2706  -8.2702  -8.1968  -8.1961  -7.9562  -7.9560  -7.8992  -7.8989
     1.4227   1.4235   1.4324   1.4329   2.1103   2.1111   2.2659   2.2681
     2.8018   2.8019   3.0429   3.0455   3.0931   3.0999   3.1418   3.1629
     3.1859   3.1947   3.3178   3.3478   3.3920   3.4213   3.5647   3.5680
     3.6391   3.6501   3.7761   3.8339   4.2801   4.3104   4.4594   4.4746
     4.5152   4.5732   4.6828   4.6838   4.8133   4.8725   4.8755   4.9043
     4.9976   5.0504   5.2242   5.2929   5.6534   5.6705   6.0149   6.0196
     6.5099   6.5187   6.5769   6.5882   6.7300   6.7333   6.8836   6.9198
     6.9719   6.9815   7.0461   7.0738   7.1108   7.1123   7.3375   7.3507
     7.3599   7.3892   7.3960   7.4084   7.4224   7.4312   7.7093   7.7116
    10.3579  10.3614  11.1990  11.2151  11.2337  11.2412  11.5866  11.5951
    11.6091  11.6250  11.7639  11.8146  12.3307  12.3809  12.6189  12.6455
    12.7303  12.7547  12.9538  13.0498  13.2038  13.2344  13.2536  13.3201
    15.4832  15.4982  15.7190  15.7326  16.1465  16.1655  16.5395  16.5639
    16.7631  16.7637  17.2859  17.3272  17.8106

          k =-0.4967 0.4756 0.1655 ( 62720 PWs)   bands (ev):

   -66.3070 -66.3069 -66.3069 -66.3069 -66.3062 -66.3062 -66.3062 -66.3062
   -30.6599 -30.6599 -30.6596 -30.6596 -30.6554 -30.6554 -30.6549 -30.6549
   -30.6399 -30.6399 -30.6397 -30.6397 -30.6003 -30.6003 -30.5998 -30.5998
   -30.5966 -30.5966 -30.5961 -30.5961 -30.5591 -30.5591 -30.5590 -30.5590
   -20.4711 -20.4711 -20.4711 -20.4711 -20.4710 -20.4710 -20.4709 -20.4709
   -20.4483 -20.4483 -20.4483 -20.4483 -20.4476 -20.4476 -20.4476 -20.4476
   -20.4464 -20.4464 -20.4464 -20.4464 -20.4458 -20.4458 -20.4458 -20.4458
   -20.4457 -20.4457 -20.4456 -20.4456 -20.4453 -20.4453 -20.4453 -20.4453
   -20.4379 -20.4379 -20.4379 -20.4379 -20.4356 -20.4356 -20.4356 -20.4356
   -20.4352 -20.4352 -20.4352 -20.4351 -20.4327 -20.4327 -20.4327 -20.4327
   -20.4322 -20.4322 -20.4322 -20.4322 -20.4297 -20.4297 -20.4297 -20.4297
    -9.5064  -9.5064  -9.5034  -9.5034  -8.8457  -8.8457  -8.8328  -8.8328
    -8.7232  -8.7232  -8.7116  -8.7116  -8.5218  -8.5218  -8.5006  -8.5006
    -8.4706  -8.4705  -8.4510  -8.4510  -7.9278  -7.9278  -7.9275  -7.9275
     1.4356   1.4356   1.4390   1.4390   2.8658   2.8659   2.9321   2.9321
     3.0126   3.0126   3.0207   3.0207   3.1041   3.1041   3.1256   3.1256
     3.2069   3.2069   3.3159   3.3160   3.3408   3.3408   3.4081   3.4081
     3.4340   3.4340   3.6142   3.6143   4.1477   4.1477   4.1888   4.1888
     4.2252   4.2252   4.2908   4.2908   4.7333   4.7334   4.8716   4.8716
     5.0284   5.0284   5.1571   5.1571   5.7398   5.7398   5.7557   5.7557
     6.6251   6.6251   6.6729   6.6729   6.7276   6.7276   6.7660   6.7660
     7.1769   7.1769   7.1929   7.1929   7.2528   7.2528   7.3151   7.3151
     7.3363   7.3363   7.4099   7.4099   7.4991   7.4991   7.5304   7.5304
    11.0615  11.0615  11.0986  11.0986  11.2209  11.2209  11.2829  11.2829
    12.0799  12.0799  12.1027  12.1027  12.1602  12.1602  12.1774  12.1774
    12.6366  12.6366  12.7057  12.7057  13.2176  13.2176  13.2678  13.2678
    15.6196  15.6196  15.6361  15.6361  16.7721  16.7721  16.8197  16.8198
    17.2716  17.2717  17.3208  17.3209  17.3937

          k =-0.4967 0.0000 0.3309 ( 62754 PWs)   bands (ev):

   -66.3070 -66.3070 -66.3066 -66.3066 -66.3066 -66.3065 -66.3061 -66.3061
   -30.6887 -30.6887 -30.6865 -30.6865 -30.6339 -30.6339 -30.6268 -30.6268
   -30.6223 -30.6223 -30.6203 -30.6203 -30.6007 -30.6007 -30.5993 -30.5993
   -30.5952 -30.5952 -30.5951 -30.5950 -30.5766 -30.5766 -30.5748 -30.5748
   -20.4711 -20.4711 -20.4711 -20.4710 -20.4710 -20.4710 -20.4710 -20.4709
   -20.4500 -20.4500 -20.4498 -20.4498 -20.4475 -20.4475 -20.4475 -20.4475
   -20.4470 -20.4470 -20.4470 -20.4469 -20.4460 -20.4460 -20.4458 -20.4458
   -20.4453 -20.4453 -20.4452 -20.4451 -20.4436 -20.4436 -20.4433 -20.4433
   -20.4370 -20.4370 -20.4369 -20.4369 -20.4359 -20.4359 -20.4357 -20.4357
   -20.4348 -20.4348 -20.4347 -20.4347 -20.4332 -20.4332 -20.4330 -20.4330
   -20.4322 -20.4322 -20.4319 -20.4319 -20.4309 -20.4309 -20.4304 -20.4304
    -9.5907  -9.5906  -9.3783  -9.3783  -9.1709  -9.1709  -8.8878  -8.8878
    -8.7207  -8.7206  -8.6500  -8.6500  -8.6032  -8.6031  -8.5801  -8.5800
    -8.2426  -8.2426  -8.2332  -8.2332  -7.8976  -7.8976  -7.8740  -7.8740
     1.3422   1.3422   1.3773   1.3773   2.1433   2.1433   2.1783   2.1783
     2.8141   2.8141   2.9142   2.9143   2.9483   2.9483   3.0934   3.0935
     3.1842   3.1842   3.4907   3.4907   3.5998   3.5998   3.7037   3.7037
     3.7303   3.7303   3.9044   3.9044   4.0491   4.0491   4.2564   4.2564
     4.5809   4.5809   4.8020   4.8021   4.9108   4.9108   4.9623   4.9623
     5.1510   5.1510   5.4292   5.4292   5.8435   5.8435   5.9276   5.9276
     6.2929   6.2929   6.3135   6.3135   6.3891   6.3891   6.4703   6.4703
     7.0343   7.0343   7.1676   7.1676   7.2432   7.2432   7.4410   7.4410
     7.4648   7.4648   7.5713   7.5713   7.6200   7.6200   7.8822   7.8822
    10.6534  10.6534  11.2707  11.2707  11.3529  11.3529  11.4445  11.4445
    11.6263  11.6263  12.1096  12.1096  12.2968  12.2968  12.4629  12.4629
    12.7013  12.7013  13.0581  13.0581  13.0919  13.0919  13.5035  13.5035
    14.5877  14.5878  14.9658  14.9658  16.1629  16.1629  16.6315  16.6315
    16.9678  16.9678  17.3325  17.3325  17.8325

          k =-0.4967-0.1585 0.3309 ( 62746 PWs)   bands (ev):

   -66.3070 -66.3070 -66.3066 -66.3066 -66.3065 -66.3065 -66.3061 -66.3061
   -30.6846 -30.6846 -30.6824 -30.6824 -30.6361 -30.6361 -30.6305 -30.6305
   -30.6225 -30.6225 -30.6216 -30.6216 -30.6006 -30.6006 -30.5992 -30.5991
   -30.5959 -30.5959 -30.5954 -30.5954 -30.5766 -30.5766 -30.5750 -30.5750
   -20.4711 -20.4711 -20.4711 -20.4710 -20.4710 -20.4710 -20.4710 -20.4710
   -20.4497 -20.4497 -20.4495 -20.4495 -20.4476 -20.4476 -20.4474 -20.4474
   -20.4471 -20.4471 -20.4469 -20.4469 -20.4460 -20.4460 -20.4458 -20.4458
   -20.4454 -20.4454 -20.4452 -20.4452 -20.4440 -20.4440 -20.4437 -20.4437
   -20.4370 -20.4370 -20.4369 -20.4369 -20.4359 -20.4359 -20.4357 -20.4357
   -20.4348 -20.4348 -20.4347 -20.4347 -20.4332 -20.4332 -20.4331 -20.4330
   -20.4322 -20.4321 -20.4319 -20.4319 -20.4309 -20.4309 -20.4304 -20.4304
    -9.5397  -9.5396  -9.3088  -9.3088  -9.1814  -9.1814  -8.8633  -8.8633
    -8.7296  -8.7296  -8.6473  -8.6473  -8.6010  -8.6010  -8.5770  -8.5770
    -8.2409  -8.2409  -8.2383  -8.2383  -7.9978  -7.9978  -7.9742  -7.9742
     1.5761   1.5761   1.6133   1.6133   2.1427   2.1427   2.1873   2.1873
     2.8698   2.8698   2.9423   2.9423   2.9690   2.9690   3.1018   3.1018
     3.1857   3.1857   3.5115   3.5115   3.6015   3.6015   3.7267   3.7267
     3.7472   3.7472   3.9391   3.9391   4.0419   4.0419   4.2643   4.2643
     4.4520   4.4520   4.5847   4.5847   4.8583   4.8583   4.8985   4.8985
     4.9377   4.9377   5.2006   5.2006   5.6043   5.6044   5.7039   5.7039
     6.4390   6.4390   6.4695   6.4695   6.5311   6.5311   6.6544   6.6544
     7.0404   7.0404   7.1608   7.1608   7.2448   7.2448   7.4365   7.4366
     7.4591   7.4591   7.5501   7.5501   7.5963   7.5963   7.8290   7.8290
    10.7622  10.7622  11.2942  11.2942  11.3792  11.3792  11.4946  11.4946
    11.6747  11.6747  12.1352  12.1352  12.2934  12.2934  12.4799  12.4799
    12.5598  12.5598  12.9318  12.9318  12.9646  12.9646  13.3905  13.3905
    14.9615  14.9616  15.3560  15.3560  16.2468  16.2468  16.6313  16.6313
    16.9741  16.9741  17.3537  17.3537  17.6767

          k =-0.4967-0.3170 0.3309 ( 62732 PWs)   bands (ev):

   -66.3069 -66.3069 -66.3067 -66.3067 -66.3064 -66.3064 -66.3062 -66.3062
   -30.6735 -30.6735 -30.6712 -30.6712 -30.6446 -30.6446 -30.6411 -30.6411
   -30.6231 -30.6231 -30.6230 -30.6229 -30.6001 -30.6001 -30.5988 -30.5988
   -30.5971 -30.5971 -30.5963 -30.5963 -30.5764 -30.5764 -30.5755 -30.5754
   -20.4711 -20.4711 -20.4711 -20.4711 -20.4710 -20.4710 -20.4710 -20.4710
   -20.4489 -20.4489 -20.4486 -20.4486 -20.4477 -20.4477 -20.4473 -20.4473
   -20.4471 -20.4471 -20.4466 -20.4466 -20.4459 -20.4459 -20.4457 -20.4457
   -20.4455 -20.4455 -20.4453 -20.4453 -20.4450 -20.4449 -20.4447 -20.4447
   -20.4370 -20.4370 -20.4369 -20.4369 -20.4358 -20.4358 -20.4357 -20.4357
   -20.4348 -20.4348 -20.4348 -20.4348 -20.4332 -20.4332 -20.4331 -20.4331
   -20.4321 -20.4321 -20.4320 -20.4320 -20.4308 -20.4308 -20.4305 -20.4305
    -9.4159  -9.4159  -9.2175  -9.2175  -9.1210  -9.1210  -8.7897  -8.7896
    -8.7579  -8.7579  -8.6430  -8.6430  -8.5893  -8.5893  -8.5582  -8.5582
    -8.2880  -8.2879  -8.2460  -8.2460  -8.2320  -8.2320  -8.1775  -8.1774
     2.0604   2.0604   2.1401   2.1401   2.2354   2.2354   2.3613   2.3613
     2.9472   2.9472   2.9910   2.9911   3.0717   3.0717   3.1376   3.1376
     3.2180   3.2180   3.5207   3.5207   3.5891   3.5891   3.6785   3.6785
     3.8781   3.8781   3.9501   3.9501   4.0341   4.0341   4.1017   4.1017
     4.2011   4.2011   4.3450   4.3450   4.4735   4.4735   4.7130   4.7130
     4.8078   4.8078   4.8830   4.8830   4.9123   4.9123   5.1879   5.1879
     6.7579   6.7579   6.8146   6.8147   6.8770   6.8770   6.9271   6.9271
     7.0562   7.0562   7.1473   7.1473   7.2604   7.2604   7.3957   7.3957
     7.4306   7.4306   7.5009   7.5009   7.5272   7.5272   7.6743   7.6743
    11.0654  11.0654  11.3328  11.3328  11.4094  11.4094  11.6768  11.6768
    11.8494  11.8494  12.1559  12.1559  12.2157  12.2157  12.2719  12.2719
    12.5353  12.5353  12.6328  12.6328  12.6792  12.6793  13.1154  13.1154
    15.8106  15.8106  16.3027  16.3027  16.5069  16.5069  16.6126  16.6126
    17.0132  17.0132  17.2774  17.2774  17.5050

          k =-0.4967 0.4756 0.3309 ( 62700 PWs)   bands (ev):

   -66.3068 -66.3068 -66.3068 -66.3068 -66.3063 -66.3063 -66.3063 -66.3063
   -30.6588 -30.6588 -30.6584 -30.6584 -30.6563 -30.6563 -30.6558 -30.6558
   -30.6234 -30.6234 -30.6233 -30.6233 -30.5995 -30.5995 -30.5989 -30.5989
   -30.5975 -30.5975 -30.5970 -30.5970 -30.5760 -30.5760 -30.5760 -30.5760
   -20.4711 -20.4711 -20.4711 -20.4711 -20.4710 -20.4710 -20.4710 -20.4710
   -20.4481 -20.4481 -20.4481 -20.4481 -20.4477 -20.4477 -20.4477 -20.4477
   -20.4463 -20.4463 -20.4463 -20.4463 -20.4460 -20.4460 -20.4460 -20.4459
   -20.4456 -20.4456 -20.4456 -20.4456 -20.4454 -20.4454 -20.4454 -20.4454
   -20.4370 -20.4370 -20.4369 -20.4369 -20.4358 -20.4358 -20.4358 -20.4358
   -20.4348 -20.4348 -20.4348 -20.4348 -20.4331 -20.4331 -20.4331 -20.4331
   -20.4320 -20.4320 -20.4320 -20.4320 -20.4306 -20.4306 -20.4306 -20.4306
    -9.2952  -9.2952  -9.2906  -9.2906  -8.9043  -8.9043  -8.8920  -8.8920
    -8.6689  -8.6689  -8.6574  -8.6574  -8.5149  -8.5149  -8.4987  -8.4987
    -8.4722  -8.4721  -8.4586  -8.4586  -8.2252  -8.2252  -8.2244  -8.2244
     2.1284   2.1284   2.1350   2.1350   2.8797   2.8797   2.9189   2.9189
     3.0056   3.0056   3.0153   3.0153   3.1353   3.1353   3.1566   3.1566
     3.2779   3.2779   3.3121   3.3121   3.5080   3.5080   3.5490   3.5490
     3.6476   3.6476   3.7381   3.7381   4.1216   4.1216   4.1413   4.1413
     4.1840   4.1841   4.2482   4.2483   4.3262   4.3262   4.4118   4.4119
     4.5383   4.5383   4.6680   4.6680   4.9254   4.9254   4.9448   4.9449
     6.9044   6.9044   6.9684   6.9684   7.0581   7.0581   7.0638   7.0638
     7.1680   7.1680   7.2103   7.2104   7.2605   7.2605   7.2954   7.2954
     7.3697   7.3697   7.4397   7.4398   7.5022   7.5022   7.5371   7.5371
    11.3054  11.3054  11.3430  11.3430  11.5627  11.5627  11.6410  11.6410
    12.0466  12.0466  12.1030  12.1030  12.1339  12.1339  12.1812  12.1812
    12.3341  12.3341  12.4565  12.4565  12.7725  12.7725  12.8526  12.8526
    16.3969  16.3969  16.4413  16.4413  16.9485  16.9486  16.9816  16.9817
    17.2573  17.2573  17.3371  17.3371  17.3753

     the Fermi energy is     8.8606 ev

!    total energy              =   -6261.10915485 Ry
     Harris-Foulkes estimate   =   -6261.10915485 Ry
     estimated scf accuracy    <          1.4E-11 Ry

     The total energy is the sum of the following terms:

     one-electron contribution =   -4751.63242069 Ry
     hartree contribution      =    2610.82519872 Ry
     xc contribution           =    -965.66868157 Ry
     ewald contribution        =   -3154.63325131 Ry
     smearing contrib. (-TS)   =      -0.00000000 Ry

     convergence has been achieved in  15 iterations

     Forces acting on atoms (cartesian axes, Ry/au):

     atom    1 type  1   force =    -0.00319719    0.00626811    0.00248087
     atom    2 type  1   force =     0.00319719   -0.00626811   -0.00248087
     atom    3 type  1   force =     0.00319719   -0.00626811    0.00248087
     atom    4 type  1   force =    -0.00319719    0.00626811   -0.00248087
     atom    5 type  1   force =     0.00319719    0.00626811   -0.00248087
     atom    6 type  1   force =    -0.00319719   -0.00626811    0.00248087
     atom    7 type  1   force =    -0.00319719   -0.00626811   -0.00248087
     atom    8 type  1   force =     0.00319719    0.00626811    0.00248087
     atom    9 type  2   force =    -0.00023388   -0.00309232    0.00000635
     atom   10 type  2   force =     0.00023388    0.00309232   -0.00000635
     atom   11 type  2   force =     0.00023388    0.00309232    0.00000635
     atom   12 type  2   force =    -0.00023388   -0.00309232   -0.00000635
     atom   13 type  2   force =     0.00023388   -0.00309232   -0.00000635
     atom   14 type  2   force =    -0.00023388    0.00309232    0.00000635
     atom   15 type  2   force =    -0.00023388    0.00309232   -0.00000635
     atom   16 type  2   force =     0.00023388   -0.00309232    0.00000635
     atom   17 type  2   force =    -0.00165726   -0.00017841   -0.00068496
     atom   18 type  2   force =     0.00165726    0.00017841    0.00068496
     atom   19 type  2   force =     0.00165726    0.00017841   -0.00068496
     atom   20 type  2   force =    -0.00165726   -0.00017841    0.00068496
     atom   21 type  2   force =     0.00165726   -0.00017841    0.00068496
     atom   22 type  2   force =    -0.00165726    0.00017841   -0.00068496
     atom   23 type  2   force =    -0.00165726    0.00017841    0.00068496
     atom   24 type  2   force =     0.00165726   -0.00017841   -0.00068496
     atom   25 type  2   force =    -0.00114403   -0.00040291    0.00172175
     atom   26 type  2   force =     0.00114403    0.00040291   -0.00172175
     atom   27 type  2   force =     0.00114403    0.00040291    0.00172175
     atom   28 type  2   force =    -0.00114403   -0.00040291   -0.00172175
     atom   29 type  2   force =     0.00114403   -0.00040291   -0.00172175
     atom   30 type  2   force =    -0.00114403    0.00040291    0.00172175
     atom   31 type  2   force =    -0.00114403    0.00040291   -0.00172175
     atom   32 type  2   force =     0.00114403   -0.00040291    0.00172175

     Total force =     0.000000     Total SCF correction =     0.000000


     Computing stress (Cartesian axis) and pressure

          total   stress  (Ry/bohr**3)                   (kbar)     P=    0.23
   0.00000238   0.00000000   0.00000000          0.35      0.00      0.00
   0.00000000  -0.00000025   0.00000000          0.00     -0.04      0.00
   0.00000000   0.00000000   0.00000256          0.00      0.00      0.38


     Writing output data file Landau_12.save
 
     init_run     :    101.49s CPU    104.23s WALL (       2 calls)
     electrons    :  15083.21s CPU  15332.72s WALL (       6 calls)
     update_pot   :    115.20s CPU    115.39s WALL (       4 calls)
     forces       :    198.79s CPU    201.20s WALL (       6 calls)
     stress       :   1580.84s CPU   1596.58s WALL (       6 calls)

     Called by init_run:
     wfcinit      :     75.32s CPU     77.64s WALL (       2 calls)
     potinit      :     12.03s CPU     12.09s WALL (       2 calls)

     Called by electrons:
     c_bands      :  13323.47s CPU  13556.93s WALL (      85 calls)
     sum_band     :   1491.96s CPU   1499.69s WALL (      85 calls)
     v_of_rho     :     12.25s CPU     12.47s WALL (      90 calls)
     mix_rho      :     25.25s CPU     29.25s WALL (      85 calls)

     Called by c_bands:
     init_us_2    :    107.93s CPU    113.62s WALL (     368 calls)
     cegterg      :   8328.36s CPU   8547.70s WALL (     170 calls)

     Called by sum_band:

     Called by *egterg:
     h_psi        :   6366.60s CPU   6400.02s WALL (     687 calls)
     g_psi        :     26.72s CPU     26.73s WALL (     513 calls)
     cdiaghg      :     90.50s CPU     92.87s WALL (     673 calls)

     Called by h_psi:
     h_psi:pot    :   6316.49s CPU   6349.12s WALL (     687 calls)
     h_psi:calbec :    735.76s CPU    751.29s WALL (     687 calls)
     vloc_psi     :   4795.89s CPU   4811.14s WALL (     687 calls)
     add_vuspsi   :    784.82s CPU    786.63s WALL (     687 calls)

     General routines
     calbec       :    840.54s CPU    856.17s WALL (     747 calls)
     fft          :      8.39s CPU      8.39s WALL (     408 calls)
     fftw         :   4776.34s CPU   4788.63s WALL (  220656 calls)
 
     Parallel routines
 
     PWSCF        :     4h44m CPU        4h49m WALL

 
   This run was terminated on:   2:59: 1  13Mar2020            

=------------------------------------------------------------------------------=
   JOB DONE.
=------------------------------------------------------------------------------=
