
     Program PWSCF v.6.4.1 starts on 17Dec2019 at 16:41:22 

     This program is part of the open-source Quantum ESPRESSO suite
     for quantum simulation of materials; please cite
         "P. Giannozzi et al., J. Phys.:Condens. Matter 21 395502 (2009);
         "P. Giannozzi et al., J. Phys.:Condens. Matter 29 465901 (2017);
          URL http://www.quantum-espresso.org", 
     in publications or presentations arising from this work. More details at
     http://www.quantum-espresso.org/quote

     Parallel version (MPI), running on    40 processors

     MPI processes distributed on     9 nodes
     K-points division:     npool     =      40
     Reading input from scf.in

     Current dimensions of program PWSCF are:
     Max number of different atomic species (ntypx) = 10
     Max number of k-points (npk) =  40000
     Max angular momentum in pseudopotentials (lmaxx) =  3

     Subspace diagonalization in iterative solution of the eigenvalue problem:
     a serial algorithm will be used

     Message from routine setup:
     using ibrav=0 with symmetry is DISCOURAGED, use correct ibrav instead
 
     G-vector sticks info
     --------------------
     sticks:   dense  smooth     PW     G-vecs:    dense   smooth      PW
     Sum        7681    7681   2061               502605   502605   69715
 


     bravais-lattice index     =            0
     lattice parameter (alat)  =      14.0840  a.u.
     unit-cell volume          =    2830.8264 (a.u.)^3
     number of atoms/cell      =           32
     number of atomic types    =            2
     number of electrons       =       368.20
     number of Kohn-Sham states=          221
     kinetic-energy cutoff     =     120.0000  Ry
     charge density cutoff     =     480.0000  Ry
     convergence threshold     =      1.0E-08
     mixing beta               =       0.7000
     number of iterations used =            8  plain     mixing
     Exchange-correlation      = SLA PW NOGX NOGC ( 1  4  0  0 0 0)

     celldm(1)=  14.084020  celldm(2)=   0.000000  celldm(3)=   0.000000
     celldm(4)=   0.000000  celldm(5)=   0.000000  celldm(6)=   0.000000

     crystal axes: (cart. coord. in units of alat)
               a(1) = (   1.000000   0.000000   0.000000 )  
               a(2) = (   0.000000   1.015663   0.000000 )  
               a(3) = (   0.000000   0.000000   0.997663 )  

     reciprocal axes: (cart. coord. in units 2 pi/alat)
               b(1) = (  1.000000  0.000000  0.000000 )  
               b(2) = (  0.000000  0.984579  0.000000 )  
               b(3) = (  0.000000  0.000000  1.002342 )  


     PseudoPot. # 1 for W  read from file:
     /cluster/scratch/mnoe/QE/pps/W_ONCV_LDA-4.0.upf
     MD5 check sum: ba0307d5d4cd419d6f1d13dc49d7c13a
     Pseudo is Norm-conserving + core correction, Zval = 28.0
     Generated using ONCVPSP code by D. R. Hamann
     Using radial grid of 1380 points,  8 beta functions with: 
                l(1) =   0
                l(2) =   0
                l(3) =   1
                l(4) =   1
                l(5) =   2
                l(6) =   2
                l(7) =   3
                l(8) =   3

     PseudoPot. # 2 for O  read from file:
     /cluster/scratch/mnoe/QE/pps/O_ONCV_LDA-3.0.upf
     MD5 check sum: b55cdb4f45ae2203d24ad12cf8d61a31
     Pseudo is Norm-conserving + core correction, Zval =  6.0
     Generated using ONCVPSP code by D. R. Hamann
     Using radial grid of  926 points,  5 beta functions with: 
                l(1) =   0
                l(2) =   0
                l(3) =   1
                l(4) =   1
                l(5) =   2

     atomic species   valence    mass     pseudopotential
        W             28.00   183.84000     W ( 1.00)
        O              6.00    15.99940     O ( 1.00)

      8 Sym. Ops., with inversion, found ( 6 have fractional translation)



   Cartesian axes

     site n.     atom                  positions (alat units)
         1           W   tau(   1) = (   0.2365900   0.2962773   0.0126404  )
         2           W   tau(   2) = (   0.7634100   0.7193854   0.9850226  )
         3           W   tau(   3) = (   0.2634100   0.2115540   0.5114719  )
         4           W   tau(   4) = (   0.7365900   0.8041086   0.4861911  )
         5           W   tau(   5) = (   0.7634100   0.2962773   0.4861911  )
         6           W   tau(   6) = (   0.2365900   0.7193854   0.5114719  )
         7           W   tau(   7) = (   0.7365900   0.2115540   0.9850226  )
         8           W   tau(   8) = (   0.2634100   0.8041086   0.0126404  )
         9           O   tau(   9) = (   0.2252600   0.0273776   0.0039308  )
        10           O   tau(  10) = (   0.7747400   0.9882851   0.9937322  )
        11           O   tau(  11) = (   0.2747400   0.4804537   0.5027623  )
        12           O   tau(  12) = (   0.7252600   0.5352089   0.4949007  )
        13           O   tau(  13) = (   0.7747400   0.0273776   0.4949007  )
        14           O   tau(  14) = (   0.2252600   0.9882851   0.5027623  )
        15           O   tau(  15) = (   0.7252600   0.4804537   0.9937322  )
        16           O   tau(  16) = (   0.2747400   0.5352089   0.0039308  )
        17           O   tau(  17) = (   0.5036700   0.2281382   0.4992742  )
        18           O   tau(  18) = (   0.4963300   0.7875245   0.4983888  )
        19           O   tau(  19) = (   0.9963300   0.2796932   0.9981057  )
        20           O   tau(  20) = (   0.0036700   0.7359695  -0.0004426  )
        21           O   tau(  21) = (   0.4963300   0.2281382  -0.0004426  )
        22           O   tau(  22) = (   0.5036700   0.7875245   0.9981057  )
        23           O   tau(  23) = (   0.0036700   0.2796932   0.4983888  )
        24           O   tau(  24) = (   0.9963300   0.7359695   0.4992742  )
        25           O   tau(  25) = (   0.7504438   0.2482889   0.7427003  )
        26           O   tau(  26) = (   0.2495563   0.7673738   0.2549627  )
        27           O   tau(  27) = (   0.7495563   0.2595425   0.2438688  )
        28           O   tau(  28) = (   0.2504438   0.7561202   0.7537942  )
        29           O   tau(  29) = (   0.2495563   0.2482889   0.7537942  )
        30           O   tau(  30) = (   0.7504438   0.7673738   0.2438688  )
        31           O   tau(  31) = (   0.2504438   0.2595425   0.2549627  )
        32           O   tau(  32) = (   0.7495563   0.7561202   0.7427003  )

     number of k points=    64  gaussian smearing, width (Ry)=  0.0007
                       cart. coord. in units 2pi/alat
        k(    1) = (   0.0000000   0.0000000   0.0000000), wk =   0.0092593
        k(    2) = (   0.0000000   0.0000000   0.1670571), wk =   0.0185185
        k(    3) = (   0.0000000   0.0000000   0.3341142), wk =   0.0185185
        k(    4) = (   0.0000000   0.0000000  -0.5011712), wk =   0.0092593
        k(    5) = (   0.0000000   0.1640965   0.0000000), wk =   0.0185185
        k(    6) = (   0.0000000   0.1640965   0.1670571), wk =   0.0370370
        k(    7) = (   0.0000000   0.1640965   0.3341142), wk =   0.0370370
        k(    8) = (   0.0000000   0.1640965  -0.5011712), wk =   0.0185185
        k(    9) = (   0.0000000   0.3281929   0.0000000), wk =   0.0185185
        k(   10) = (   0.0000000   0.3281929   0.1670571), wk =   0.0370370
        k(   11) = (   0.0000000   0.3281929   0.3341142), wk =   0.0370370
        k(   12) = (   0.0000000   0.3281929  -0.5011712), wk =   0.0185185
        k(   13) = (   0.0000000  -0.4922894   0.0000000), wk =   0.0092593
        k(   14) = (   0.0000000  -0.4922894   0.1670571), wk =   0.0185185
        k(   15) = (   0.0000000  -0.4922894   0.3341142), wk =   0.0185185
        k(   16) = (   0.0000000  -0.4922894  -0.5011712), wk =   0.0092593
        k(   17) = (   0.1666667   0.0000000   0.0000000), wk =   0.0185185
        k(   18) = (   0.1666667   0.0000000   0.1670571), wk =   0.0370370
        k(   19) = (   0.1666667   0.0000000   0.3341142), wk =   0.0370370
        k(   20) = (   0.1666667   0.0000000  -0.5011712), wk =   0.0185185
        k(   21) = (   0.1666667   0.1640965   0.0000000), wk =   0.0370370
        k(   22) = (   0.1666667   0.1640965   0.1670571), wk =   0.0740741
        k(   23) = (   0.1666667   0.1640965   0.3341142), wk =   0.0740741
        k(   24) = (   0.1666667   0.1640965  -0.5011712), wk =   0.0370370
        k(   25) = (   0.1666667   0.3281929   0.0000000), wk =   0.0370370
        k(   26) = (   0.1666667   0.3281929   0.1670571), wk =   0.0740741
        k(   27) = (   0.1666667   0.3281929   0.3341142), wk =   0.0740741
        k(   28) = (   0.1666667   0.3281929  -0.5011712), wk =   0.0370370
        k(   29) = (   0.1666667  -0.4922894   0.0000000), wk =   0.0185185
        k(   30) = (   0.1666667  -0.4922894   0.1670571), wk =   0.0370370
        k(   31) = (   0.1666667  -0.4922894   0.3341142), wk =   0.0370370
        k(   32) = (   0.1666667  -0.4922894  -0.5011712), wk =   0.0185185
        k(   33) = (   0.3333333   0.0000000   0.0000000), wk =   0.0185185
        k(   34) = (   0.3333333   0.0000000   0.1670571), wk =   0.0370370
        k(   35) = (   0.3333333   0.0000000   0.3341142), wk =   0.0370370
        k(   36) = (   0.3333333   0.0000000  -0.5011712), wk =   0.0185185
        k(   37) = (   0.3333333   0.1640965   0.0000000), wk =   0.0370370
        k(   38) = (   0.3333333   0.1640965   0.1670571), wk =   0.0740741
        k(   39) = (   0.3333333   0.1640965   0.3341142), wk =   0.0740741
        k(   40) = (   0.3333333   0.1640965  -0.5011712), wk =   0.0370370
        k(   41) = (   0.3333333   0.3281929   0.0000000), wk =   0.0370370
        k(   42) = (   0.3333333   0.3281929   0.1670571), wk =   0.0740741
        k(   43) = (   0.3333333   0.3281929   0.3341142), wk =   0.0740741
        k(   44) = (   0.3333333   0.3281929  -0.5011712), wk =   0.0370370
        k(   45) = (   0.3333333  -0.4922894   0.0000000), wk =   0.0185185
        k(   46) = (   0.3333333  -0.4922894   0.1670571), wk =   0.0370370
        k(   47) = (   0.3333333  -0.4922894   0.3341142), wk =   0.0370370
        k(   48) = (   0.3333333  -0.4922894  -0.5011712), wk =   0.0185185
        k(   49) = (  -0.5000000   0.0000000   0.0000000), wk =   0.0092593
        k(   50) = (  -0.5000000   0.0000000   0.1670571), wk =   0.0185185
        k(   51) = (  -0.5000000   0.0000000   0.3341142), wk =   0.0185185
        k(   52) = (  -0.5000000   0.0000000  -0.5011712), wk =   0.0092593
        k(   53) = (  -0.5000000   0.1640965   0.0000000), wk =   0.0185185
        k(   54) = (  -0.5000000   0.1640965   0.1670571), wk =   0.0370370
        k(   55) = (  -0.5000000   0.1640965   0.3341142), wk =   0.0370370
        k(   56) = (  -0.5000000   0.1640965  -0.5011712), wk =   0.0185185
        k(   57) = (  -0.5000000   0.3281929   0.0000000), wk =   0.0185185
        k(   58) = (  -0.5000000   0.3281929   0.1670571), wk =   0.0370370
        k(   59) = (  -0.5000000   0.3281929   0.3341142), wk =   0.0370370
        k(   60) = (  -0.5000000   0.3281929  -0.5011712), wk =   0.0185185
        k(   61) = (  -0.5000000  -0.4922894   0.0000000), wk =   0.0092593
        k(   62) = (  -0.5000000  -0.4922894   0.1670571), wk =   0.0185185
        k(   63) = (  -0.5000000  -0.4922894   0.3341142), wk =   0.0185185
        k(   64) = (  -0.5000000  -0.4922894  -0.5011712), wk =   0.0092593

     Dense  grid:   502605 G-vectors     FFT dimensions: ( 100, 100, 100)

     Estimated max dynamical RAM per process >       3.15 GB

     Estimated total dynamical RAM >     125.98 GB

     Initial potential from superposition of free atoms

     starting charge  367.99656, renormalised to  368.20000
     Starting wfcs are  232 randomized atomic wfcs

     total cpu time spent up to now is       45.9 secs

     Self-consistent Calculation

     iteration #  1     ecut=   120.00 Ry     beta= 0.70
     Davidson diagonalization with overlap
     ethr =  1.00E-02,  avg # of iterations =  5.0

     total cpu time spent up to now is      199.5 secs

     total energy              =   -6253.55956933 Ry
     Harris-Foulkes estimate   =   -6264.44959945 Ry
     estimated scf accuracy    <      13.75643869 Ry

     iteration #  2     ecut=   120.00 Ry     beta= 0.70
     Davidson diagonalization with overlap
     ethr =  3.74E-03,  avg # of iterations =  3.5

     total cpu time spent up to now is      346.4 secs

     total energy              =   -6250.30791326 Ry
     Harris-Foulkes estimate   =   -6270.90332253 Ry
     estimated scf accuracy    <      55.46142110 Ry

     iteration #  3     ecut=   120.00 Ry     beta= 0.70
     Davidson diagonalization with overlap
     ethr =  3.74E-03,  avg # of iterations =  3.4

     total cpu time spent up to now is      486.7 secs

     total energy              =   -6260.86685051 Ry
     Harris-Foulkes estimate   =   -6261.14525694 Ry
     estimated scf accuracy    <       0.93049063 Ry

     iteration #  4     ecut=   120.00 Ry     beta= 0.70
     Davidson diagonalization with overlap
     ethr =  2.53E-04,  avg # of iterations =  3.0

     total cpu time spent up to now is      599.6 secs

     total energy              =   -6260.85407768 Ry
     Harris-Foulkes estimate   =   -6260.93148136 Ry
     estimated scf accuracy    <       0.22852114 Ry

     iteration #  5     ecut=   120.00 Ry     beta= 0.70
     Davidson diagonalization with overlap
     ethr =  6.21E-05,  avg # of iterations =  5.0

     total cpu time spent up to now is      727.3 secs

     total energy              =   -6260.86410698 Ry
     Harris-Foulkes estimate   =   -6260.89135763 Ry
     estimated scf accuracy    <       0.06171479 Ry

     iteration #  6     ecut=   120.00 Ry     beta= 0.70
     Davidson diagonalization with overlap
     ethr =  1.68E-05,  avg # of iterations =  6.1

     total cpu time spent up to now is      857.8 secs

     total energy              =   -6260.87720364 Ry
     Harris-Foulkes estimate   =   -6260.87997044 Ry
     estimated scf accuracy    <       0.00763751 Ry

     iteration #  7     ecut=   120.00 Ry     beta= 0.70
     Davidson diagonalization with overlap
     ethr =  2.07E-06,  avg # of iterations =  5.4

     total cpu time spent up to now is      978.4 secs

     total energy              =   -6260.87804110 Ry
     Harris-Foulkes estimate   =   -6260.87820690 Ry
     estimated scf accuracy    <       0.00033011 Ry

     iteration #  8     ecut=   120.00 Ry     beta= 0.70
     Davidson diagonalization with overlap
     ethr =  8.97E-08,  avg # of iterations =  3.0

     total cpu time spent up to now is     1112.8 secs

     total energy              =   -6260.87814342 Ry
     Harris-Foulkes estimate   =   -6260.87815846 Ry
     estimated scf accuracy    <       0.00005623 Ry

     iteration #  9     ecut=   120.00 Ry     beta= 0.70
     Davidson diagonalization with overlap
     ethr =  1.53E-08,  avg # of iterations =  2.6

     total cpu time spent up to now is     1231.7 secs

     total energy              =   -6260.87814627 Ry
     Harris-Foulkes estimate   =   -6260.87815432 Ry
     estimated scf accuracy    <       0.00003428 Ry

     iteration # 10     ecut=   120.00 Ry     beta= 0.70
     Davidson diagonalization with overlap
     ethr =  9.31E-09,  avg # of iterations =  1.6

     total cpu time spent up to now is     1338.2 secs

     total energy              =   -6260.87814380 Ry
     Harris-Foulkes estimate   =   -6260.87814824 Ry
     estimated scf accuracy    <       0.00001014 Ry

     iteration # 11     ecut=   120.00 Ry     beta= 0.70
     Davidson diagonalization with overlap
     ethr =  2.75E-09,  avg # of iterations =  2.8

     total cpu time spent up to now is     1453.1 secs

     total energy              =   -6260.87814597 Ry
     Harris-Foulkes estimate   =   -6260.87814604 Ry
     estimated scf accuracy    <       0.00000017 Ry

     iteration # 12     ecut=   120.00 Ry     beta= 0.70
     Davidson diagonalization with overlap
     ethr =  4.53E-11,  avg # of iterations =  2.0

     total cpu time spent up to now is     1592.3 secs

     total energy              =   -6260.87814600 Ry
     Harris-Foulkes estimate   =   -6260.87814602 Ry
     estimated scf accuracy    <       0.00000003 Ry

     iteration # 13     ecut=   120.00 Ry     beta= 0.70
     Davidson diagonalization with overlap
     ethr =  8.59E-12,  avg # of iterations =  2.5

     total cpu time spent up to now is     1707.8 secs

     End of self-consistent calculation

          k = 0.0000 0.0000 0.0000 ( 62837 PWs)   bands (ev):

   -66.2605 -66.2599 -66.2599 -66.2599 -66.2593 -66.2593 -66.2593 -66.2587
   -30.6431 -30.6382 -30.6354 -30.6298 -30.6127 -30.6110 -30.6089 -30.6068
   -30.6047 -30.5987 -30.5948 -30.5855 -30.5623 -30.5590 -30.5514 -30.5479
   -30.5364 -30.5326 -30.5220 -30.5194 -30.5165 -30.5127 -30.5111 -30.5050
   -20.4266 -20.4266 -20.4262 -20.4262 -20.4255 -20.4255 -20.4252 -20.4251
   -20.4153 -20.4152 -20.4148 -20.4146 -20.4138 -20.4136 -20.4134 -20.4133
   -20.4018 -20.4015 -20.4006 -20.4005 -20.4004 -20.4000 -20.3996 -20.3991
   -20.3989 -20.3989 -20.3988 -20.3987 -20.3957 -20.3951 -20.3951 -20.3945
   -20.3886 -20.3886 -20.3886 -20.3886 -20.3857 -20.3855 -20.3850 -20.3848
   -20.3829 -20.3827 -20.3821 -20.3819 -20.3816 -20.3816 -20.3814 -20.3814
   -20.3736 -20.3735 -20.3734 -20.3733 -20.3726 -20.3725 -20.3723 -20.3722
   -10.0921  -9.7098  -9.7063  -9.6824  -9.3294  -9.3033  -9.2732  -9.0275
    -8.9943  -8.9179  -8.9170  -8.9156  -8.0137  -7.9329  -7.9298  -7.8838
    -7.8819  -7.8659  -7.8566  -7.8481  -7.7724  -7.7411  -7.7215  -7.6986
     1.1289   1.1318   1.1561   1.1829   1.2090   1.2210   1.3156   1.3197
     1.3362   1.4047   1.4344   1.5409   2.3437   2.3697   2.4029   2.4436
     2.4453   2.5664   3.9630   4.0561   4.1430   4.2692   4.5017   4.5432
     4.5700   4.6069   4.6206   4.7176   4.7684   4.7907   5.1190   5.4431
     5.4680   5.4836   5.5085   5.5674   5.5847   5.6800   5.7540   5.7758
     5.7810   5.8043   5.8543   5.9140   5.9176   5.9195   6.0430   6.0673
     6.1163   6.3322   6.3460   6.3690   6.3695   6.6121   6.6379   6.6788
     6.6911   6.6971   6.9605   6.9683   7.0003   7.0088   7.0309   7.0314
     7.0810   7.0846   8.0760   8.1210   8.2343   8.2556   8.3006   8.3269
     9.2711   9.2845   9.6040   9.6939   9.7463   9.8540  12.3872  12.4557
    12.4914  12.5562  12.5990  12.6145  12.6371  12.6710  12.6797  12.7797
    13.0716  13.1259  13.1644  13.3247  13.7653  13.8426  13.9444  13.9608
    14.0486  14.0586  14.3473  14.6153  14.6704  14.6922  15.2481  15.3983
    15.6738  16.2885  16.8002  16.8937  17.0114

          k = 0.0000 0.0000 0.1671 ( 62825 PWs)   bands (ev):

   -66.2605 -66.2599 -66.2598 -66.2598 -66.2593 -66.2593 -66.2592 -66.2587
   -30.6427 -30.6385 -30.6348 -30.6301 -30.6111 -30.6089 -30.6050 -30.6041
   -30.6017 -30.5954 -30.5947 -30.5828 -30.5620 -30.5593 -30.5524 -30.5474
   -30.5406 -30.5371 -30.5269 -30.5210 -30.5191 -30.5124 -30.5122 -30.5061
   -20.4266 -20.4265 -20.4262 -20.4261 -20.4256 -20.4255 -20.4252 -20.4252
   -20.4153 -20.4151 -20.4148 -20.4147 -20.4138 -20.4136 -20.4135 -20.4133
   -20.4017 -20.4014 -20.4005 -20.4005 -20.4004 -20.4001 -20.3995 -20.3991
   -20.3990 -20.3990 -20.3989 -20.3987 -20.3956 -20.3952 -20.3950 -20.3945
   -20.3887 -20.3886 -20.3886 -20.3886 -20.3856 -20.3854 -20.3847 -20.3846
   -20.3832 -20.3830 -20.3823 -20.3821 -20.3816 -20.3815 -20.3813 -20.3813
   -20.3735 -20.3734 -20.3733 -20.3733 -20.3726 -20.3725 -20.3724 -20.3723
   -10.0521  -9.7240  -9.6532  -9.6325  -9.3126  -9.2839  -9.2474  -8.9955
    -8.9606  -8.9175  -8.9040  -8.8875  -8.0502  -8.0117  -7.9749  -7.9644
    -7.9364  -7.9357  -7.9038  -7.8690  -7.7796  -7.7446  -7.7333  -7.7018
     1.1529   1.2023   1.2330   1.2398   1.2625   1.3129   1.3134   1.4000
     1.4638   1.5171   1.5894   1.6739   2.3470   2.4005   2.4536   2.5222
     2.5308   2.6458   3.9377   4.0189   4.1313   4.2178   4.2783   4.3171
     4.4618   4.5027   4.6105   4.6282   4.6285   4.7342   5.1262   5.3115
     5.4146   5.4329   5.4892   5.5064   5.5634   5.5721   5.6505   5.6591
     5.7488   5.7582   5.7974   5.9141   5.9408   5.9554   6.0884   6.1099
     6.1236   6.3394   6.4640   6.5291   6.5405   6.5745   6.6358   6.6933
     6.7294   6.7769   6.8219   6.8324   6.8475   6.8841   6.8993   6.9661
     7.0297   7.0323   8.0800   8.1148   8.1650   8.1895   8.2386   8.2663
     9.5970   9.6111   9.7085   9.8494   9.9328  10.0352  12.4496  12.4566
    12.4604  12.5097  12.5575  12.6061  12.6301  12.6374  12.6466  12.7830
    12.8631  12.9133  13.2209  13.3224  13.6828  13.7141  13.8418  13.9140
    14.2264  14.3097  14.5211  14.6685  14.6697  14.7859  15.3791  15.6412
    15.6654  16.4739  16.6430  16.9466  17.0998

          k = 0.0000 0.0000 0.3341 ( 62833 PWs)   bands (ev):

   -66.2603 -66.2600 -66.2597 -66.2597 -66.2594 -66.2594 -66.2591 -66.2588
   -30.6418 -30.6394 -30.6337 -30.6310 -30.6091 -30.6060 -30.6037 -30.5969
   -30.5905 -30.5880 -30.5830 -30.5733 -30.5611 -30.5606 -30.5567 -30.5533
   -30.5495 -30.5455 -30.5400 -30.5317 -30.5181 -30.5144 -30.5115 -30.5081
   -20.4264 -20.4263 -20.4260 -20.4259 -20.4258 -20.4258 -20.4255 -20.4254
   -20.4151 -20.4150 -20.4149 -20.4147 -20.4137 -20.4135 -20.4135 -20.4133
   -20.4014 -20.4011 -20.4007 -20.4003 -20.4002 -20.4001 -20.3994 -20.3993
   -20.3992 -20.3991 -20.3990 -20.3988 -20.3955 -20.3953 -20.3949 -20.3946
   -20.3887 -20.3887 -20.3887 -20.3887 -20.3852 -20.3850 -20.3842 -20.3840
   -20.3839 -20.3837 -20.3828 -20.3826 -20.3814 -20.3814 -20.3813 -20.3812
   -20.3733 -20.3732 -20.3732 -20.3731 -20.3728 -20.3727 -20.3726 -20.3725
    -9.9543  -9.7686  -9.5251  -9.5162  -9.3438  -9.3209  -9.0140  -8.9481
    -8.9230  -8.8391  -8.8083  -8.7779  -8.3022  -8.2754  -8.2664  -8.2419
    -7.9654  -7.9456  -7.9001  -7.8776  -7.7771  -7.7540  -7.7322  -7.7107
     1.1600   1.1872   1.2679   1.2883   1.2977   1.3082   1.3501   1.3893
     2.1072   2.1358   2.2139   2.2437   2.3535   2.4107   2.6742   2.7206
     2.7801   2.8748   3.6542   3.7011   3.8116   3.9342   3.9500   3.9908
     4.1526   4.1584   4.4872   4.6219   4.6466   4.6816   4.8468   4.9804
     5.0993   5.1362   5.2708   5.3137   5.3603   5.5166   5.6577   5.6583
     5.7283   5.7580   5.8494   5.9383   5.9921   6.0452   6.1064   6.1315
     6.1810   6.2028   6.3162   6.3561   6.4047   6.4787   6.4859   6.6087
     6.6851   6.7025   6.7879   6.7882   7.0282   7.0330   7.1215   7.1278
     7.2236   7.2540   7.9515   7.9802   8.0441   8.0734   8.0884   8.1050
     9.7443   9.8197  10.3283  10.3308  10.6745  10.7201  11.8976  11.9162
    12.3017  12.3394  12.6351  12.6368  12.6659  12.6822  12.7001  12.7189
    12.7578  12.8449  13.2364  13.3154  13.3846  13.3847  13.5020  13.5559
    14.6034  14.6620  14.8531  14.9045  15.0525  15.2108  15.3141  15.5295
    16.1122  16.6906  16.9186  17.0880  17.4284

          k = 0.0000 0.0000-0.5012 ( 62752 PWs)   bands (ev):

   -66.2602 -66.2602 -66.2596 -66.2596 -66.2596 -66.2596 -66.2590 -66.2590
   -30.6406 -30.6406 -30.6323 -30.6323 -30.6074 -30.6074 -30.5996 -30.5996
   -30.5719 -30.5719 -30.5700 -30.5700 -30.5677 -30.5677 -30.5595 -30.5595
   -30.5573 -30.5573 -30.5411 -30.5411 -30.5165 -30.5165 -30.5100 -30.5100
   -20.4261 -20.4261 -20.4261 -20.4261 -20.4257 -20.4257 -20.4257 -20.4257
   -20.4150 -20.4150 -20.4149 -20.4149 -20.4136 -20.4136 -20.4134 -20.4134
   -20.4011 -20.4010 -20.4007 -20.4007 -20.3997 -20.3997 -20.3997 -20.3996
   -20.3993 -20.3992 -20.3989 -20.3989 -20.3954 -20.3954 -20.3948 -20.3948
   -20.3887 -20.3887 -20.3887 -20.3887 -20.3846 -20.3846 -20.3844 -20.3844
   -20.3835 -20.3835 -20.3833 -20.3833 -20.3813 -20.3813 -20.3813 -20.3812
   -20.3731 -20.3731 -20.3729 -20.3729 -20.3729 -20.3729 -20.3728 -20.3728
    -9.8478  -9.8477  -9.4082  -9.4082  -9.3986  -9.3986  -8.9318  -8.9318
    -8.6711  -8.6711  -8.5963  -8.5963  -8.5777  -8.5777  -8.5529  -8.5529
    -7.9574  -7.9574  -7.8892  -7.8892  -7.7663  -7.7663  -7.7222  -7.7222
     1.1716   1.1717   1.2819   1.2819   1.3014   1.3014   1.3756   1.3756
     2.3584   2.3584   2.7589   2.7589   2.8200   2.8200   2.9779   2.9779
     3.0478   3.0478   3.1692   3.1692   3.4289   3.4289   3.8311   3.8311
     3.8389   3.8389   4.1465   4.1465   4.6283   4.6283   5.0386   5.0386
     5.1026   5.1026   5.2260   5.2260   5.2561   5.2561   5.6985   5.6985
     5.7959   5.7959   5.9495   5.9495   5.9924   5.9924   6.0344   6.0344
     6.1571   6.1572   6.2738   6.2738   6.3336   6.3336   6.4687   6.4687
     6.6922   6.6923   6.7373   6.7373   7.0310   7.0310   7.5906   7.5906
     7.6171   7.6171   7.7010   7.7010   7.7288   7.7289   8.0962   8.0962
     9.7859   9.7859  11.1444  11.1444  11.1576  11.1576  11.5254  11.5254
    11.5493  11.5493  12.6362  12.6362  12.7283  12.7283  12.9686  12.9687
    13.0012  13.0012  13.0871  13.0871  13.1440  13.1440  13.3056  13.3056
    14.6470  14.6470  15.1753  15.1753  15.2909  15.2909  15.5478  15.5479
    16.1274  16.1274  17.4561  17.4561  17.7169

          k = 0.0000 0.1641 0.0000 ( 62880 PWs)   bands (ev):

   -66.2605 -66.2599 -66.2598 -66.2598 -66.2593 -66.2593 -66.2592 -66.2587
   -30.6422 -30.6373 -30.6357 -30.6302 -30.6115 -30.6088 -30.6083 -30.6065
   -30.6002 -30.5973 -30.5905 -30.5825 -30.5635 -30.5601 -30.5508 -30.5470
   -30.5383 -30.5340 -30.5244 -30.5221 -30.5169 -30.5165 -30.5140 -30.5076
   -20.4266 -20.4266 -20.4262 -20.4262 -20.4255 -20.4255 -20.4252 -20.4251
   -20.4153 -20.4152 -20.4148 -20.4147 -20.4138 -20.4137 -20.4134 -20.4133
   -20.4018 -20.4015 -20.4006 -20.4005 -20.4004 -20.4000 -20.3995 -20.3991
   -20.3989 -20.3989 -20.3988 -20.3987 -20.3956 -20.3951 -20.3951 -20.3945
   -20.3882 -20.3882 -20.3882 -20.3881 -20.3857 -20.3855 -20.3850 -20.3848
   -20.3830 -20.3829 -20.3821 -20.3821 -20.3820 -20.3819 -20.3817 -20.3817
   -20.3736 -20.3735 -20.3734 -20.3734 -20.3726 -20.3725 -20.3723 -20.3722
   -10.0515  -9.6989  -9.6627  -9.6579  -9.3402  -9.3152  -9.1897  -9.0252
    -8.9966  -8.8799  -8.8772  -8.8714  -8.0462  -7.9561  -7.9310  -7.9101
    -7.9020  -7.8832  -7.8686  -7.8462  -7.8333  -7.8325  -7.8218  -7.7861
     1.1283   1.1312   1.2134   1.2214   1.2790   1.3124   1.3146   1.4332
     1.5223   1.5577   1.5990   1.6976   2.4147   2.4217   2.4760   2.4827
     2.5250   2.5639   3.7891   3.8856   3.8978   4.0112   4.5008   4.5403
     4.5543   4.5604   4.5966   4.7550   4.8358   4.8500   5.0047   5.1829
     5.2736   5.5092   5.5406   5.5543   5.5695   5.5779   5.5789   5.5906
     5.7683   5.8693   5.8693   5.9113   5.9501   5.9601   6.0967   6.1226
     6.1379   6.2993   6.3039   6.3936   6.5034   6.5908   6.6367   6.6466
     6.7217   6.7444   6.8814   6.8999   6.9589   6.9594   6.9981   7.0197
     7.0353   7.0497   8.0319   8.0708   8.2098   8.2358   8.2399   8.2539
     9.2774   9.2970   9.8211   9.9391   9.9503  10.0845  12.2512  12.3134
    12.4556  12.4610  12.4633  12.5150  12.6381  12.6701  12.6726  12.8147
    13.0904  13.1539  13.2396  13.3883  13.7884  13.8141  13.8979  13.9592
    14.0598  14.2553  14.3246  14.6166  14.7194  14.8674  15.2255  15.3691
    16.0402  16.0806  17.0027  17.1079  17.2085

          k = 0.0000 0.1641 0.1671 ( 62835 PWs)   bands (ev):

   -66.2604 -66.2599 -66.2599 -66.2598 -66.2594 -66.2593 -66.2593 -66.2587
   -30.6418 -30.6376 -30.6352 -30.6305 -30.6088 -30.6061 -30.6040 -30.6015
   -30.6005 -30.5940 -30.5910 -30.5802 -30.5633 -30.5604 -30.5520 -30.5465
   -30.5420 -30.5383 -30.5270 -30.5240 -30.5209 -30.5165 -30.5156 -30.5090
   -20.4266 -20.4265 -20.4262 -20.4261 -20.4256 -20.4256 -20.4252 -20.4252
   -20.4152 -20.4151 -20.4148 -20.4147 -20.4138 -20.4136 -20.4135 -20.4133
   -20.4017 -20.4014 -20.4005 -20.4005 -20.4004 -20.4001 -20.3995 -20.3991
   -20.3990 -20.3989 -20.3989 -20.3987 -20.3956 -20.3951 -20.3951 -20.3946
   -20.3883 -20.3882 -20.3882 -20.3882 -20.3856 -20.3854 -20.3848 -20.3846
   -20.3833 -20.3831 -20.3823 -20.3821 -20.3820 -20.3820 -20.3817 -20.3816
   -20.3735 -20.3735 -20.3733 -20.3733 -20.3726 -20.3725 -20.3724 -20.3723
   -10.0102  -9.6752  -9.6491  -9.6024  -9.3249  -9.2581  -9.2007  -8.9924
    -8.9628  -8.8802  -8.8606  -8.8527  -8.0805  -8.0095  -7.9969  -7.9625
    -7.9564  -7.9381  -7.9063  -7.8717  -7.8643  -7.8428  -7.8303  -7.8159
     1.2135   1.2318   1.2747   1.3123   1.3930   1.4045   1.4641   1.5352
     1.5885   1.5903   1.6144   1.7639   2.4206   2.4733   2.5037   2.5706
     2.6028   2.6408   3.7869   3.8722   3.9135   3.9862   4.2614   4.3124
     4.5035   4.5507   4.5671   4.6068   4.6170   4.7611   5.0182   5.1450
     5.2379   5.3197   5.4358   5.4484   5.4790   5.5124   5.5196   5.5861
     5.6758   5.8418   5.8437   5.9082   5.9107   6.0031   6.0687   6.0961
     6.2022   6.4349   6.4508   6.4959   6.4971   6.5960   6.6210   6.7215
     6.7337   6.7848   6.8101   6.8531   6.8538   6.8982   6.9129   6.9137
     6.9643   7.0070   8.0366   8.0643   8.1586   8.1674   8.1870   8.1893
     9.6000   9.6172   9.9640  10.0787  10.1005  10.1924  12.3233  12.3842
    12.4365  12.4631  12.4632  12.4790  12.5149  12.5682  12.6859  12.8142
    12.8968  12.9434  13.2809  13.3885  13.6826  13.6917  13.7658  13.8085
    14.3496  14.5129  14.5160  14.6612  14.7401  14.9705  15.3477  15.6436
    16.0474  16.2081  16.8236  17.1109  17.1836

          k = 0.0000 0.1641 0.3341 ( 62845 PWs)   bands (ev):

   -66.2603 -66.2600 -66.2598 -66.2597 -66.2595 -66.2594 -66.2592 -66.2589
   -30.6409 -30.6385 -30.6340 -30.6314 -30.6051 -30.6018 -30.6005 -30.5927
   -30.5905 -30.5879 -30.5830 -30.5718 -30.5625 -30.5616 -30.5565 -30.5538
   -30.5504 -30.5446 -30.5399 -30.5314 -30.5229 -30.5186 -30.5155 -30.5116
   -20.4264 -20.4263 -20.4260 -20.4259 -20.4258 -20.4258 -20.4254 -20.4254
   -20.4151 -20.4150 -20.4149 -20.4148 -20.4137 -20.4135 -20.4135 -20.4134
   -20.4014 -20.4011 -20.4007 -20.4003 -20.4002 -20.4001 -20.3994 -20.3993
   -20.3992 -20.3991 -20.3990 -20.3988 -20.3955 -20.3952 -20.3949 -20.3947
   -20.3883 -20.3883 -20.3883 -20.3882 -20.3852 -20.3850 -20.3842 -20.3841
   -20.3839 -20.3838 -20.3828 -20.3826 -20.3819 -20.3818 -20.3816 -20.3816
   -20.3733 -20.3732 -20.3732 -20.3731 -20.3728 -20.3727 -20.3726 -20.3725
    -9.9093  -9.7199  -9.5325  -9.4626  -9.3571  -9.2390  -9.0251  -8.9262
    -8.8865  -8.8418  -8.7866  -8.7551  -8.3166  -8.2758  -8.2720  -8.2384
    -7.9812  -7.9653  -7.9029  -7.8804  -7.8650  -7.8525  -7.8371  -7.8271
     1.2473   1.2667   1.2869   1.3070   1.4847   1.5009   1.5683   1.5857
     2.1092   2.1453   2.2129   2.2580   2.4277   2.4790   2.7246   2.7935
     2.8167   2.8682   3.6313   3.6501   3.8030   3.8276   3.9276   3.9739
     4.0145   4.1057   4.4811   4.5311   4.6571   4.6668   4.8003   4.9439
     4.9507   4.9862   5.0366   5.0767   5.3643   5.3793   5.4119   5.6291
     5.7558   5.7689   5.8860   5.8917   5.9082   5.9133   5.9603   6.0182
     6.2873   6.3757   6.3833   6.4583   6.4891   6.5742   6.5815   6.6130
     6.6225   6.6848   6.8522   6.8860   6.9090   6.9281   7.1219   7.1603
     7.2305   7.2607   7.9577   7.9692   7.9902   8.0147   8.0453   8.0669
     9.9838  10.0521  10.3295  10.3383  10.7728  10.8206  11.9015  11.9152
    12.3363  12.3575  12.4772  12.4876  12.5557  12.6002  12.6846  12.7114
    12.7508  12.8231  13.2949  13.3610  13.3737  13.3976  13.3981  13.4408
    14.6409  14.6843  14.8930  15.1439  15.1994  15.2849  15.3527  15.9312
    16.2698  16.6612  16.7244  17.0184  17.4131

          k = 0.0000 0.1641-0.5012 ( 62812 PWs)   bands (ev):

   -66.2602 -66.2601 -66.2596 -66.2596 -66.2595 -66.2595 -66.2590 -66.2590
   -30.6397 -30.6397 -30.6327 -30.6327 -30.6031 -30.6031 -30.5957 -30.5957
   -30.5721 -30.5721 -30.5699 -30.5699 -30.5678 -30.5678 -30.5608 -30.5608
   -30.5568 -30.5568 -30.5404 -30.5404 -30.5211 -30.5211 -30.5139 -30.5138
   -20.4261 -20.4261 -20.4261 -20.4261 -20.4257 -20.4257 -20.4257 -20.4257
   -20.4150 -20.4150 -20.4149 -20.4149 -20.4136 -20.4136 -20.4135 -20.4134
   -20.4010 -20.4010 -20.4007 -20.4007 -20.3997 -20.3997 -20.3997 -20.3996
   -20.3992 -20.3992 -20.3989 -20.3989 -20.3954 -20.3954 -20.3948 -20.3948
   -20.3883 -20.3883 -20.3883 -20.3883 -20.3846 -20.3846 -20.3845 -20.3844
   -20.3835 -20.3835 -20.3833 -20.3833 -20.3817 -20.3817 -20.3817 -20.3817
   -20.3731 -20.3731 -20.3729 -20.3729 -20.3729 -20.3729 -20.3728 -20.3728
    -9.8001  -9.8001  -9.4230  -9.4230  -9.3228  -9.3228  -8.8980  -8.8980
    -8.6831  -8.6831  -8.6010  -8.6010  -8.5704  -8.5704  -8.5435  -8.5435
    -7.9766  -7.9766  -7.8920  -7.8919  -7.8563  -7.8563  -7.8365  -7.8365
     1.2578   1.2578   1.3001   1.3001   1.4992   1.4992   1.5787   1.5787
     2.4303   2.4303   2.7880   2.7880   2.8535   2.8535   2.9673   2.9673
     3.0398   3.0398   3.1882   3.1882   3.4137   3.4137   3.8706   3.8706
     3.8898   3.8898   3.9558   3.9559   4.5269   4.5270   4.8629   4.8629
     4.9336   4.9336   5.1651   5.1651   5.1688   5.1688   5.5246   5.5246
     5.7359   5.7359   5.8389   5.8389   5.9304   5.9304   5.9769   5.9769
     6.2244   6.2244   6.4343   6.4343   6.4729   6.4729   6.6105   6.6106
     6.6156   6.6156   6.8293   6.8293   6.9097   6.9097   7.6039   7.6039
     7.6109   7.6109   7.6808   7.6808   7.7000   7.7000   8.0536   8.0536
    10.0226  10.0226  11.1447  11.1447  11.1585  11.1585  11.5863  11.5863
    11.6069  11.6069  12.4719  12.4720  12.7612  12.7612  12.9360  12.9360
    12.9675  12.9675  12.9751  12.9751  13.0487  13.0487  13.3669  13.3669
    14.6746  14.6746  15.1518  15.1518  15.6604  15.6604  15.7100  15.7100
    16.2383  16.2384  17.2408  17.2408  17.7340

          k = 0.0000 0.3282 0.0000 ( 62888 PWs)   bands (ev):

   -66.2603 -66.2600 -66.2597 -66.2597 -66.2594 -66.2594 -66.2591 -66.2588
   -30.6403 -30.6367 -30.6353 -30.6313 -30.6095 -30.6086 -30.6059 -30.6053
   -30.5895 -30.5884 -30.5783 -30.5722 -30.5680 -30.5644 -30.5490 -30.5463
   -30.5440 -30.5389 -30.5379 -30.5270 -30.5222 -30.5192 -30.5164 -30.5125
   -20.4266 -20.4266 -20.4262 -20.4262 -20.4255 -20.4255 -20.4251 -20.4251
   -20.4153 -20.4152 -20.4147 -20.4147 -20.4138 -20.4137 -20.4134 -20.4133
   -20.4017 -20.4016 -20.4006 -20.4005 -20.4003 -20.4000 -20.3995 -20.3992
   -20.3989 -20.3988 -20.3988 -20.3988 -20.3955 -20.3952 -20.3950 -20.3946
   -20.3871 -20.3871 -20.3870 -20.3870 -20.3856 -20.3855 -20.3850 -20.3849
   -20.3838 -20.3838 -20.3833 -20.3833 -20.3821 -20.3821 -20.3820 -20.3819
   -20.3736 -20.3736 -20.3734 -20.3734 -20.3725 -20.3724 -20.3724 -20.3723
    -9.9507  -9.7500  -9.5522  -9.5428  -9.3754  -9.3539  -9.0197  -9.0027
    -8.9528  -8.7495  -8.7447  -8.7261  -8.2598  -8.1821  -8.1693  -8.1323
    -7.9381  -7.9349  -7.8884  -7.8807  -7.8757  -7.8654  -7.8407  -7.8208
     1.1282   1.1299   1.2223   1.2224   1.3029   1.3123   1.4059   1.4297
     2.1264   2.2202   2.2785   2.3569   2.4697   2.5074   2.6701   2.6854
     2.7366   2.7793   3.3910   3.4218   3.5059   3.5397   4.0213   4.3319
     4.3850   4.5065   4.5505   4.5534   4.6017   4.6631   5.0211   5.0266
     5.0338   5.0510   5.3879   5.4235   5.5326   5.5493   5.5744   5.6148
     5.8087   5.8384   5.8566   5.8772   5.9486   5.9647   5.9666   6.0180
     6.1734   6.1980   6.2548   6.4455   6.5305   6.5521   6.6940   6.7868
     6.7936   6.8736   6.9519   6.9555   6.9997   7.0048   7.0412   7.0679
     7.0709   7.1057   7.8525   7.8776   7.9436   7.9792   8.2392   8.2495
     9.2902   9.3055  10.3900  10.4707  10.5656  10.6508  11.7840  11.8337
    11.9849  11.9977  12.4677  12.4903  12.6698  12.6725  12.7565  12.9373
    13.1020  13.2582  13.2724  13.3495  13.6427  13.7200  13.8198  13.8602
    14.2877  14.3024  14.6095  14.6580  14.9064  15.1445  15.2801  15.5282
    15.5430  16.9524  17.0759  17.6279  17.7499

          k = 0.0000 0.3282 0.1671 ( 62875 PWs)   bands (ev):

   -66.2603 -66.2600 -66.2598 -66.2597 -66.2595 -66.2594 -66.2592 -66.2589
   -30.6399 -30.6363 -30.6356 -30.6317 -30.6056 -30.6038 -30.6013 -30.6010
   -30.5887 -30.5884 -30.5790 -30.5709 -30.5677 -30.5647 -30.5504 -30.5485
   -30.5434 -30.5422 -30.5374 -30.5269 -30.5266 -30.5222 -30.5205 -30.5149
   -20.4266 -20.4265 -20.4261 -20.4261 -20.4256 -20.4256 -20.4252 -20.4252
   -20.4152 -20.4151 -20.4148 -20.4147 -20.4137 -20.4137 -20.4134 -20.4133
   -20.4016 -20.4015 -20.4005 -20.4004 -20.4003 -20.4001 -20.3994 -20.3992
   -20.3990 -20.3989 -20.3989 -20.3988 -20.3955 -20.3952 -20.3950 -20.3947
   -20.3871 -20.3871 -20.3871 -20.3870 -20.3856 -20.3854 -20.3847 -20.3846
   -20.3840 -20.3839 -20.3832 -20.3832 -20.3823 -20.3822 -20.3821 -20.3820
   -20.3735 -20.3735 -20.3733 -20.3733 -20.3726 -20.3725 -20.3725 -20.3724
    -9.9062  -9.7007  -9.5588  -9.4823  -9.3650  -9.2938  -8.9863  -8.9689
    -8.9641  -8.7520  -8.7297  -8.7194  -8.2753  -8.1957  -8.1696  -8.1368
    -8.0033  -7.9691  -7.9571  -7.9355  -7.9185  -7.9127  -7.8902  -7.8788
     1.2229   1.2291   1.3001   1.3097   1.4574   1.4644   1.5555   1.5854
     2.1327   2.2162   2.2759   2.3579   2.5461   2.5729   2.6747   2.6937
     2.8206   2.8566   3.4163   3.4661   3.5015   3.5350   4.0093   4.2638
     4.2763   4.3627   4.3826   4.5460   4.5948   4.6803   4.7486   4.7646
     5.0274   5.0764   5.2488   5.3293   5.3505   5.3625   5.5332   5.5372
     5.6044   5.7261   5.7741   5.8280   5.8500   5.8756   5.9500   6.0040
     6.3018   6.3965   6.4751   6.4774   6.5931   6.7021   6.7575   6.7639
     6.8064   6.8220   6.8224   6.8935   6.9244   6.9448   7.0232   7.0754
     7.1101   7.1327   7.8575   7.8710   7.9165   7.9444   8.1737   8.1857
     9.6092   9.6216  10.5739  10.5773  10.6457  10.6488  11.8710  11.9196
    11.9857  11.9994  12.4612  12.4639  12.5234  12.5452  12.8053  12.9351
    12.9939  13.0526  13.2456  13.3464  13.4914  13.5518  13.6908  13.7226
    14.5044  14.5534  14.6947  14.8430  15.0652  15.2510  15.5648  15.6390
    15.6888  17.0368  17.0450  17.2617  17.3720

          k = 0.0000 0.3282 0.3341 ( 62868 PWs)   bands (ev):

   -66.2602 -66.2599 -66.2599 -66.2596 -66.2596 -66.2593 -66.2593 -66.2590
   -30.6389 -30.6364 -30.6351 -30.6325 -30.5967 -30.5934 -30.5906 -30.5896
   -30.5876 -30.5827 -30.5807 -30.5670 -30.5658 -30.5656 -30.5567 -30.5559
   -30.5529 -30.5417 -30.5392 -30.5359 -30.5301 -30.5284 -30.5253 -30.5196
   -20.4264 -20.4263 -20.4260 -20.4259 -20.4258 -20.4258 -20.4254 -20.4254
   -20.4151 -20.4150 -20.4149 -20.4148 -20.4137 -20.4136 -20.4135 -20.4134
   -20.4013 -20.4011 -20.4006 -20.4004 -20.4001 -20.4001 -20.3993 -20.3993
   -20.3992 -20.3991 -20.3990 -20.3989 -20.3954 -20.3951 -20.3951 -20.3948
   -20.3872 -20.3872 -20.3871 -20.3871 -20.3853 -20.3852 -20.3844 -20.3843
   -20.3842 -20.3840 -20.3830 -20.3829 -20.3828 -20.3826 -20.3824 -20.3823
   -20.3733 -20.3733 -20.3732 -20.3731 -20.3728 -20.3727 -20.3727 -20.3726
    -9.7980  -9.6023  -9.5840  -9.4000  -9.3075  -9.0643  -9.0087  -8.8870
    -8.8497  -8.7632  -8.6854  -8.6674  -8.4058  -8.3282  -8.2612  -8.2267
    -8.1733  -8.1502  -8.1137  -8.0828  -7.9236  -7.9104  -7.8996  -7.8876
     1.2727   1.2834   1.2936   1.3041   1.9988   2.0643   2.1084   2.1501
     2.2064   2.2635   2.3075   2.4362   2.6340   2.6810   2.7745   2.8574
     3.0161   3.0355   3.4105   3.4743   3.5153   3.5329   3.7693   3.7787
     3.9944   4.2043   4.2550   4.2941   4.3332   4.4976   4.5347   4.7039
     4.7858   4.8394   4.9300   4.9634   5.0573   5.1004   5.2602   5.2791
     5.2992   5.4408   5.6575   5.7944   5.8878   5.9090   5.9919   6.0224
     6.4077   6.4093   6.4376   6.5019   6.5050   6.5940   6.6734   6.7013
     6.8209   6.9806   6.9996   7.0358   7.0794   7.1013   7.1506   7.2170
     7.2618   7.2712   7.8119   7.8270   7.8411   7.8679   7.9709   7.9993
    10.3106  10.3301  10.6029  10.6331  11.0855  11.1361  11.8913  11.9074
    11.9866  12.0224  12.1540  12.1820  12.4922  12.5258  12.6921  12.7039
    12.8666  12.9258  13.0834  13.1365  13.2879  13.3137  13.3894  13.3895
    14.7173  14.8428  14.8587  15.1952  15.3755  15.8357  15.9741  16.2052
    16.5593  16.6558  16.9072  17.3521  17.4317

          k = 0.0000 0.3282-0.5012 ( 62840 PWs)   bands (ev):

   -66.2600 -66.2600 -66.2597 -66.2597 -66.2594 -66.2594 -66.2591 -66.2591
   -30.6377 -30.6377 -30.6338 -30.6338 -30.5918 -30.5918 -30.5858 -30.5858
   -30.5734 -30.5734 -30.5699 -30.5699 -30.5681 -30.5681 -30.5654 -30.5654
   -30.5544 -30.5544 -30.5378 -30.5378 -30.5332 -30.5332 -30.5231 -30.5231
   -20.4261 -20.4261 -20.4261 -20.4261 -20.4257 -20.4257 -20.4257 -20.4257
   -20.4150 -20.4150 -20.4149 -20.4149 -20.4136 -20.4136 -20.4135 -20.4135
   -20.4009 -20.4009 -20.4007 -20.4007 -20.3997 -20.3997 -20.3997 -20.3996
   -20.3992 -20.3992 -20.3990 -20.3990 -20.3953 -20.3952 -20.3949 -20.3949
   -20.3872 -20.3872 -20.3872 -20.3872 -20.3849 -20.3849 -20.3848 -20.3847
   -20.3835 -20.3835 -20.3833 -20.3833 -20.3827 -20.3827 -20.3826 -20.3826
   -20.3731 -20.3731 -20.3730 -20.3730 -20.3729 -20.3729 -20.3728 -20.3728
    -9.6834  -9.6833  -9.4708  -9.4708  -9.1181  -9.1181  -8.7940  -8.7940
    -8.7323  -8.7323  -8.6183  -8.6183  -8.5392  -8.5392  -8.5061  -8.5061
    -8.1706  -8.1706  -8.1217  -8.1217  -7.9118  -7.9118  -7.8994  -7.8994
     1.2857   1.2857   1.2968   1.2968   2.1292   2.1292   2.2530   2.2530
     2.6266   2.6266   2.8729   2.8729   2.9328   2.9328   2.9436   2.9436
     3.0199   3.0199   3.2384   3.2384   3.3625   3.3625   3.5531   3.5531
     4.0067   4.0067   4.0238   4.0238   4.0605   4.0605   4.2686   4.2686
     4.8537   4.8537   4.9684   4.9684   5.0461   5.0461   5.1041   5.1042
     5.2342   5.2342   5.7263   5.7263   5.9448   5.9448   5.9726   5.9726
     6.3526   6.3526   6.4256   6.4256   6.4741   6.4741   6.6891   6.6892
     6.9585   6.9585   7.0489   7.0489   7.1164   7.1164   7.5815   7.5815
     7.5864   7.5864   7.5992   7.5992   7.6368   7.6368   7.8861   7.8861
    10.5995  10.5995  11.1428  11.1428  11.1644  11.1644  11.7747  11.7747
    11.7972  11.7972  12.0405  12.0405  12.5720  12.5720  12.6122  12.6123
    12.8916  12.8916  12.9817  12.9817  13.0346  13.0346  13.3276  13.3276
    14.7969  14.7969  15.0790  15.0790  16.0655  16.0655  16.5430  16.5430
    16.6794  16.6794  16.8327  16.8327  17.7893

          k = 0.0000-0.4923 0.0000 ( 62938 PWs)   bands (ev):

   -66.2602 -66.2602 -66.2596 -66.2596 -66.2596 -66.2596 -66.2590 -66.2590
   -30.6383 -30.6383 -30.6331 -30.6331 -30.6086 -30.6086 -30.6052 -30.6052
   -30.5773 -30.5773 -30.5743 -30.5743 -30.5616 -30.5615 -30.5558 -30.5558
   -30.5452 -30.5452 -30.5375 -30.5375 -30.5217 -30.5217 -30.5154 -30.5154
   -20.4266 -20.4266 -20.4262 -20.4262 -20.4255 -20.4255 -20.4251 -20.4251
   -20.4152 -20.4152 -20.4147 -20.4147 -20.4137 -20.4137 -20.4134 -20.4133
   -20.4016 -20.4016 -20.4005 -20.4005 -20.4001 -20.4001 -20.3993 -20.3993
   -20.3988 -20.3988 -20.3988 -20.3988 -20.3954 -20.3954 -20.3948 -20.3948
   -20.3859 -20.3859 -20.3858 -20.3858 -20.3854 -20.3854 -20.3854 -20.3854
   -20.3846 -20.3846 -20.3846 -20.3846 -20.3822 -20.3822 -20.3820 -20.3820
   -20.3736 -20.3736 -20.3734 -20.3734 -20.3725 -20.3725 -20.3724 -20.3724
    -9.8376  -9.8376  -9.4446  -9.4446  -9.4286  -9.4286  -9.0111  -9.0111
    -8.6114  -8.6114  -8.5026  -8.5026  -8.4943  -8.4943  -8.4708  -8.4708
    -7.9402  -7.9402  -7.8846  -7.8846  -7.8750  -7.8750  -7.8324  -7.8324
     1.1287   1.1287   1.2231   1.2231   1.3090   1.3090   1.4231   1.4231
     2.4851   2.4851   2.8508   2.8508   2.9128   2.9128   2.9463   2.9463
     3.0172   3.0172   3.1828   3.1828   3.4062   3.4062   3.4135   3.4135
     3.5746   3.5746   4.5227   4.5227   4.5699   4.5699   5.2049   5.2050
     5.2731   5.2731   5.2863   5.2863   5.3101   5.3101   5.6545   5.6545
     5.7301   5.7301   5.8515   5.8515   5.9173   5.9173   5.9588   5.9588
     6.2351   6.2351   6.2701   6.2701   6.5379   6.5379   6.6458   6.6458
     6.8602   6.8602   6.9529   6.9529   7.0073   7.0073   7.5068   7.5068
     7.5078   7.5079   7.5320   7.5320   7.5688   7.5688   8.2442   8.2442
     9.3014   9.3014  11.1050  11.1050  11.1410  11.1410  11.3063  11.3064
    11.3730  11.3730  12.4779  12.4779  12.6712  12.6712  12.9432  12.9432
    13.1395  13.1395  13.4152  13.4152  13.4603  13.4603  13.8417  13.8417
    14.3121  14.3121  14.9691  14.9691  14.9906  14.9906  15.1255  15.1255
    16.3514  16.3514  17.6430  17.6430  17.8841

          k = 0.0000-0.4923 0.1671 ( 62836 PWs)   bands (ev):

   -66.2602 -66.2601 -66.2596 -66.2596 -66.2595 -66.2595 -66.2590 -66.2590
   -30.6379 -30.6379 -30.6334 -30.6334 -30.6040 -30.6040 -30.6005 -30.6005
   -30.5769 -30.5769 -30.5746 -30.5746 -30.5626 -30.5626 -30.5550 -30.5550
   -30.5472 -30.5472 -30.5370 -30.5370 -30.5259 -30.5259 -30.5190 -30.5190
   -20.4265 -20.4265 -20.4261 -20.4261 -20.4256 -20.4256 -20.4252 -20.4252
   -20.4152 -20.4152 -20.4147 -20.4147 -20.4137 -20.4137 -20.4134 -20.4134
   -20.4015 -20.4015 -20.4004 -20.4004 -20.4002 -20.4002 -20.3993 -20.3993
   -20.3990 -20.3990 -20.3989 -20.3988 -20.3953 -20.3953 -20.3949 -20.3948
   -20.3859 -20.3859 -20.3859 -20.3858 -20.3855 -20.3855 -20.3854 -20.3854
   -20.3844 -20.3844 -20.3844 -20.3843 -20.3823 -20.3823 -20.3821 -20.3821
   -20.3735 -20.3735 -20.3733 -20.3733 -20.3725 -20.3725 -20.3724 -20.3724
    -9.7900  -9.7900  -9.4420  -9.4420  -9.3661  -9.3660  -8.9772  -8.9772
    -8.6238  -8.6238  -8.5089  -8.5089  -8.4883  -8.4883  -8.4688  -8.4688
    -7.9925  -7.9925  -7.9487  -7.9487  -7.9197  -7.9197  -7.8875  -7.8875
     1.2261   1.2261   1.3063   1.3063   1.4635   1.4635   1.5784   1.5784
     2.5653   2.5653   2.8589   2.8590   2.9095   2.9095   2.9574   2.9574
     3.0732   3.0732   3.1707   3.1707   3.4035   3.4035   3.4502   3.4502
     3.5943   3.5943   4.2842   4.2842   4.5703   4.5703   5.0114   5.0114
     5.0593   5.0593   5.2207   5.2208   5.3287   5.3288   5.4505   5.4505
     5.5883   5.5883   5.6379   5.6379   5.8720   5.8720   5.9839   5.9839
     6.3817   6.3817   6.4620   6.4620   6.5489   6.5489   6.7892   6.7892
     6.8258   6.8258   6.8592   6.8592   6.9780   6.9780   7.4928   7.4928
     7.5192   7.5192   7.5330   7.5330   7.5587   7.5587   8.1799   8.1799
     9.6179   9.6179  11.2052  11.2052  11.2463  11.2463  11.3167  11.3167
    11.3997  11.3997  12.4631  12.4631  12.5337  12.5337  12.9868  12.9868
    13.1361  13.1361  13.2377  13.2377  13.2806  13.2806  13.7071  13.7071
    14.5150  14.5150  15.0821  15.0821  15.1497  15.1497  15.3899  15.3899
    16.4498  16.4498  17.5814  17.5814  17.6817

          k = 0.0000-0.4923 0.3341 ( 62862 PWs)   bands (ev):

   -66.2600 -66.2600 -66.2597 -66.2597 -66.2594 -66.2594 -66.2591 -66.2591
   -30.6368 -30.6368 -30.6343 -30.6343 -30.5920 -30.5920 -30.5880 -30.5880
   -30.5757 -30.5757 -30.5756 -30.5755 -30.5666 -30.5666 -30.5550 -30.5550
   -30.5523 -30.5523 -30.5365 -30.5365 -30.5353 -30.5353 -30.5266 -30.5266
   -20.4264 -20.4264 -20.4260 -20.4259 -20.4258 -20.4258 -20.4254 -20.4254
   -20.4151 -20.4151 -20.4148 -20.4148 -20.4136 -20.4136 -20.4134 -20.4134
   -20.4012 -20.4012 -20.4005 -20.4005 -20.4001 -20.4001 -20.3993 -20.3993
   -20.3992 -20.3992 -20.3990 -20.3990 -20.3952 -20.3952 -20.3950 -20.3949
   -20.3859 -20.3859 -20.3859 -20.3859 -20.3856 -20.3856 -20.3856 -20.3856
   -20.3839 -20.3839 -20.3838 -20.3838 -20.3827 -20.3827 -20.3826 -20.3826
   -20.3733 -20.3733 -20.3731 -20.3731 -20.3727 -20.3727 -20.3726 -20.3726
    -9.6754  -9.6754  -9.4816  -9.4816  -9.1528  -9.1528  -8.8633  -8.8633
    -8.6843  -8.6843  -8.5392  -8.5391  -8.4659  -8.4659  -8.4581  -8.4581
    -8.2344  -8.2344  -8.1974  -8.1974  -7.9198  -7.9198  -7.8965  -7.8965
     1.2791   1.2792   1.3002   1.3002   2.0967   2.0967   2.1869   2.1869
     2.7745   2.7745   2.8613   2.8613   2.9399   2.9399   2.9842   2.9842
     3.1507   3.1507   3.1800   3.1800   3.3750   3.3751   3.5242   3.5243
     3.6316   3.6316   3.7763   3.7763   4.4569   4.4569   4.5745   4.5745
     4.7384   4.7384   4.8590   4.8590   4.9596   4.9596   5.1837   5.1837
     5.3660   5.3660   5.5481   5.5481   5.9059   5.9059   6.0209   6.0209
     6.4328   6.4328   6.4772   6.4772   6.5493   6.5493   6.5817   6.5817
     7.0401   7.0401   7.1664   7.1664   7.2128   7.2128   7.4662   7.4663
     7.4982   7.4982   7.5231   7.5232   7.5504   7.5504   7.9823   7.9823
    10.3263  10.3263  11.2995  11.2995  11.3173  11.3173  11.6000  11.6000
    11.6583  11.6583  11.9270  11.9271  12.6966  12.6966  12.7458  12.7458
    12.7786  12.7786  13.0934  13.0934  13.1261  13.1261  13.3827  13.3827
    14.7993  14.7993  15.0429  15.0429  15.7295  15.7295  16.3249  16.3249
    16.7783  16.7783  17.0589  17.0589  17.7441

          k = 0.0000-0.4923-0.5012 ( 62864 PWs)   bands (ev):

   -66.2599 -66.2599 -66.2599 -66.2599 -66.2593 -66.2593 -66.2593 -66.2593
   -30.6355 -30.6355 -30.6355 -30.6355 -30.5793 -30.5793 -30.5793 -30.5793
   -30.5751 -30.5751 -30.5751 -30.5751 -30.5685 -30.5685 -30.5684 -30.5684
   -30.5467 -30.5467 -30.5467 -30.5467 -30.5323 -30.5323 -30.5323 -30.5323
   -20.4261 -20.4261 -20.4261 -20.4261 -20.4257 -20.4257 -20.4257 -20.4257
   -20.4149 -20.4149 -20.4149 -20.4149 -20.4135 -20.4135 -20.4135 -20.4135
   -20.4008 -20.4008 -20.4008 -20.4008 -20.3997 -20.3997 -20.3997 -20.3997
   -20.3991 -20.3991 -20.3991 -20.3991 -20.3951 -20.3951 -20.3951 -20.3951
   -20.3858 -20.3858 -20.3858 -20.3858 -20.3858 -20.3858 -20.3858 -20.3858
   -20.3833 -20.3833 -20.3833 -20.3833 -20.3832 -20.3832 -20.3832 -20.3832
   -20.3730 -20.3730 -20.3730 -20.3730 -20.3729 -20.3729 -20.3729 -20.3729
    -9.5589  -9.5589  -9.5589  -9.5589  -8.8742  -8.8742  -8.8742  -8.8742
    -8.6695  -8.6695  -8.6695  -8.6695  -8.4201  -8.4201  -8.4201  -8.4201
    -8.3909  -8.3909  -8.3909  -8.3909  -7.9085  -7.9085  -7.9085  -7.9085
     1.2926   1.2926   1.2926   1.2926   2.7358   2.7358   2.7358   2.7358
     2.8406   2.8406   2.8406   2.8406   3.0752   3.0752   3.0752   3.0752
     3.1502   3.1502   3.1502   3.1502   3.3450   3.3450   3.3450   3.3450
     3.4956   3.4956   3.4956   3.4956   4.3391   4.3391   4.3391   4.3391
     4.3940   4.3940   4.3940   4.3940   5.0727   5.0727   5.0727   5.0727
     5.4291   5.4291   5.4291   5.4291   5.9715   5.9715   5.9715   5.9715
     6.4027   6.4027   6.4027   6.4027   6.5331   6.5331   6.5331   6.5331
     7.3765   7.3765   7.3765   7.3765   7.3967   7.3967   7.3968   7.3968
     7.4233   7.4233   7.4233   7.4233   7.6887   7.6888   7.6888   7.6888
    11.1181  11.1181  11.1181  11.1181  11.3505  11.3505  11.3505  11.3505
    12.1417  12.1417  12.1417  12.1417  12.1937  12.1937  12.1937  12.1937
    12.9750  12.9750  12.9750  12.9750  13.1403  13.1403  13.1403  13.1403
    14.9546  14.9546  14.9546  14.9546  16.4323  16.4323  16.4323  16.4323
    17.3611  17.3611  17.3611  17.3612  17.4466

          k = 0.1667 0.0000 0.0000 ( 62837 PWs)   bands (ev):

   -66.2605 -66.2599 -66.2598 -66.2598 -66.2593 -66.2593 -66.2592 -66.2587
   -30.6389 -30.6343 -30.6308 -30.6252 -30.6123 -30.6115 -30.6084 -30.6072
   -30.6055 -30.5997 -30.5936 -30.5844 -30.5667 -30.5639 -30.5555 -30.5517
   -30.5361 -30.5328 -30.5217 -30.5191 -30.5171 -30.5134 -30.5108 -30.5056
   -20.4266 -20.4266 -20.4262 -20.4262 -20.4255 -20.4254 -20.4252 -20.4251
   -20.4152 -20.4151 -20.4147 -20.4145 -20.4139 -20.4137 -20.4135 -20.4134
   -20.4017 -20.4015 -20.4007 -20.4006 -20.4003 -20.3999 -20.3993 -20.3990
   -20.3989 -20.3989 -20.3987 -20.3985 -20.3960 -20.3955 -20.3954 -20.3948
   -20.3886 -20.3886 -20.3886 -20.3885 -20.3857 -20.3856 -20.3849 -20.3848
   -20.3829 -20.3827 -20.3821 -20.3819 -20.3816 -20.3816 -20.3814 -20.3814
   -20.3736 -20.3735 -20.3734 -20.3734 -20.3726 -20.3725 -20.3723 -20.3722
   -10.0530  -9.7212  -9.6598  -9.6357  -9.3388  -9.2850  -9.2244  -8.9992
    -8.9601  -8.9204  -8.9018  -8.8854  -8.0928  -8.0291  -8.0281  -7.9908
    -7.8913  -7.8890  -7.8601  -7.8515  -7.7710  -7.7449  -7.7254  -7.7026
     1.1493   1.1787   1.1822   1.2205   1.2241   1.2564   1.3137   1.3319
     1.5460   1.5824   1.6406   1.7046   2.3767   2.4290   2.4406   2.4808
     2.5223   2.6471   3.9487   3.9900   4.1534   4.1887   4.2510   4.2947
     4.3876   4.3972   4.6198   4.6579   4.7963   4.8094   5.0656   5.2620
     5.3921   5.4594   5.4860   5.5323   5.5653   5.6127   5.6485   5.6996
     5.7437   5.8459   5.8800   5.9113   5.9172   5.9685   6.0924   6.1086
     6.1830   6.3514   6.3917   6.3978   6.4776   6.5470   6.5913   6.6143
     6.6362   6.7304   6.8562   6.8777   6.8847   6.9350   6.9498   7.0066
     7.0793   7.1031   8.0360   8.0750   8.1602   8.1854   8.3019   8.3236
     9.5231   9.5741   9.6130   9.7830   9.9994  10.1186  12.2569  12.2684
    12.4783  12.4902  12.5330  12.6628  12.6731  12.6903  12.7212  12.7266
    13.0961  13.1252  13.3249  13.4352  13.6931  13.7411  13.9609  13.9659
    14.0448  14.0567  14.4272  14.6864  14.7155  14.7775  15.2274  15.6402
    15.7323  16.4579  16.5522  17.0362  17.0995

          k = 0.1667 0.0000 0.1671 ( 62852 PWs)   bands (ev):

   -66.2604 -66.2599 -66.2599 -66.2598 -66.2593 -66.2593 -66.2593 -66.2587
   -30.6386 -30.6346 -30.6303 -30.6255 -30.6114 -30.6086 -30.6059 -30.6036
   -30.6021 -30.5957 -30.5941 -30.5818 -30.5664 -30.5642 -30.5565 -30.5511
   -30.5404 -30.5373 -30.5266 -30.5216 -30.5187 -30.5131 -30.5119 -30.5067
   -20.4265 -20.4265 -20.4262 -20.4261 -20.4256 -20.4255 -20.4253 -20.4252
   -20.4152 -20.4150 -20.4147 -20.4146 -20.4139 -20.4137 -20.4135 -20.4134
   -20.4016 -20.4014 -20.4006 -20.4005 -20.4004 -20.4000 -20.3992 -20.3991
   -20.3990 -20.3989 -20.3987 -20.3985 -20.3959 -20.3955 -20.3953 -20.3948
   -20.3886 -20.3886 -20.3886 -20.3886 -20.3856 -20.3854 -20.3847 -20.3846
   -20.3832 -20.3830 -20.3823 -20.3821 -20.3815 -20.3815 -20.3813 -20.3813
   -20.3735 -20.3734 -20.3734 -20.3733 -20.3726 -20.3725 -20.3724 -20.3723
   -10.0115  -9.6732  -9.6683  -9.5822  -9.2965  -9.2565  -9.2338  -8.9632
    -8.9310  -8.8946  -8.8895  -8.8869  -8.1060  -8.0440  -8.0298  -8.0100
    -7.9911  -7.9841  -7.9563  -7.9418  -7.7806  -7.7483  -7.7372  -7.7059
     1.1870   1.2375   1.2477   1.3064   1.3700   1.3721   1.4636   1.5137
     1.5491   1.5837   1.7005   1.7738   2.4318   2.4543   2.4867   2.5197
     2.6068   2.7275   3.9244   3.9545   4.1253   4.1354   4.3308   4.3327
     4.3685   4.3809   4.3843   4.4416   4.5099   4.5560   5.0637   5.2292
     5.2753   5.3640   5.4139   5.4347   5.5168   5.5849   5.6547   5.6696
     5.6765   5.7190   5.7476   5.8407   5.9328   6.0455   6.0870   6.0941
     6.2128   6.4492   6.4761   6.5194   6.5374   6.5751   6.5947   6.5978
     6.6457   6.6572   6.7321   6.8391   6.8397   6.9388   6.9625   6.9848
     7.0000   7.0355   8.0397   8.0683   8.1037   8.1263   8.2413   8.2646
     9.8084   9.8311   9.9245   9.9921  10.0831  10.1135  12.3192  12.3235
    12.4943  12.4992  12.5291  12.5573  12.5809  12.6751  12.6936  12.6960
    12.8898  12.9175  13.3585  13.4318  13.5727  13.6050  13.8535  13.9120
    14.2352  14.3041  14.6100  14.7558  14.7618  14.8901  15.5994  15.6537
    15.7143  16.6056  16.6752  16.7687  17.3021

          k = 0.1667 0.0000 0.3341 ( 62854 PWs)   bands (ev):

   -66.2603 -66.2600 -66.2598 -66.2597 -66.2595 -66.2594 -66.2592 -66.2589
   -30.6377 -30.6354 -30.6290 -30.6264 -30.6098 -30.6068 -30.6029 -30.5957
   -30.5902 -30.5885 -30.5841 -30.5726 -30.5656 -30.5652 -30.5600 -30.5531
   -30.5500 -30.5488 -30.5398 -30.5330 -30.5177 -30.5141 -30.5122 -30.5088
   -20.4264 -20.4263 -20.4260 -20.4260 -20.4258 -20.4257 -20.4255 -20.4254
   -20.4150 -20.4149 -20.4148 -20.4147 -20.4138 -20.4136 -20.4136 -20.4134
   -20.4013 -20.4010 -20.4006 -20.4003 -20.4002 -20.4001 -20.3994 -20.3993
   -20.3992 -20.3989 -20.3987 -20.3986 -20.3958 -20.3956 -20.3952 -20.3950
   -20.3887 -20.3887 -20.3887 -20.3886 -20.3852 -20.3850 -20.3842 -20.3841
   -20.3838 -20.3837 -20.3828 -20.3826 -20.3814 -20.3814 -20.3813 -20.3812
   -20.3733 -20.3732 -20.3732 -20.3731 -20.3728 -20.3727 -20.3726 -20.3725
    -9.9099  -9.7184  -9.5405  -9.4540  -9.3342  -9.2658  -9.0238  -8.9127
    -8.8934  -8.8200  -8.8055  -8.7802  -8.3143  -8.2739  -8.2672  -8.2480
    -8.0540  -8.0363  -8.0081  -7.9854  -7.7797  -7.7575  -7.7363  -7.7147
     1.1990   1.2303   1.2608   1.2910   1.5231   1.5323   1.5512   1.5778
     2.1133   2.1370   2.2172   2.2490   2.4365   2.4843   2.6831   2.7179
     2.8596   2.9584   3.6665   3.6962   3.8804   3.9308   3.9831   4.0084
     4.0790   4.1294   4.3850   4.4077   4.4605   4.6020   4.6519   4.7489
     5.0310   5.1037   5.1307   5.2229   5.3004   5.3467   5.5536   5.6647
     5.7197   5.7586   5.7960   5.8232   5.8341   5.8842   5.9858   6.0936
     6.2604   6.3405   6.3715   6.4092   6.4232   6.5416   6.5467   6.5849
     6.6539   6.8125   6.8608   6.8834   6.9296   6.9488   7.1359   7.1700
     7.2310   7.2836   7.9166   7.9358   8.0392   8.0487   8.0516   8.0929
    10.0222  10.0901  10.4621  10.4669  10.6810  10.7271  11.9596  11.9706
    12.3157  12.3366  12.5007  12.5242  12.6048  12.6065  12.6887  12.6967
    12.7603  12.8083  13.2076  13.2403  13.4193  13.4462  13.5098  13.5524
    14.5838  14.6723  14.8460  15.1574  15.1673  15.3259  15.5014  15.6590
    16.2174  16.6680  17.0220  17.0394  17.1380

          k = 0.1667 0.0000-0.5012 ( 62754 PWs)   bands (ev):

   -66.2602 -66.2601 -66.2596 -66.2596 -66.2595 -66.2595 -66.2590 -66.2590
   -30.6366 -30.6365 -30.6277 -30.6276 -30.6082 -30.6082 -30.5984 -30.5984
   -30.5717 -30.5717 -30.5713 -30.5713 -30.5696 -30.5696 -30.5629 -30.5629
   -30.5570 -30.5570 -30.5438 -30.5438 -30.5162 -30.5162 -30.5107 -30.5107
   -20.4261 -20.4261 -20.4260 -20.4260 -20.4258 -20.4257 -20.4257 -20.4257
   -20.4149 -20.4149 -20.4148 -20.4148 -20.4137 -20.4137 -20.4135 -20.4135
   -20.4009 -20.4009 -20.4006 -20.4006 -20.3998 -20.3998 -20.3997 -20.3997
   -20.3990 -20.3990 -20.3987 -20.3986 -20.3957 -20.3957 -20.3951 -20.3951
   -20.3887 -20.3887 -20.3887 -20.3887 -20.3846 -20.3846 -20.3844 -20.3844
   -20.3835 -20.3834 -20.3833 -20.3833 -20.3813 -20.3813 -20.3813 -20.3812
   -20.3731 -20.3731 -20.3729 -20.3729 -20.3729 -20.3729 -20.3728 -20.3728
    -9.7996  -9.7996  -9.4132  -9.4132  -9.3345  -9.3345  -8.9007  -8.9007
    -8.6819  -8.6819  -8.5894  -8.5894  -8.5747  -8.5747  -8.5560  -8.5560
    -8.0479  -8.0478  -7.9988  -7.9988  -7.7695  -7.7695  -7.7263  -7.7263
     1.2126   1.2126   1.2750   1.2750   1.5397   1.5397   1.5702   1.5702
     2.4376   2.4376   2.7591   2.7591   2.8096   2.8096   2.9825   2.9825
     3.0346   3.0346   3.2688   3.2688   3.5020   3.5020   3.8273   3.8273
     3.8440   3.8440   4.1003   4.1003   4.3881   4.3881   4.8567   4.8567
     4.9892   4.9892   5.0263   5.0263   5.1882   5.1882   5.5928   5.5928
     5.7315   5.7315   5.7880   5.7880   5.8771   5.8772   6.0318   6.0318
     6.1968   6.1969   6.3320   6.3320   6.4529   6.4529   6.5702   6.5702
     6.7207   6.7207   6.8614   6.8614   6.9374   6.9375   7.5914   7.5914
     7.5993   7.5993   7.7121   7.7121   7.7248   7.7248   8.0574   8.0574
    10.0597  10.0597  11.2246  11.2247  11.2447  11.2447  11.5327  11.5327
    11.5520  11.5520  12.6100  12.6100  12.6897  12.6897  12.8161  12.8161
    12.8588  12.8588  13.0933  13.0933  13.1342  13.1342  13.4332  13.4333
    14.6533  14.6533  15.2727  15.2727  15.4808  15.4808  15.6536  15.6536
    16.2501  16.2501  17.3870  17.3871  17.6636

          k = 0.1667 0.1641 0.0000 ( 62855 PWs)   bands (ev):

   -66.2604 -66.2599 -66.2599 -66.2598 -66.2594 -66.2593 -66.2593 -66.2587
   -30.6379 -30.6333 -30.6311 -30.6256 -30.6112 -30.6087 -30.6082 -30.6069
   -30.6011 -30.5986 -30.5894 -30.5814 -30.5678 -30.5648 -30.5549 -30.5507
   -30.5380 -30.5344 -30.5241 -30.5218 -30.5177 -30.5171 -30.5137 -30.5082
   -20.4266 -20.4266 -20.4262 -20.4262 -20.4255 -20.4254 -20.4252 -20.4251
   -20.4152 -20.4151 -20.4147 -20.4146 -20.4139 -20.4138 -20.4135 -20.4134
   -20.4017 -20.4015 -20.4007 -20.4006 -20.4003 -20.3999 -20.3992 -20.3989
   -20.3989 -20.3989 -20.3987 -20.3985 -20.3959 -20.3954 -20.3954 -20.3949
   -20.3882 -20.3882 -20.3881 -20.3881 -20.3857 -20.3855 -20.3850 -20.3849
   -20.3830 -20.3828 -20.3821 -20.3821 -20.3820 -20.3819 -20.3817 -20.3817
   -20.3736 -20.3735 -20.3734 -20.3734 -20.3726 -20.3725 -20.3723 -20.3722
   -10.0113  -9.6746  -9.6534  -9.6057  -9.3497  -9.2369  -9.2014  -8.9951
    -8.9623  -8.8819  -8.8592  -8.8517  -8.1067  -8.0376  -8.0319  -8.0042
    -7.9219  -7.9121  -7.8890  -7.8521  -7.8495  -7.8302  -7.8223  -7.7890
     1.1785   1.1818   1.2127   1.2210   1.4008   1.4383   1.5220   1.5490
     1.5701   1.6376   1.6644   1.7775   2.4535   2.4978   2.5222   2.5277
     2.5627   2.6462   3.7842   3.8251   3.9343   4.0238   4.2023   4.2749
     4.4025   4.4440   4.6120   4.6580   4.8533   4.8638   4.8781   5.1626
     5.2160   5.3035   5.3096   5.4542   5.4822   5.5423   5.5448   5.6692
     5.7016   5.8614   5.8850   5.9386   5.9498   6.0271   6.1253   6.1322
     6.2027   6.2820   6.3495   6.3742   6.5078   6.5860   6.6162   6.6489
     6.6757   6.7969   6.8486   6.8630   6.8782   6.8809   6.9673   6.9748
     7.0307   7.0725   7.9977   8.0313   8.1620   8.1800   8.2129   8.2398
     9.5673   9.5752   9.8304   9.9466  10.2026  10.3095  12.2004  12.2655
    12.3180  12.3692  12.5165  12.5166  12.5826  12.6948  12.7157  12.7198
    13.1238  13.1553  13.3630  13.4424  13.6933  13.7343  13.8886  13.9584
    14.0806  14.2593  14.4241  14.7084  14.8173  14.9550  15.2070  15.7005
    16.0436  16.1954  16.7431  17.2184  17.2779

          k = 0.1667 0.1641 0.1671 ( 62835 PWs)   bands (ev):

   -66.2604 -66.2598 -66.2598 -66.2598 -66.2593 -66.2593 -66.2593 -66.2588
   -30.6376 -30.6336 -30.6306 -30.6259 -30.6087 -30.6064 -30.6035 -30.6020
   -30.6014 -30.5952 -30.5900 -30.5792 -30.5676 -30.5651 -30.5559 -30.5501
   -30.5418 -30.5386 -30.5267 -30.5237 -30.5216 -30.5173 -30.5153 -30.5097
   -20.4265 -20.4265 -20.4262 -20.4261 -20.4256 -20.4255 -20.4253 -20.4252
   -20.4151 -20.4150 -20.4147 -20.4146 -20.4139 -20.4137 -20.4135 -20.4134
   -20.4016 -20.4014 -20.4006 -20.4005 -20.4003 -20.4000 -20.3992 -20.3991
   -20.3990 -20.3989 -20.3987 -20.3985 -20.3959 -20.3954 -20.3954 -20.3949
   -20.3882 -20.3882 -20.3882 -20.3882 -20.3856 -20.3854 -20.3847 -20.3846
   -20.3833 -20.3831 -20.3823 -20.3821 -20.3820 -20.3820 -20.3816 -20.3816
   -20.3735 -20.3734 -20.3733 -20.3733 -20.3726 -20.3725 -20.3724 -20.3723
    -9.9683  -9.6227  -9.6164  -9.5980  -9.2681  -9.2465  -9.2126  -8.9610
    -8.9329  -8.8561  -8.8534  -8.8508  -8.1254  -8.0462  -8.0389  -8.0204
    -7.9994  -7.9895  -7.9548  -7.9497  -7.8715  -7.8506  -7.8396  -7.8180
     1.3605   1.3667   1.3907   1.4162   1.4378   1.4666   1.5226   1.5660
     1.6053   1.6578   1.7018   1.8327   2.5055   2.5329   2.5551   2.5986
     2.6242   2.7234   3.7813   3.8152   3.9404   3.9805   4.2941   4.3160
     4.3525   4.3573   4.4223   4.4526   4.5585   4.6113   4.8793   5.1294
     5.1815   5.2620   5.2750   5.2902   5.4190   5.4805   5.4831   5.5200
     5.5358   5.6831   5.9030   5.9300   5.9779   6.0271   6.0720   6.0853
     6.2685   6.3730   6.3988   6.4623   6.5117   6.5940   6.6288   6.6614
     6.7242   6.7317   6.7738   6.8505   6.9012   6.9095   6.9362   6.9763
     7.0187   7.0534   8.0018   8.0247   8.1045   8.1225   8.1613   8.1880
     9.8272   9.8325  10.0995  10.1681  10.2476  10.3045  12.2711  12.3209
    12.3870  12.4177  12.4931  12.5021  12.5250  12.5377  12.6219  12.7008
    12.9205  12.9474  13.3915  13.4446  13.5661  13.5991  13.7580  13.8074
    14.3760  14.5334  14.6514  14.7782  14.8382  15.0556  15.6193  15.6850
    16.0128  16.3315  16.8421  16.9181  17.2432

          k = 0.1667 0.1641 0.3341 ( 62849 PWs)   bands (ev):

   -66.2603 -66.2600 -66.2597 -66.2597 -66.2594 -66.2594 -66.2592 -66.2589
   -30.6367 -30.6344 -30.6294 -30.6268 -30.6058 -30.6026 -30.6001 -30.5918
   -30.5901 -30.5884 -30.5842 -30.5712 -30.5668 -30.5660 -30.5597 -30.5537
   -30.5507 -30.5480 -30.5397 -30.5327 -30.5226 -30.5183 -30.5163 -30.5124
   -20.4264 -20.4263 -20.4260 -20.4260 -20.4258 -20.4257 -20.4255 -20.4254
   -20.4150 -20.4149 -20.4148 -20.4147 -20.4138 -20.4137 -20.4136 -20.4135
   -20.4013 -20.4010 -20.4006 -20.4003 -20.4002 -20.4001 -20.3994 -20.3993
   -20.3991 -20.3989 -20.3988 -20.3986 -20.3958 -20.3955 -20.3953 -20.3950
   -20.3883 -20.3883 -20.3883 -20.3882 -20.3852 -20.3850 -20.3842 -20.3841
   -20.3839 -20.3838 -20.3828 -20.3826 -20.3819 -20.3818 -20.3816 -20.3816
   -20.3733 -20.3732 -20.3732 -20.3731 -20.3728 -20.3727 -20.3726 -20.3725
    -9.8628  -9.6663  -9.4789  -9.4698  -9.2798  -9.2521  -9.0353  -8.8923
    -8.8608  -8.8221  -8.7844  -8.7573  -8.3307  -8.2760  -8.2704  -8.2444
    -8.0559  -8.0419  -8.0137  -7.9920  -7.8785  -7.8601  -7.8475  -7.8288
     1.4038   1.4219   1.4872   1.5059   1.5348   1.5571   1.6009   1.6478
     2.1140   2.1464   2.2155   2.2624   2.5112   2.5561   2.7512   2.7907
     2.8770   2.9523   3.6287   3.6411   3.8693   3.8730   3.9307   3.9768
     4.0293   4.0928   4.3784   4.4232   4.4525   4.5828   4.6550   4.7261
     4.8421   4.9021   5.0185   5.0307   5.1273   5.2028   5.3829   5.5027
     5.5279   5.7055   5.7416   5.7915   5.8176   5.9184   5.9339   5.9616
     6.2407   6.4041   6.4546   6.4859   6.5550   6.5996   6.6185   6.6646
     6.7184   6.8178   6.8951   6.9027   6.9114   6.9926   7.1307   7.1812
     7.2330   7.2841   7.9198   7.9261   7.9894   7.9963   8.0117   8.0479
    10.2121  10.2802  10.4653  10.4759  10.7802  10.8255  11.9620  11.9698
    12.3504  12.3614  12.4858  12.4988  12.5365  12.5391  12.5876  12.6108
    12.6599  12.7256  13.2121  13.2420  13.3902  13.4290  13.4354  13.4632
    14.7014  14.7689  15.1514  15.1736  15.2761  15.4181  15.6333  15.9020
    16.3562  16.6399  16.7768  17.0979  17.1811

          k = 0.1667 0.1641-0.5012 ( 62802 PWs)   bands (ev):

   -66.2601 -66.2601 -66.2596 -66.2596 -66.2596 -66.2596 -66.2591 -66.2590
   -30.6355 -30.6355 -30.6280 -30.6280 -30.6039 -30.6039 -30.5948 -30.5948
   -30.5720 -30.5720 -30.5712 -30.5711 -30.5697 -30.5697 -30.5641 -30.5641
   -30.5565 -30.5565 -30.5430 -30.5430 -30.5208 -30.5208 -30.5147 -30.5147
   -20.4261 -20.4261 -20.4260 -20.4260 -20.4258 -20.4257 -20.4257 -20.4257
   -20.4149 -20.4149 -20.4148 -20.4148 -20.4137 -20.4137 -20.4135 -20.4135
   -20.4009 -20.4009 -20.4006 -20.4006 -20.3998 -20.3998 -20.3997 -20.3997
   -20.3990 -20.3990 -20.3987 -20.3987 -20.3957 -20.3957 -20.3951 -20.3951
   -20.3883 -20.3883 -20.3883 -20.3883 -20.3846 -20.3846 -20.3845 -20.3845
   -20.3835 -20.3835 -20.3833 -20.3833 -20.3817 -20.3817 -20.3817 -20.3816
   -20.3731 -20.3731 -20.3729 -20.3729 -20.3729 -20.3729 -20.3728 -20.3728
    -9.7490  -9.7490  -9.3506  -9.3506  -9.3369  -9.3369  -8.8697  -8.8696
    -8.6946  -8.6946  -8.5938  -8.5938  -8.5674  -8.5674  -8.5466  -8.5466
    -8.0520  -8.0520  -8.0057  -8.0057  -7.8704  -7.8704  -7.8396  -7.8396
     1.4123   1.4124   1.5000   1.5000   1.5507   1.5507   1.6370   1.6370
     2.5091   2.5091   2.7885   2.7885   2.8427   2.8427   2.9726   2.9726
     3.0290   3.0290   3.2848   3.2848   3.4883   3.4883   3.8769   3.8769
     3.8837   3.8837   3.9458   3.9458   4.3918   4.3918   4.7594   4.7594
     4.8158   4.8158   4.9294   4.9294   4.9852   4.9852   5.4972   5.4972
     5.5718   5.5718   5.6271   5.6271   5.7777   5.7777   5.9450   5.9450
     6.3738   6.3738   6.4602   6.4602   6.6005   6.6005   6.6197   6.6197
     6.7117   6.7117   6.8953   6.8953   6.9403   6.9403   7.5922   7.5922
     7.5977   7.5977   7.6865   7.6865   7.6977   7.6977   8.0199   8.0199
    10.2523  10.2523  11.2263  11.2263  11.2431  11.2431  11.5924  11.5924
    11.6110  11.6110  12.5256  12.5256  12.6508  12.6508  12.8110  12.8110
    12.8583  12.8583  12.9546  12.9546  13.0012  13.0012  13.4502  13.4502
    14.7564  14.7564  15.4592  15.4592  15.6488  15.6488  15.7961  15.7961
    16.3376  16.3376  17.2489  17.2489  17.6034

          k = 0.1667 0.3282 0.0000 ( 62875 PWs)   bands (ev):

   -66.2603 -66.2600 -66.2598 -66.2597 -66.2595 -66.2594 -66.2592 -66.2589
   -30.6358 -30.6323 -30.6307 -30.6267 -30.6092 -30.6081 -30.6063 -30.6056
   -30.5914 -30.5898 -30.5776 -30.5719 -30.5712 -30.5683 -30.5526 -30.5473
   -30.5460 -30.5399 -30.5375 -30.5284 -30.5219 -30.5189 -30.5170 -30.5132
   -20.4266 -20.4266 -20.4262 -20.4262 -20.4255 -20.4255 -20.4252 -20.4251
   -20.4152 -20.4151 -20.4147 -20.4146 -20.4139 -20.4138 -20.4135 -20.4134
   -20.4016 -20.4015 -20.4006 -20.4006 -20.4002 -20.4000 -20.3992 -20.3990
   -20.3989 -20.3989 -20.3987 -20.3986 -20.3958 -20.3955 -20.3953 -20.3950
   -20.3871 -20.3871 -20.3870 -20.3870 -20.3856 -20.3855 -20.3850 -20.3849
   -20.3838 -20.3838 -20.3833 -20.3833 -20.3821 -20.3821 -20.3820 -20.3819
   -20.3736 -20.3736 -20.3734 -20.3734 -20.3725 -20.3724 -20.3724 -20.3723
    -9.9079  -9.7043  -9.5641  -9.4800  -9.3856  -9.2763  -8.9889  -8.9687
    -8.9638  -8.7501  -8.7322  -8.7194  -8.2749  -8.1861  -8.1832  -8.1446
    -8.0308  -8.0227  -7.9865  -7.9701  -7.8835  -7.8634  -7.8440  -7.8239
     1.1808   1.1815   1.2218   1.2220   1.5244   1.5374   1.5968   1.6301
     2.1343   2.2156   2.2667   2.3460   2.5419   2.5857   2.7386   2.7594
     2.7723   2.7824   3.3896   3.4018   3.5515   3.5805   4.0070   4.2164
     4.2279   4.3290   4.3981   4.5854   4.6478   4.6827   4.7654   4.7878
     5.0136   5.0561   5.1996   5.3021   5.3204   5.4001   5.5067   5.5760
     5.6222   5.6499   5.6802   5.8957   5.9551   6.0195   6.0426   6.0680
     6.2202   6.3094   6.3298   6.4714   6.6304   6.6607   6.7550   6.7829
     6.8386   6.8476   6.8711   6.8814   6.8894   6.9425   7.0557   7.0735
     7.1170   7.1623   7.8333   7.8548   7.9503   7.9718   8.1675   8.1818
     9.5844   9.5922  10.3955  10.4662  10.7298  10.8036  11.7804  11.8304
    12.0566  12.0677  12.2825  12.3048  12.7133  12.7154  12.7169  12.8235
    13.1798  13.2595  13.2658  13.3114  13.6462  13.6856  13.7457  13.7553
    14.3300  14.4171  14.6659  14.7742  15.1156  15.1317  15.5997  15.6221
    15.6828  17.0291  17.0323  17.2330  17.3753

          k = 0.1667 0.3282 0.1671 ( 62862 PWs)   bands (ev):

   -66.2603 -66.2600 -66.2597 -66.2597 -66.2594 -66.2594 -66.2592 -66.2589
   -30.6354 -30.6319 -30.6310 -30.6270 -30.6053 -30.6034 -30.6016 -30.6013
   -30.5903 -30.5901 -30.5783 -30.5716 -30.5700 -30.5686 -30.5539 -30.5482
   -30.5467 -30.5430 -30.5370 -30.5279 -30.5266 -30.5219 -30.5212 -30.5158
   -20.4265 -20.4265 -20.4262 -20.4261 -20.4256 -20.4255 -20.4252 -20.4252
   -20.4151 -20.4150 -20.4147 -20.4146 -20.4138 -20.4138 -20.4135 -20.4134
   -20.4015 -20.4014 -20.4005 -20.4005 -20.4002 -20.4001 -20.3992 -20.3990
   -20.3990 -20.3989 -20.3987 -20.3986 -20.3958 -20.3955 -20.3953 -20.3950
   -20.3871 -20.3871 -20.3870 -20.3870 -20.3855 -20.3854 -20.3847 -20.3846
   -20.3840 -20.3839 -20.3832 -20.3832 -20.3823 -20.3822 -20.3821 -20.3820
   -20.3735 -20.3735 -20.3733 -20.3733 -20.3726 -20.3725 -20.3725 -20.3724
    -9.8610  -9.6511  -9.4995  -9.4914  -9.3052  -9.2866  -8.9789  -8.9538
    -8.9387  -8.7373  -8.7318  -8.7133  -8.2927  -8.1970  -8.1848  -8.1479
    -8.0341  -8.0282  -7.9941  -7.9850  -7.9735  -7.9591  -7.9473  -7.9231
     1.3653   1.3681   1.4559   1.4624   1.5267   1.5409   1.6493   1.6923
     2.1400   2.2146   2.2611   2.3429   2.6222   2.6551   2.7649   2.7810
     2.8234   2.8552   3.4140   3.4354   3.5570   3.5724   3.9962   4.2555
     4.2867   4.3169   4.3407   4.3817   4.4095   4.6644   4.7003   4.7746
     4.8047   4.8155   5.1621   5.2190   5.2663   5.3192   5.3519   5.3744
     5.5209   5.5403   5.6348   5.6782   5.7428   5.7810   6.0407   6.0544
     6.3965   6.4567   6.5113   6.5986   6.6158   6.6469   6.7129   6.7803
     6.8200   6.8387   6.9197   6.9246   6.9501   6.9922   7.0582   7.0759
     7.1411   7.1718   7.8369   7.8481   7.9203   7.9385   8.1101   8.1255
     9.8356   9.8447  10.5784  10.6378  10.7475  10.7990  11.8670  11.9144
    12.0600  12.0694  12.3370  12.3568  12.5111  12.5163  12.7488  12.8257
    13.0241  13.0557  13.2611  13.3125  13.4921  13.5345  13.5901  13.6134
    14.6534  14.6701  14.8291  14.9957  15.1347  15.5284  15.5951  15.7066
    15.8135  16.9955  17.1141  17.2734  17.3131

          k = 0.1667 0.3282 0.3341 ( 62848 PWs)   bands (ev):

   -66.2601 -66.2598 -66.2598 -66.2596 -66.2595 -66.2593 -66.2593 -66.2590
   -30.6344 -30.6321 -30.6304 -30.6279 -30.5968 -30.5936 -30.5910 -30.5903
   -30.5880 -30.5840 -30.5804 -30.5708 -30.5694 -30.5651 -30.5587 -30.5566
   -30.5534 -30.5447 -30.5389 -30.5355 -30.5315 -30.5281 -30.5266 -30.5207
   -20.4263 -20.4263 -20.4260 -20.4260 -20.4258 -20.4258 -20.4255 -20.4254
   -20.4150 -20.4149 -20.4148 -20.4147 -20.4138 -20.4137 -20.4136 -20.4135
   -20.4012 -20.4011 -20.4005 -20.4003 -20.4002 -20.4001 -20.3993 -20.3993
   -20.3991 -20.3989 -20.3988 -20.3987 -20.3957 -20.3954 -20.3954 -20.3951
   -20.3872 -20.3872 -20.3871 -20.3871 -20.3853 -20.3852 -20.3844 -20.3843
   -20.3842 -20.3840 -20.3830 -20.3829 -20.3828 -20.3826 -20.3824 -20.3823
   -20.3733 -20.3733 -20.3732 -20.3731 -20.3728 -20.3727 -20.3727 -20.3726
    -9.7463  -9.5401  -9.5229  -9.3246  -9.3219  -9.0760  -9.0230  -8.8598
    -8.8304  -8.7457  -8.6821  -8.6700  -8.4244  -8.3258  -8.2594  -8.2323
    -8.1820  -8.1566  -8.1185  -8.0913  -8.0187  -8.0021  -7.9924  -7.9802
     1.5009   1.5119   1.5238   1.5369   2.0029   2.0586   2.1109   2.1549
     2.2081   2.2482   2.3040   2.4220   2.7212   2.7681   2.8524   2.9427
     3.0159   3.0380   3.4100   3.4442   3.5512   3.5768   3.8475   3.8569
     3.9862   4.1987   4.2367   4.2701   4.3269   4.4337   4.4624   4.6466
     4.6873   4.7245   4.7691   4.8190   4.8873   4.9380   5.0830   5.1435
     5.2524   5.3337   5.3927   5.5462   5.5968   5.6976   5.8038   5.8131
     6.4743   6.5579   6.5862   6.6344   6.7195   6.7753   6.7820   6.8094
     6.8799   6.9900   7.0185   7.0679   7.0781   7.1168   7.1820   7.2173
     7.2714   7.2860   7.8073   7.8153   7.8261   7.8500   7.9294   7.9628
    10.4445  10.4665  10.7562  10.7837  11.0942  11.1382  11.9465  11.9620
    12.0479  12.0923  12.1592  12.1836  12.4924  12.5030  12.5271  12.5610
    12.7915  12.8218  13.0826  13.1232  13.2238  13.2472  13.2948  13.3450
    14.9284  15.0521  15.1420  15.4197  15.5571  15.8290  16.0082  16.2728
    16.5384  16.7221  16.8769  17.3782  17.4133

          k = 0.1667 0.3282-0.5012 ( 62838 PWs)   bands (ev):

   -66.2600 -66.2600 -66.2597 -66.2597 -66.2595 -66.2595 -66.2592 -66.2592
   -30.6332 -30.6332 -30.6291 -30.6291 -30.5929 -30.5929 -30.5854 -30.5854
   -30.5738 -30.5738 -30.5708 -30.5708 -30.5700 -30.5700 -30.5680 -30.5680
   -30.5540 -30.5540 -30.5403 -30.5403 -30.5328 -30.5328 -30.5244 -30.5244
   -20.4261 -20.4261 -20.4261 -20.4260 -20.4257 -20.4257 -20.4257 -20.4257
   -20.4149 -20.4149 -20.4148 -20.4148 -20.4137 -20.4137 -20.4136 -20.4136
   -20.4008 -20.4008 -20.4007 -20.4007 -20.3998 -20.3998 -20.3997 -20.3997
   -20.3990 -20.3990 -20.3988 -20.3988 -20.3956 -20.3955 -20.3952 -20.3952
   -20.3872 -20.3872 -20.3872 -20.3872 -20.3849 -20.3849 -20.3848 -20.3847
   -20.3835 -20.3834 -20.3833 -20.3833 -20.3826 -20.3826 -20.3826 -20.3826
   -20.3731 -20.3730 -20.3730 -20.3730 -20.3729 -20.3729 -20.3729 -20.3728
    -9.6246  -9.6246  -9.3991  -9.3991  -9.1341  -9.1341  -8.7733  -8.7733
    -8.7454  -8.7454  -8.6098  -8.6097  -8.5367  -8.5367  -8.5088  -8.5088
    -8.1749  -8.1748  -8.1334  -8.1334  -8.0080  -8.0080  -7.9904  -7.9904
     1.5166   1.5166   1.5322   1.5322   2.1349   2.1349   2.2335   2.2335
     2.6999   2.6999   2.8739   2.8739   2.9230   2.9230   2.9504   2.9504
     3.0219   3.0219   3.3202   3.3202   3.4407   3.4407   3.5900   3.5900
     3.9946   3.9946   4.0318   4.0318   4.0521   4.0521   4.2733   4.2733
     4.7002   4.7002   4.8453   4.8453   4.8959   4.8959   4.9416   4.9416
     5.0482   5.0482   5.4641   5.4641   5.6175   5.6175   5.7109   5.7109
     6.5756   6.5756   6.6171   6.6171   6.6875   6.6876   6.7998   6.7998
     6.9848   6.9848   7.0538   7.0538   7.1495   7.1495   7.5596   7.5596
     7.5829   7.5829   7.6067   7.6067   7.6249   7.6249   7.8665   7.8665
    10.7499  10.7499  11.2264  11.2264  11.2475  11.2475  11.7853  11.7853
    11.8033  11.8033  12.1005  12.1005  12.5652  12.5652  12.6121  12.6121
    12.7715  12.7715  12.8377  12.8377  12.9038  12.9038  13.3185  13.3185
    15.0173  15.0173  15.3862  15.3862  16.1579  16.1579  16.5285  16.5285
    16.7131  16.7132  16.8857  16.8857  17.6278

          k = 0.1667-0.4923 0.0000 ( 62856 PWs)   bands (ev):

   -66.2602 -66.2601 -66.2596 -66.2596 -66.2595 -66.2595 -66.2590 -66.2590
   -30.6338 -30.6338 -30.6285 -30.6285 -30.6082 -30.6082 -30.6055 -30.6055
   -30.5801 -30.5800 -30.5767 -30.5767 -30.5611 -30.5611 -30.5552 -30.5552
   -30.5476 -30.5476 -30.5398 -30.5398 -30.5214 -30.5214 -30.5161 -30.5161
   -20.4266 -20.4266 -20.4262 -20.4262 -20.4255 -20.4255 -20.4251 -20.4251
   -20.4151 -20.4151 -20.4146 -20.4146 -20.4138 -20.4138 -20.4134 -20.4134
   -20.4016 -20.4016 -20.4006 -20.4006 -20.4001 -20.4000 -20.3991 -20.3991
   -20.3989 -20.3989 -20.3986 -20.3986 -20.3957 -20.3957 -20.3951 -20.3951
   -20.3859 -20.3859 -20.3858 -20.3858 -20.3854 -20.3854 -20.3854 -20.3853
   -20.3847 -20.3846 -20.3846 -20.3846 -20.3822 -20.3821 -20.3820 -20.3820
   -20.3736 -20.3736 -20.3734 -20.3734 -20.3725 -20.3724 -20.3724 -20.3724
    -9.7926  -9.7925  -9.4558  -9.4558  -9.3554  -9.3554  -8.9777  -8.9777
    -8.6244  -8.6244  -8.5042  -8.5042  -8.4950  -8.4950  -8.4681  -8.4681
    -8.0348  -8.0347  -7.9875  -7.9875  -7.8750  -7.8750  -7.8357  -7.8357
     1.1811   1.1811   1.2227   1.2227   1.5342   1.5342   1.6222   1.6222
     2.5628   2.5628   2.8502   2.8502   2.9258   2.9258   2.9352   2.9353
     3.0774   3.0774   3.1868   3.1868   3.4031   3.4031   3.4511   3.4511
     3.5904   3.5905   4.2352   4.2352   4.6222   4.6222   4.9720   4.9721
     5.0485   5.0485   5.2430   5.2430   5.3426   5.3426   5.3869   5.3869
     5.5410   5.5410   5.7045   5.7045   5.9304   5.9304   6.0679   6.0679
     6.3328   6.3328   6.3905   6.3905   6.6114   6.6114   6.7633   6.7633
     6.8419   6.8419   6.8773   6.8773   6.9556   6.9556   7.5017   7.5017
     7.5129   7.5129   7.5443   7.5444   7.5681   7.5682   8.1744   8.1744
     9.5924   9.5924  11.1083  11.1083  11.1442  11.1442  11.4017  11.4017
    11.4716  11.4716  12.2912  12.2912  12.7158  12.7158  12.9342  12.9342
    13.0621  13.0621  13.4138  13.4138  13.4567  13.4567  13.7341  13.7341
    14.4076  14.4076  14.9679  14.9679  15.1476  15.1476  15.4148  15.4148
    16.4340  16.4340  17.5635  17.5635  17.7191

          k = 0.1667-0.4923 0.1671 ( 62922 PWs)   bands (ev):

   -66.2601 -66.2601 -66.2596 -66.2596 -66.2596 -66.2596 -66.2591 -66.2590
   -30.6333 -30.6333 -30.6288 -30.6288 -30.6037 -30.6037 -30.6008 -30.6008
   -30.5797 -30.5797 -30.5770 -30.5770 -30.5622 -30.5622 -30.5545 -30.5545
   -30.5494 -30.5494 -30.5393 -30.5393 -30.5257 -30.5256 -30.5198 -30.5198
   -20.4265 -20.4265 -20.4262 -20.4262 -20.4256 -20.4255 -20.4252 -20.4252
   -20.4151 -20.4151 -20.4146 -20.4146 -20.4138 -20.4138 -20.4135 -20.4135
   -20.4015 -20.4014 -20.4005 -20.4005 -20.4001 -20.4001 -20.3991 -20.3991
   -20.3990 -20.3990 -20.3987 -20.3987 -20.3956 -20.3956 -20.3952 -20.3952
   -20.3859 -20.3859 -20.3858 -20.3858 -20.3855 -20.3855 -20.3854 -20.3854
   -20.3844 -20.3844 -20.3844 -20.3843 -20.3823 -20.3823 -20.3821 -20.3821
   -20.3735 -20.3735 -20.3733 -20.3733 -20.3725 -20.3725 -20.3724 -20.3724
    -9.7417  -9.7417  -9.3807  -9.3797  -9.3670  -9.3661  -8.9470  -8.9469
    -8.6380  -8.6378  -8.5033  -8.5028  -8.4961  -8.4957  -8.4658  -8.4655
    -8.0377  -8.0370  -7.9976  -7.9940  -7.9789  -7.9725  -7.9413  -7.9379
     1.3663   1.3669   1.4612   1.4623   1.5368   1.5369   1.6830   1.6830
     2.6391   2.6456   2.8533   2.8714   2.9183   2.9293   2.9523   2.9542
     3.1141   3.1277   3.1695   3.1871   3.4311   3.4393   3.4476   3.4581
     3.6039   3.6079   4.2914   4.2972   4.3517   4.3548   4.9175   4.9709
     4.9935   5.0172   5.0494   5.0831   5.1064   5.1100   5.3559   5.3616
[...]
    11.9044  11.9044  11.9044  11.9044  11.9997  11.9997  11.9997  11.9997
    12.9411  12.9411  12.9411  12.9411  13.0701  13.0701  13.0702  13.0702
    15.4315  15.4315  15.4315  15.4315  16.4944  16.4944  16.4944  16.4944
    17.2934  17.2940  17.2945  17.2948  17.3484

          k =-0.5000 0.3282 0.0000 ( 62842 PWs)   bands (ev):

   -66.2600 -66.2600 -66.2597 -66.2597 -66.2594 -66.2594 -66.2591 -66.2591
   -30.6104 -30.6104 -30.6097 -30.6097 -30.6072 -30.6072 -30.6053 -30.6053
   -30.5978 -30.5978 -30.5967 -30.5967 -30.5700 -30.5700 -30.5633 -30.5633
   -30.5436 -30.5436 -30.5341 -30.5341 -30.5198 -30.5198 -30.5165 -30.5165
   -20.4264 -20.4264 -20.4264 -20.4264 -20.4253 -20.4253 -20.4253 -20.4253
   -20.4145 -20.4145 -20.4144 -20.4144 -20.4141 -20.4141 -20.4140 -20.4140
   -20.4011 -20.4011 -20.4011 -20.4011 -20.3995 -20.3995 -20.3995 -20.3995
   -20.3976 -20.3976 -20.3973 -20.3973 -20.3972 -20.3972 -20.3969 -20.3969
   -20.3870 -20.3870 -20.3869 -20.3869 -20.3855 -20.3855 -20.3849 -20.3849
   -20.3837 -20.3837 -20.3833 -20.3833 -20.3820 -20.3820 -20.3820 -20.3820
   -20.3735 -20.3735 -20.3735 -20.3735 -20.3725 -20.3725 -20.3723 -20.3723
    -9.6903  -9.6903  -9.4887  -9.4887  -9.1267  -9.1267  -8.8044  -8.8044
    -8.7276  -8.7276  -8.6262  -8.6262  -8.5526  -8.5526  -8.5200  -8.5200
    -8.1689  -8.1689  -8.1234  -8.1234  -7.8650  -7.8650  -7.8441  -7.8441
     1.2155   1.2155   1.2205   1.2205   2.1323   2.1323   2.2430   2.2430
     2.7319   2.7319   2.8333   2.8333   2.9186   2.9186   2.9984   2.9984
     3.0352   3.0352   3.2663   3.2663   3.3087   3.3087   3.4553   3.4553
     3.9482   3.9482   3.9736   3.9736   4.1459   4.1459   4.3442   4.3442
     4.8275   4.8275   4.9357   4.9357   4.9925   4.9925   5.1344   5.1344
     5.2592   5.2592   5.7768   5.7768   6.0024   6.0024   6.0665   6.0665
     6.3702   6.3702   6.4357   6.4357   6.4951   6.4951   6.7427   6.7427
     6.9307   6.9307   7.0075   7.0075   7.0868   7.0868   7.5520   7.5520
     7.5672   7.5672   7.6042   7.6042   7.6146   7.6146   7.9767   7.9767
    10.4023  10.4023  11.0356  11.0356  11.0687  11.0687  11.7250  11.7250
    11.7949  11.7949  11.9090  11.9090  12.6405  12.6405  12.6970  12.6970
    13.0785  13.0785  13.1290  13.1290  13.2739  13.2739  13.7108  13.7108
    14.5620  14.5620  14.9419  14.9419  16.0774  16.0774  16.4351  16.4351
    16.5363  16.5363  16.8559  16.8559  17.6542

          k =-0.5000 0.3282 0.1671 ( 62842 PWs)   bands (ev):

   -66.2600 -66.2600 -66.2597 -66.2597 -66.2595 -66.2595 -66.2592 -66.2592
   -30.6092 -30.6092 -30.6072 -30.6072 -30.6051 -30.6051 -30.6031 -30.6031
   -30.5970 -30.5970 -30.5962 -30.5962 -30.5708 -30.5708 -30.5623 -30.5623
   -30.5462 -30.5462 -30.5336 -30.5336 -30.5244 -30.5244 -30.5195 -30.5195
   -20.4264 -20.4264 -20.4263 -20.4263 -20.4254 -20.4254 -20.4254 -20.4254
   -20.4145 -20.4145 -20.4144 -20.4144 -20.4141 -20.4141 -20.4140 -20.4140
   -20.4010 -20.4010 -20.4009 -20.4009 -20.3996 -20.3996 -20.3995 -20.3995
   -20.3975 -20.3975 -20.3973 -20.3973 -20.3972 -20.3972 -20.3969 -20.3969
   -20.3871 -20.3871 -20.3870 -20.3870 -20.3855 -20.3855 -20.3847 -20.3847
   -20.3839 -20.3839 -20.3832 -20.3832 -20.3822 -20.3822 -20.3821 -20.3821
   -20.3734 -20.3734 -20.3734 -20.3734 -20.3725 -20.3725 -20.3724 -20.3724
    -9.6295  -9.6295  -9.4142  -9.4142  -9.1417  -9.1416  -8.7856  -8.7856
    -8.7375  -8.7375  -8.6173  -8.6173  -8.5504  -8.5503  -8.5222  -8.5222
    -8.1759  -8.1759  -8.1272  -8.1272  -7.9730  -7.9730  -7.9436  -7.9436
     1.4546   1.4546   1.4648   1.4648   2.1383   2.1383   2.2322   2.2322
     2.7916   2.7916   2.8464   2.8464   2.9075   2.9075   2.9985   2.9985
     3.0371   3.0371   3.3422   3.3422   3.3883   3.3883   3.4995   3.4995
     3.9427   3.9427   3.9799   3.9799   4.1368   4.1369   4.3470   4.3470
     4.7209   4.7209   4.7972   4.7972   4.8979   4.8979   4.9478   4.9478
     5.0183   5.0183   5.4922   5.4922   5.6374   5.6374   5.7927   5.7927
     6.5986   6.5986   6.6883   6.6883   6.7296   6.7296   6.8195   6.8195
     6.9369   6.9369   7.0106   7.0106   7.1223   7.1223   7.5383   7.5383
     7.5627   7.5627   7.6026   7.6026   7.6091   7.6091   7.9448   7.9448
    10.5838  10.5838  11.1314  11.1314  11.1641  11.1641  11.7462  11.7462
    11.8134  11.8134  11.9625  11.9625  12.6379  12.6379  12.6960  12.6960
    12.9137  12.9137  12.9532  12.9532  13.0810  13.0810  13.5462  13.5462
    14.9171  14.9171  15.3352  15.3352  16.1734  16.1734  16.4411  16.4411
    16.5633  16.5633  16.9065  16.9065  17.5491

          k =-0.5000 0.3282 0.3341 ( 62824 PWs)   bands (ev):

   -66.2599 -66.2599 -66.2596 -66.2596 -66.2596 -66.2596 -66.2593 -66.2593
   -30.6084 -30.6084 -30.6066 -30.6066 -30.6010 -30.6010 -30.5983 -30.5983
   -30.5917 -30.5917 -30.5876 -30.5876 -30.5737 -30.5737 -30.5587 -30.5587
   -30.5552 -30.5551 -30.5365 -30.5364 -30.5322 -30.5322 -30.5253 -30.5253
   -20.4262 -20.4262 -20.4262 -20.4261 -20.4256 -20.4256 -20.4256 -20.4256
   -20.4144 -20.4144 -20.4143 -20.4143 -20.4141 -20.4141 -20.4141 -20.4141
   -20.4007 -20.4007 -20.4006 -20.4006 -20.3999 -20.3999 -20.3998 -20.3998
   -20.3975 -20.3975 -20.3973 -20.3973 -20.3972 -20.3972 -20.3970 -20.3970
   -20.3871 -20.3871 -20.3871 -20.3871 -20.3852 -20.3852 -20.3843 -20.3843
   -20.3841 -20.3841 -20.3829 -20.3829 -20.3827 -20.3827 -20.3823 -20.3823
   -20.3732 -20.3732 -20.3732 -20.3732 -20.3727 -20.3727 -20.3726 -20.3726
    -9.4748  -9.4748  -9.2144  -9.2144  -9.1909  -9.1909  -8.8047  -8.8047
    -8.6933  -8.6933  -8.5845  -8.5845  -8.5438  -8.5438  -8.5275  -8.5275
    -8.2800  -8.2800  -8.2338  -8.2338  -8.1321  -8.1321  -8.0935  -8.0935
     2.0061   2.0061   2.1076   2.1076   2.1584   2.1584   2.2841   2.2841
     2.8261   2.8261   2.8653   2.8653   2.9821   2.9821   3.0004   3.0005
     3.0640   3.0640   3.4284   3.4284   3.6057   3.6057   3.6584   3.6584
     3.9155   3.9156   4.0051   4.0051   4.1017   4.1017   4.2447   4.2447
     4.2935   4.2935   4.4616   4.4616   4.5736   4.5736   4.8035   4.8035
     4.8294   4.8294   4.8722   4.8722   5.0246   5.0246   5.3228   5.3228
     6.8316   6.8316   6.9024   6.9024   6.9224   6.9224   7.0067   7.0067
     7.0888   7.0888   7.1545   7.1546   7.2610   7.2610   7.4877   7.4878
     7.5361   7.5361   7.5827   7.5827   7.6209   7.6209   7.8426   7.8426
    11.0756  11.0756  11.4187  11.4187  11.4573  11.4573  11.7662  11.7662
    11.8428  11.8428  12.1837  12.1837  12.4309  12.4309  12.4839  12.4839
    12.5602  12.5602  12.7050  12.7050  12.7137  12.7137  13.1304  13.1304
    15.7126  15.7126  16.2495  16.2495  16.4113  16.4113  16.4731  16.4731
    16.7194  16.7194  17.0317  17.0317  17.1943

          k =-0.5000 0.3282-0.5012 ( 62792 PWs)   bands (ev):

   -66.2597 -66.2597 -66.2597 -66.2597 -66.2594 -66.2594 -66.2594 -66.2594
   -30.6074 -30.6074 -30.6074 -30.6074 -30.5992 -30.5992 -30.5992 -30.5992
   -30.5804 -30.5804 -30.5804 -30.5804 -30.5710 -30.5710 -30.5710 -30.5710
   -30.5500 -30.5500 -30.5500 -30.5500 -30.5297 -30.5297 -30.5296 -30.5296
   -20.4260 -20.4259 -20.4259 -20.4259 -20.4259 -20.4258 -20.4258 -20.4258
   -20.4143 -20.4143 -20.4143 -20.4143 -20.4142 -20.4142 -20.4141 -20.4141
   -20.4003 -20.4003 -20.4003 -20.4003 -20.4002 -20.4002 -20.4002 -20.4002
   -20.3974 -20.3974 -20.3974 -20.3974 -20.3971 -20.3971 -20.3971 -20.3971
   -20.3871 -20.3871 -20.3871 -20.3871 -20.3848 -20.3848 -20.3848 -20.3848
   -20.3834 -20.3834 -20.3834 -20.3834 -20.3826 -20.3826 -20.3826 -20.3826
   -20.3730 -20.3730 -20.3730 -20.3730 -20.3729 -20.3729 -20.3729 -20.3729
    -9.3056  -9.3056  -9.3056  -9.3056  -8.9601  -8.9601  -8.9601  -8.9601
    -8.5537  -8.5537  -8.5537  -8.5537  -8.5022  -8.5022  -8.5022  -8.5022
    -8.4785  -8.4785  -8.4785  -8.4785  -8.1241  -8.1241  -8.1241  -8.1241
     2.1419   2.1419   2.1419   2.1419   2.7387   2.7387   2.7387   2.7387
     2.8668   2.8668   2.8668   2.8668   2.9519   2.9519   2.9519   2.9519
     3.1408   3.1408   3.1408   3.1408   3.8406   3.8406   3.8406   3.8407
     3.9323   3.9323   3.9323   3.9323   4.0712   4.0712   4.0712   4.0712
     4.1560   4.1560   4.1560   4.1560   4.3348   4.3348   4.3349   4.3349
     4.6948   4.6948   4.6948   4.6948   5.0650   5.0650   5.0650   5.0650
     6.9080   6.9080   6.9080   6.9081   6.9796   6.9796   6.9796   6.9797
     7.3056   7.3056   7.3056   7.3056   7.4396   7.4396   7.4396   7.4396
     7.5149   7.5150   7.5150   7.5150   7.6867   7.6867   7.6867   7.6867
    11.6395  11.6395  11.6395  11.6395  11.8454  11.8454  11.8454  11.8454
    11.9293  11.9293  11.9293  11.9293  12.0353  12.0353  12.0353  12.0353
    12.5929  12.5929  12.5929  12.5929  12.7299  12.7299  12.7300  12.7300
    16.2642  16.2642  16.2642  16.2642  16.7297  16.7297  16.7297  16.7297
    17.1729  17.1729  17.1729  17.1729  17.3477

          k =-0.5000-0.4923 0.0000 ( 62848 PWs)   bands (ev):

   -66.2599 -66.2599 -66.2599 -66.2599 -66.2593 -66.2593 -66.2593 -66.2593
   -30.6097 -30.6097 -30.6096 -30.6096 -30.6024 -30.6024 -30.6011 -30.6011
   -30.6006 -30.6006 -30.5988 -30.5988 -30.5578 -30.5578 -30.5562 -30.5562
   -30.5510 -30.5510 -30.5490 -30.5490 -30.5193 -30.5193 -30.5190 -30.5190
   -20.4264 -20.4264 -20.4264 -20.4264 -20.4253 -20.4253 -20.4253 -20.4253
   -20.4145 -20.4145 -20.4145 -20.4145 -20.4140 -20.4140 -20.4140 -20.4140
   -20.4011 -20.4011 -20.4011 -20.4011 -20.3995 -20.3995 -20.3995 -20.3995
   -20.3975 -20.3975 -20.3974 -20.3974 -20.3971 -20.3971 -20.3970 -20.3970
   -20.3858 -20.3858 -20.3857 -20.3857 -20.3853 -20.3853 -20.3853 -20.3853
   -20.3847 -20.3847 -20.3845 -20.3845 -20.3821 -20.3821 -20.3820 -20.3820
   -20.3735 -20.3735 -20.3735 -20.3735 -20.3724 -20.3724 -20.3724 -20.3724
    -9.5777  -9.5777  -9.5655  -9.5655  -8.9070  -8.9070  -8.8519  -8.8519
    -8.6970  -8.6970  -8.6544  -8.6544  -8.4599  -8.4599  -8.4316  -8.4315
    -8.3906  -8.3906  -8.3681  -8.3681  -7.8566  -7.8566  -7.8560  -7.8560
     1.2163   1.2163   1.2211   1.2211   2.7697   2.7698   2.8152   2.8152
     2.8328   2.8328   2.8483   2.8483   3.0064   3.0064   3.1133   3.1133
     3.1135   3.1135   3.2459   3.2459   3.2792   3.2792   3.3395   3.3395
     3.3693   3.3693   3.6350   3.6350   4.2404   4.2404   4.3193   4.3193
     4.3482   4.3483   4.4041   4.4041   5.0689   5.0689   5.1173   5.1173
     5.3871   5.3871   5.5420   5.5420   6.0123   6.0123   6.0261   6.0261
     6.4370   6.4370   6.4661   6.4661   6.5560   6.5560   6.5973   6.5973
     7.1675   7.1675   7.2146   7.2147   7.4230   7.4230   7.4271   7.4271
     7.5141   7.5141   7.5502   7.5502   7.6607   7.6607   7.6980   7.6980
    10.9210  10.9210  11.0254  11.0254  11.1441  11.1441  11.2705  11.2705
    12.0215  12.0215  12.1664  12.1664  12.2918  12.2918  12.3472  12.3472
    13.0776  13.0776  13.1312  13.1312  13.4538  13.4538  13.4654  13.4654
    14.7970  14.7970  14.8260  14.8260  16.3292  16.3292  16.5200  16.5200
    17.1851  17.1851  17.2261  17.2262  17.3258

          k =-0.5000-0.4923 0.1671 ( 62824 PWs)   bands (ev):

   -66.2598 -66.2598 -66.2598 -66.2598 -66.2593 -66.2593 -66.2593 -66.2593
   -30.6069 -30.6069 -30.6064 -30.6064 -30.6011 -30.6011 -30.6003 -30.6003
   -30.5996 -30.5996 -30.5986 -30.5986 -30.5591 -30.5591 -30.5575 -30.5575
   -30.5503 -30.5503 -30.5484 -30.5484 -30.5235 -30.5235 -30.5231 -30.5231
   -20.4263 -20.4263 -20.4263 -20.4263 -20.4254 -20.4254 -20.4254 -20.4254
   -20.4144 -20.4144 -20.4144 -20.4144 -20.4141 -20.4141 -20.4140 -20.4140
   -20.4010 -20.4010 -20.4010 -20.4010 -20.3996 -20.3996 -20.3996 -20.3996
   -20.3975 -20.3975 -20.3973 -20.3973 -20.3971 -20.3971 -20.3970 -20.3970
   -20.3859 -20.3859 -20.3858 -20.3858 -20.3854 -20.3854 -20.3854 -20.3853
   -20.3844 -20.3844 -20.3843 -20.3843 -20.3822 -20.3822 -20.3822 -20.3822
   -20.3734 -20.3734 -20.3734 -20.3734 -20.3725 -20.3725 -20.3725 -20.3725
    -9.5088  -9.5088  -9.4951  -9.4951  -8.9223  -8.9223  -8.8686  -8.8685
    -8.6828  -8.6827  -8.6416  -8.6416  -8.4582  -8.4582  -8.4338  -8.4337
    -8.3885  -8.3885  -8.3711  -8.3711  -7.9634  -7.9634  -7.9624  -7.9624
     1.4592   1.4592   1.4649   1.4649   2.7777   2.7777   2.8161   2.8161
     2.8351   2.8351   2.8448   2.8448   3.0113   3.0113   3.0897   3.0897
     3.1802   3.1802   3.2849   3.2849   3.3198   3.3198   3.3782   3.3782
     3.4306   3.4306   3.6697   3.6697   4.2434   4.2434   4.3129   4.3129
     4.3518   4.3518   4.3928   4.3928   4.8432   4.8432   4.8721   4.8721
     5.1174   5.1174   5.2499   5.2499   5.6610   5.6610   5.6675   5.6675
     6.6778   6.6778   6.7008   6.7008   6.7524   6.7525   6.8139   6.8139
     7.1652   7.1652   7.2255   7.2256   7.4098   7.4098   7.4316   7.4316
     7.5087   7.5087   7.5513   7.5513   7.6415   7.6415   7.6883   7.6883
    11.0290  11.0290  11.1285  11.1285  11.2522  11.2522  11.3762  11.3762
    12.0334  12.0334  12.1661  12.1661  12.2974  12.2974  12.3420  12.3420
    12.9128  12.9128  12.9546  12.9546  13.2706  13.2706  13.2826  13.2826
    15.1915  15.1915  15.2033  15.2033  16.4126  16.4127  16.5954  16.5954
    17.1708  17.1708  17.2172  17.2173  17.3264

          k =-0.5000-0.4923 0.3341 ( 62820 PWs)   bands (ev):

   -66.2597 -66.2597 -66.2597 -66.2597 -66.2594 -66.2594 -66.2594 -66.2594
   -30.6043 -30.6043 -30.6030 -30.6030 -30.6017 -30.6017 -30.6001 -30.6001
   -30.5897 -30.5897 -30.5891 -30.5891 -30.5639 -30.5639 -30.5627 -30.5627
   -30.5480 -30.5480 -30.5462 -30.5462 -30.5336 -30.5336 -30.5329 -30.5329
   -20.4262 -20.4262 -20.4262 -20.4262 -20.4256 -20.4256 -20.4256 -20.4256
   -20.4144 -20.4144 -20.4143 -20.4143 -20.4141 -20.4141 -20.4141 -20.4141
   -20.4007 -20.4007 -20.4006 -20.4006 -20.3998 -20.3998 -20.3998 -20.3998
   -20.3974 -20.3974 -20.3973 -20.3973 -20.3972 -20.3972 -20.3971 -20.3971
   -20.3859 -20.3859 -20.3858 -20.3858 -20.3856 -20.3856 -20.3855 -20.3855
   -20.3839 -20.3839 -20.3838 -20.3838 -20.3827 -20.3827 -20.3826 -20.3826
   -20.3732 -20.3732 -20.3732 -20.3732 -20.3727 -20.3727 -20.3727 -20.3727
    -9.3269  -9.3269  -9.3068  -9.3068  -8.9798  -8.9798  -8.9318  -8.9318
    -8.6292  -8.6292  -8.5944  -8.5944  -8.4557  -8.4556  -8.4386  -8.4386
    -8.3888  -8.3888  -8.3777  -8.3777  -8.2123  -8.2123  -8.2097  -8.2097
     2.0893   2.0893   2.1025   2.1025   2.7815   2.7815   2.8178   2.8178
     2.8389   2.8389   2.8474   2.8474   3.0420   3.0420   3.0872   3.0872
     3.2219   3.2219   3.3194   3.3194   3.4183   3.4183   3.4417   3.4417
     3.6700   3.6700   3.8096   3.8096   4.2394   4.2394   4.2904   4.2904
     4.3122   4.3122   4.3537   4.3537   4.4484   4.4484   4.4716   4.4716
     4.6334   4.6335   4.7751   4.7751   4.9164   4.9164   4.9340   4.9340
     6.9860   6.9860   7.0228   7.0228   7.0431   7.0431   7.1144   7.1144
     7.1861   7.1861   7.2694   7.2694   7.3696   7.3696   7.4521   7.4521
     7.4857   7.4857   7.5511   7.5511   7.6023   7.6023   7.6524   7.6524
    11.3506  11.3506  11.4241  11.4241  11.5869  11.5869  11.6928  11.6928
    12.0373  12.0373  12.1687  12.1687  12.2846  12.2846  12.3236  12.3236
    12.5041  12.5041  12.5366  12.5366  12.7999  12.7999  12.8142  12.8142
    16.0873  16.0873  16.1430  16.1431  16.6573  16.6573  16.8068  16.8069
    17.0965  17.0965  17.1247  17.1247  17.3628

          k =-0.5000-0.4923-0.5012 ( 62760 PWs)   bands (ev):

   -66.2596 -66.2596 -66.2596 -66.2596 -66.2596 -66.2596 -66.2596 -66.2596
   -30.6030 -30.6030 -30.6030 -30.6030 -30.6013 -30.6012 -30.6012 -30.6012
   -30.5748 -30.5748 -30.5748 -30.5748 -30.5741 -30.5741 -30.5741 -30.5741
   -30.5430 -30.5430 -30.5430 -30.5430 -30.5416 -30.5416 -30.5416 -30.5415
   -20.4259 -20.4259 -20.4259 -20.4259 -20.4259 -20.4258 -20.4258 -20.4258
   -20.4143 -20.4143 -20.4143 -20.4143 -20.4142 -20.4142 -20.4142 -20.4142
   -20.4003 -20.4002 -20.4002 -20.4002 -20.4002 -20.4002 -20.4002 -20.4002
   -20.3973 -20.3973 -20.3973 -20.3973 -20.3972 -20.3972 -20.3972 -20.3972
   -20.3858 -20.3858 -20.3858 -20.3858 -20.3856 -20.3856 -20.3856 -20.3856
   -20.3833 -20.3833 -20.3833 -20.3833 -20.3832 -20.3831 -20.3831 -20.3831
   -20.3730 -20.3729 -20.3729 -20.3729 -20.3729 -20.3729 -20.3729 -20.3729
    -9.1163  -9.1163  -9.1163  -9.1162  -9.0812  -9.0812  -9.0812  -9.0812
    -8.5079  -8.5079  -8.5078  -8.5078  -8.4872  -8.4872  -8.4872  -8.4872
    -8.4110  -8.4110  -8.4109  -8.4109  -8.3599  -8.3599  -8.3599  -8.3599
     2.6509   2.6509   2.6509   2.6509   2.7735   2.7735   2.7735   2.7735
     2.8970   2.8970   2.8971   2.8971   3.0827   3.0827   3.0827   3.0827
     3.1957   3.1957   3.1957   3.1957   3.3548   3.3548   3.3548   3.3548
     4.0589   4.0589   4.0589   4.0589   4.1350   4.1350   4.1350   4.1350
     4.2420   4.2420   4.2420   4.2420   4.3030   4.3030   4.3030   4.3030
     4.4290   4.4290   4.4290   4.4290   4.5215   4.5215   4.5215   4.5215
     7.0961   7.0961   7.0961   7.0961   7.2095   7.2095   7.2095   7.2095
     7.2936   7.2936   7.2936   7.2936   7.3856   7.3856   7.3856   7.3856
     7.5154   7.5154   7.5154   7.5154   7.6006   7.6006   7.6007   7.6007
    11.7704  11.7704  11.7704  11.7704  11.9007  11.9007  11.9008  11.9008
    12.0952  12.0952  12.0952  12.0952  12.1871  12.1871  12.1871  12.1871
    12.2904  12.2904  12.2904  12.2904  12.3926  12.3926  12.3926  12.3926
    16.7387  16.7387  16.7387  16.7387  16.9143  16.9143  16.9143  16.9143
    17.3129  17.3129  17.3131  17.3132  17.3762

     the Fermi energy is     9.5762 ev

!    total energy              =   -6260.87814600 Ry
     Harris-Foulkes estimate   =   -6260.87814601 Ry
     estimated scf accuracy    <          3.3E-09 Ry

     The total energy is the sum of the following terms:

     one-electron contribution =   -4758.37272123 Ry
     hartree contribution      =    2614.90089359 Ry
     xc contribution           =    -965.92933641 Ry
     ewald contribution        =   -3151.47696201 Ry
     smearing contrib. (-TS)   =      -0.00001995 Ry

     convergence has been achieved in  13 iterations

     Writing output data file chempot_2.save/
 
     init_run     :     43.14s CPU     44.94s WALL (       1 calls)
     electrons    :   1637.33s CPU   1662.02s WALL (       1 calls)

     Called by init_run:
     wfcinit      :     39.73s CPU     41.38s WALL (       1 calls)
     potinit      :      1.33s CPU      1.37s WALL (       1 calls)
     hinit0       :      1.85s CPU      1.91s WALL (       1 calls)

     Called by electrons:
     c_bands      :   1430.91s CPU   1453.82s WALL (      13 calls)
     sum_band     :    197.10s CPU    198.06s WALL (      13 calls)
     v_of_rho     :      2.01s CPU      2.08s WALL (      14 calls)
     mix_rho      :      4.05s CPU      4.66s WALL (      13 calls)

     Called by c_bands:
     init_us_2    :     16.56s CPU     17.23s WALL (      54 calls)
     cegterg      :   1283.86s CPU   1305.29s WALL (      26 calls)

     Called by sum_band:

     Called by *egterg:
     h_psi        :    998.13s CPU   1008.75s WALL (     123 calls)
     g_psi        :      4.20s CPU      4.20s WALL (      95 calls)
     cdiaghg      :     16.58s CPU     16.69s WALL (     121 calls)

     Called by h_psi:
     h_psi:pot    :    994.73s CPU    998.80s WALL (     123 calls)
     h_psi:calbec :    125.17s CPU    127.45s WALL (     123 calls)
     vloc_psi     :    737.42s CPU    738.54s WALL (     123 calls)
     add_vuspsi   :    132.13s CPU    132.81s WALL (     123 calls)

     General routines
     calbec       :    125.17s CPU    127.44s WALL (     123 calls)
     fft          :      0.83s CPU      0.85s WALL (      42 calls)
     ffts         :      0.26s CPU      0.26s WALL (      13 calls)
     fftw         :    719.95s CPU    720.43s WALL (   33464 calls)
 
     Parallel routines
 
     PWSCF        :  28m 3.33s CPU  28m33.89s WALL

 
   This run was terminated on:  17: 9:55  17Dec2019            

=------------------------------------------------------------------------------=
   JOB DONE.
=------------------------------------------------------------------------------=
