
     Program PWSCF v.6.2 (svn rev. 14038) starts on 21Mar2020 at  0: 0:20 

     This program is part of the open-source Quantum ESPRESSO suite
     for quantum simulation of materials; please cite
         "P. Giannozzi et al., J. Phys.:Condens. Matter 21 395502 (2009);
         "P. Giannozzi et al., J. Phys.:Condens. Matter 29 465901 (2017);
          URL http://www.quantum-espresso.org", 
     in publications or presentations arising from this work. More details at
     http://www.quantum-espresso.org/quote

     Parallel version (MPI), running on    40 processors

     MPI processes distributed on     8 nodes
     K-points division:     npool     =      40
     Reading input from scf.in

     Current dimensions of program PWSCF are:
     Max number of different atomic species (ntypx) = 10
     Max number of k-points (npk) =  40000
     Max angular momentum in pseudopotentials (lmaxx) =  3

     Subspace diagonalization in iterative solution of the eigenvalue problem:
     a serial algorithm will be used

 
     G-vector sticks info
     --------------------
     sticks:   dense  smooth     PW     G-vecs:    dense   smooth      PW
     Sum        7725    7725   2079               499409   499409   69205
 


     bravais-lattice index     =            0
     lattice parameter (alat)  =      13.8971  a.u.
     unit-cell volume          =    2811.2456 (a.u.)^3
     number of atoms/cell      =           32
     number of atomic types    =            2
     number of electrons       =       368.60
     number of Kohn-Sham states=          221
     kinetic-energy cutoff     =     120.0000  Ry
     charge density cutoff     =     480.0000  Ry
     convergence threshold     =      1.0E-08
     mixing beta               =       0.7000
     number of iterations used =            8  plain     mixing
     Exchange-correlation      = SLA PW NOGX NOGC ( 1  4  0  0 0 0)

     celldm(1)=  13.897142  celldm(2)=   0.000000  celldm(3)=   0.000000
     celldm(4)=   0.000000  celldm(5)=   0.000000  celldm(6)=   0.000000

     crystal axes: (cart. coord. in units of alat)
               a(1) = (   1.000000   0.000000   0.000000 )  
               a(2) = (   0.000000   1.045431   0.000000 )  
               a(3) = (   0.000000   0.000000   1.001906 )  

     reciprocal axes: (cart. coord. in units 2 pi/alat)
               b(1) = (  1.000000  0.000000  0.000000 )  
               b(2) = (  0.000000  0.956543  0.000000 )  
               b(3) = (  0.000000  0.000000  0.998098 )  


     PseudoPot. # 1 for W  read from file:
     /cluster/scratch/mnoe/QE/pps/W_ONCV_LDA-4.0.upf
     MD5 check sum: ba0307d5d4cd419d6f1d13dc49d7c13a
     Pseudo is Norm-conserving + core correction, Zval = 28.0
     Generated using ONCVPSP code by D. R. Hamann
     Using radial grid of 1380 points,  8 beta functions with: 
                l(1) =   0
                l(2) =   0
                l(3) =   1
                l(4) =   1
                l(5) =   2
                l(6) =   2
                l(7) =   3
                l(8) =   3

     PseudoPot. # 2 for O  read from file:
     /cluster/scratch/mnoe/QE/pps/O_ONCV_LDA-3.0.upf
     MD5 check sum: a1bd6164e7280c17a38c229939bfbd54
     Pseudo is Norm-conserving + core correction, Zval =  6.0
     Generated using ONCVPSP code by D. R. Hamann
     Using radial grid of  926 points,  5 beta functions with: 
                l(1) =   0
                l(2) =   0
                l(3) =   1
                l(4) =   1
                l(5) =   2

     atomic species   valence    mass     pseudopotential
        W             28.00   183.84000     W ( 1.00)
        O              6.00    15.99940     O ( 1.00)

      8 Sym. Ops., with inversion, found ( 6 have fractional translation)



   Cartesian axes

     site n.     atom                  positions (alat units)
         1           W   tau(   1) = (   0.2407500   0.2925866   0.0087567  )
         2           W   tau(   2) = (   0.7592500   0.7528448   0.9931489  )
         3           W   tau(   3) = (   0.2592500   0.2301291   0.5097095  )
         4           W   tau(   4) = (   0.7407500   0.8153023   0.4921962  )
         5           W   tau(   5) = (   0.7592500   0.2925866   0.4921962  )
         6           W   tau(   6) = (   0.2407500   0.7528448   0.5097095  )
         7           W   tau(   7) = (   0.7407500   0.2301291   0.9931489  )
         8           W   tau(   8) = (   0.2592500   0.8153023   0.0087567  )
         9           O   tau(   9) = (   0.2329400   0.0081317   0.0027252  )
        10           O   tau(  10) = (   0.7670600   1.0372997   0.9991805  )
        11           O   tau(  11) = (   0.2670600   0.5145840   0.5036780  )
        12           O   tau(  12) = (   0.7329400   0.5308474   0.4982276  )
        13           O   tau(  13) = (   0.7670600   0.0081317   0.4982276  )
        14           O   tau(  14) = (   0.2329400   1.0372997   0.5036780  )
        15           O   tau(  15) = (   0.7329400   0.5145840   0.9991805  )
        16           O   tau(  16) = (   0.2670600   0.5308474   0.0027252  )
        17           O   tau(  17) = (   0.5025300   0.2430628   0.4552679  )
        18           O   tau(  18) = (   0.4974700   0.8023686   0.5466377  )
        19           O   tau(  19) = (   0.9974700   0.2796529   0.9562207  )
        20           O   tau(  20) = (   0.0025300   0.7657785   0.0456849  )
        21           O   tau(  21) = (   0.4974700   0.2430628   0.0456849  )
        22           O   tau(  22) = (   0.5025300   0.8023686   0.9562207  )
        23           O   tau(  23) = (   0.0025300   0.2796529   0.5466377  )
        24           O   tau(  24) = (   0.9974700   0.7657785   0.4552679  )
        25           O   tau(  25) = (   0.7044020   0.2573643   0.7475819  )
        26           O   tau(  26) = (   0.2955980   0.7880671   0.2543237  )
        27           O   tau(  27) = (   0.7955980   0.2653514   0.2466291  )
        28           O   tau(  28) = (   0.2044020   0.7800800   0.7552766  )
        29           O   tau(  29) = (   0.2955980   0.2573643   0.7552766  )
        30           O   tau(  30) = (   0.7044020   0.7880671   0.2466291  )
        31           O   tau(  31) = (   0.2044020   0.2653514   0.2543237  )
        32           O   tau(  32) = (   0.7955980   0.7800800   0.7475819  )

     number of k points=    64  gaussian smearing, width (Ry)=  0.0007
                       cart. coord. in units 2pi/alat
        k(    1) = (   0.0000000   0.0000000   0.0000000), wk =   0.0092593
        k(    2) = (   0.0000000   0.0000000   0.1663497), wk =   0.0185185
        k(    3) = (   0.0000000   0.0000000   0.3326993), wk =   0.0185185
        k(    4) = (   0.0000000   0.0000000  -0.4990490), wk =   0.0092593
        k(    5) = (   0.0000000   0.1594238   0.0000000), wk =   0.0185185
        k(    6) = (   0.0000000   0.1594238   0.1663497), wk =   0.0370370
        k(    7) = (   0.0000000   0.1594238   0.3326993), wk =   0.0370370
        k(    8) = (   0.0000000   0.1594238  -0.4990490), wk =   0.0185185
        k(    9) = (   0.0000000   0.3188477   0.0000000), wk =   0.0185185
        k(   10) = (   0.0000000   0.3188477   0.1663497), wk =   0.0370370
        k(   11) = (   0.0000000   0.3188477   0.3326993), wk =   0.0370370
        k(   12) = (   0.0000000   0.3188477  -0.4990490), wk =   0.0185185
        k(   13) = (   0.0000000  -0.4782715   0.0000000), wk =   0.0092593
        k(   14) = (   0.0000000  -0.4782715   0.1663497), wk =   0.0185185
        k(   15) = (   0.0000000  -0.4782715   0.3326993), wk =   0.0185185
        k(   16) = (   0.0000000  -0.4782715  -0.4990490), wk =   0.0092593
        k(   17) = (   0.1666667   0.0000000   0.0000000), wk =   0.0185185
        k(   18) = (   0.1666667   0.0000000   0.1663497), wk =   0.0370370
        k(   19) = (   0.1666667   0.0000000   0.3326993), wk =   0.0370370
        k(   20) = (   0.1666667   0.0000000  -0.4990490), wk =   0.0185185
        k(   21) = (   0.1666667   0.1594238   0.0000000), wk =   0.0370370
        k(   22) = (   0.1666667   0.1594238   0.1663497), wk =   0.0740741
        k(   23) = (   0.1666667   0.1594238   0.3326993), wk =   0.0740741
        k(   24) = (   0.1666667   0.1594238  -0.4990490), wk =   0.0370370
        k(   25) = (   0.1666667   0.3188477   0.0000000), wk =   0.0370370
        k(   26) = (   0.1666667   0.3188477   0.1663497), wk =   0.0740741
        k(   27) = (   0.1666667   0.3188477   0.3326993), wk =   0.0740741
        k(   28) = (   0.1666667   0.3188477  -0.4990490), wk =   0.0370370
        k(   29) = (   0.1666667  -0.4782715   0.0000000), wk =   0.0185185
        k(   30) = (   0.1666667  -0.4782715   0.1663497), wk =   0.0370370
        k(   31) = (   0.1666667  -0.4782715   0.3326993), wk =   0.0370370
        k(   32) = (   0.1666667  -0.4782715  -0.4990490), wk =   0.0185185
        k(   33) = (   0.3333333   0.0000000   0.0000000), wk =   0.0185185
        k(   34) = (   0.3333333   0.0000000   0.1663497), wk =   0.0370370
        k(   35) = (   0.3333333   0.0000000   0.3326993), wk =   0.0370370
        k(   36) = (   0.3333333   0.0000000  -0.4990490), wk =   0.0185185
        k(   37) = (   0.3333333   0.1594238   0.0000000), wk =   0.0370370
        k(   38) = (   0.3333333   0.1594238   0.1663497), wk =   0.0740741
        k(   39) = (   0.3333333   0.1594238   0.3326993), wk =   0.0740741
        k(   40) = (   0.3333333   0.1594238  -0.4990490), wk =   0.0370370
        k(   41) = (   0.3333333   0.3188477   0.0000000), wk =   0.0370370
        k(   42) = (   0.3333333   0.3188477   0.1663497), wk =   0.0740741
        k(   43) = (   0.3333333   0.3188477   0.3326993), wk =   0.0740741
        k(   44) = (   0.3333333   0.3188477  -0.4990490), wk =   0.0370370
        k(   45) = (   0.3333333  -0.4782715   0.0000000), wk =   0.0185185
        k(   46) = (   0.3333333  -0.4782715   0.1663497), wk =   0.0370370
        k(   47) = (   0.3333333  -0.4782715   0.3326993), wk =   0.0370370
        k(   48) = (   0.3333333  -0.4782715  -0.4990490), wk =   0.0185185
        k(   49) = (  -0.5000000   0.0000000   0.0000000), wk =   0.0092593
        k(   50) = (  -0.5000000   0.0000000   0.1663497), wk =   0.0185185
        k(   51) = (  -0.5000000   0.0000000   0.3326993), wk =   0.0185185
        k(   52) = (  -0.5000000   0.0000000  -0.4990490), wk =   0.0092593
        k(   53) = (  -0.5000000   0.1594238   0.0000000), wk =   0.0185185
        k(   54) = (  -0.5000000   0.1594238   0.1663497), wk =   0.0370370
        k(   55) = (  -0.5000000   0.1594238   0.3326993), wk =   0.0370370
        k(   56) = (  -0.5000000   0.1594238  -0.4990490), wk =   0.0185185
        k(   57) = (  -0.5000000   0.3188477   0.0000000), wk =   0.0185185
        k(   58) = (  -0.5000000   0.3188477   0.1663497), wk =   0.0370370
        k(   59) = (  -0.5000000   0.3188477   0.3326993), wk =   0.0370370
        k(   60) = (  -0.5000000   0.3188477  -0.4990490), wk =   0.0185185
        k(   61) = (  -0.5000000  -0.4782715   0.0000000), wk =   0.0092593
        k(   62) = (  -0.5000000  -0.4782715   0.1663497), wk =   0.0185185
        k(   63) = (  -0.5000000  -0.4782715   0.3326993), wk =   0.0185185
        k(   64) = (  -0.5000000  -0.4782715  -0.4990490), wk =   0.0092593

     Dense  grid:   499409 G-vectors     FFT dimensions: ( 100, 108, 100)

     Estimated max dynamical RAM per process >       3.13 GB

     Estimated total dynamical RAM >     125.36 GB

     Initial potential from superposition of free atoms

     starting charge  367.99656, renormalised to  368.60000
     Starting wfc are  232 randomized atomic wfcs

     total cpu time spent up to now is       44.0 secs

     Self-consistent Calculation

     iteration #  1     ecut=   120.00 Ry     beta= 0.70
     Davidson diagonalization with overlap
     ethr =  1.00E-02,  avg # of iterations =  5.2

     total cpu time spent up to now is      191.7 secs

     total energy              =   -6253.44845645 Ry
     Harris-Foulkes estimate   =   -6264.26622361 Ry
     estimated scf accuracy    <      13.62824139 Ry

     iteration #  2     ecut=   120.00 Ry     beta= 0.70
     Davidson diagonalization with overlap
     ethr =  3.70E-03,  avg # of iterations =  3.6

     total cpu time spent up to now is      345.9 secs

     total energy              =   -6250.41787382 Ry
     Harris-Foulkes estimate   =   -6270.27229221 Ry
     estimated scf accuracy    <      52.79812468 Ry

     iteration #  3     ecut=   120.00 Ry     beta= 0.70
     Davidson diagonalization with overlap
     ethr =  3.70E-03,  avg # of iterations =  3.4

     total cpu time spent up to now is      498.5 secs

     total energy              =   -6260.67569742 Ry
     Harris-Foulkes estimate   =   -6260.94240941 Ry
     estimated scf accuracy    <       0.89264322 Ry

     iteration #  4     ecut=   120.00 Ry     beta= 0.70
     Davidson diagonalization with overlap
     ethr =  2.42E-04,  avg # of iterations =  3.1

     total cpu time spent up to now is      628.2 secs

     total energy              =   -6260.66373527 Ry
     Harris-Foulkes estimate   =   -6260.73880481 Ry
     estimated scf accuracy    <       0.22138622 Ry

     iteration #  5     ecut=   120.00 Ry     beta= 0.70
     Davidson diagonalization with overlap
     ethr =  6.01E-05,  avg # of iterations =  5.4

     total cpu time spent up to now is      754.5 secs

     total energy              =   -6260.67221832 Ry
     Harris-Foulkes estimate   =   -6260.69973426 Ry
     estimated scf accuracy    <       0.06272563 Ry

     iteration #  6     ecut=   120.00 Ry     beta= 0.70
     Davidson diagonalization with overlap
     ethr =  1.70E-05,  avg # of iterations =  5.7

     total cpu time spent up to now is      907.7 secs

     total energy              =   -6260.68521041 Ry
     Harris-Foulkes estimate   =   -6260.68805344 Ry
     estimated scf accuracy    <       0.00734885 Ry

     iteration #  7     ecut=   120.00 Ry     beta= 0.70
     Davidson diagonalization with overlap
     ethr =  1.99E-06,  avg # of iterations =  5.9

     total cpu time spent up to now is     1047.8 secs

     total energy              =   -6260.68620831 Ry
     Harris-Foulkes estimate   =   -6260.68628623 Ry
     estimated scf accuracy    <       0.00013375 Ry

     iteration #  8     ecut=   120.00 Ry     beta= 0.70
     Davidson diagonalization with overlap
     ethr =  3.63E-08,  avg # of iterations =  3.3

     total cpu time spent up to now is     1278.9 secs

     total energy              =   -6260.68627360 Ry
     Harris-Foulkes estimate   =   -6260.68628670 Ry
     estimated scf accuracy    <       0.00005961 Ry

     iteration #  9     ecut=   120.00 Ry     beta= 0.70
     Davidson diagonalization with overlap
     ethr =  1.62E-08,  avg # of iterations =  1.0

     total cpu time spent up to now is     1537.4 secs

     total energy              =   -6260.68627162 Ry
     Harris-Foulkes estimate   =   -6260.68627747 Ry
     estimated scf accuracy    <       0.00002525 Ry

     iteration # 10     ecut=   120.00 Ry     beta= 0.70
     Davidson diagonalization with overlap
     ethr =  6.85E-09,  avg # of iterations =  1.9

     total cpu time spent up to now is     1713.8 secs

     total energy              =   -6260.68627025 Ry
     Harris-Foulkes estimate   =   -6260.68627344 Ry
     estimated scf accuracy    <       0.00000745 Ry

     iteration # 11     ecut=   120.00 Ry     beta= 0.70
     Davidson diagonalization with overlap
     ethr =  2.02E-09,  avg # of iterations =  3.0

     total cpu time spent up to now is     1832.8 secs

     total energy              =   -6260.68627184 Ry
     Harris-Foulkes estimate   =   -6260.68627190 Ry
     estimated scf accuracy    <       0.00000015 Ry

     iteration # 12     ecut=   120.00 Ry     beta= 0.70
     Davidson diagonalization with overlap
     ethr =  4.15E-11,  avg # of iterations =  2.0

     total cpu time spent up to now is     2043.3 secs

     total energy              =   -6260.68627185 Ry
     Harris-Foulkes estimate   =   -6260.68627188 Ry
     estimated scf accuracy    <       0.00000004 Ry

     iteration # 13     ecut=   120.00 Ry     beta= 0.70
     Davidson diagonalization with overlap
     ethr =  1.20E-11,  avg # of iterations =  2.5

     total cpu time spent up to now is     2183.1 secs

     End of self-consistent calculation

          k = 0.0000 0.0000 0.0000 ( 62323 PWs)   bands (ev):

   -66.0710 -66.0705 -66.0700 -66.0700 -66.0696 -66.0695 -66.0691 -66.0686
   -30.5055 -30.5008 -30.5001 -30.4956 -30.4499 -30.4427 -30.4415 -30.4331
   -30.4214 -30.4198 -30.4108 -30.4094 -30.4082 -30.4080 -30.3988 -30.3970
   -30.3224 -30.3211 -30.3204 -30.3192 -30.3163 -30.3123 -30.3100 -30.3066
   -20.2223 -20.2222 -20.2219 -20.2217 -20.2210 -20.2209 -20.2205 -20.2204
   -20.2162 -20.2161 -20.2158 -20.2157 -20.2127 -20.2123 -20.2121 -20.2117
   -20.2098 -20.2093 -20.2092 -20.2091 -20.2089 -20.2074 -20.2072 -20.2071
   -20.2071 -20.2067 -20.2066 -20.2056 -20.2055 -20.2050 -20.2048 -20.2048
   -20.1955 -20.1954 -20.1951 -20.1950 -20.1942 -20.1940 -20.1937 -20.1936
   -20.1720 -20.1719 -20.1704 -20.1704 -20.1689 -20.1689 -20.1678 -20.1678
   -20.1659 -20.1659 -20.1648 -20.1648 -20.1636 -20.1636 -20.1622 -20.1622
    -9.9434  -9.6380  -9.5241  -9.5240  -9.2314  -9.2157  -9.1251  -9.0133
    -8.9966  -8.9090  -8.8766  -8.8728  -7.8762  -7.8081  -7.7961  -7.7717
    -7.7566  -7.7439  -7.7354  -7.7320  -7.6412  -7.6321  -7.6137  -7.6082
     1.2362   1.2409   1.2994   1.3150   1.3231   1.3512   1.3562   1.5635
     1.5853   1.6095   1.6374   1.8451   2.4337   2.5218   2.5501   2.5642
     2.6897   2.7138   4.1605   4.1987   4.3757   4.4461   4.7249   4.7802
     4.7991   4.8083   4.8215   4.8258   4.9978   5.0053   5.1365   5.4288
     5.4525   5.4763   5.5205   5.5486   5.5540   5.5968   5.6516   5.8255
     5.8268   5.8325   5.8507   5.8782   5.9663   6.0394   6.0697   6.1175
     6.1274   6.2662   6.2835   6.4937   6.5027   6.8021   6.8075   6.8543
     6.8600   6.8919   6.9634   7.0012   7.0277   7.0606   7.2912   7.3202
     7.3322   7.3577   7.8602   7.8768   8.0178   8.0838   8.0840   8.1480
     9.4107   9.4263   9.9586   9.9688   9.9771   9.9919  12.2863  12.3127
    12.4172  12.4186  12.4475  12.4720  12.5680  12.6058  12.7677  12.9567
    13.2225  13.2963  13.3309  13.3436  13.7558  13.9247  14.1360  14.1436
    14.3572  14.4518  14.6341  14.8312  15.3811  15.4007  15.5695  16.0230
    16.0684  16.8439  17.0218  17.0760  17.3472

          k = 0.0000 0.0000 0.1663 ( 62397 PWs)   bands (ev):

   -66.0709 -66.0704 -66.0701 -66.0699 -66.0696 -66.0695 -66.0692 -66.0687
   -30.5052 -30.5011 -30.4998 -30.4959 -30.4490 -30.4431 -30.4405 -30.4335
   -30.4170 -30.4165 -30.4084 -30.4058 -30.4043 -30.4036 -30.3993 -30.3951
   -30.3290 -30.3270 -30.3266 -30.3243 -30.3160 -30.3120 -30.3112 -30.3074
   -20.2223 -20.2222 -20.2219 -20.2218 -20.2209 -20.2208 -20.2205 -20.2205
   -20.2162 -20.2161 -20.2158 -20.2157 -20.2127 -20.2124 -20.2120 -20.2117
   -20.2098 -20.2091 -20.2090 -20.2090 -20.2089 -20.2073 -20.2073 -20.2073
   -20.2071 -20.2070 -20.2066 -20.2057 -20.2056 -20.2050 -20.2048 -20.2048
   -20.1955 -20.1953 -20.1951 -20.1950 -20.1942 -20.1939 -20.1938 -20.1936
   -20.1716 -20.1716 -20.1701 -20.1701 -20.1688 -20.1688 -20.1679 -20.1679
   -20.1663 -20.1663 -20.1652 -20.1652 -20.1635 -20.1635 -20.1623 -20.1622
    -9.8983  -9.5841  -9.5398  -9.4667  -9.2288  -9.1429  -9.1334  -8.9759
    -8.9570  -8.8962  -8.8767  -8.8434  -7.8972  -7.8912  -7.8486  -7.8118
    -7.7945  -7.7704  -7.7471  -7.7454  -7.7373  -7.7225  -7.6401  -7.6162
     1.3075   1.3148   1.3326   1.3605   1.4273   1.4513   1.5575   1.5815
     1.6053   1.6939   1.8028   1.9655   2.5204   2.5584   2.6118   2.6508
     2.6814   2.8000   4.1107   4.1627   4.3695   4.4037   4.4318   4.4616
     4.5997   4.7148   4.7775   4.8568   4.8685   5.0062   5.1291   5.2920
     5.3218   5.4404   5.4668   5.5601   5.5666   5.5908   5.6211   5.6599
     5.7186   5.7670   5.8586   5.8842   5.9756   6.0316   6.1276   6.1411
     6.2291   6.4229   6.4885   6.4916   6.6698   6.7159   6.7697   6.8042
     6.8158   6.8844   6.9293   6.9624   6.9964   7.0656   7.1133   7.1190
     7.1589   7.2073   7.8602   7.8679   8.0377   8.0392   8.0866   8.1021
     9.7280   9.7401   9.9664   9.9832  10.2306  10.2726  12.2435  12.3188
    12.3456  12.3969  12.4665  12.4992  12.6082  12.6604  12.8157  12.8903
    13.0662  13.2770  13.3010  13.3352  13.8379  13.9237  13.9970  14.0224
    14.3870  14.5807  14.6295  14.9417  15.4201  15.4629  15.5368  16.0404
    16.3387  16.7890  17.0147  17.2069  17.4353

          k = 0.0000 0.0000 0.3327 ( 62398 PWs)   bands (ev):

   -66.0707 -66.0703 -66.0703 -66.0698 -66.0698 -66.0693 -66.0693 -66.0689
   -30.5044 -30.5020 -30.4991 -30.4968 -30.4473 -30.4441 -30.4383 -30.4345
   -30.4130 -30.4094 -30.4082 -30.4006 -30.3908 -30.3897 -30.3870 -30.3857
   -30.3461 -30.3444 -30.3429 -30.3407 -30.3152 -30.3127 -30.3112 -30.3087
   -20.2222 -20.2221 -20.2220 -20.2219 -20.2209 -20.2208 -20.2206 -20.2205
   -20.2162 -20.2161 -20.2158 -20.2157 -20.2126 -20.2124 -20.2120 -20.2118
   -20.2095 -20.2091 -20.2087 -20.2087 -20.2086 -20.2077 -20.2076 -20.2075
   -20.2069 -20.2069 -20.2066 -20.2060 -20.2055 -20.2050 -20.2049 -20.2048
   -20.1954 -20.1952 -20.1952 -20.1950 -20.1941 -20.1939 -20.1938 -20.1936
   -20.1707 -20.1706 -20.1692 -20.1692 -20.1685 -20.1684 -20.1684 -20.1684
   -20.1672 -20.1672 -20.1662 -20.1662 -20.1632 -20.1632 -20.1625 -20.1625
    -9.7892  -9.5884  -9.4595  -9.3356  -9.2693  -9.1617  -8.9230  -8.8912
    -8.8876  -8.8156  -8.7877  -8.7168  -8.1876  -8.1854  -8.1021  -8.0871
    -7.8464  -7.8219  -7.7783  -7.7558  -7.7226  -7.7000  -7.6620  -7.6383
     1.3152   1.3179   1.3724   1.3891   1.5163   1.5446   1.5564   1.5976
     2.2748   2.3191   2.4431   2.5278   2.5820   2.6708   2.7693   2.8725
     2.8895   3.0345   3.7483   3.8494   3.8675   3.9889   4.1147   4.2884
     4.3809   4.5423   4.5578   4.6822   4.7297   4.8039   4.9368   5.0763
     5.1237   5.1615   5.1950   5.3392   5.4207   5.4891   5.6359   5.7045
     5.7199   5.7547   5.8297   5.9301   6.0074   6.1570   6.2047   6.2704
     6.2759   6.3771   6.4528   6.5212   6.5453   6.5456   6.5620   6.7791
     6.8239   6.8748   6.8843   6.9603   7.0177   7.0629   7.0686   7.1461
     7.2655   7.3181   7.7767   7.7920   7.8985   7.9574   8.0707   8.0887
     9.9311   9.9590  10.4261  10.5073  10.8484  10.9339  11.8752  11.9368
    12.1488  12.4371  12.5040  12.6041  12.6359  12.6434  12.7699  12.8251
    12.9061  13.1557  13.2153  13.3269  13.6666  13.7152  13.9223  13.9231
    14.4970  14.6141  14.9094  15.2349  15.4308  15.5890  15.8772  15.9539
    16.2333  17.1983  17.3723  17.5582  17.7743

          k = 0.0000 0.0000-0.4990 ( 62408 PWs)   bands (ev):

   -66.0705 -66.0705 -66.0700 -66.0700 -66.0696 -66.0695 -66.0691 -66.0691
   -30.5032 -30.5032 -30.4980 -30.4980 -30.4455 -30.4455 -30.4362 -30.4362
   -30.4110 -30.4110 -30.4031 -30.4031 -30.3687 -30.3687 -30.3679 -30.3678
   -30.3653 -30.3652 -30.3639 -30.3639 -30.3140 -30.3140 -30.3100 -30.3100
   -20.2221 -20.2221 -20.2220 -20.2220 -20.2207 -20.2207 -20.2207 -20.2207
   -20.2162 -20.2161 -20.2158 -20.2158 -20.2125 -20.2125 -20.2119 -20.2119
   -20.2093 -20.2093 -20.2082 -20.2082 -20.2081 -20.2081 -20.2081 -20.2081
   -20.2068 -20.2068 -20.2065 -20.2065 -20.2053 -20.2052 -20.2048 -20.2048
   -20.1953 -20.1953 -20.1951 -20.1951 -20.1940 -20.1939 -20.1938 -20.1937
   -20.1694 -20.1694 -20.1694 -20.1694 -20.1682 -20.1682 -20.1682 -20.1681
   -20.1676 -20.1676 -20.1676 -20.1676 -20.1629 -20.1629 -20.1629 -20.1629
    -9.6734  -9.6734  -9.3435  -9.3434  -9.2227  -9.2227  -8.9027  -8.9027
    -8.5447  -8.5447  -8.5264  -8.5263  -8.5142  -8.5141  -8.4491  -8.4490
    -7.8354  -7.8354  -7.7675  -7.7675  -7.6922  -7.6922  -7.6689  -7.6689
     1.3167   1.3167   1.3866   1.3867   1.5314   1.5314   1.5881   1.5881
     2.6122   2.6122   3.0134   3.0134   3.1272   3.1272   3.1554   3.1554
     3.2927   3.2927   3.3037   3.3037   3.5038   3.5038   3.7683   3.7683
     3.8414   3.8415   4.4994   4.4994   4.6415   4.6415   4.9595   4.9595
     5.2090   5.2090   5.3043   5.3044   5.3331   5.3331   5.6815   5.6815
     5.7783   5.7783   5.9469   5.9469   6.0993   6.0993   6.2285   6.2286
     6.2760   6.2760   6.3725   6.3725   6.4771   6.4771   6.5583   6.5583
     6.7863   6.7863   6.8765   6.8765   7.0436   7.0436   7.5001   7.5002
     7.5532   7.5532   7.6446   7.6446   7.6980   7.6980   8.0857   8.0857
     9.9476   9.9476  11.2024  11.2024  11.2823  11.2823  11.5671  11.5671
    11.7201  11.7201  12.6465  12.6465  12.6978  12.6978  12.8876  12.8876
    12.9303  12.9303  13.2741  13.2741  13.4298  13.4298  13.9249  13.9249
    14.5793  14.5793  15.2274  15.2274  15.6778  15.6778  15.8013  15.8013
    16.6501  16.6501  17.8256  17.8256  18.0312

          k = 0.0000 0.1594 0.0000 ( 62435 PWs)   bands (ev):

   -66.0709 -66.0705 -66.0700 -66.0700 -66.0696 -66.0696 -66.0691 -66.0687
   -30.5014 -30.4967 -30.4959 -30.4914 -30.4530 -30.4462 -30.4449 -30.4373
   -30.4213 -30.4199 -30.4110 -30.4101 -30.4078 -30.4076 -30.3999 -30.3983
   -30.3223 -30.3210 -30.3206 -30.3193 -30.3160 -30.3126 -30.3098 -30.3069
   -20.2222 -20.2221 -20.2217 -20.2216 -20.2210 -20.2209 -20.2205 -20.2205
   -20.2160 -20.2159 -20.2156 -20.2155 -20.2129 -20.2126 -20.2123 -20.2120
   -20.2098 -20.2093 -20.2092 -20.2091 -20.2088 -20.2074 -20.2073 -20.2072
   -20.2071 -20.2067 -20.2066 -20.2056 -20.2056 -20.2051 -20.2049 -20.2048
   -20.1955 -20.1954 -20.1951 -20.1950 -20.1942 -20.1940 -20.1937 -20.1936
   -20.1720 -20.1719 -20.1704 -20.1704 -20.1689 -20.1689 -20.1678 -20.1678
   -20.1659 -20.1659 -20.1648 -20.1648 -20.1636 -20.1636 -20.1622 -20.1622
    -9.9117  -9.6500  -9.4846  -9.4831  -9.2390  -9.2238  -9.0489  -9.0121
    -8.9977  -8.8628  -8.8387  -8.8358  -7.9667  -7.9094  -7.8993  -7.8551
    -7.7701  -7.7636  -7.7372  -7.7340  -7.6396  -7.6328  -7.6166  -7.6102
     1.2364   1.2404   1.3145   1.3234   1.3379   1.3562   1.4850   1.6368
     1.7588   1.8121   1.8316   2.0009   2.4398   2.5158   2.6239   2.6402
     2.7598   2.7873   4.0178   4.0642   4.1010   4.1578   4.6761   4.7702
     4.8010   4.8145   4.8264   4.8607   4.9485   4.9499   5.0182   5.2748
     5.3060   5.4600   5.4652   5.5843   5.6351   5.6431   5.6551   5.7067
     5.7589   5.7789   5.8949   5.9140   5.9424   6.0432   6.0629   6.1181
     6.1271   6.2495   6.2917   6.5145   6.5398   6.7907   6.8202   6.8216
     6.8623   6.9013   6.9035   6.9631   6.9734   6.9751   7.2991   7.3176
     7.3420   7.3564   7.8617   7.8754   7.9877   8.0227   8.0422   8.0689
     9.4172   9.4269  10.1604  10.1614  10.1688  10.1728  12.1753  12.2542
    12.3982  12.4032  12.4188  12.4331  12.4390  12.4589  12.7910  12.9601
    13.2453  13.2958  13.3371  13.3500  13.8897  13.9141  14.0349  14.0455
    14.4411  14.7183  14.8133  15.0025  15.3805  15.3968  15.9723  15.9944
    16.0346  16.5390  17.1623  17.2158  17.5099

          k = 0.0000 0.1594 0.1663 ( 62412 PWs)   bands (ev):

   -66.0709 -66.0705 -66.0701 -66.0699 -66.0697 -66.0695 -66.0691 -66.0687
   -30.5012 -30.4970 -30.4957 -30.4917 -30.4522 -30.4466 -30.4440 -30.4376
   -30.4170 -30.4165 -30.4080 -30.4058 -30.4047 -30.4036 -30.4003 -30.3963
   -30.3289 -30.3271 -30.3265 -30.3245 -30.3157 -30.3123 -30.3110 -30.3077
   -20.2222 -20.2220 -20.2217 -20.2216 -20.2210 -20.2209 -20.2206 -20.2205
   -20.2160 -20.2159 -20.2156 -20.2155 -20.2129 -20.2127 -20.2123 -20.2120
   -20.2097 -20.2092 -20.2091 -20.2090 -20.2088 -20.2074 -20.2073 -20.2072
   -20.2072 -20.2070 -20.2066 -20.2057 -20.2056 -20.2051 -20.2049 -20.2049
   -20.1955 -20.1953 -20.1951 -20.1950 -20.1942 -20.1940 -20.1937 -20.1936
   -20.1716 -20.1716 -20.1701 -20.1701 -20.1688 -20.1688 -20.1679 -20.1679
   -20.1663 -20.1663 -20.1652 -20.1652 -20.1635 -20.1635 -20.1623 -20.1623
    -9.8653  -9.5961  -9.4990  -9.4224  -9.2371  -9.1506  -9.0572  -8.9739
    -8.9581  -8.8521  -8.8398  -8.8102  -7.9699  -7.9209  -7.9014  -7.8894
    -7.8631  -7.8536  -7.7689  -7.7506  -7.7395  -7.7245  -7.6409  -7.6182
     1.3273   1.3326   1.3406   1.3605   1.5365   1.5807   1.5816   1.7649
     1.8021   1.8276   1.8443   2.0683   2.5274   2.6044   2.6327   2.7283
     2.7523   2.8730   4.0208   4.0327   4.1456   4.1456   4.3961   4.4565
     4.6427   4.6608   4.6982   4.8487   4.8636   4.9596   5.0135   5.2069
     5.2407   5.3275   5.3674   5.4607   5.5300   5.5899   5.6440   5.7077
     5.7432   5.7558   5.8415   5.8697   5.8884   6.0597   6.1123   6.1633
     6.1882   6.3794   6.4753   6.5255   6.6963   6.7673   6.7860   6.7962
     6.8153   6.8971   6.9220   6.9434   6.9773   6.9802   7.1142   7.1230
     7.1750   7.2065   7.8603   7.8670   7.9944   7.9998   8.0262   8.0289
     9.7462   9.7478  10.1612  10.1791  10.3875  10.4174  12.2105  12.2432
    12.3234  12.3329  12.4287  12.4419  12.4803  12.5511  12.8416  12.9114
    13.0697  13.2687  13.2976  13.3462  13.8924  13.9136  13.9234  13.9257
    14.5229  14.8003  14.8803  15.0966  15.4180  15.4626  15.9397  16.0068
    16.3083  16.6951  16.9163  17.3262  17.5768

          k = 0.0000 0.1594 0.3327 ( 62408 PWs)   bands (ev):

   -66.0707 -66.0703 -66.0702 -66.0698 -66.0697 -66.0693 -66.0693 -66.0689
   -30.5003 -30.4979 -30.4949 -30.4926 -30.4506 -30.4475 -30.4421 -30.4387
   -30.4127 -30.4091 -30.4086 -30.4016 -30.3909 -30.3899 -30.3872 -30.3862
   -30.3460 -30.3445 -30.3428 -30.3409 -30.3149 -30.3125 -30.3115 -30.3090
   -20.2221 -20.2220 -20.2218 -20.2217 -20.2209 -20.2208 -20.2207 -20.2206
   -20.2160 -20.2159 -20.2156 -20.2155 -20.2129 -20.2127 -20.2123 -20.2121
   -20.2095 -20.2090 -20.2087 -20.2087 -20.2086 -20.2077 -20.2076 -20.2075
   -20.2070 -20.2070 -20.2066 -20.2061 -20.2055 -20.2051 -20.2050 -20.2049
   -20.1954 -20.1953 -20.1952 -20.1951 -20.1941 -20.1939 -20.1938 -20.1937
   -20.1707 -20.1706 -20.1692 -20.1692 -20.1684 -20.1684 -20.1684 -20.1684
   -20.1672 -20.1672 -20.1662 -20.1662 -20.1632 -20.1632 -20.1625 -20.1625
    -9.7531  -9.5481  -9.4712  -9.2783  -9.2772  -9.0861  -8.8993  -8.8973
    -8.8506  -8.8174  -8.7703  -8.6977  -8.1925  -8.1855  -8.1179  -8.0849
    -7.9370  -7.9170  -7.8816  -7.8566  -7.7251  -7.7021  -7.6632  -7.6403
     1.3479   1.3626   1.3724   1.3890   1.7156   1.7308   1.8008   1.8236
     2.2737   2.3278   2.4450   2.5439   2.6549   2.7356   2.7796   2.8685
     2.9685   3.1011   3.7530   3.8583   3.8593   3.9335   4.1520   4.1531
     4.1838   4.3651   4.5603   4.6111   4.6991   4.7679   4.8054   4.9433
     4.9925   5.1393   5.1558   5.1605   5.3856   5.3946   5.5098   5.6403
     5.6977   5.7766   5.7956   5.8613   5.9237   6.1203   6.1822   6.2085
     6.3150   6.4875   6.5123   6.5406   6.5550   6.6508   6.7258   6.7725
     6.8284   6.8442   6.9190   6.9282   6.9695   7.0082   7.1087   7.1371
     7.2649   7.3131   7.7795   7.7898   7.8656   7.9022   8.0134   8.0281
    10.1360  10.1600  10.4365  10.5152  10.9580  11.0242  11.8763  11.9348
    12.1355  12.4492  12.4543  12.4834  12.5598  12.6279  12.6942  12.7933
    12.8496  13.1565  13.1984  13.3128  13.5559  13.6337  13.9135  13.9349
    14.6854  14.7896  15.2539  15.3673  15.5768  15.8288  15.9044  15.9221
    16.3605  17.1465  17.1688  17.4307  17.8091

          k = 0.0000 0.1594-0.4990 ( 62404 PWs)   bands (ev):

   -66.0705 -66.0705 -66.0701 -66.0701 -66.0695 -66.0695 -66.0691 -66.0691
   -30.4992 -30.4991 -30.4938 -30.4938 -30.4490 -30.4490 -30.4403 -30.4402
   -30.4106 -30.4106 -30.4039 -30.4039 -30.3688 -30.3687 -30.3680 -30.3680
   -30.3653 -30.3653 -30.3640 -30.3640 -30.3138 -30.3138 -30.3103 -30.3103
   -20.2220 -20.2220 -20.2219 -20.2218 -20.2208 -20.2208 -20.2207 -20.2207
   -20.2160 -20.2159 -20.2156 -20.2156 -20.2128 -20.2128 -20.2122 -20.2122
   -20.2092 -20.2092 -20.2082 -20.2082 -20.2081 -20.2081 -20.2081 -20.2081
   -20.2068 -20.2068 -20.2065 -20.2065 -20.2053 -20.2053 -20.2049 -20.2049
   -20.1953 -20.1953 -20.1952 -20.1951 -20.1939 -20.1939 -20.1938 -20.1938
   -20.1694 -20.1694 -20.1694 -20.1694 -20.1682 -20.1682 -20.1682 -20.1681
   -20.1676 -20.1676 -20.1676 -20.1676 -20.1629 -20.1629 -20.1629 -20.1629
    -9.6344  -9.6344  -9.3538  -9.3538  -9.1512  -9.1511  -8.8670  -8.8670
    -8.5491  -8.5491  -8.5228  -8.5228  -8.5218  -8.5218  -8.4429  -8.4429
    -7.9300  -7.9300  -7.8712  -7.8712  -7.6940  -7.6940  -7.6710  -7.6710
     1.3581   1.3581   1.3865   1.3865   1.7339   1.7339   1.8200   1.8200
     2.6821   2.6821   3.0302   3.0302   3.1482   3.1482   3.1656   3.1656
     3.2998   3.2998   3.3113   3.3113   3.4938   3.4938   3.7793   3.7794
     3.8918   3.8918   4.2753   4.2753   4.5475   4.5475   4.7742   4.7742
     5.0487   5.0487   5.2752   5.2752   5.3232   5.3232   5.5090   5.5090
     5.7164   5.7164   5.8325   5.8325   6.1019   6.1019   6.2718   6.2718
     6.3231   6.3231   6.4091   6.4091   6.5431   6.5431   6.6611   6.6612
     6.8470   6.8470   6.8751   6.8751   6.9578   6.9578   7.5098   7.5098
     7.5486   7.5486   7.6241   7.6241   7.6696   7.6696   8.0249   8.0249
    10.1554  10.1555  11.2093  11.2094  11.2812  11.2812  11.6346  11.6346
    11.7786  11.7786  12.4944  12.4944  12.6938  12.6938  12.8630  12.8630
    12.8968  12.8968  13.1645  13.1645  13.3882  13.3882  13.9187  13.9187
    14.7604  14.7604  15.5971  15.5971  15.7758  15.7758  15.8215  15.8215
    16.6987  16.6987  17.6201  17.6201  18.1259

          k = 0.0000 0.3188 0.0000 ( 62474 PWs)   bands (ev):

   -66.0708 -66.0706 -66.0699 -66.0699 -66.0697 -66.0697 -66.0690 -66.0687
   -30.4905 -30.4856 -30.4847 -30.4800 -30.4622 -30.4562 -30.4549 -30.4487
   -30.4211 -30.4202 -30.4113 -30.4111 -30.4066 -30.4065 -30.4022 -30.4013
   -30.3220 -30.3210 -30.3206 -30.3196 -30.3154 -30.3134 -30.3093 -30.3076
   -20.2218 -20.2217 -20.2213 -20.2212 -20.2212 -20.2211 -20.2207 -20.2206
   -20.2155 -20.2153 -20.2150 -20.2148 -20.2136 -20.2134 -20.2131 -20.2128
   -20.2096 -20.2094 -20.2092 -20.2091 -20.2085 -20.2076 -20.2075 -20.2074
   -20.2070 -20.2067 -20.2064 -20.2058 -20.2056 -20.2052 -20.2050 -20.2049
   -20.1955 -20.1954 -20.1951 -20.1950 -20.1942 -20.1940 -20.1937 -20.1936
   -20.1719 -20.1719 -20.1704 -20.1704 -20.1689 -20.1689 -20.1678 -20.1678
   -20.1659 -20.1659 -20.1648 -20.1648 -20.1636 -20.1636 -20.1622 -20.1622
    -9.8348  -9.6871  -9.3955  -9.3899  -9.2641  -9.2506  -9.0090  -9.0007
    -8.8335  -8.7176  -8.7092  -8.7069  -8.2129  -8.1682  -8.1601  -8.1373
    -7.7662  -7.7646  -7.7408  -7.7387  -7.6350  -7.6295  -7.6221  -7.6156
     1.2369   1.2391   1.3230   1.3240   1.3518   1.3562   1.5997   1.6343
     2.3307   2.4559   2.4587   2.4854   2.4992   2.6284   2.8393   2.8754
     2.9631   3.0120   3.6151   3.6529   3.6727   3.7120   4.1308   4.4428
     4.4869   4.7312   4.7674   4.8032   4.8202   4.8527   5.0164   5.0349
     5.0507   5.0728   5.3571   5.3816   5.5691   5.5729   5.6875   5.7129
     5.8907   5.8916   5.9019   5.9121   5.9918   6.0464   6.0552   6.1350
     6.1482   6.2044   6.2720   6.5001   6.5775   6.6025   6.8091   6.8298
     6.8670   6.9518   7.0920   7.0923   7.0986   7.1079   7.3126   7.3153
     7.3546   7.3559   7.7943   7.8226   7.8350   7.8635   7.8856   7.8856
     9.4242   9.4278  10.6227  10.6630  10.6818  10.7007  11.8027  11.8869
    11.9554  11.9910  12.4005  12.4182  12.4509  12.4536  12.8509  12.9553
    13.3347  13.3523  13.3923  13.4161  13.7473  13.7906  13.7955  13.8114
    14.8784  15.2596  15.2870  15.3795  15.3898  15.6394  15.8949  15.9226
    15.9829  16.9668  17.2361  17.6439  17.6911

          k = 0.0000 0.3188 0.1663 ( 62395 PWs)   bands (ev):

   -66.0708 -66.0706 -66.0700 -66.0698 -66.0698 -66.0696 -66.0690 -66.0688
   -30.4902 -30.4859 -30.4844 -30.4803 -30.4617 -30.4566 -30.4543 -30.4491
   -30.4167 -30.4164 -30.4069 -30.4057 -30.4055 -30.4031 -30.4026 -30.3990
   -30.3286 -30.3276 -30.3261 -30.3249 -30.3151 -30.3131 -30.3104 -30.3085
   -20.2218 -20.2217 -20.2214 -20.2213 -20.2211 -20.2210 -20.2207 -20.2206
   -20.2155 -20.2153 -20.2150 -20.2149 -20.2136 -20.2134 -20.2131 -20.2128
   -20.2095 -20.2092 -20.2091 -20.2090 -20.2086 -20.2077 -20.2074 -20.2073
   -20.2071 -20.2069 -20.2064 -20.2059 -20.2055 -20.2052 -20.2050 -20.2050
   -20.1955 -20.1954 -20.1951 -20.1950 -20.1941 -20.1940 -20.1937 -20.1936
   -20.1716 -20.1716 -20.1701 -20.1701 -20.1688 -20.1688 -20.1679 -20.1679
   -20.1663 -20.1663 -20.1652 -20.1652 -20.1635 -20.1635 -20.1623 -20.1623
    -9.7853  -9.6336  -9.4057  -9.3214  -9.2646  -9.1765  -8.9700  -8.9612
    -8.8417  -8.7128  -8.7107  -8.6911  -8.2134  -8.1752  -8.1577  -8.1434
    -7.8846  -7.8701  -7.7647  -7.7546  -7.7406  -7.7298  -7.6377  -7.6237
     1.3325   1.3327   1.3557   1.3604   1.5750   1.5817   1.7541   1.7994
     2.3352   2.4488   2.4804   2.5427   2.5878   2.6274   2.8465   2.9562
     2.9688   3.1002   3.6502   3.6749   3.7017   3.7079   4.1167   4.4086
     4.4215   4.4545   4.5072   4.7262   4.7368   4.8249   4.8761   4.8886
     5.0252   5.0846   5.1655   5.3035   5.3750   5.4468   5.5761   5.6571
     5.6866   5.7655   5.8062   5.8777   6.0306   6.0869   6.0914   6.1344
     6.2396   6.3989   6.4363   6.5590   6.5779   6.7932   6.8265   6.8992
     6.9288   6.9601   7.0530   7.0540   7.0809   7.0838   7.1141   7.1639
     7.2187   7.2226   7.7979   7.7999   7.8260   7.8307   7.8765   7.8853
     9.7551   9.7588  10.6667  10.7037  10.7973  10.8523  11.8829  11.8928
    11.9917  12.0338  12.3072  12.3191  12.4980  12.5045  12.9067  12.9534
    13.1491  13.2870  13.3505  13.3778  13.6433  13.7095  13.7453  13.7969
    14.9950  15.2721  15.4096  15.4739  15.4864  15.7047  15.8955  16.1443
    16.2041  16.9313  17.3052  17.3212  17.6590

          k = 0.0000 0.3188 0.3327 ( 62381 PWs)   bands (ev):

   -66.0706 -66.0704 -66.0702 -66.0699 -66.0697 -66.0694 -66.0692 -66.0690
   -30.4893 -30.4868 -30.4836 -30.4812 -30.4604 -30.4575 -30.4530 -30.4501
   -30.4118 -30.4094 -30.4079 -30.4038 -30.3910 -30.3905 -30.3874 -30.3872
   -30.3458 -30.3449 -30.3425 -30.3414 -30.3143 -30.3123 -30.3118 -30.3098
   -20.2217 -20.2216 -20.2215 -20.2214 -20.2211 -20.2210 -20.2208 -20.2207
   -20.2154 -20.2153 -20.2150 -20.2149 -20.2136 -20.2135 -20.2130 -20.2129
   -20.2093 -20.2088 -20.2087 -20.2086 -20.2086 -20.2080 -20.2075 -20.2074
   -20.2071 -20.2071 -20.2066 -20.2062 -20.2054 -20.2051 -20.2051 -20.2050
   -20.1954 -20.1953 -20.1951 -20.1951 -20.1940 -20.1939 -20.1938 -20.1937
   -20.1706 -20.1706 -20.1692 -20.1692 -20.1684 -20.1684 -20.1684 -20.1684
   -20.1672 -20.1672 -20.1662 -20.1662 -20.1632 -20.1632 -20.1625 -20.1625
    -9.6661  -9.5082  -9.4548  -9.3079  -9.1337  -8.9285  -8.8732  -8.8525
    -8.8227  -8.7252  -8.6765  -8.6211  -8.2633  -8.2422  -8.1791  -8.1679
    -8.1493  -8.1059  -8.0783  -8.0248  -7.7224  -7.7079  -7.6600  -7.6459
     1.3663   1.3721   1.3830   1.3886   2.1788   2.2655   2.2704   2.3560
     2.4429   2.4833   2.4936   2.7137   2.8080   2.8359   2.8690   2.9483
     3.2061   3.3078   3.6487   3.6725   3.6983   3.7864   3.8510   3.8559
     4.1010   4.2580   4.3599   4.3622   4.4282   4.5824   4.6124   4.7637
     4.7690   4.8402   4.9935   5.0646   5.1648   5.1825   5.2120   5.3330
     5.3797   5.5858   5.6345   5.8259   6.1159   6.1773   6.1910   6.2296
     6.4045   6.5242   6.5625   6.6169   6.6407   6.7705   6.7835   6.8009
     6.9164   6.9724   7.0274   7.0479   7.0685   7.1258   7.1755   7.1984
     7.2580   7.3059   7.7169   7.7342   7.7620   7.7930   7.8208   7.8523
    10.4483  10.4552  10.6756  10.7296  11.2655  11.3141  11.8204  11.9282
    11.9508  12.0184  12.1735  12.2672  12.5982  12.6272  12.6702  12.6854
    12.8835  13.0953  13.1528  13.2988  13.3563  13.5211  13.7426  13.7762
    15.1289  15.2465  15.5306  15.8181  15.8901  16.0266  16.0378  16.6468
    16.7686  16.8081  17.0283  17.5439  17.6405

          k = 0.0000 0.3188-0.4990 ( 62396 PWs)   bands (ev):

   -66.0704 -66.0704 -66.0702 -66.0702 -66.0694 -66.0694 -66.0692 -66.0692
   -30.4881 -30.4881 -30.4824 -30.4824 -30.4589 -30.4589 -30.4515 -30.4515
   -30.4095 -30.4095 -30.4058 -30.4058 -30.3688 -30.3688 -30.3683 -30.3683
   -30.3652 -30.3652 -30.3644 -30.3644 -30.3131 -30.3131 -30.3111 -30.3111
   -20.2216 -20.2216 -20.2215 -20.2215 -20.2209 -20.2209 -20.2209 -20.2208
   -20.2154 -20.2154 -20.2150 -20.2149 -20.2135 -20.2135 -20.2130 -20.2130
   -20.2090 -20.2090 -20.2084 -20.2084 -20.2081 -20.2080 -20.2080 -20.2080
   -20.2069 -20.2069 -20.2067 -20.2067 -20.2053 -20.2052 -20.2050 -20.2050
   -20.1953 -20.1952 -20.1952 -20.1952 -20.1939 -20.1939 -20.1938 -20.1938
   -20.1694 -20.1694 -20.1694 -20.1694 -20.1682 -20.1682 -20.1682 -20.1682
   -20.1676 -20.1676 -20.1676 -20.1676 -20.1629 -20.1629 -20.1629 -20.1629
    -9.5424  -9.5424  -9.3872  -9.3872  -8.9550  -8.9550  -8.7541  -8.7541
    -8.5743  -8.5742  -8.5530  -8.5530  -8.5018  -8.5018  -8.4190  -8.4190
    -8.1671  -8.1671  -8.1211  -8.1211  -7.6910  -7.6910  -7.6766  -7.6766
     1.3796   1.3796   1.3861   1.3861   2.3379   2.3379   2.4696   2.4696
     2.8797   2.8797   3.0776   3.0776   3.1268   3.1268   3.2321   3.2321
     3.2858   3.2858   3.3855   3.3855   3.4546   3.4546   3.6728   3.6728
     4.0318   4.0318   4.0680   4.0680   4.0883   4.0883   4.3214   4.3214
     4.8195   4.8195   4.9400   4.9400   5.1075   5.1075   5.2499   5.2499
     5.4154   5.4154   5.7279   5.7279   6.2296   6.2296   6.2898   6.2898
     6.4551   6.4551   6.4885   6.4885   6.5399   6.5399   6.7289   6.7289
     7.0446   7.0446   7.0451   7.0451   7.0962   7.0962   7.5092   7.5092
     7.5335   7.5335   7.5391   7.5391   7.5931   7.5931   7.8307   7.8307
    10.6739  10.6740  11.2230  11.2230  11.2812  11.2812  11.7673  11.7673
    11.9643  11.9643  12.1429  12.1429  12.5996  12.5996  12.6156  12.6156
    12.9069  12.9069  12.9640  12.9640  13.3885  13.3885  13.7494  13.7494
    15.1996  15.1996  15.6899  15.6899  16.2623  16.2623  16.5344  16.5344
    16.8903  16.8903  17.2293  17.2293  17.9593

          k = 0.0000-0.4783 0.0000 ( 62502 PWs)   bands (ev):

   -66.0707 -66.0707 -66.0698 -66.0698 -66.0698 -66.0698 -66.0689 -66.0689
   -30.4760 -30.4760 -30.4707 -30.4707 -30.4695 -30.4695 -30.4644 -30.4644
   -30.4206 -30.4206 -30.4114 -30.4114 -30.4046 -30.4046 -30.4044 -30.4044
   -30.3215 -30.3215 -30.3201 -30.3201 -30.3144 -30.3144 -30.3085 -30.3085
   -20.2214 -20.2214 -20.2213 -20.2213 -20.2210 -20.2210 -20.2209 -20.2209
   -20.2146 -20.2146 -20.2144 -20.2144 -20.2141 -20.2141 -20.2139 -20.2139
   -20.2095 -20.2095 -20.2092 -20.2092 -20.2081 -20.2081 -20.2075 -20.2075
   -20.2068 -20.2068 -20.2061 -20.2061 -20.2054 -20.2054 -20.2050 -20.2050
   -20.1955 -20.1955 -20.1950 -20.1950 -20.1941 -20.1941 -20.1937 -20.1936
   -20.1719 -20.1719 -20.1704 -20.1704 -20.1689 -20.1689 -20.1678 -20.1678
   -20.1659 -20.1659 -20.1648 -20.1648 -20.1636 -20.1636 -20.1622 -20.1622
    -9.7509  -9.7509  -9.3141  -9.3141  -9.3037  -9.3037  -9.0049  -9.0049
    -8.5258  -8.5258  -8.4711  -8.4711  -8.4668  -8.4668  -8.4655  -8.4655
    -7.7634  -7.7634  -7.7424  -7.7424  -7.6287  -7.6287  -7.6228  -7.6228
     1.2378   1.2378   1.3244   1.3244   1.3554   1.3554   1.6266   1.6266
     2.4768   2.4768   3.0677   3.0677   3.1931   3.1931   3.1989   3.1989
     3.2265   3.2265   3.3153   3.3153   3.5060   3.5060   3.5493   3.5493
     3.6746   3.6746   4.7806   4.7806   4.8301   4.8301   5.1737   5.1737
     5.2413   5.2413   5.2836   5.2836   5.3166   5.3166   5.7613   5.7613
     5.7886   5.7886   5.9732   5.9732   6.0395   6.0395   6.1278   6.1278
     6.1811   6.1811   6.2727   6.2727   6.6772   6.6772   6.7008   6.7008
     6.9125   6.9125   7.3086   7.3086   7.3386   7.3386   7.4633   7.4633
     7.4729   7.4729   7.5232   7.5232   7.5342   7.5342   7.8770   7.8770
     9.4273   9.4273  11.2301  11.2301  11.3002  11.3002  11.3094  11.3094
    11.3883  11.3883  12.4122  12.4122  12.4560  12.4560  12.9176  12.9176
    13.4922  13.4922  13.5162  13.5162  13.5624  13.5624  13.6069  13.6069
    15.3597  15.3597  15.4303  15.4303  15.6760  15.6760  15.6935  15.6935
    16.5360  16.5360  17.8968  17.8968  18.1042

          k = 0.0000-0.4783 0.1663 ( 62380 PWs)   bands (ev):

   -66.0707 -66.0707 -66.0699 -66.0699 -66.0697 -66.0697 -66.0689 -66.0689
   -30.4756 -30.4756 -30.4710 -30.4710 -30.4692 -30.4692 -30.4647 -30.4647
   -30.4165 -30.4165 -30.4058 -30.4058 -30.4049 -30.4049 -30.4016 -30.4016
   -30.3281 -30.3281 -30.3255 -30.3255 -30.3141 -30.3141 -30.3095 -30.3095
   -20.2214 -20.2214 -20.2213 -20.2213 -20.2210 -20.2210 -20.2209 -20.2209
   -20.2146 -20.2146 -20.2144 -20.2144 -20.2141 -20.2141 -20.2139 -20.2139
   -20.2093 -20.2093 -20.2090 -20.2090 -20.2082 -20.2081 -20.2074 -20.2074
   -20.2070 -20.2070 -20.2062 -20.2062 -20.2054 -20.2054 -20.2050 -20.2050
   -20.1954 -20.1954 -20.1950 -20.1950 -20.1941 -20.1941 -20.1937 -20.1937
   -20.1716 -20.1716 -20.1701 -20.1701 -20.1688 -20.1688 -20.1679 -20.1679
   -20.1663 -20.1663 -20.1652 -20.1652 -20.1635 -20.1635 -20.1623 -20.1623
    -9.6987  -9.6987  -9.3187  -9.3187  -9.2301  -9.2301  -8.9655  -8.9655
    -8.5314  -8.5314  -8.4761  -8.4761  -8.4661  -8.4661  -8.4590  -8.4590
    -7.8779  -7.8779  -7.7592  -7.7592  -7.7363  -7.7363  -7.6309  -7.6309
     1.3328   1.3329   1.3596   1.3596   1.5809   1.5809   1.7902   1.7902
     2.5651   2.5651   3.0837   3.0837   3.1674   3.1674   3.2219   3.2219
     3.2724   3.2724   3.3157   3.3158   3.5193   3.5193   3.5758   3.5758
     3.7072   3.7072   4.4305   4.4305   4.8490   4.8490   4.9607   4.9607
     5.0898   5.0898   5.1960   5.1960   5.3186   5.3186   5.4936   5.4936
     5.7503   5.7504   5.7790   5.7790   6.0944   6.0944   6.1231   6.1231
     6.3575   6.3575   6.4254   6.4254   6.6699   6.6699   6.8729   6.8729
     6.9769   6.9769   7.1051   7.1051   7.1613   7.1613   7.4594   7.4595
     7.4763   7.4764   7.5117   7.5118   7.5175   7.5175   7.8722   7.8722
     9.7596   9.7596  11.2989  11.2989  11.3504  11.3504  11.3707  11.3707
    11.4501  11.4501  12.3131  12.3131  12.5033  12.5033  12.9633  12.9633
    13.3258  13.3258  13.3989  13.3989  13.5138  13.5138  13.6253  13.6253
    15.3573  15.3573  15.6230  15.6230  15.6808  15.6808  15.9598  15.9598
    16.6010  16.6010  17.8237  17.8240  17.9369

          k = 0.0000-0.4783 0.3327 ( 62428 PWs)   bands (ev):

   -66.0705 -66.0705 -66.0700 -66.0700 -66.0695 -66.0695 -66.0691 -66.0691
   -30.4745 -30.4745 -30.4719 -30.4719 -30.4682 -30.4682 -30.4656 -30.4656
   -30.4107 -30.4106 -30.4061 -30.4061 -30.3909 -30.3909 -30.3876 -30.3876
   -30.3454 -30.3454 -30.3419 -30.3419 -30.3133 -30.3133 -30.3108 -30.3108
   -20.2213 -20.2213 -20.2212 -20.2212 -20.2211 -20.2211 -20.2210 -20.2210
   -20.2146 -20.2146 -20.2144 -20.2144 -20.2141 -20.2141 -20.2139 -20.2139
   -20.2090 -20.2090 -20.2086 -20.2086 -20.2084 -20.2083 -20.2074 -20.2074
   -20.2072 -20.2072 -20.2065 -20.2065 -20.2053 -20.2053 -20.2051 -20.2051
   -20.1953 -20.1953 -20.1951 -20.1951 -20.1940 -20.1940 -20.1938 -20.1937
   -20.1706 -20.1706 -20.1692 -20.1692 -20.1684 -20.1684 -20.1684 -20.1684
   -20.1672 -20.1672 -20.1662 -20.1662 -20.1632 -20.1632 -20.1625 -20.1625
    -9.5744  -9.5744  -9.3654  -9.3653  -8.9986  -8.9986  -8.8327  -8.8327
    -8.5644  -8.5644  -8.4979  -8.4979  -8.4574  -8.4574  -8.4330  -8.4330
    -8.1660  -8.1660  -8.0652  -8.0652  -7.7155  -7.7155  -7.6533  -7.6532
     1.3709   1.3709   1.3874   1.3874   2.2605   2.2605   2.4226   2.4226
     2.8195   2.8195   3.1074   3.1074   3.1626   3.1627   3.2386   3.2386
     3.2703   3.2703   3.3984   3.3984   3.5010   3.5010   3.7026   3.7026
     3.7835   3.7835   3.8460   3.8460   4.4411   4.4411   4.5984   4.5984
     4.7793   4.7793   4.8552   4.8552   5.1907   5.1907   5.2279   5.2279
     5.3699   5.3699   5.6659   5.6659   6.1717   6.1717   6.2347   6.2347
     6.4935   6.4935   6.5889   6.5889   6.6661   6.6661   6.8152   6.8152
     7.0337   7.0337   7.1650   7.1650   7.1710   7.1710   7.4327   7.4327
     7.4639   7.4639   7.4952   7.4952   7.5075   7.5075   7.7976   7.7976
    10.4661  10.4661  11.3078  11.3078  11.3595  11.3595  11.7165  11.7165
    11.7865  11.7865  11.9310  11.9311  12.6536  12.6536  12.7763  12.7763
    12.8750  12.8750  13.1533  13.1533  13.5110  13.5110  13.5817  13.5817
    15.4078  15.4078  15.6118  15.6118  16.2184  16.2184  16.6992  16.6992
    16.8401  16.8401  17.3180  17.3181  17.9320

          k = 0.0000-0.4783-0.4990 ( 62440 PWs)   bands (ev):

   -66.0703 -66.0703 -66.0703 -66.0703 -66.0693 -66.0693 -66.0693 -66.0693
   -30.4732 -30.4732 -30.4732 -30.4732 -30.4669 -30.4669 -30.4669 -30.4669
   -30.4079 -30.4078 -30.4078 -30.4078 -30.3687 -30.3687 -30.3687 -30.3686
   -30.3649 -30.3649 -30.3649 -30.3649 -30.3121 -30.3121 -30.3121 -30.3121
   -20.2212 -20.2212 -20.2212 -20.2212 -20.2211 -20.2211 -20.2211 -20.2211
   -20.2145 -20.2145 -20.2145 -20.2145 -20.2140 -20.2140 -20.2140 -20.2140
   -20.2087 -20.2087 -20.2087 -20.2086 -20.2080 -20.2080 -20.2080 -20.2080
   -20.2068 -20.2068 -20.2068 -20.2068 -20.2052 -20.2052 -20.2052 -20.2052
   -20.1952 -20.1952 -20.1952 -20.1952 -20.1939 -20.1939 -20.1939 -20.1938
   -20.1694 -20.1694 -20.1694 -20.1694 -20.1682 -20.1682 -20.1682 -20.1682
   -20.1676 -20.1676 -20.1676 -20.1676 -20.1629 -20.1629 -20.1629 -20.1629
    -9.4499  -9.4499  -9.4499  -9.4499  -8.7103  -8.7103  -8.7103  -8.7103
    -8.6098  -8.6098  -8.6098  -8.6098  -8.4086  -8.4086  -8.4086  -8.4086
    -8.3409  -8.3409  -8.3409  -8.3409  -7.6841  -7.6841  -7.6841  -7.6841
     1.3847   1.3847   1.3847   1.3847   3.0009   3.0009   3.0009   3.0009
     3.1224   3.1224   3.1224   3.1224   3.2228   3.2228   3.2228   3.2228
     3.2784   3.2784   3.2784   3.2784   3.4876   3.4876   3.4876   3.4876
     3.6194   3.6194   3.6194   3.6194   4.2897   4.2897   4.2897   4.2897
     4.3957   4.3958   4.3958   4.3958   5.1945   5.1945   5.1945   5.1945
     5.5094   5.5094   5.5094   5.5094   6.2824   6.2824   6.2824   6.2824
     6.5044   6.5044   6.5044   6.5044   6.6099   6.6099   6.6099   6.6099
     7.2845   7.2845   7.2845   7.2845   7.3598   7.3598   7.3598   7.3599
     7.4580   7.4580   7.4580   7.4580   7.6010   7.6010   7.6010   7.6010
    11.1921  11.1921  11.1921  11.1921  11.3950  11.3950  11.3950  11.3950
    12.2557  12.2557  12.2557  12.2557  12.2969  12.2969  12.2969  12.2969
    12.9099  12.9099  12.9099  12.9099  13.5257  13.5257  13.5257  13.5257
    15.5151  15.5152  15.5152  15.5152  16.8173  16.8173  16.8173  16.8173
    17.4021  17.4023  17.4023  17.4023  17.5348

          k = 0.1667 0.0000 0.0000 ( 62403 PWs)   bands (ev):

   -66.0709 -66.0704 -66.0701 -66.0700 -66.0696 -66.0695 -66.0692 -66.0687
   -30.5051 -30.5004 -30.5004 -30.4959 -30.4488 -30.4419 -30.4416 -30.4335
   -30.4196 -30.4179 -30.4112 -30.4099 -30.4034 -30.4018 -30.3935 -30.3928
   -30.3239 -30.3224 -30.3221 -30.3217 -30.3201 -30.3185 -30.3135 -30.3114
   -20.2223 -20.2222 -20.2218 -20.2217 -20.2210 -20.2209 -20.2205 -20.2204
   -20.2162 -20.2160 -20.2159 -20.2157 -20.2127 -20.2123 -20.2121 -20.2117
   -20.2097 -20.2094 -20.2092 -20.2091 -20.2087 -20.2074 -20.2073 -20.2070
   -20.2069 -20.2068 -20.2066 -20.2058 -20.2055 -20.2052 -20.2049 -20.2048
   -20.1954 -20.1953 -20.1950 -20.1949 -20.1943 -20.1941 -20.1938 -20.1936
   -20.1719 -20.1718 -20.1706 -20.1705 -20.1686 -20.1686 -20.1675 -20.1674
   -20.1658 -20.1658 -20.1650 -20.1649 -20.1639 -20.1639 -20.1625 -20.1625
    -9.8989  -9.5864  -9.5402  -9.4679  -9.2445  -9.1341  -9.1276  -8.9791
    -8.9548  -8.8919  -8.8809  -8.8384  -7.9126  -7.8613  -7.8357  -7.8151
    -7.8002  -7.7642  -7.7476  -7.7422  -7.7419  -7.7259  -7.6496  -7.6218
     1.2977   1.3001   1.3123   1.3276   1.4233   1.4538   1.5579   1.5811
     1.6098   1.7246   1.8238   1.9784   2.5163   2.5736   2.6102   2.6381
     2.7044   2.7806   4.0907   4.1913   4.3528   4.3754   4.4649   4.4653
     4.5756   4.7383   4.7970   4.8279   4.8493   4.9874   5.1057   5.3611
     5.3747   5.4081   5.4855   5.5352   5.5867   5.5962   5.5992   5.6609
     5.7198   5.8188   5.8245   5.8730   6.0098   6.0339   6.1116   6.1129
     6.2927   6.4153   6.4375   6.4771   6.7219   6.7404   6.7428   6.7624
     6.8457   6.8685   6.9136   6.9760   6.9797   7.0211   7.1461   7.1487
     7.1523   7.1765   7.8624   7.8686   7.9823   8.0456   8.1022   8.1486
     9.7363   9.7605   9.9688   9.9907  10.2151  10.2627  12.2379  12.3190
    12.3731  12.3736  12.4468  12.5019  12.5731  12.6906  12.7486  12.9664
    13.1297  13.2393  13.3014  13.3451  13.7796  13.8814  14.1333  14.1418
    14.3048  14.4473  14.6771  14.9461  15.4205  15.4421  15.5337  15.9962
    16.3792  16.7501  17.0081  17.2628  17.5208

          k = 0.1667 0.0000 0.1663 ( 62394 PWs)   bands (ev):

   -66.0708 -66.0704 -66.0700 -66.0700 -66.0696 -66.0695 -66.0692 -66.0688
   -30.5048 -30.5008 -30.5002 -30.4963 -30.4479 -30.4419 -30.4408 -30.4339
   -30.4149 -30.4132 -30.4053 -30.4047 -30.4021 -30.4012 -30.3939 -30.3914
   -30.3290 -30.3275 -30.3271 -30.3255 -30.3222 -30.3182 -30.3164 -30.3129
   -20.2223 -20.2222 -20.2219 -20.2218 -20.2209 -20.2209 -20.2205 -20.2205
   -20.2162 -20.2161 -20.2159 -20.2157 -20.2126 -20.2124 -20.2121 -20.2118
   -20.2097 -20.2092 -20.2091 -20.2090 -20.2087 -20.2074 -20.2073 -20.2071
   -20.2070 -20.2069 -20.2065 -20.2057 -20.2056 -20.2052 -20.2049 -20.2049
   -20.1954 -20.1952 -20.1950 -20.1949 -20.1943 -20.1940 -20.1938 -20.1937
   -20.1715 -20.1715 -20.1702 -20.1702 -20.1685 -20.1685 -20.1676 -20.1676
   -20.1662 -20.1662 -20.1653 -20.1653 -20.1639 -20.1638 -20.1626 -20.1626
    -9.8518  -9.5275  -9.4834  -9.4827  -9.1563  -9.1427  -9.1408  -8.9377
    -8.9203  -8.8851  -8.8479  -8.8427  -7.9182  -7.8838  -7.8551  -7.8541
    -7.8328  -7.8213  -7.7981  -7.7808  -7.7632  -7.7510  -7.7417  -7.7235
     1.4064   1.4453   1.4459   1.4955   1.4982   1.5516   1.5867   1.6149
     1.6964   1.7264   1.8996   2.0526   2.6037   2.6451   2.6582   2.7045
     2.7656   2.8027   4.0907   4.1126   4.3448   4.3507   4.4719   4.4838
     4.5192   4.5197   4.6116   4.6182   4.7288   4.7982   5.0944   5.2434
     5.2776   5.3320   5.3349   5.4965   5.5261   5.5784   5.5985   5.6966
     5.7085   5.7365   5.7493   5.7705   5.8324   6.0162   6.2404   6.3553
     6.3774   6.4765   6.5576   6.6591   6.6650   6.6724   6.6996   6.7399
     6.7439   6.8107   6.8403   6.8582   6.8944   6.9558   6.9607   7.0608
     7.2362   7.2810   7.8560   7.8581   7.9991   8.0483   8.0670   8.1029
     9.9440   9.9962  10.1991  10.2326  10.2424  10.3374  12.2898  12.3035
    12.3559  12.3691  12.4151  12.4556  12.6509  12.6847  12.7747  12.9163
    13.0432  13.1552  13.2487  13.3472  13.8210  13.8689  13.9943  14.0266
    14.3521  14.5741  14.6704  15.0660  15.5007  15.5107  15.5209  16.3062
    16.3465  16.9157  16.9442  17.1584  17.5671

          k = 0.1667 0.0000 0.3327 ( 62406 PWs)   bands (ev):

   -66.0707 -66.0702 -66.0702 -66.0698 -66.0697 -66.0694 -66.0694 -66.0689
   -30.5040 -30.5017 -30.4994 -30.4971 -30.4461 -30.4429 -30.4387 -30.4349
   -30.4071 -30.4045 -30.4031 -30.3956 -30.3900 -30.3896 -30.3871 -30.3842
   -30.3459 -30.3441 -30.3433 -30.3412 -30.3215 -30.3189 -30.3174 -30.3148
   -20.2222 -20.2221 -20.2220 -20.2219 -20.2209 -20.2208 -20.2206 -20.2205
   -20.2162 -20.2161 -20.2158 -20.2158 -20.2126 -20.2124 -20.2121 -20.2119
   -20.2094 -20.2090 -20.2087 -20.2086 -20.2086 -20.2077 -20.2076 -20.2075
   -20.2069 -20.2068 -20.2065 -20.2060 -20.2056 -20.2052 -20.2050 -20.2049
   -20.1953 -20.1951 -20.1951 -20.1949 -20.1942 -20.1939 -20.1939 -20.1937
   -20.1706 -20.1705 -20.1693 -20.1693 -20.1683 -20.1683 -20.1680 -20.1680
   -20.1671 -20.1671 -20.1663 -20.1663 -20.1636 -20.1636 -20.1629 -20.1629
    -9.7381  -9.5319  -9.3891  -9.3506  -9.1823  -9.1720  -8.9052  -8.8859
    -8.8543  -8.7927  -8.7804  -8.7230  -8.1790  -8.1772  -8.1170  -8.0983
    -7.8737  -7.8430  -7.8166  -7.8130  -7.7823  -7.7659  -7.7598  -7.7590
     1.4176   1.4356   1.5087   1.5382   1.6274   1.6395   1.7020   1.7320
     2.2805   2.3247   2.4330   2.5222   2.6672   2.7484   2.8641   2.9014
     2.9784   3.0411   3.7777   3.8768   3.9335   3.9604   4.1081   4.3124
     4.3350   4.4650   4.5059   4.5463   4.5797   4.7470   4.7646   4.8872
     4.9967   5.0570   5.0763   5.2188   5.2526   5.3609   5.5853   5.6191
     5.7144   5.7500   5.7765   5.8359   5.8491   6.0091   6.0901   6.1389
     6.4095   6.4174   6.4952   6.5283   6.5419   6.6811   6.6929   6.7118
     6.7356   6.8614   6.8781   6.8811   7.0843   7.0993   7.1821   7.1959
     7.2859   7.3352   7.7822   7.7942   7.9130   7.9586   8.0408   8.0504
    10.1939  10.1968  10.5718  10.6501  10.8556  10.9574  11.9365  11.9915
    12.1832  12.4362  12.4433  12.5154  12.5773  12.6834  12.7855  12.8171
    12.8861  13.0977  13.1262  13.2675  13.6517  13.6710  13.8636  13.8935
    14.4956  14.6489  14.8966  15.3775  15.4011  15.7842  15.9540  16.2543
    16.3723  17.1661  17.3672  17.4725  17.6014

          k = 0.1667 0.0000-0.4990 ( 62412 PWs)   bands (ev):

   -66.0704 -66.0704 -66.0700 -66.0700 -66.0696 -66.0696 -66.0692 -66.0691
   -30.5029 -30.5029 -30.4983 -30.4983 -30.4444 -30.4444 -30.4366 -30.4366
   -30.4048 -30.4047 -30.3981 -30.3981 -30.3684 -30.3684 -30.3675 -30.3675
   -30.3653 -30.3653 -30.3642 -30.3642 -30.3204 -30.3204 -30.3162 -30.3162
   -20.2221 -20.2221 -20.2220 -20.2220 -20.2207 -20.2207 -20.2207 -20.2207
   -20.2161 -20.2161 -20.2158 -20.2158 -20.2125 -20.2125 -20.2120 -20.2120
   -20.2092 -20.2092 -20.2083 -20.2083 -20.2081 -20.2081 -20.2080 -20.2080
   -20.2067 -20.2067 -20.2064 -20.2064 -20.2054 -20.2054 -20.2050 -20.2049
   -20.1952 -20.1952 -20.1950 -20.1950 -20.1940 -20.1940 -20.1938 -20.1938
   -20.1693 -20.1693 -20.1693 -20.1693 -20.1680 -20.1680 -20.1680 -20.1680
   -20.1675 -20.1675 -20.1675 -20.1675 -20.1633 -20.1633 -20.1633 -20.1632
    -9.6182  -9.6182  -9.2608  -9.2608  -9.2351  -9.2351  -8.8695  -8.8695
    -8.5518  -8.5518  -8.5351  -8.5351  -8.4984  -8.4984  -8.4511  -8.4511
    -7.8555  -7.8555  -7.8014  -7.8014  -7.7810  -7.7810  -7.7709  -7.7709
     1.4249   1.4249   1.5243   1.5243   1.6433   1.6433   1.7358   1.7358
     2.6921   2.6921   3.0254   3.0254   3.0952   3.0952   3.2025   3.2025
     3.2857   3.2857   3.3943   3.3943   3.5587   3.5587   3.7889   3.7889
     3.8345   3.8345   4.4206   4.4206   4.5059   4.5059   4.9085   4.9085
     5.0099   5.0099   5.0518   5.0518   5.2148   5.2149   5.6487   5.6487
     5.7397   5.7397   5.8071   5.8071   5.8786   5.8786   5.9937   5.9938
     6.3266   6.3266   6.4408   6.4408   6.6279   6.6279   6.7118   6.7118
     6.8279   6.8280   6.9347   6.9347   6.9914   6.9914   7.5365   7.5365
     7.5754   7.5754   7.6590   7.6590   7.7008   7.7008   8.0491   8.0491
    10.2058  10.2058  11.2831  11.2831  11.3637  11.3637  11.5828  11.5828
    11.7346  11.7346  12.5990  12.5990  12.7067  12.7067  12.7942  12.7942
    12.9358  12.9358  13.2557  13.2557  13.3404  13.3404  13.8738  13.8738
    14.6008  14.6008  15.2049  15.2050  15.8215  15.8215  16.0665  16.0665
    16.7449  16.7449  17.7928  17.7929  17.8913

          k = 0.1667 0.1594 0.0000 ( 62403 PWs)   bands (ev):

   -66.0709 -66.0705 -66.0700 -66.0700 -66.0696 -66.0696 -66.0691 -66.0687
   -30.5011 -30.4964 -30.4963 -30.4918 -30.4521 -30.4454 -30.4451 -30.4377
   -30.4196 -30.4180 -30.4113 -30.4105 -30.4030 -30.4014 -30.3944 -30.3940
   -30.3238 -30.3224 -30.3220 -30.3215 -30.3203 -30.3188 -30.3135 -30.3117
   -20.2222 -20.2221 -20.2217 -20.2216 -20.2210 -20.2209 -20.2205 -20.2205
   -20.2160 -20.2158 -20.2157 -20.2155 -20.2129 -20.2126 -20.2124 -20.2120
   -20.2097 -20.2094 -20.2092 -20.2091 -20.2086 -20.2074 -20.2072 -20.2071
   -20.2070 -20.2068 -20.2065 -20.2057 -20.2056 -20.2052 -20.2050 -20.2049
   -20.1954 -20.1953 -20.1950 -20.1949 -20.1943 -20.1941 -20.1938 -20.1937
   -20.1719 -20.1718 -20.1706 -20.1705 -20.1686 -20.1686 -20.1675 -20.1674
   -20.1658 -20.1658 -20.1650 -20.1649 -20.1639 -20.1639 -20.1625 -20.1625
    -9.8660  -9.5984  -9.5008  -9.4222  -9.2524  -9.1358  -9.0578  -8.9753
    -8.9560  -8.8494  -8.8428  -8.8062  -7.9730  -7.9171  -7.9057  -7.8697
    -7.8633  -7.8483  -7.7683  -7.7484  -7.7438  -7.7265  -7.6480  -7.6248
     1.3119   1.3120   1.3184   1.3279   1.5495   1.5838   1.6102   1.7676
     1.8020   1.8293   1.8677   2.0755   2.5243   2.6040   2.6490   2.7132
     2.7787   2.8501   3.9835   4.0545   4.1195   4.1948   4.3854   4.4622
     4.5807   4.6657   4.8039   4.8268   4.8744   4.9220   4.9511   5.2464
     5.2993   5.3013   5.3681   5.4739   5.5374   5.5668   5.6256   5.7058
     5.7531   5.7864   5.8491   5.8611   5.9128   6.0578   6.1108   6.1188
     6.2312   6.4046   6.4202   6.5058   6.6975   6.7438   6.7854   6.7982
     6.8160   6.8992   6.9042   6.9602   6.9663   6.9988   7.1428   7.1525
     7.1604   7.1770   7.8611   7.8688   7.9533   7.9909   8.0468   8.0696
     9.7458   9.7632  10.1614  10.1631  10.3922  10.4173  12.1490  12.3223
    12.3276  12.3548  12.4055  12.4212  12.4524  12.5551  12.7823  12.9598
    13.1456  13.2482  13.3105  13.3360  13.8163  13.8330  14.0336  14.0432
    14.4903  14.7168  14.9123  15.1009  15.4227  15.4394  15.9168  15.9873
    16.3440  16.6880  16.8850  17.3705  17.5813

          k = 0.1667 0.1594 0.1663 ( 62398 PWs)   bands (ev):

   -66.0708 -66.0704 -66.0700 -66.0700 -66.0696 -66.0696 -66.0692 -66.0688
   -30.5008 -30.4967 -30.4960 -30.4921 -30.4513 -30.4456 -30.4444 -30.4380
   -30.4148 -30.4133 -30.4054 -30.4051 -30.4018 -30.4009 -30.3948 -30.3925
   -30.3289 -30.3274 -30.3272 -30.3256 -30.3219 -30.3185 -30.3162 -30.3132
   -20.2222 -20.2220 -20.2217 -20.2216 -20.2210 -20.2209 -20.2206 -20.2205
   -20.2160 -20.2159 -20.2157 -20.2155 -20.2129 -20.2126 -20.2124 -20.2121
   -20.2096 -20.2092 -20.2091 -20.2090 -20.2086 -20.2074 -20.2073 -20.2071
   -20.2070 -20.2069 -20.2065 -20.2057 -20.2057 -20.2052 -20.2050 -20.2049
   -20.1954 -20.1952 -20.1950 -20.1949 -20.1942 -20.1940 -20.1938 -20.1937
   -20.1715 -20.1715 -20.1702 -20.1702 -20.1685 -20.1685 -20.1676 -20.1676
   -20.1662 -20.1662 -20.1653 -20.1653 -20.1639 -20.1638 -20.1626 -20.1626
    -9.8173  -9.5396  -9.4387  -9.4379  -9.1642  -9.1493  -9.0666  -8.9363
    -8.9214  -8.8420  -8.8146  -8.8103  -7.9769  -7.9207  -7.9129  -7.8820
    -7.8728  -7.8624  -7.8458  -7.8408  -7.7892  -7.7638  -7.7477  -7.7270
     1.4903   1.4967   1.5390   1.5520   1.5870   1.5938   1.6182   1.7663
     1.8419   1.8654   1.9001   2.1291   2.6135   2.6958   2.7224   2.7354
     2.8392   2.8713   3.9976   4.0252   4.1417   4.1742   4.4250   4.4537
     4.5078   4.5274   4.5945   4.6440   4.6607   4.7485   4.9161   5.1567
     5.2219   5.2468   5.3038   5.3559   5.3866   5.5234   5.5331   5.6183
     5.7409   5.7566   5.7949   5.8213   5.8281   5.8953   6.2444   6.3417
     6.3503   6.3988   6.5438   6.6219   6.6770   6.6931   6.7481   6.7632
     6.7971   6.8142   6.8630   6.8935   6.9381   6.9421   6.9785   7.0703
     7.2405   7.2800   7.8540   7.8585   7.9566   7.9938   8.0150   8.0296
     9.9699  10.0067  10.3560  10.3856  10.4089  10.4767  12.2124  12.2792
    12.3478  12.3730  12.3770  12.3886  12.5090  12.5329  12.8106  12.9363
    13.0349  13.1392  13.2520  13.3448  13.8086  13.8272  13.8912  13.9385
    14.5811  14.8666  14.9106  15.2040  15.5102  15.5183  15.9044  16.2784
    16.3131  16.8142  17.0280  17.0554  17.5655

          k = 0.1667 0.1594 0.3327 ( 62405 PWs)   bands (ev):

   -66.0706 -66.0702 -66.0702 -66.0698 -66.0698 -66.0694 -66.0694 -66.0690
   -30.4999 -30.4976 -30.4953 -30.4930 -30.4496 -30.4465 -30.4425 -30.4391
   -30.4069 -30.4046 -30.4028 -30.3964 -30.3901 -30.3898 -30.3872 -30.3849
   -30.3459 -30.3443 -30.3432 -30.3414 -30.3213 -30.3187 -30.3177 -30.3151
   -20.2221 -20.2220 -20.2218 -20.2217 -20.2209 -20.2208 -20.2207 -20.2206
   -20.2160 -20.2159 -20.2156 -20.2155 -20.2129 -20.2127 -20.2123 -20.2121
   -20.2094 -20.2090 -20.2087 -20.2086 -20.2086 -20.2077 -20.2076 -20.2075
   -20.2069 -20.2069 -20.2066 -20.2060 -20.2056 -20.2052 -20.2051 -20.2050
   -20.1953 -20.1952 -20.1951 -20.1950 -20.1941 -20.1940 -20.1939 -20.1937
   -20.1706 -20.1705 -20.1693 -20.1693 -20.1683 -20.1683 -20.1680 -20.1680
   -20.1671 -20.1671 -20.1663 -20.1663 -20.1636 -20.1636 -20.1629 -20.1629
    -9.6995  -9.4874  -9.4011  -9.2926  -9.1915  -9.0966  -8.9136  -8.8604
    -8.8216  -8.7941  -8.7653  -8.7036  -8.1846  -8.1769  -8.1332  -8.0961
    -7.9384  -7.9198  -7.8896  -7.8628  -7.8398  -7.8187  -7.7800  -7.7604
     1.5531   1.5651   1.6256   1.6376   1.7270   1.7409   1.8156   1.8638
     2.2796   2.3334   2.4342   2.5364   2.7413   2.8149   2.8846   2.9742
     2.9772   3.1023   3.7830   3.8859   3.9077   3.9306   4.1446   4.1622
     4.2193   4.3757   4.4487   4.5471   4.5739   4.6876   4.7255   4.8187
     4.8354   4.9257   4.9652   5.1261   5.1765   5.2446   5.3547   5.5792
     5.6284   5.6483   5.7746   5.8033   5.8419   5.8591   6.0772   6.1317
     6.3487   6.4986   6.5313   6.6148   6.6775   6.6820   6.6970   6.7668
     6.8017   6.8631   6.9075   6.9488   7.0768   7.1058   7.1793   7.2015
     7.2833   7.3311   7.7832   7.7912   7.8697   7.9026   7.9874   7.9956
    10.3498  10.3668  10.5942  10.6626  10.9650  11.0427  11.9373  11.9885
    12.1786  12.4074  12.4755  12.5201  12.5248  12.5312  12.7151  12.7619
    12.8204  13.0595  13.1174  13.2641  13.5400  13.5726  13.8280  13.8468
    14.7603  14.8906  15.2438  15.4874  15.7743  15.8072  15.9683  16.2248
    16.4793  17.1333  17.2098  17.4324  17.5233

          k = 0.1667 0.1594-0.4990 ( 62412 PWs)   bands (ev):

   -66.0704 -66.0704 -66.0700 -66.0700 -66.0696 -66.0696 -66.0692 -66.0692
   -30.4988 -30.4988 -30.4942 -30.4942 -30.4480 -30.4480 -30.4407 -30.4406
   -30.4044 -30.4044 -30.3987 -30.3987 -30.3685 -30.3684 -30.3676 -30.3676
   -30.3654 -30.3654 -30.3644 -30.3643 -30.3201 -30.3201 -30.3165 -30.3165
   -20.2220 -20.2220 -20.2219 -20.2218 -20.2208 -20.2208 -20.2207 -20.2207
   -20.2159 -20.2159 -20.2156 -20.2156 -20.2128 -20.2128 -20.2123 -20.2122
   -20.2091 -20.2091 -20.2083 -20.2083 -20.2081 -20.2081 -20.2080 -20.2080
   -20.2067 -20.2067 -20.2065 -20.2064 -20.2054 -20.2054 -20.2050 -20.2050
   -20.1952 -20.1952 -20.1951 -20.1950 -20.1940 -20.1940 -20.1939 -20.1938
   -20.1693 -20.1693 -20.1693 -20.1693 -20.1680 -20.1680 -20.1680 -20.1680
   -20.1675 -20.1675 -20.1675 -20.1675 -20.1633 -20.1633 -20.1633 -20.1632
    -9.5757  -9.5757  -9.2714  -9.2714  -9.1639  -9.1639  -8.8371  -8.8371
    -8.5575  -8.5575  -8.5368  -8.5368  -8.4990  -8.4989  -8.4456  -8.4456
    -7.9318  -7.9318  -7.8788  -7.8788  -7.8108  -7.8108  -7.7891  -7.7891
     1.5598   1.5598   1.6413   1.6413   1.7411   1.7412   1.8591   1.8591
     2.7620   2.7620   3.0437   3.0437   3.1180   3.1180   3.2097   3.2097
     3.2881   3.2881   3.4081   3.4081   3.5499   3.5500   3.8013   3.8013
     3.8842   3.8842   4.2809   4.2809   4.4495   4.4495   4.7107   4.7107
     4.9008   4.9008   5.0146   5.0146   5.0787   5.0787   5.4602   5.4602
     5.6937   5.6937   5.7156   5.7156   5.8666   5.8666   5.8870   5.8870
     6.4533   6.4533   6.6014   6.6014   6.6324   6.6324   6.7294   6.7294
     6.8940   6.8940   6.9074   6.9074   7.0256   7.0256   7.5364   7.5364
     7.5708   7.5708   7.6344   7.6344   7.6722   7.6722   7.9932   7.9932
    10.3784  10.3784  11.2908  11.2908  11.3640  11.3640  11.6509  11.6510
    11.7920  11.7920  12.5497  12.5497  12.6130  12.6130  12.7706  12.7706
    12.9156  12.9156  13.1419  13.1419  13.2716  13.2716  13.8282  13.8282
    14.8528  14.8528  15.5810  15.5810  15.9361  15.9361  16.0475  16.0475
    16.7831  16.7831  17.6300  17.6300  17.8779

          k = 0.1667 0.3188 0.0000 ( 62405 PWs)   bands (ev):

   -66.0708 -66.0706 -66.0700 -66.0699 -66.0697 -66.0696 -66.0690 -66.0688
   -30.4901 -30.4852 -30.4850 -30.4803 -30.4615 -30.4556 -30.4552 -30.4491
   -30.4194 -30.4185 -30.4116 -30.4115 -30.4018 -30.4004 -30.3966 -30.3963
   -30.3233 -30.3225 -30.3217 -30.3211 -30.3207 -30.3195 -30.3133 -30.3122
   -20.2218 -20.2217 -20.2213 -20.2213 -20.2212 -20.2211 -20.2207 -20.2206
   -20.2154 -20.2153 -20.2151 -20.2149 -20.2136 -20.2134 -20.2131 -20.2129
   -20.2096 -20.2094 -20.2092 -20.2091 -20.2084 -20.2076 -20.2073 -20.2072
   -20.2070 -20.2068 -20.2063 -20.2058 -20.2057 -20.2054 -20.2051 -20.2050
   -20.1954 -20.1953 -20.1950 -20.1949 -20.1942 -20.1941 -20.1938 -20.1937
   -20.1719 -20.1718 -20.1706 -20.1705 -20.1686 -20.1686 -20.1675 -20.1674
   -20.1658 -20.1658 -20.1650 -20.1649 -20.1639 -20.1639 -20.1625 -20.1625
    -9.7863  -9.6356  -9.4115  -9.3169  -9.2781  -9.1635  -8.9696  -8.9594
    -8.8422  -8.7124  -8.7100  -8.6907  -8.2131  -8.1692  -8.1635  -8.1441
    -7.8745  -7.8595  -7.7656  -7.7510  -7.7453  -7.7316  -7.6434  -7.6304
     1.3131   1.3149   1.3275   1.3286   1.5978   1.6082   1.7710   1.8189
     2.3352   2.4473   2.4792   2.5423   2.5873   2.6188   2.8844   2.9357
     3.0072   3.0577   3.6126   3.6406   3.7241   3.7616   4.1184   4.3833
     4.4283   4.4845   4.5317   4.7157   4.7329   4.7942   4.8785   4.8798
     5.0200   5.0409   5.2012   5.3184   5.3771   5.4710   5.5766   5.6398
     5.7002   5.7710   5.8082   5.8710   6.0641   6.0660   6.1084   6.1242
     6.2250   6.3634   6.4159   6.5509   6.5965   6.8131   6.8207   6.8864
     6.9380   6.9558   7.0404   7.0771   7.0773   7.0884   7.1600   7.1616
     7.1993   7.2169   7.7758   7.8083   7.8267   7.8563   7.8795   7.8826
     9.7581   9.7655  10.6268  10.6702  10.8474  10.8582  11.7992  11.9439
    11.9888  12.0639  12.3388  12.3482  12.4516  12.4767  12.8672  12.9598
    13.2186  13.2837  13.3709  13.3881  13.6371  13.6481  13.7964  13.8081
    15.0126  15.2545  15.3775  15.4361  15.5215  15.7021  15.8685  16.1352
    16.2253  16.9302  17.2559  17.3536  17.7956

          k = 0.1667 0.3188 0.1663 ( 62393 PWs)   bands (ev):

   -66.0707 -66.0705 -66.0699 -66.0699 -66.0697 -66.0697 -66.0691 -66.0689
   -30.4897 -30.4855 -30.4848 -30.4807 -30.4609 -30.4558 -30.4547 -30.4495
   -30.4145 -30.4136 -30.4058 -30.4057 -30.4007 -30.3999 -30.3966 -30.3951
   -30.3286 -30.3276 -30.3271 -30.3260 -30.3213 -30.3193 -30.3157 -30.3140
   -20.2218 -20.2217 -20.2214 -20.2213 -20.2211 -20.2210 -20.2207 -20.2207
   -20.2154 -20.2153 -20.2150 -20.2149 -20.2136 -20.2134 -20.2131 -20.2129
   -20.2095 -20.2092 -20.2091 -20.2090 -20.2084 -20.2077 -20.2072 -20.2072
   -20.2072 -20.2070 -20.2064 -20.2059 -20.2056 -20.2054 -20.2051 -20.2051
   -20.1954 -20.1953 -20.1950 -20.1949 -20.1942 -20.1941 -20.1938 -20.1937
   -20.1715 -20.1715 -20.1702 -20.1702 -20.1685 -20.1685 -20.1676 -20.1676
   -20.1662 -20.1662 -20.1653 -20.1653 -20.1639 -20.1639 -20.1626 -20.1626
    -9.7338  -9.5775  -9.3377  -9.3329  -9.1908  -9.1777  -8.9330  -8.9246
    -8.8507  -8.7041  -8.6962  -8.6942  -8.2151  -8.1716  -8.1651  -8.1497
    -7.8782  -7.8736  -7.8530  -7.8497  -7.7872  -7.7730  -7.7453  -7.7325
     1.4922   1.4954   1.5793   1.5861   1.6035   1.6138   1.8338   1.8947
     2.3388   2.4457   2.4676   2.6035   2.6357   2.6888   2.9445   2.9766
     3.0521   3.0938   3.6451   3.6803   3.7271   3.7648   4.1061   4.4107
     4.4404   4.4532   4.4800   4.5345   4.5818   4.7174   4.7330   4.8103
     4.8459   4.8838   5.1078   5.1390   5.3665   5.3752   5.3801   5.4225
     5.6562   5.6726   5.7413   5.7553   5.8295   5.8339   6.2867   6.3274
     6.3899   6.4394   6.5248   6.6144   6.7277   6.7653   6.8018   6.8332
     6.8901   6.9091   6.9857   7.0001   7.0734   7.0978   7.1101   7.1369
     7.2705   7.2875   7.7766   7.7956   7.8049   7.8351   7.8664   7.8784
     9.9978  10.0119  10.7868  10.8139  10.8644  10.8940  11.8840  11.9681
    12.0408  12.0625  12.3557  12.3814  12.3846  12.4092  12.9026  12.9645
    13.1159  13.1873  13.2690  13.3569  13.5843  13.6392  13.6561  13.7319
    15.1578  15.4296  15.4769  15.5120  15.5531  15.7635  16.1704  16.1984
    16.2661  16.8970  17.3226  17.4008  17.4303

          k = 0.1667 0.3188 0.3327 ( 62412 PWs)   bands (ev):

   -66.0706 -66.0703 -66.0701 -66.0699 -66.0697 -66.0695 -66.0693 -66.0690
   -30.4889 -30.4864 -30.4840 -30.4816 -30.4596 -30.4568 -30.4534 -30.4504
   -30.4063 -30.4049 -30.4018 -30.3982 -30.3903 -30.3901 -30.3874 -30.3863
   -30.3456 -30.3447 -30.3429 -30.3418 -30.3206 -30.3185 -30.3180 -30.3159
   -20.2217 -20.2216 -20.2215 -20.2214 -20.2210 -20.2210 -20.2208 -20.2207
   -20.2154 -20.2153 -20.2150 -20.2149 -20.2136 -20.2134 -20.2131 -20.2129
   -20.2092 -20.2088 -20.2087 -20.2086 -20.2085 -20.2079 -20.2075 -20.2075
   -20.2070 -20.2070 -20.2066 -20.2062 -20.2055 -20.2053 -20.2052 -20.2051
   -20.1953 -20.1952 -20.1950 -20.1950 -20.1941 -20.1940 -20.1939 -20.1938
   -20.1706 -20.1705 -20.1693 -20.1693 -20.1683 -20.1683 -20.1680 -20.1680
   -20.1671 -20.1671 -20.1663 -20.1663 -20.1636 -20.1636 -20.1629 -20.1629
    -9.6065  -9.4393  -9.3832  -9.2223  -9.1503  -8.9437  -8.8838  -8.8218
    -8.7982  -8.7068  -8.6721  -8.6260  -8.2717  -8.2394  -8.1718  -8.1672
    -8.1542  -8.1021  -8.0884  -8.0307  -7.8413  -7.8270  -7.7800  -7.7664
     1.6128   1.6250   1.6295   1.6384   2.1830   2.2563   2.2766   2.3546
     2.4324   2.4664   2.4973   2.6891   2.8991   2.9456   2.9766   3.0437
     3.2117   3.3041   3.6707   3.6877   3.7144   3.7997   3.8922   3.9586
     4.0946   4.2620   4.3394   4.3824   4.4110   4.5457   4.5777   4.6768
     4.6959   4.7937   4.8075   4.8508   4.9119   4.9819   5.1125   5.1755
     5.3186   5.3373   5.4219   5.6233   5.7770   5.8390   6.1137   6.1310
     6.5201   6.5887   6.6190   6.7192   6.7804   6.7973   6.9180   6.9436
     6.9834   7.0059   7.0374   7.0582   7.1196   7.1830   7.1929   7.2370
     7.2848   7.3240   7.7193   7.7226   7.7585   7.7940   7.8058   7.8416
    10.5740  10.5970  10.8501  10.8881  11.2752  11.3258  11.8955  11.9582
    12.0138  12.1181  12.1771  12.2619  12.5237  12.5952  12.6186  12.6664
    12.8762  13.0394  13.0635  13.2767  13.2884  13.3838  13.6273  13.6568
    15.3322  15.4474  15.7486  15.9600  16.0166  16.0297  16.1536  16.7051
    16.7723  16.8234  17.0294  17.5443  17.6411

          k = 0.1667 0.3188-0.4990 ( 62396 PWs)   bands (ev):

   -66.0703 -66.0703 -66.0701 -66.0701 -66.0695 -66.0695 -66.0693 -66.0693
   -30.4877 -30.4876 -30.4828 -30.4828 -30.4581 -30.4581 -30.4518 -30.4518
   -30.4035 -30.4034 -30.4003 -30.4002 -30.3685 -30.3685 -30.3680 -30.3679
   -30.3654 -30.3654 -30.3647 -30.3647 -30.3194 -30.3194 -30.3174 -30.3174
   -20.2216 -20.2216 -20.2215 -20.2215 -20.2209 -20.2209 -20.2209 -20.2209
   -20.2154 -20.2154 -20.2150 -20.2150 -20.2135 -20.2135 -20.2130 -20.2130
   -20.2089 -20.2089 -20.2084 -20.2084 -20.2081 -20.2081 -20.2080 -20.2080
   -20.2068 -20.2068 -20.2066 -20.2066 -20.2054 -20.2054 -20.2052 -20.2052
   -20.1952 -20.1951 -20.1951 -20.1951 -20.1940 -20.1940 -20.1939 -20.1939
   -20.1693 -20.1693 -20.1693 -20.1693 -20.1680 -20.1680 -20.1680 -20.1680
   -20.1675 -20.1675 -20.1675 -20.1675 -20.1633 -20.1633 -20.1633 -20.1632
    -9.4747  -9.4747  -9.3063  -9.3063  -8.9692  -8.9692  -8.7325  -8.7325
    -8.5906  -8.5906  -8.5472  -8.5472  -8.4896  -8.4896  -8.4229  -8.4229
    -8.1640  -8.1640  -8.1265  -8.1265  -7.8108  -7.8108  -7.7966  -7.7966
     1.6285   1.6285   1.6414   1.6414   2.3410   2.3410   2.4536   2.4536
     2.9545   2.9545   3.0961   3.0961   3.1346   3.1346   3.2466   3.2466
     3.2916   3.2916   3.4594   3.4594   3.5131   3.5131   3.7193   3.7193
     4.0308   4.0308   4.0667   4.0667   4.0834   4.0834   4.3342   4.3342
     4.7273   4.7273   4.8295   4.8295   4.9826   4.9826   5.0104   5.0104
     5.1259   5.1259   5.5057   5.5057   5.8676   5.8676   5.8966   5.8966
     6.6354   6.6354   6.7455   6.7455   6.8037   6.8037   6.8368   6.8368
     7.0192   7.0192   7.0617   7.0617   7.1668   7.1668   7.5126   7.5126
     7.5406   7.5406   7.5606   7.5606   7.6050   7.6050   7.8132   7.8132
    10.8278  10.8278  11.3052  11.3052  11.3688  11.3688  11.8108  11.8108
    11.9766  11.9766  12.1842  12.1842  12.5679  12.5679  12.6051  12.6051
    12.8394  12.8394  12.9233  12.9233  13.2405  13.2405  13.6245  13.6245
    15.4085  15.4085  15.9577  15.9577  16.3331  16.3331  16.5198  16.5198
    16.9387  16.9387  17.2679  17.2679  17.8476

          k = 0.1667-0.4783 0.0000 ( 62376 PWs)   bands (ev):

   -66.0707 -66.0707 -66.0698 -66.0698 -66.0698 -66.0697 -66.0689 -66.0689
   -30.4754 -30.4754 -30.4702 -30.4702 -30.4698 -30.4698 -30.4647 -30.4647
   -30.4190 -30.4190 -30.4118 -30.4118 -30.4000 -30.4000 -30.3981 -30.3981
   -30.3228 -30.3228 -30.3212 -30.3212 -30.3203 -30.3203 -30.3129 -30.3129
   -20.2214 -20.2214 -20.2213 -20.2213 -20.2210 -20.2210 -20.2209 -20.2209
   -20.2146 -20.2146 -20.2144 -20.2144 -20.2141 -20.2141 -20.2139 -20.2139
   -20.2094 -20.2094 -20.2092 -20.2092 -20.2080 -20.2080 -20.2073 -20.2073
   -20.2069 -20.2069 -20.2061 -20.2060 -20.2056 -20.2055 -20.2051 -20.2051
   -20.1954 -20.1954 -20.1949 -20.1949 -20.1942 -20.1942 -20.1937 -20.1937
   -20.1718 -20.1718 -20.1706 -20.1705 -20.1686 -20.1686 -20.1675 -20.1675
   -20.1658 -20.1658 -20.1650 -20.1649 -20.1639 -20.1639 -20.1625 -20.1625
    -9.7002  -9.7002  -9.3291  -9.3291  -9.2205  -9.2205  -8.9642  -8.9641
    -8.5322  -8.5322  -8.4761  -8.4761  -8.4636  -8.4636  -8.4605  -8.4605
    -7.8679  -7.8679  -7.7588  -7.7588  -7.7386  -7.7386  -7.6370  -7.6370
     1.3142   1.3142   1.3290   1.3290   1.6063   1.6063   1.8090   1.8090
     2.5643   2.5643   3.0714   3.0714   3.1653   3.1653   3.2224   3.2224
     3.2860   3.2860   3.3219   3.3220   3.5135   3.5135   3.5852   3.5852
     3.7021   3.7021   4.4505   4.4505   4.7689   4.7689   5.0144   5.0144
     5.1023   5.1023   5.1860   5.1860   5.3077   5.3078   5.5186   5.5186
     5.7377   5.7377   5.7822   5.7822   6.0928   6.0928   6.1252   6.1252
     6.3683   6.3683   6.3898   6.3899   6.6845   6.6845   6.8696   6.8696
     6.9819   6.9819   7.1335   7.1335   7.1398   7.1398   7.4550   7.4550
     7.4805   7.4805   7.5062   7.5062   7.5312   7.5312   7.8738   7.8738
     9.7642   9.7642  11.2343  11.2343  11.3006  11.3006  11.4267  11.4267
    11.4959  11.4959  12.3461  12.3461  12.4648  12.4648  12.9467  12.9467
    13.3409  13.3409  13.4515  13.4515  13.5449  13.5449  13.5666  13.5666
    15.3902  15.3902  15.5831  15.5831  15.6598  15.6598  15.9651  15.9652
    16.6007  16.6007  17.8240  17.8240  17.9369

          k = 0.1667-0.4783 0.1663 ( 62408 PWs)   bands (ev):

   -66.0706 -66.0706 -66.0698 -66.0698 -66.0698 -66.0698 -66.0690 -66.0690
   -30.4750 -30.4750 -30.4705 -30.4705 -30.4695 -30.4695 -30.4651 -30.4651
   -30.4140 -30.4140 -30.4059 -30.4059 -30.3994 -30.3994 -30.3974 -30.3974
   -30.3281 -30.3281 -30.3266 -30.3265 -30.3203 -30.3203 -30.3149 -30.3149
   -20.2214 -20.2214 -20.2213 -20.2213 -20.2210 -20.2210 -20.2209 -20.2209
   -20.2146 -20.2146 -20.2144 -20.2144 -20.2141 -20.2141 -20.2139 -20.2139
   -20.2093 -20.2093 -20.2090 -20.2090 -20.2080 -20.2080 -20.2073 -20.2073
   -20.2070 -20.2070 -20.2062 -20.2061 -20.2055 -20.2055 -20.2051 -20.2051
   -20.1953 -20.1953 -20.1949 -20.1949 -20.1941 -20.1941 -20.1938 -20.1938
   -20.1715 -20.1715 -20.1702 -20.1702 -20.1685 -20.1685 -20.1676 -20.1676
   -20.1662 -20.1662 -20.1653 -20.1653 -20.1639 -20.1639 -20.1626 -20.1626
    -9.6441  -9.6440  -9.2457  -9.2455  -9.2358  -9.2357  -8.9288  -8.9287
    -8.5394  -8.5391  -8.4728  -8.4720  -8.4663  -8.4657  -8.4588  -8.4579
    -7.8749  -7.8742  -7.8541  -7.8541  -7.7808  -7.7806  -7.7392  -7.7391
     1.4928   1.4945   1.5846   1.5862   1.6115   1.6125   1.8825   1.8835
     2.6545   2.6556   3.0871   3.0884   3.1580   3.1775   3.2203   3.2331
     3.2881   3.3048   3.3364   3.3700   3.5457   3.5579   3.5866   3.5919
     3.7242   3.7282   4.4554   4.4915   4.4945   4.5348   4.8949   4.9199
     4.9856   4.9924   5.0617   5.0973   5.1111   5.1442   5.4472   5.4511
     5.4933   5.4961   5.7419   5.7762   5.7781   5.8011   6.3234   6.3281
[...]
    11.5682  11.5682  11.5682  11.5682  11.6843  11.6843  11.6843  11.6843
    12.0569  12.0569  12.0569  12.0569  12.2207  12.2207  12.2207  12.2207
    13.0094  13.0094  13.0095  13.0095  13.1890  13.1890  13.1890  13.1890
    15.3724  15.3724  15.3724  15.3724  16.7514  16.7514  16.7514  16.7514
    17.6516  17.6516  17.6516  17.6516  17.8618

          k =-0.5000 0.3188 0.0000 ( 62418 PWs)   bands (ev):

   -66.0704 -66.0704 -66.0701 -66.0701 -66.0695 -66.0695 -66.0692 -66.0692
   -30.4875 -30.4875 -30.4827 -30.4827 -30.4580 -30.4579 -30.4518 -30.4518
   -30.4144 -30.4144 -30.4142 -30.4142 -30.3632 -30.3632 -30.3610 -30.3610
   -30.3589 -30.3589 -30.3574 -30.3574 -30.3195 -30.3195 -30.3186 -30.3186
   -20.2218 -20.2218 -20.2213 -20.2213 -20.2211 -20.2211 -20.2207 -20.2207
   -20.2153 -20.2153 -20.2151 -20.2151 -20.2134 -20.2134 -20.2131 -20.2131
   -20.2093 -20.2093 -20.2093 -20.2093 -20.2076 -20.2076 -20.2071 -20.2071
   -20.2064 -20.2064 -20.2063 -20.2063 -20.2058 -20.2058 -20.2054 -20.2054
   -20.1948 -20.1948 -20.1947 -20.1947 -20.1943 -20.1943 -20.1943 -20.1943
   -20.1712 -20.1712 -20.1712 -20.1712 -20.1666 -20.1666 -20.1666 -20.1666
   -20.1656 -20.1656 -20.1656 -20.1656 -20.1646 -20.1646 -20.1646 -20.1646
    -9.5482  -9.5482  -9.3989  -9.3989  -8.9579  -8.9579  -8.7582  -8.7582
    -8.5615  -8.5615  -8.5483  -8.5483  -8.4880  -8.4880  -8.4116  -8.4116
    -8.1604  -8.1604  -8.1218  -8.1218  -7.6981  -7.6981  -7.6845  -7.6845
     1.3505   1.3505   1.3556   1.3556   2.3327   2.3327   2.4634   2.4634
     2.9243   2.9243   3.0438   3.0438   3.1075   3.1075   3.2436   3.2436
     3.2835   3.2835   3.4162   3.4162   3.4799   3.4799   3.6624   3.6624
     3.9894   3.9894   4.0338   4.0338   4.1890   4.1890   4.3679   4.3679
     4.8129   4.8129   4.8800   4.8800   5.1043   5.1043   5.2599   5.2599
     5.4183   5.4183   5.7276   5.7276   6.2301   6.2301   6.2737   6.2737
     6.4550   6.4550   6.5103   6.5103   6.5386   6.5386   6.7392   6.7392
     7.0249   7.0250   7.0602   7.0602   7.0803   7.0803   7.4917   7.4917
     7.5098   7.5098   7.5838   7.5838   7.6146   7.6146   7.8487   7.8487
    10.6497  10.6497  11.2368  11.2368  11.2832  11.2832  11.6664  11.6664
    11.9777  11.9777  12.1583  12.1583  12.6075  12.6075  12.6806  12.6806
    12.8960  12.8960  13.0129  13.0129  13.3753  13.3753  13.7932  13.7932
    15.1858  15.1858  15.6559  15.6559  16.2589  16.2589  16.5240  16.5240
    16.8149  16.8149  17.2352  17.2352  17.9363

          k =-0.5000 0.3188 0.1663 ( 62406 PWs)   bands (ev):

   -66.0703 -66.0703 -66.0701 -66.0701 -66.0695 -66.0695 -66.0693 -66.0693
   -30.4872 -30.4872 -30.4830 -30.4830 -30.4574 -30.4574 -30.4522 -30.4522
   -30.4085 -30.4085 -30.4081 -30.4081 -30.3629 -30.3629 -30.3611 -30.3611
   -30.3590 -30.3590 -30.3578 -30.3578 -30.3256 -30.3256 -30.3248 -30.3248
   -20.2217 -20.2217 -20.2213 -20.2213 -20.2211 -20.2211 -20.2207 -20.2207
   -20.2153 -20.2153 -20.2151 -20.2151 -20.2134 -20.2134 -20.2132 -20.2132
   -20.2092 -20.2092 -20.2091 -20.2091 -20.2077 -20.2077 -20.2073 -20.2073
   -20.2064 -20.2064 -20.2063 -20.2063 -20.2058 -20.2058 -20.2055 -20.2055
   -20.1948 -20.1947 -20.1946 -20.1946 -20.1944 -20.1944 -20.1943 -20.1943
   -20.1709 -20.1709 -20.1709 -20.1709 -20.1666 -20.1666 -20.1666 -20.1666
   -20.1658 -20.1658 -20.1658 -20.1658 -20.1648 -20.1648 -20.1648 -20.1648
    -9.4796  -9.4796  -9.3173  -9.3173  -8.9714  -8.9714  -8.7375  -8.7375
    -8.5803  -8.5803  -8.5395  -8.5395  -8.4775  -8.4775  -8.4153  -8.4153
    -8.1577  -8.1577  -8.1266  -8.1266  -7.8191  -7.8191  -7.8053  -7.8053
     1.6034   1.6034   1.6137   1.6137   2.3370   2.3370   2.4496   2.4496
     2.9940   2.9940   3.0701   3.0701   3.1107   3.1107   3.2581   3.2581
     3.3014   3.3014   3.4835   3.4835   3.5280   3.5280   3.7102   3.7102
     3.9821   3.9821   4.0431   4.0431   4.1846   4.1846   4.3689   4.3689
     4.7073   4.7073   4.7992   4.7992   4.9813   4.9813   5.0148   5.0148
     5.1333   5.1333   5.5029   5.5029   5.8578   5.8578   5.8880   5.8880
     6.6374   6.6374   6.7652   6.7652   6.8168   6.8168   6.8385   6.8385
     7.0010   7.0010   7.0693   7.0693   7.1504   7.1504   7.4950   7.4950
     7.5209   7.5209   7.5939   7.5939   7.6226   7.6226   7.8260   7.8260
    10.8132  10.8132  11.3112  11.3112  11.3663  11.3663  11.7194  11.7194
    11.9914  11.9914  12.1964  12.1964  12.5917  12.5917  12.6556  12.6556
    12.8430  12.8430  12.9625  12.9625  13.2168  13.2168  13.6487  13.6487
    15.4101  15.4102  15.9296  15.9296  16.3276  16.3276  16.5167  16.5167
    16.8729  16.8729  17.2756  17.2756  17.8213

          k =-0.5000 0.3188 0.3327 ( 62372 PWs)   bands (ev):

   -66.0701 -66.0701 -66.0699 -66.0699 -66.0697 -66.0697 -66.0695 -66.0695
   -30.4863 -30.4863 -30.4839 -30.4839 -30.4561 -30.4561 -30.4531 -30.4531
   -30.3925 -30.3925 -30.3915 -30.3915 -30.3624 -30.3624 -30.3622 -30.3622
   -30.3595 -30.3595 -30.3581 -30.3581 -30.3414 -30.3414 -30.3411 -30.3411
   -20.2217 -20.2217 -20.2214 -20.2214 -20.2210 -20.2210 -20.2208 -20.2208
   -20.2152 -20.2152 -20.2152 -20.2152 -20.2134 -20.2134 -20.2132 -20.2132
   -20.2088 -20.2088 -20.2088 -20.2088 -20.2079 -20.2079 -20.2076 -20.2076
   -20.2064 -20.2063 -20.2062 -20.2062 -20.2058 -20.2058 -20.2057 -20.2057
   -20.1947 -20.1947 -20.1946 -20.1946 -20.1944 -20.1944 -20.1943 -20.1943
   -20.1699 -20.1699 -20.1699 -20.1699 -20.1673 -20.1672 -20.1672 -20.1672
   -20.1659 -20.1659 -20.1659 -20.1659 -20.1652 -20.1652 -20.1652 -20.1652
    -9.3058  -9.3058  -9.0937  -9.0937  -9.0186  -9.0186  -8.6688  -8.6688
    -8.6335  -8.6335  -8.5101  -8.5101  -8.4546  -8.4546  -8.4228  -8.4228
    -8.1730  -8.1730  -8.1439  -8.1439  -8.1097  -8.1097  -8.0654  -8.0654
     2.2051   2.2051   2.2994   2.2994   2.3517   2.3517   2.4900   2.4900
     3.0632   3.0632   3.1092   3.1092   3.2000   3.2000   3.2747   3.2747
     3.3515   3.3515   3.6473   3.6473   3.7165   3.7165   3.8182   3.8182
     3.9542   3.9542   4.0723   4.0723   4.1740   4.1740   4.2111   4.2111
     4.3338   4.3338   4.4821   4.4821   4.6142   4.6142   4.8307   4.8307
     4.9254   4.9254   5.0215   5.0215   5.0539   5.0539   5.3066   5.3066
     6.8355   6.8355   6.8953   6.8953   6.9684   6.9685   7.0136   7.0136
     7.1563   7.1563   7.2652   7.2652   7.3518   7.3518   7.4873   7.4873
     7.5323   7.5323   7.6096   7.6096   7.6283   7.6283   7.7618   7.7618
    11.2466  11.2466  11.5399  11.5399  11.6301  11.6301  11.8116  11.8116
    12.0469  12.0469  12.3424  12.3424  12.3878  12.3878  12.4516  12.4516
    12.7287  12.7287  12.8199  12.8199  12.8537  12.8537  13.2723  13.2723
    15.9539  15.9539  16.4125  16.4125  16.5622  16.5622  16.7274  16.7274
    17.0967  17.0967  17.3458  17.3458  17.5735

          k =-0.5000 0.3188-0.4990 ( 62372 PWs)   bands (ev):

   -66.0699 -66.0699 -66.0699 -66.0699 -66.0697 -66.0697 -66.0697 -66.0697
   -30.4851 -30.4851 -30.4851 -30.4851 -30.4545 -30.4545 -30.4545 -30.4545
   -30.3725 -30.3725 -30.3725 -30.3725 -30.3701 -30.3701 -30.3701 -30.3701
   -30.3576 -30.3576 -30.3576 -30.3576 -30.3544 -30.3544 -30.3544 -30.3543
   -20.2216 -20.2216 -20.2216 -20.2215 -20.2209 -20.2209 -20.2209 -20.2209
   -20.2152 -20.2152 -20.2152 -20.2152 -20.2133 -20.2133 -20.2133 -20.2133
   -20.2085 -20.2085 -20.2085 -20.2085 -20.2080 -20.2080 -20.2080 -20.2080
   -20.2063 -20.2062 -20.2062 -20.2062 -20.2058 -20.2058 -20.2058 -20.2058
   -20.1946 -20.1946 -20.1946 -20.1946 -20.1944 -20.1944 -20.1944 -20.1944
   -20.1686 -20.1686 -20.1686 -20.1686 -20.1685 -20.1685 -20.1685 -20.1685
   -20.1656 -20.1656 -20.1656 -20.1656 -20.1655 -20.1655 -20.1655 -20.1655
    -9.1252  -9.1251  -9.1251  -9.1251  -8.8149  -8.8149  -8.8148  -8.8148
    -8.5129  -8.5129  -8.5129  -8.5129  -8.3896  -8.3896  -8.3896  -8.3895
    -8.3691  -8.3691  -8.3691  -8.3691  -8.1303  -8.1303  -8.1302  -8.1302
     2.3487   2.3487   2.3488   2.3488   3.0114   3.0115   3.0115   3.0115
     3.1144   3.1144   3.1144   3.1144   3.2375   3.2375   3.2375   3.2375
     3.3563   3.3563   3.3563   3.3563   3.8873   3.8873   3.8873   3.8873
     3.9906   3.9906   3.9907   3.9907   4.0758   4.0758   4.0758   4.0758
     4.3107   4.3107   4.3107   4.3107   4.3866   4.3866   4.3866   4.3866
     4.7029   4.7029   4.7029   4.7029   5.0424   5.0424   5.0424   5.0424
     6.9011   6.9012   6.9012   6.9012   7.0028   7.0029   7.0029   7.0029
     7.3860   7.3860   7.3860   7.3860   7.4583   7.4583   7.4583   7.4583
     7.5634   7.5634   7.5634   7.5634   7.6768   7.6768   7.6768   7.6768
    11.7460  11.7460  11.7460  11.7460  11.8365  11.8365  11.8365  11.8365
    12.0730  12.0730  12.0730  12.0730  12.2881  12.2881  12.2881  12.2881
    12.6778  12.6778  12.6778  12.6778  12.8763  12.8763  12.8763  12.8763
    16.3066  16.3066  16.3066  16.3067  16.9265  16.9265  16.9265  16.9265
    17.4521  17.4521  17.4521  17.4521  17.8562

          k =-0.5000-0.4783 0.0000 ( 62412 PWs)   bands (ev):

   -66.0703 -66.0703 -66.0703 -66.0702 -66.0693 -66.0693 -66.0693 -66.0693
   -30.4726 -30.4726 -30.4722 -30.4722 -30.4675 -30.4675 -30.4670 -30.4670
   -30.4146 -30.4146 -30.4145 -30.4145 -30.3623 -30.3623 -30.3617 -30.3617
   -30.3587 -30.3587 -30.3581 -30.3581 -30.3191 -30.3191 -30.3191 -30.3191
   -20.2214 -20.2214 -20.2214 -20.2214 -20.2209 -20.2209 -20.2209 -20.2209
   -20.2144 -20.2144 -20.2143 -20.2143 -20.2142 -20.2142 -20.2141 -20.2141
   -20.2093 -20.2093 -20.2093 -20.2093 -20.2073 -20.2073 -20.2073 -20.2073
   -20.2064 -20.2064 -20.2064 -20.2064 -20.2057 -20.2057 -20.2057 -20.2057
   -20.1947 -20.1947 -20.1947 -20.1947 -20.1943 -20.1943 -20.1943 -20.1943
   -20.1712 -20.1712 -20.1712 -20.1712 -20.1666 -20.1666 -20.1666 -20.1666
   -20.1656 -20.1656 -20.1656 -20.1656 -20.1646 -20.1646 -20.1646 -20.1646
    -9.4614  -9.4614  -9.4566  -9.4566  -8.7188  -8.7188  -8.6992  -8.6992
    -8.6144  -8.6144  -8.5980  -8.5980  -8.4181  -8.4181  -8.3818  -8.3818
    -8.3520  -8.3519  -8.3191  -8.3191  -7.6915  -7.6915  -7.6914  -7.6914
     1.3521   1.3521   1.3568   1.3568   2.9449   2.9449   3.0418   3.0418
     3.1004   3.1004   3.1063   3.1063   3.2191   3.2191   3.2225   3.2225
     3.3219   3.3220   3.3712   3.3712   3.4493   3.4493   3.4831   3.4831
     3.5220   3.5220   3.7840   3.7840   4.2460   4.2460   4.3194   4.3194
     4.3278   4.3278   4.4287   4.4287   5.1715   5.1715   5.2100   5.2100
     5.4821   5.4821   5.5323   5.5323   6.2632   6.2632   6.2721   6.2721
     6.5263   6.5263   6.5386   6.5386   6.5805   6.5805   6.6313   6.6313
     7.2547   7.2547   7.2651   7.2651   7.3019   7.3019   7.4248   7.4248
     7.4608   7.4608   7.5296   7.5296   7.5946   7.5946   7.6047   7.6047
    11.2097  11.2097  11.2316  11.2316  11.2957  11.2957  11.3220  11.3220
    12.2223  12.2223  12.2615  12.2615  12.3444  12.3444  12.3703  12.3703
    12.9282  12.9282  12.9286  12.9286  13.5232  13.5232  13.5580  13.5580
    15.5006  15.5006  15.5075  15.5075  16.7552  16.7552  16.8346  16.8346
    17.3469  17.3469  17.4082  17.4083  17.4978

          k =-0.5000-0.4783 0.1663 ( 62392 PWs)   bands (ev):

   -66.0702 -66.0702 -66.0702 -66.0702 -66.0694 -66.0694 -66.0694 -66.0694
   -30.4723 -30.4723 -30.4718 -30.4718 -30.4678 -30.4678 -30.4673 -30.4673
   -30.4085 -30.4085 -30.4084 -30.4084 -30.3620 -30.3620 -30.3614 -30.3614
   -30.3591 -30.3591 -30.3585 -30.3585 -30.3253 -30.3253 -30.3252 -30.3252
   -20.2214 -20.2214 -20.2214 -20.2214 -20.2210 -20.2210 -20.2210 -20.2210
   -20.2144 -20.2144 -20.2143 -20.2143 -20.2142 -20.2142 -20.2141 -20.2141
   -20.2092 -20.2092 -20.2091 -20.2091 -20.2075 -20.2074 -20.2074 -20.2074
   -20.2064 -20.2064 -20.2064 -20.2064 -20.2057 -20.2057 -20.2057 -20.2057
   -20.1947 -20.1947 -20.1947 -20.1947 -20.1943 -20.1943 -20.1943 -20.1943
   -20.1709 -20.1709 -20.1709 -20.1709 -20.1666 -20.1666 -20.1666 -20.1666
   -20.1658 -20.1658 -20.1658 -20.1658 -20.1648 -20.1648 -20.1648 -20.1648
    -9.3844  -9.3844  -9.3790  -9.3790  -8.7363  -8.7363  -8.7167  -8.7167
    -8.5987  -8.5987  -8.5811  -8.5811  -8.4152  -8.4152  -8.3814  -8.3814
    -8.3521  -8.3521  -8.3219  -8.3219  -7.8126  -7.8126  -7.8124  -7.8124
     1.6088   1.6088   1.6146   1.6146   2.9556   2.9556   3.0545   3.0545
     3.0925   3.0925   3.1139   3.1139   3.2094   3.2094   3.2488   3.2488
     3.3495   3.3495   3.4376   3.4376   3.4994   3.4994   3.5297   3.5297
     3.5659   3.5659   3.8091   3.8091   4.2515   4.2516   4.3064   4.3064
     4.3302   4.3302   4.4197   4.4198   4.8660   4.8660   5.0134   5.0134
     5.1537   5.1537   5.2851   5.2851   5.8581   5.8581   5.8777   5.8777
     6.7094   6.7094   6.7726   6.7727   6.8407   6.8407   6.8782   6.8782
     7.2427   7.2427   7.2655   7.2655   7.3398   7.3398   7.4117   7.4117
     7.4538   7.4538   7.5303   7.5303   7.5947   7.5947   7.6258   7.6258
    11.2735  11.2735  11.3300  11.3300  11.3798  11.3798  11.4676  11.4676
    12.2287  12.2287  12.2653  12.2653  12.3381  12.3381  12.3805  12.3805
    12.8207  12.8207  12.8930  12.8930  13.3566  13.3566  13.4145  13.4145
    15.7654  15.7654  15.7864  15.7864  16.8175  16.8175  16.8917  16.8917
    17.3502  17.3502  17.4181  17.4183  17.4946

          k =-0.5000-0.4783 0.3327 ( 62376 PWs)   bands (ev):

   -66.0700 -66.0700 -66.0700 -66.0700 -66.0696 -66.0696 -66.0696 -66.0696
   -30.4713 -30.4713 -30.4708 -30.4708 -30.4687 -30.4687 -30.4682 -30.4682
   -30.3921 -30.3921 -30.3920 -30.3920 -30.3621 -30.3621 -30.3618 -30.3618
   -30.3596 -30.3596 -30.3589 -30.3589 -30.3414 -30.3414 -30.3412 -30.3412
   -20.2213 -20.2213 -20.2213 -20.2213 -20.2211 -20.2211 -20.2210 -20.2210
   -20.2144 -20.2144 -20.2143 -20.2143 -20.2143 -20.2143 -20.2142 -20.2142
   -20.2088 -20.2088 -20.2087 -20.2087 -20.2078 -20.2078 -20.2077 -20.2077
   -20.2063 -20.2063 -20.2063 -20.2063 -20.2058 -20.2058 -20.2058 -20.2058
   -20.1946 -20.1946 -20.1946 -20.1946 -20.1944 -20.1944 -20.1944 -20.1944
   -20.1699 -20.1699 -20.1699 -20.1699 -20.1673 -20.1672 -20.1672 -20.1672
   -20.1659 -20.1659 -20.1659 -20.1659 -20.1652 -20.1652 -20.1652 -20.1652
    -9.1791  -9.1791  -9.1710  -9.1710  -8.7966  -8.7966  -8.7775  -8.7775
    -8.5427  -8.5427  -8.5249  -8.5249  -8.4077  -8.4077  -8.3835  -8.3835
    -8.3491  -8.3491  -8.3296  -8.3296  -8.1021  -8.1021  -8.1010  -8.1010
     2.2846   2.2846   2.2965   2.2965   2.9806   2.9806   3.0372   3.0372
     3.1064   3.1064   3.1310   3.1310   3.2295   3.2295   3.2506   3.2506
     3.4276   3.4276   3.4748   3.4748   3.6124   3.6124   3.6585   3.6585
     3.7996   3.7996   3.9166   3.9166   4.2348   4.2348   4.2486   4.2486
     4.2965   4.2965   4.3673   4.3673   4.4612   4.4612   4.5619   4.5619
     4.6665   4.6665   4.7991   4.7991   5.0589   5.0589   5.0861   5.0861
     6.9679   6.9679   7.0625   7.0625   7.1485   7.1485   7.1724   7.1724
     7.2532   7.2532   7.3002   7.3002   7.3734   7.3734   7.3866   7.3866
     7.4674   7.4674   7.5518   7.5518   7.5976   7.5976   7.6409   7.6409
    11.5153  11.5153  11.5597  11.5597  11.7153  11.7153  11.8161  11.8161
    12.2131  12.2131  12.2765  12.2765  12.2941  12.2941  12.3908  12.3908
    12.5257  12.5257  12.6585  12.6585  12.9353  12.9353  13.0205  13.0205
    16.4961  16.4961  16.5540  16.5540  17.0001  17.0002  17.0522  17.0522
    17.3223  17.3224  17.4274  17.4278  17.4830

          k =-0.5000-0.4783-0.4990 ( 62352 PWs)   bands (ev):

   -66.0698 -66.0698 -66.0698 -66.0698 -66.0698 -66.0698 -66.0698 -66.0698
   -30.4700 -30.4700 -30.4700 -30.4700 -30.4695 -30.4695 -30.4695 -30.4695
   -30.3724 -30.3724 -30.3724 -30.3724 -30.3702 -30.3702 -30.3702 -30.3702
   -30.3572 -30.3572 -30.3572 -30.3572 -30.3550 -30.3550 -30.3550 -30.3550
   -20.2212 -20.2212 -20.2212 -20.2212 -20.2212 -20.2212 -20.2212 -20.2212
   -20.2143 -20.2143 -20.2143 -20.2143 -20.2143 -20.2143 -20.2142 -20.2142
   -20.2084 -20.2084 -20.2084 -20.2084 -20.2081 -20.2081 -20.2081 -20.2081
   -20.2063 -20.2063 -20.2063 -20.2063 -20.2059 -20.2059 -20.2059 -20.2059
   -20.1946 -20.1945 -20.1945 -20.1945 -20.1945 -20.1944 -20.1944 -20.1944
   -20.1686 -20.1686 -20.1686 -20.1686 -20.1685 -20.1685 -20.1685 -20.1685
   -20.1656 -20.1656 -20.1656 -20.1656 -20.1655 -20.1655 -20.1655 -20.1655
    -8.9416  -8.9416  -8.9416  -8.9416  -8.9260  -8.9260  -8.9260  -8.9260
    -8.4198  -8.4198  -8.4198  -8.4198  -8.3926  -8.3926  -8.3926  -8.3926
    -8.3565  -8.3565  -8.3565  -8.3565  -8.3376  -8.3376  -8.3376  -8.3376
     2.9490   2.9490   2.9490   2.9490   3.0208   3.0208   3.0208   3.0208
     3.1477   3.1477   3.1477   3.1477   3.2442   3.2442   3.2442   3.2442
     3.3686   3.3686   3.3686   3.3686   3.5112   3.5112   3.5112   3.5112
     4.1443   4.1443   4.1443   4.1443   4.1622   4.1622   4.1622   4.1622
     4.3279   4.3279   4.3279   4.3279   4.3718   4.3718   4.3718   4.3718
     4.4483   4.4483   4.4483   4.4483   4.5026   4.5026   4.5026   4.5026
     7.1089   7.1089   7.1089   7.1089   7.2542   7.2542   7.2542   7.2542
     7.3177   7.3177   7.3177   7.3177   7.3576   7.3576   7.3576   7.3576
     7.5619   7.5619   7.5619   7.5619   7.6121   7.6121   7.6121   7.6121
    11.8879  11.8879  11.8879  11.8879  11.9084  11.9084  11.9084  11.9084
    12.1916  12.1916  12.1916  12.1916  12.3334  12.3334  12.3334  12.3334
    12.4938  12.4938  12.4938  12.4938  12.5681  12.5681  12.5681  12.5681
    17.1006  17.1006  17.1006  17.1006  17.1814  17.1814  17.1814  17.1814
    17.4274  17.4275  17.4276  17.4276  17.4618

     the Fermi energy is     9.9446 ev

!    total energy              =   -6260.68627186 Ry
     Harris-Foulkes estimate   =   -6260.68627186 Ry
     estimated scf accuracy    <          1.3E-09 Ry

     The total energy is the sum of the following terms:

     one-electron contribution =   -4729.13843531 Ry
     hartree contribution      =    2602.59251834 Ry
     xc contribution           =    -966.32933655 Ry
     ewald contribution        =   -3167.81100575 Ry
     smearing contrib. (-TS)   =      -0.00001260 Ry

     convergence has been achieved in  13 iterations

     Writing output data file Landau_10.save
 
     init_run     :     38.82s CPU     40.36s WALL (       1 calls)
     electrons    :   2108.12s CPU   2139.55s WALL (       1 calls)

     Called by init_run:
     wfcinit      :     35.40s CPU     36.80s WALL (       1 calls)
     potinit      :      1.35s CPU      1.38s WALL (       1 calls)

     Called by electrons:
     c_bands      :   1835.51s CPU   1864.79s WALL (      13 calls)
     sum_band     :    201.68s CPU    203.02s WALL (      13 calls)
     v_of_rho     :      1.78s CPU      1.82s WALL (      14 calls)
     mix_rho      :      2.95s CPU      3.49s WALL (      13 calls)

     Called by c_bands:
     init_us_2    :     12.49s CPU     13.48s WALL (      54 calls)
     cegterg      :   1176.80s CPU   1204.29s WALL (      26 calls)

     Called by sum_band:

     Called by *egterg:
     h_psi        :    912.50s CPU    916.22s WALL (     126 calls)
     g_psi        :      3.86s CPU      3.86s WALL (      98 calls)
     cdiaghg      :     15.74s CPU     15.77s WALL (     124 calls)

     Called by h_psi:
     h_psi:pot    :    905.83s CPU    909.30s WALL (     126 calls)
     h_psi:calbec :    112.14s CPU    114.52s WALL (     126 calls)
     vloc_psi     :    675.39s CPU    676.01s WALL (     126 calls)
     add_vuspsi   :    118.30s CPU    118.77s WALL (     126 calls)

     General routines
     calbec       :    112.14s CPU    114.52s WALL (     126 calls)
     fft          :      1.08s CPU      1.09s WALL (      56 calls)
     fftw         :    683.50s CPU    683.81s WALL (   33912 calls)
 
     Parallel routines
 
     PWSCF        : 35m51.80s CPU    36m26.50s WALL

 
   This run was terminated on:   0:36:47  21Mar2020            

=------------------------------------------------------------------------------=
   JOB DONE.
=------------------------------------------------------------------------------=
