
     Program PWSCF v.6.4.1 starts on  3Dec2019 at 16:39:53 

     This program is part of the open-source Quantum ESPRESSO suite
     for quantum simulation of materials; please cite
         "P. Giannozzi et al., J. Phys.:Condens. Matter 21 395502 (2009);
         "P. Giannozzi et al., J. Phys.:Condens. Matter 29 465901 (2017);
          URL http://www.quantum-espresso.org", 
     in publications or presentations arising from this work. More details at
     http://www.quantum-espresso.org/quote

     Parallel version (MPI), running on    40 processors

     MPI processes distributed on     4 nodes
     K-points division:     npool     =      40
     Reading input from scf.in

     Current dimensions of program PWSCF are:
     Max number of different atomic species (ntypx) = 10
     Max number of k-points (npk) =  40000
     Max angular momentum in pseudopotentials (lmaxx) =  3

     Subspace diagonalization in iterative solution of the eigenvalue problem:
     a serial algorithm will be used

     Message from routine setup:
     using ibrav=0 with symmetry is DISCOURAGED, use correct ibrav instead
 
     G-vector sticks info
     --------------------
     sticks:   dense  smooth     PW     G-vecs:    dense   smooth      PW
     Sum        7665    7665   2061               495089   495089   68623
 


     bravais-lattice index     =            0
     lattice parameter (alat)  =      13.8296  a.u.
     unit-cell volume          =    2787.8206 (a.u.)^3
     number of atoms/cell      =           32
     number of atomic types    =            2
     number of electrons       =       368.10
     number of Kohn-Sham states=          221
     kinetic-energy cutoff     =     120.0000  Ry
     charge density cutoff     =     480.0000  Ry
     convergence threshold     =      1.0E-08
     mixing beta               =       0.7000
     number of iterations used =            8  plain     mixing
     Exchange-correlation      = SLA PW NOGX NOGC ( 1  4  0  0 0 0)

     celldm(1)=  13.829597  celldm(2)=   0.000000  celldm(3)=   0.000000
     celldm(4)=   0.000000  celldm(5)=   0.000000  celldm(6)=   0.000000

     crystal axes: (cart. coord. in units of alat)
               a(1) = (   1.000000   0.000000   0.000000 )  
               a(2) = (   0.000000   1.050315   0.000000 )  
               a(3) = (   0.000000   0.000000   1.003498 )  

     reciprocal axes: (cart. coord. in units 2 pi/alat)
               b(1) = (  1.000000  0.000000  0.000000 )  
               b(2) = (  0.000000  0.952095  0.000000 )  
               b(3) = (  0.000000  0.000000  0.996514 )  


     PseudoPot. # 1 for W  read from file:
     /cluster/scratch/mnoe/QE/pps/W_ONCV_LDA-4.0.upf
     MD5 check sum: ba0307d5d4cd419d6f1d13dc49d7c13a
     Pseudo is Norm-conserving + core correction, Zval = 28.0
     Generated using ONCVPSP code by D. R. Hamann
     Using radial grid of 1380 points,  8 beta functions with: 
                l(1) =   0
                l(2) =   0
                l(3) =   1
                l(4) =   1
                l(5) =   2
                l(6) =   2
                l(7) =   3
                l(8) =   3

     PseudoPot. # 2 for O  read from file:
     /cluster/scratch/mnoe/QE/pps/O_ONCV_LDA-3.0.upf
     MD5 check sum: b55cdb4f45ae2203d24ad12cf8d61a31
     Pseudo is Norm-conserving + core correction, Zval =  6.0
     Generated using ONCVPSP code by D. R. Hamann
     Using radial grid of  926 points,  5 beta functions with: 
                l(1) =   0
                l(2) =   0
                l(3) =   1
                l(4) =   1
                l(5) =   2

     atomic species   valence    mass     pseudopotential
        W             28.00   183.84000     W ( 1.00)
        O              6.00    15.99940     O ( 1.00)

      8 Sym. Ops., with inversion, found ( 6 have fractional translation)



   Cartesian axes

     site n.     atom                  positions (alat units)
         1           W   tau(   1) = (   0.2379800   0.2960418   0.0113997  )
         2           W   tau(   2) = (   0.7620200   0.7542731   0.9920987  )
         3           W   tau(   3) = (   0.2620200   0.2291157   0.5131490  )
         4           W   tau(   4) = (   0.7379800   0.8211992   0.4903495  )
         5           W   tau(   5) = (   0.7620200   0.2960418   0.4903495  )
         6           W   tau(   6) = (   0.2379800   0.7542731   0.5131490  )
         7           W   tau(   7) = (   0.7379800   0.2291157   0.9920987  )
         8           W   tau(   8) = (   0.2620200   0.8211992   0.0113997  )
         9           O   tau(   9) = (   0.2278200   0.0087386   0.0035423  )
        10           O   tau(  10) = (   0.7721800   1.0415763   0.9999561  )
        11           O   tau(  11) = (   0.2721800   0.5164188   0.5052916  )
        12           O   tau(  12) = (   0.7278200   0.5338961   0.4982069  )
        13           O   tau(  13) = (   0.7721800   0.0087386   0.4982069  )
        14           O   tau(  14) = (   0.2278200   1.0415763   0.5052916  )
        15           O   tau(  15) = (   0.7278200   0.5164188   0.9999561  )
        16           O   tau(  16) = (   0.2721800   0.5338961   0.0035423  )
        17           O   tau(  17) = (   0.5032900   0.2386735   0.4511127  )
        18           O   tau(  18) = (   0.4967100   0.8116414   0.5523857  )
        19           O   tau(  19) = (   0.9967100   0.2864839   0.9528620  )
        20           O   tau(  20) = (   0.0032899   0.7638310   0.0506365  )
        21           O   tau(  21) = (   0.4967100   0.2386735   0.0506365  )
        22           O   tau(  22) = (   0.5032900   0.8116414   0.9528620  )
        23           O   tau(  23) = (   0.0032899   0.2864839   0.5523857  )
        24           O   tau(  24) = (   0.9967100   0.7638310   0.4511127  )
        25           O   tau(  25) = (   0.6995400   0.2573587   0.7476164  )
        26           O   tau(  26) = (   0.3004600   0.7929563   0.2558821  )
        27           O   tau(  27) = (   0.8004600   0.2677988   0.2458672  )
        28           O   tau(  28) = (   0.1995400   0.7825161   0.7576313  )
        29           O   tau(  29) = (   0.3004600   0.2573587   0.7576313  )
        30           O   tau(  30) = (   0.6995400   0.7929563   0.2458672  )
        31           O   tau(  31) = (   0.1995400   0.2677988   0.2558821  )
        32           O   tau(  32) = (   0.8004600   0.7825161   0.7476164  )

     number of k points=    64  gaussian smearing, width (Ry)=  0.0007
                       cart. coord. in units 2pi/alat
        k(    1) = (   0.0000000   0.0000000   0.0000000), wk =   0.0092593
        k(    2) = (   0.0000000   0.0000000   0.1660856), wk =   0.0185185
        k(    3) = (   0.0000000   0.0000000   0.3321712), wk =   0.0185185
        k(    4) = (   0.0000000   0.0000000  -0.4982569), wk =   0.0092593
        k(    5) = (   0.0000000   0.1586826   0.0000000), wk =   0.0185185
        k(    6) = (   0.0000000   0.1586826   0.1660856), wk =   0.0370370
        k(    7) = (   0.0000000   0.1586826   0.3321712), wk =   0.0370370
        k(    8) = (   0.0000000   0.1586826  -0.4982569), wk =   0.0185185
        k(    9) = (   0.0000000   0.3173651   0.0000000), wk =   0.0185185
        k(   10) = (   0.0000000   0.3173651   0.1660856), wk =   0.0370370
        k(   11) = (   0.0000000   0.3173651   0.3321712), wk =   0.0370370
        k(   12) = (   0.0000000   0.3173651  -0.4982569), wk =   0.0185185
        k(   13) = (   0.0000000  -0.4760477   0.0000000), wk =   0.0092593
        k(   14) = (   0.0000000  -0.4760477   0.1660856), wk =   0.0185185
        k(   15) = (   0.0000000  -0.4760477   0.3321712), wk =   0.0185185
        k(   16) = (   0.0000000  -0.4760477  -0.4982569), wk =   0.0092593
        k(   17) = (   0.1666667   0.0000000   0.0000000), wk =   0.0185185
        k(   18) = (   0.1666667   0.0000000   0.1660856), wk =   0.0370370
        k(   19) = (   0.1666667   0.0000000   0.3321712), wk =   0.0370370
        k(   20) = (   0.1666667   0.0000000  -0.4982569), wk =   0.0185185
        k(   21) = (   0.1666667   0.1586826   0.0000000), wk =   0.0370370
        k(   22) = (   0.1666667   0.1586826   0.1660856), wk =   0.0740741
        k(   23) = (   0.1666667   0.1586826   0.3321712), wk =   0.0740741
        k(   24) = (   0.1666667   0.1586826  -0.4982569), wk =   0.0370370
        k(   25) = (   0.1666667   0.3173651   0.0000000), wk =   0.0370370
        k(   26) = (   0.1666667   0.3173651   0.1660856), wk =   0.0740741
        k(   27) = (   0.1666667   0.3173651   0.3321712), wk =   0.0740741
        k(   28) = (   0.1666667   0.3173651  -0.4982569), wk =   0.0370370
        k(   29) = (   0.1666667  -0.4760477   0.0000000), wk =   0.0185185
        k(   30) = (   0.1666667  -0.4760477   0.1660856), wk =   0.0370370
        k(   31) = (   0.1666667  -0.4760477   0.3321712), wk =   0.0370370
        k(   32) = (   0.1666667  -0.4760477  -0.4982569), wk =   0.0185185
        k(   33) = (   0.3333333   0.0000000   0.0000000), wk =   0.0185185
        k(   34) = (   0.3333333   0.0000000   0.1660856), wk =   0.0370370
        k(   35) = (   0.3333333   0.0000000   0.3321712), wk =   0.0370370
        k(   36) = (   0.3333333   0.0000000  -0.4982569), wk =   0.0185185
        k(   37) = (   0.3333333   0.1586826   0.0000000), wk =   0.0370370
        k(   38) = (   0.3333333   0.1586826   0.1660856), wk =   0.0740741
        k(   39) = (   0.3333333   0.1586826   0.3321712), wk =   0.0740741
        k(   40) = (   0.3333333   0.1586826  -0.4982569), wk =   0.0370370
        k(   41) = (   0.3333333   0.3173651   0.0000000), wk =   0.0370370
        k(   42) = (   0.3333333   0.3173651   0.1660856), wk =   0.0740741
        k(   43) = (   0.3333333   0.3173651   0.3321712), wk =   0.0740741
        k(   44) = (   0.3333333   0.3173651  -0.4982569), wk =   0.0370370
        k(   45) = (   0.3333333  -0.4760477   0.0000000), wk =   0.0185185
        k(   46) = (   0.3333333  -0.4760477   0.1660856), wk =   0.0370370
        k(   47) = (   0.3333333  -0.4760477   0.3321712), wk =   0.0370370
        k(   48) = (   0.3333333  -0.4760477  -0.4982569), wk =   0.0185185
        k(   49) = (  -0.5000000   0.0000000   0.0000000), wk =   0.0092593
        k(   50) = (  -0.5000000   0.0000000   0.1660856), wk =   0.0185185
        k(   51) = (  -0.5000000   0.0000000   0.3321712), wk =   0.0185185
        k(   52) = (  -0.5000000   0.0000000  -0.4982569), wk =   0.0092593
        k(   53) = (  -0.5000000   0.1586826   0.0000000), wk =   0.0185185
        k(   54) = (  -0.5000000   0.1586826   0.1660856), wk =   0.0370370
        k(   55) = (  -0.5000000   0.1586826   0.3321712), wk =   0.0370370
        k(   56) = (  -0.5000000   0.1586826  -0.4982569), wk =   0.0185185
        k(   57) = (  -0.5000000   0.3173651   0.0000000), wk =   0.0185185
        k(   58) = (  -0.5000000   0.3173651   0.1660856), wk =   0.0370370
        k(   59) = (  -0.5000000   0.3173651   0.3321712), wk =   0.0370370
        k(   60) = (  -0.5000000   0.3173651  -0.4982569), wk =   0.0185185
        k(   61) = (  -0.5000000  -0.4760477   0.0000000), wk =   0.0092593
        k(   62) = (  -0.5000000  -0.4760477   0.1660856), wk =   0.0185185
        k(   63) = (  -0.5000000  -0.4760477   0.3321712), wk =   0.0185185
        k(   64) = (  -0.5000000  -0.4760477  -0.4982569), wk =   0.0092593

     Dense  grid:   495089 G-vectors     FFT dimensions: ( 100, 108, 100)

     Estimated max dynamical RAM per process >       3.11 GB

     Estimated total dynamical RAM >     124.35 GB

     Initial potential from superposition of free atoms

     starting charge  367.99656, renormalised to  368.10000
     Starting wfcs are  232 randomized atomic wfcs

     total cpu time spent up to now is       51.2 secs

     Self-consistent Calculation

     iteration #  1     ecut=   120.00 Ry     beta= 0.70
     Davidson diagonalization with overlap
     ethr =  1.00E-02,  avg # of iterations =  5.0

     total cpu time spent up to now is      230.5 secs

     total energy              =   -6253.92746374 Ry
     Harris-Foulkes estimate   =   -6264.50959450 Ry
     estimated scf accuracy    <      13.39040186 Ry

     iteration #  2     ecut=   120.00 Ry     beta= 0.70
     Davidson diagonalization with overlap
     ethr =  3.64E-03,  avg # of iterations =  3.4

     total cpu time spent up to now is      403.6 secs

     total energy              =   -6250.77589648 Ry
     Harris-Foulkes estimate   =   -6270.67050636 Ry
     estimated scf accuracy    <      53.41644217 Ry

     iteration #  3     ecut=   120.00 Ry     beta= 0.70
     Davidson diagonalization with overlap
     ethr =  3.64E-03,  avg # of iterations =  3.4

     total cpu time spent up to now is      563.7 secs

     total energy              =   -6261.01923866 Ry
     Harris-Foulkes estimate   =   -6261.30684383 Ry
     estimated scf accuracy    <       0.93448507 Ry

     iteration #  4     ecut=   120.00 Ry     beta= 0.70
     Davidson diagonalization with overlap
     ethr =  2.54E-04,  avg # of iterations =  2.7

     total cpu time spent up to now is      690.8 secs

     total energy              =   -6261.02718106 Ry
     Harris-Foulkes estimate   =   -6261.09662683 Ry
     estimated scf accuracy    <       0.22972543 Ry

     iteration #  5     ecut=   120.00 Ry     beta= 0.70
     Davidson diagonalization with overlap
     ethr =  6.24E-05,  avg # of iterations =  5.1

     total cpu time spent up to now is      836.4 secs

     total energy              =   -6261.02460596 Ry
     Harris-Foulkes estimate   =   -6261.05765646 Ry
     estimated scf accuracy    <       0.07247971 Ry

     iteration #  6     ecut=   120.00 Ry     beta= 0.70
     Davidson diagonalization with overlap
     ethr =  1.97E-05,  avg # of iterations =  5.3

     total cpu time spent up to now is      987.1 secs

     total energy              =   -6261.04064632 Ry
     Harris-Foulkes estimate   =   -6261.04272550 Ry
     estimated scf accuracy    <       0.00562660 Ry

     iteration #  7     ecut=   120.00 Ry     beta= 0.70
     Davidson diagonalization with overlap
     ethr =  1.53E-06,  avg # of iterations =  4.7

     total cpu time spent up to now is     1128.5 secs

     total energy              =   -6261.04132717 Ry
     Harris-Foulkes estimate   =   -6261.04142239 Ry
     estimated scf accuracy    <       0.00019205 Ry

     iteration #  8     ecut=   120.00 Ry     beta= 0.70
     Davidson diagonalization with overlap
     ethr =  5.22E-08,  avg # of iterations =  3.2

     total cpu time spent up to now is     1297.4 secs

     total energy              =   -6261.04139192 Ry
     Harris-Foulkes estimate   =   -6261.04139765 Ry
     estimated scf accuracy    <       0.00002161 Ry

     iteration #  9     ecut=   120.00 Ry     beta= 0.70
     Davidson diagonalization with overlap
     ethr =  5.87E-09,  avg # of iterations =  2.0

     total cpu time spent up to now is     1426.8 secs

     total energy              =   -6261.04139235 Ry
     Harris-Foulkes estimate   =   -6261.04139486 Ry
     estimated scf accuracy    <       0.00001203 Ry

     iteration # 10     ecut=   120.00 Ry     beta= 0.70
     Davidson diagonalization with overlap
     ethr =  3.27E-09,  avg # of iterations =  1.8

     total cpu time spent up to now is     1546.5 secs

     total energy              =   -6261.04139116 Ry
     Harris-Foulkes estimate   =   -6261.04139317 Ry
     estimated scf accuracy    <       0.00000466 Ry

     iteration # 11     ecut=   120.00 Ry     beta= 0.70
     Davidson diagonalization with overlap
     ethr =  1.27E-09,  avg # of iterations =  2.9

     total cpu time spent up to now is     1673.4 secs

     total energy              =   -6261.04139213 Ry
     Harris-Foulkes estimate   =   -6261.04139216 Ry
     estimated scf accuracy    <       0.00000008 Ry

     iteration # 12     ecut=   120.00 Ry     beta= 0.70
     Davidson diagonalization with overlap
     ethr =  2.21E-11,  avg # of iterations =  2.0

     total cpu time spent up to now is     1829.7 secs

     total energy              =   -6261.04139214 Ry
     Harris-Foulkes estimate   =   -6261.04139215 Ry
     estimated scf accuracy    <       0.00000002 Ry

     iteration # 13     ecut=   120.00 Ry     beta= 0.70
     Davidson diagonalization with overlap
     ethr =  5.02E-12,  avg # of iterations =  2.6

     total cpu time spent up to now is     1974.2 secs

     End of self-consistent calculation

          k = 0.0000 0.0000 0.0000 ( 61831 PWs)   bands (ev):

   -66.0273 -66.0268 -66.0263 -66.0262 -66.0258 -66.0258 -66.0253 -66.0248
   -30.4341 -30.4278 -30.4265 -30.4202 -30.3973 -30.3906 -30.3883 -30.3879
   -30.3872 -30.3754 -30.3714 -30.3674 -30.3607 -30.3540 -30.3477 -30.3399
   -30.2887 -30.2870 -30.2866 -30.2863 -30.2801 -30.2750 -30.2731 -30.2683
   -20.1852 -20.1851 -20.1850 -20.1849 -20.1848 -20.1846 -20.1846 -20.1844
   -20.1661 -20.1657 -20.1657 -20.1653 -20.1649 -20.1646 -20.1643 -20.1640
   -20.1627 -20.1626 -20.1622 -20.1621 -20.1616 -20.1612 -20.1611 -20.1608
   -20.1604 -20.1600 -20.1599 -20.1596 -20.1574 -20.1572 -20.1569 -20.1567
   -20.1520 -20.1517 -20.1514 -20.1512 -20.1494 -20.1493 -20.1485 -20.1484
   -20.1455 -20.1454 -20.1449 -20.1449 -20.1426 -20.1425 -20.1414 -20.1413
   -20.1383 -20.1381 -20.1368 -20.1365 -20.1363 -20.1361 -20.1349 -20.1347
    -9.8459  -9.5496  -9.3977  -9.3968  -9.1205  -9.0971  -8.9657  -8.9109
    -8.8943  -8.7667  -8.7329  -8.7294  -7.7885  -7.7179  -7.6952  -7.6759
    -7.6722  -7.6704  -7.6688  -7.6158  -7.5608  -7.5423  -7.5312  -7.5249
     1.3611   1.3679   1.4290   1.4364   1.4551   1.4875   1.5061   1.7348
     1.7363   1.7746   1.7814   1.9989   2.4875   2.5738   2.6596   2.6853
     2.8041   2.8473   4.2130   4.2713   4.4482   4.5641   4.8111   4.8753
     4.9097   4.9240   4.9313   4.9328   5.1661   5.1843   5.2752   5.5054
     5.5832   5.6007   5.6485   5.6595   5.6938   5.7282   5.8272   5.8957
     5.9313   5.9454   5.9580   5.9866   6.0465   6.0673   6.1080   6.1928
     6.2187   6.3176   6.3582   6.6274   6.6471   6.8830   6.8959   6.9336
     6.9860   6.9983   7.0125   7.0717   7.0906   7.1478   7.3595   7.4038
     7.4322   7.4732   7.8316   7.8507   8.0778   8.1434   8.1881   8.2497
     9.6033   9.6186  10.1735  10.1974  10.2146  10.2422  12.3120  12.3304
    12.4358  12.4878  12.5508  12.5573  12.6713  12.6867  12.7432  12.8761
    13.3318  13.3900  13.4006  13.4806  13.7646  13.9214  14.2026  14.2061
    14.5062  14.5664  14.7933  15.0294  15.5126  15.5399  15.6472  16.0755
    16.1455  16.8634  17.0464  17.1374  17.6752

          k = 0.0000 0.0000 0.1661 ( 61865 PWs)   bands (ev):

   -66.0272 -66.0267 -66.0264 -66.0262 -66.0259 -66.0257 -66.0253 -66.0249
   -30.4336 -30.4282 -30.4260 -30.4206 -30.3946 -30.3875 -30.3863 -30.3850
   -30.3844 -30.3718 -30.3699 -30.3642 -30.3613 -30.3523 -30.3486 -30.3387
   -30.2945 -30.2933 -30.2919 -30.2914 -30.2798 -30.2747 -30.2744 -30.2693
   -20.1852 -20.1850 -20.1850 -20.1848 -20.1848 -20.1846 -20.1846 -20.1844
   -20.1661 -20.1657 -20.1657 -20.1653 -20.1649 -20.1646 -20.1643 -20.1641
   -20.1627 -20.1626 -20.1623 -20.1622 -20.1616 -20.1613 -20.1611 -20.1608
   -20.1603 -20.1600 -20.1599 -20.1596 -20.1574 -20.1572 -20.1570 -20.1568
   -20.1520 -20.1518 -20.1514 -20.1512 -20.1489 -20.1488 -20.1480 -20.1479
   -20.1454 -20.1454 -20.1449 -20.1449 -20.1430 -20.1429 -20.1419 -20.1417
   -20.1382 -20.1380 -20.1369 -20.1366 -20.1362 -20.1360 -20.1350 -20.1348
    -9.7994  -9.4949  -9.4151  -9.3370  -9.1122  -9.0336  -8.9745  -8.8729
    -8.8560  -8.7564  -8.7340  -8.7035  -7.8349  -7.8317  -7.7534  -7.6994
    -7.6889  -7.6877  -7.6622  -7.6572  -7.6341  -7.6190  -7.5511  -7.5342
     1.4438   1.4549   1.4622   1.4920   1.5767   1.6049   1.6891   1.7281
     1.7690   1.8154   1.9340   2.1073   2.5761   2.6629   2.6706   2.7721
     2.7960   2.9331   4.1839   4.2114   4.4643   4.4767   4.5433   4.5487
     4.7413   4.7997   4.9488   4.9562   4.9752   5.1742   5.2756   5.4148
     5.4179   5.5497   5.5853   5.6672   5.6787   5.7097   5.7534   5.8005
     5.8293   5.8372   5.9578   6.0035   6.0677   6.0724   6.2214   6.2426
     6.2448   6.4821   6.5529   6.6355   6.7600   6.8126   6.8766   6.8871
     6.9306   6.9902   7.0056   7.0656   7.0778   7.1501   7.2108   7.2278
     7.2564   7.3184   7.8525   7.8593   8.0951   8.1433   8.1476   8.2057
     9.8908   9.9101  10.1935  10.2085  10.4497  10.5060  12.2734  12.3590
    12.3657  12.5079  12.5324  12.5784  12.7384  12.7470  12.7764  12.8905
    13.1738  13.3737  13.3885  13.4070  13.8402  13.9206  14.0707  14.0964
    14.5348  14.6821  14.7884  15.1375  15.5379  15.5926  15.6143  16.1167
    16.3653  16.8890  17.0287  17.2237  17.7277

          k = 0.0000 0.0000 0.3322 ( 61878 PWs)   bands (ev):

   -66.0270 -66.0265 -66.0265 -66.0261 -66.0260 -66.0255 -66.0255 -66.0250
   -30.4323 -30.4292 -30.4248 -30.4216 -30.3916 -30.3885 -30.3787 -30.3759
   -30.3731 -30.3730 -30.3632 -30.3547 -30.3519 -30.3511 -30.3454 -30.3343
   -30.3102 -30.3102 -30.3072 -30.3063 -30.2790 -30.2763 -30.2738 -30.2710
   -20.1851 -20.1849 -20.1849 -20.1849 -20.1847 -20.1847 -20.1847 -20.1845
   -20.1660 -20.1658 -20.1656 -20.1654 -20.1648 -20.1645 -20.1645 -20.1642
   -20.1627 -20.1626 -20.1625 -20.1623 -20.1616 -20.1614 -20.1611 -20.1609
   -20.1603 -20.1601 -20.1598 -20.1597 -20.1573 -20.1571 -20.1571 -20.1569
   -20.1520 -20.1518 -20.1514 -20.1513 -20.1477 -20.1477 -20.1467 -20.1466
   -20.1457 -20.1453 -20.1452 -20.1448 -20.1440 -20.1439 -20.1431 -20.1430
   -20.1380 -20.1377 -20.1372 -20.1370 -20.1360 -20.1358 -20.1353 -20.1351
    -9.6853  -9.4688  -9.3660  -9.1969  -9.1583  -9.0049  -8.7960  -8.7870
    -8.7465  -8.7202  -8.6785  -8.5900  -8.1181  -8.1162  -8.0125  -7.9932
    -7.7417  -7.7110  -7.6504  -7.6393  -7.6320  -7.6278  -7.5750  -7.5598
     1.4559   1.4606   1.5049   1.5250   1.6837   1.7126   1.7137   1.7587
     2.3661   2.4091   2.5453   2.6366   2.6920   2.7885   2.8286   2.9291
     3.0091   3.1633   3.8251   3.9448   3.9582   4.0369   4.2626   4.3605
     4.4835   4.6181   4.7094   4.7643   4.8337   4.9096   5.0361   5.2246
     5.2620   5.2991   5.3339   5.4414   5.5623   5.5915   5.7123   5.7923
     5.8596   5.8803   5.9368   6.0448   6.1083   6.2240   6.2424   6.3388
     6.3933   6.4944   6.5623   6.5907   6.6571   6.6637   6.6722   6.8768
     6.9078   6.9749   6.9930   7.0470   7.0915   7.1484   7.1774   7.2423
     7.3662   7.4440   7.8103   7.8223   7.9982   8.0658   8.1290   8.1506
    10.1261  10.1807  10.5604  10.6735  11.0310  11.1355  11.9389  12.0198
    12.2603  12.5073  12.5647  12.6719  12.7168  12.7674  12.7775  12.8944
    13.0192  13.2014  13.2698  13.4389  13.7570  13.8170  13.9203  13.9264
    14.6422  14.7715  14.9912  15.4137  15.5077  15.6774  15.9785  16.0282
    16.3708  17.1787  17.4786  17.5542  17.7712

          k = 0.0000 0.0000-0.4983 ( 61844 PWs)   bands (ev):

   -66.0268 -66.0268 -66.0263 -66.0263 -66.0257 -66.0257 -66.0253 -66.0253
   -30.4307 -30.4307 -30.4231 -30.4231 -30.3899 -30.3899 -30.3752 -30.3752
   -30.3674 -30.3674 -30.3596 -30.3596 -30.3330 -30.3330 -30.3300 -30.3300
   -30.3295 -30.3294 -30.3234 -30.3234 -30.2778 -30.2778 -30.2726 -30.2726
   -20.1850 -20.1850 -20.1848 -20.1848 -20.1848 -20.1848 -20.1846 -20.1846
   -20.1659 -20.1659 -20.1655 -20.1655 -20.1646 -20.1646 -20.1643 -20.1643
   -20.1626 -20.1626 -20.1625 -20.1625 -20.1615 -20.1615 -20.1610 -20.1610
   -20.1602 -20.1602 -20.1597 -20.1597 -20.1572 -20.1572 -20.1570 -20.1570
   -20.1519 -20.1519 -20.1513 -20.1513 -20.1464 -20.1463 -20.1462 -20.1462
   -20.1451 -20.1451 -20.1450 -20.1450 -20.1446 -20.1446 -20.1445 -20.1445
   -20.1376 -20.1376 -20.1374 -20.1374 -20.1356 -20.1356 -20.1354 -20.1354
    -9.5615  -9.5615  -9.2410  -9.2410  -9.0721  -9.0721  -8.7648  -8.7648
    -8.4632  -8.4632  -8.4394  -8.4394  -8.4157  -8.4157  -8.3406  -8.3406
    -7.7271  -7.7271  -7.6396  -7.6396  -7.6075  -7.6075  -7.5955  -7.5955
     1.4588   1.4588   1.5213   1.5213   1.6994   1.6994   1.7472   1.7472
     2.7216   2.7216   3.0802   3.0802   3.2155   3.2155   3.2197   3.2197
     3.3678   3.3678   3.3932   3.3932   3.6094   3.6094   3.8705   3.8705
     3.9769   3.9769   4.6386   4.6386   4.7247   4.7247   5.0805   5.0805
     5.3291   5.3291   5.4419   5.4419   5.4509   5.4509   5.7549   5.7549
     5.9078   5.9078   6.0632   6.0632   6.1892   6.1892   6.3377   6.3377
     6.3495   6.3495   6.4744   6.4745   6.6010   6.6010   6.6659   6.6659
     6.8652   6.8652   6.9822   6.9822   7.1241   7.1241   7.5769   7.5769
     7.6167   7.6167   7.7384   7.7384   7.8142   7.8142   8.1465   8.1465
    10.1597  10.1597  11.3025  11.3025  11.4059  11.4059  11.7102  11.7102
    11.8890  11.8890  12.6766  12.6766  12.7786  12.7786  12.9456  12.9456
    12.9915  12.9915  13.3783  13.3783  13.5495  13.5495  13.9262  13.9262
    14.7322  14.7322  15.3039  15.3039  15.8364  15.8364  15.8762  15.8762
    16.7360  16.7360  17.9762  17.9762  18.2681

          k = 0.0000 0.1587 0.0000 ( 61913 PWs)   bands (ev):

   -66.0272 -66.0268 -66.0263 -66.0262 -66.0259 -66.0258 -66.0252 -66.0248
   -30.4307 -30.4242 -30.4228 -30.4162 -30.3985 -30.3913 -30.3887 -30.3885
   -30.3880 -30.3753 -30.3706 -30.3665 -30.3646 -30.3571 -30.3504 -30.3428
   -30.2886 -30.2871 -30.2867 -30.2864 -30.2799 -30.2754 -30.2728 -30.2688
   -20.1852 -20.1851 -20.1850 -20.1849 -20.1847 -20.1846 -20.1846 -20.1844
   -20.1660 -20.1656 -20.1655 -20.1652 -20.1650 -20.1647 -20.1644 -20.1641
   -20.1625 -20.1623 -20.1620 -20.1619 -20.1616 -20.1612 -20.1611 -20.1608
   -20.1604 -20.1600 -20.1600 -20.1596 -20.1578 -20.1575 -20.1573 -20.1571
   -20.1520 -20.1517 -20.1515 -20.1512 -20.1494 -20.1493 -20.1485 -20.1484
   -20.1455 -20.1453 -20.1450 -20.1449 -20.1426 -20.1425 -20.1414 -20.1413
   -20.1383 -20.1381 -20.1368 -20.1365 -20.1363 -20.1361 -20.1349 -20.1347
    -9.8160  -9.5618  -9.3604  -9.3588  -9.1281  -9.1055  -8.9097  -8.8954
    -8.8911  -8.7200  -8.6939  -8.6912  -7.8569  -7.7892  -7.7701  -7.7240
    -7.7167  -7.6989  -7.6746  -7.6705  -7.5593  -7.5469  -7.5360  -7.5270
     1.3613   1.3670   1.4357   1.4367   1.4722   1.4875   1.6314   1.7805
     1.9192   1.9634   1.9962   2.1596   2.4940   2.5677   2.7330   2.7624
     2.8731   2.9220   4.0780   4.1485   4.1832   4.2762   4.7458   4.8604
     4.8913   4.9285   4.9334   4.9922   5.1050   5.1136   5.1840   5.4023
     5.4509   5.6194   5.6217   5.6844   5.7110   5.7458   5.7765   5.8229
     5.8613   5.9068   5.9832   5.9862   6.0322   6.0609   6.1126   6.1883
     6.2011   6.3008   6.3783   6.6458   6.6883   6.8539   6.9096   6.9202
     6.9906   6.9975   7.0087   7.0409   7.0498   7.0728   7.3699   7.4001
     7.4460   7.4709   7.8339   7.8491   8.0561   8.0910   8.1478   8.1697
     9.6130   9.6202  10.3723  10.3800  10.3869  10.3914  12.2226  12.3199
    12.4390  12.4720  12.5028  12.5229  12.5277  12.5773  12.6963  12.8741
    13.3540  13.3934  13.4121  13.4608  13.9003  13.9246  14.1073  14.1122
    14.5888  14.8257  14.9547  15.1920  15.5109  15.5349  16.0436  16.0495
    16.1112  16.6016  17.1838  17.2734  17.6716

          k = 0.0000 0.1587 0.1661 ( 61883 PWs)   bands (ev):

   -66.0272 -66.0268 -66.0263 -66.0261 -66.0259 -66.0257 -66.0253 -66.0249
   -30.4301 -30.4246 -30.4223 -30.4165 -30.3961 -30.3891 -30.3871 -30.3850
   -30.3844 -30.3711 -30.3697 -30.3652 -30.3634 -30.3551 -30.3512 -30.3415
   -30.2944 -30.2934 -30.2920 -30.2915 -30.2796 -30.2751 -30.2741 -30.2698
   -20.1852 -20.1850 -20.1850 -20.1848 -20.1848 -20.1846 -20.1846 -20.1844
   -20.1660 -20.1656 -20.1656 -20.1652 -20.1649 -20.1646 -20.1644 -20.1641
   -20.1625 -20.1623 -20.1621 -20.1620 -20.1616 -20.1613 -20.1611 -20.1608
   -20.1603 -20.1600 -20.1599 -20.1596 -20.1577 -20.1575 -20.1573 -20.1571
   -20.1520 -20.1517 -20.1515 -20.1513 -20.1489 -20.1488 -20.1480 -20.1479
   -20.1454 -20.1454 -20.1450 -20.1449 -20.1430 -20.1429 -20.1419 -20.1417
   -20.1382 -20.1380 -20.1369 -20.1366 -20.1362 -20.1360 -20.1350 -20.1348
    -9.7683  -9.5072  -9.3766  -9.2961  -9.1208  -9.0412  -8.9000  -8.8715
    -8.8571  -8.7111  -8.6962  -8.6683  -7.8715  -7.8301  -7.8123  -7.7835
    -7.7613  -7.7332  -7.6865  -7.6777  -7.6589  -7.6522  -7.5561  -7.5362
     1.4581   1.4621   1.4749   1.4919   1.6616   1.6893   1.7236   1.9258
     1.9332   1.9852   1.9912   2.2173   2.5834   2.6583   2.7417   2.8506
     2.8656   3.0071   4.0880   4.1017   4.2287   4.2633   4.4866   4.5359
     4.7327   4.7849   4.8628   4.9433   4.9727   5.1148   5.1817   5.3252
     5.3686   5.4239   5.5352   5.6055   5.6459   5.6976   5.7541   5.7926
     5.8348   5.8613   5.9330   5.9597   5.9642   6.0996   6.1821   6.2290
     6.2807   6.4303   6.5509   6.6702   6.8031   6.8494   6.9023   6.9067
     6.9091   7.0020   7.0023   7.0304   7.0746   7.0884   7.2142   7.2319
     7.2792   7.3167   7.8533   7.8578   8.0619   8.0965   8.1058   8.1316
     9.9164   9.9173  10.3773  10.3905  10.5934  10.6324  12.2634  12.2853
    12.3666  12.4367  12.5153  12.5453  12.5819  12.6509  12.7638  12.8961
    13.1836  13.3523  13.3970  13.4020  13.9241  13.9380  13.9714  14.0047
    14.6586  14.9291  14.9845  15.2832  15.5343  15.5924  16.0113  16.0825
    16.3376  16.7609  17.0170  17.3413  17.7299

          k = 0.0000 0.1587 0.3322 ( 61863 PWs)   bands (ev):

   -66.0270 -66.0266 -66.0265 -66.0261 -66.0260 -66.0256 -66.0255 -66.0251
   -30.4287 -30.4256 -30.4209 -30.4176 -30.3933 -30.3900 -30.3783 -30.3778
   -30.3735 -30.3724 -30.3670 -30.3546 -30.3542 -30.3509 -30.3471 -30.3366
   -30.3103 -30.3103 -30.3073 -30.3067 -30.2787 -30.2760 -30.2743 -30.2715
   -20.1851 -20.1849 -20.1849 -20.1849 -20.1847 -20.1847 -20.1847 -20.1845
   -20.1659 -20.1657 -20.1655 -20.1653 -20.1648 -20.1645 -20.1645 -20.1642
   -20.1625 -20.1623 -20.1622 -20.1621 -20.1616 -20.1613 -20.1611 -20.1609
   -20.1602 -20.1601 -20.1598 -20.1597 -20.1577 -20.1575 -20.1574 -20.1572
   -20.1519 -20.1518 -20.1514 -20.1513 -20.1477 -20.1477 -20.1467 -20.1466
   -20.1456 -20.1452 -20.1452 -20.1448 -20.1440 -20.1439 -20.1431 -20.1430
   -20.1380 -20.1378 -20.1372 -20.1370 -20.1360 -20.1358 -20.1353 -20.1351
    -9.6514  -9.4308  -9.3780  -9.1677  -9.1422  -8.9311  -8.7949  -8.7772
    -8.7218  -8.7087  -8.6534  -8.5687  -8.1240  -8.1140  -8.0260  -7.9909
    -7.8204  -7.7983  -7.7506  -7.7267  -7.6517  -7.6341  -7.5813  -7.5619
     1.4824   1.4990   1.5048   1.5247   1.8687   1.8896   1.9609   1.9864
     2.3650   2.4189   2.5477   2.6546   2.7642   2.8388   2.8505   2.9265
     3.0882   3.2298   3.8297   3.9319   3.9617   3.9881   4.2305   4.2709
     4.3245   4.5229   4.6381   4.6787   4.7852   4.8621   4.9020   5.0937
     5.1398   5.2701   5.2937   5.2997   5.5259   5.5512   5.6145   5.7607
     5.8123   5.8868   5.8935   5.9389   6.0117   6.2070   6.2315   6.2544
     6.4377   6.5566   6.6289   6.6527   6.6664   6.7535   6.8258   6.8523
     6.9201   6.9597   7.0159   7.0267   7.0643   7.1041   7.2104   7.2350
     7.3692   7.4358   7.8107   7.8207   7.9684   8.0094   8.0820   8.0998
    10.3156  10.3719  10.5706  10.6885  11.1327  11.2164  11.9405  12.0174
    12.2554  12.4789  12.5805  12.6154  12.6335  12.6886  12.8018  12.8211
    12.9026  13.1866  13.2533  13.4188  13.6500  13.7417  13.9256  13.9568
    14.8123  14.9266  15.3268  15.5358  15.6641  15.8936  15.9959  16.0117
    16.4988  17.1429  17.2490  17.5307  17.8442

          k = 0.0000 0.1587-0.4983 ( 61904 PWs)   bands (ev):

   -66.0267 -66.0267 -66.0263 -66.0263 -66.0257 -66.0257 -66.0253 -66.0253
   -30.4271 -30.4271 -30.4192 -30.4192 -30.3914 -30.3914 -30.3746 -30.3746
   -30.3706 -30.3706 -30.3610 -30.3610 -30.3330 -30.3330 -30.3306 -30.3306
   -30.3295 -30.3295 -30.3246 -30.3246 -30.2775 -30.2775 -30.2730 -30.2730
   -20.1850 -20.1850 -20.1848 -20.1848 -20.1848 -20.1848 -20.1846 -20.1846
   -20.1658 -20.1658 -20.1654 -20.1654 -20.1647 -20.1647 -20.1644 -20.1644
   -20.1624 -20.1624 -20.1623 -20.1623 -20.1615 -20.1615 -20.1610 -20.1610
   -20.1601 -20.1601 -20.1597 -20.1597 -20.1575 -20.1575 -20.1574 -20.1574
   -20.1519 -20.1519 -20.1514 -20.1514 -20.1463 -20.1463 -20.1462 -20.1462
   -20.1451 -20.1451 -20.1450 -20.1450 -20.1446 -20.1446 -20.1445 -20.1445
   -20.1376 -20.1376 -20.1374 -20.1374 -20.1356 -20.1356 -20.1355 -20.1354
    -9.5249  -9.5249  -9.2518  -9.2518  -9.0031  -9.0031  -8.7291  -8.7291
    -8.4669  -8.4669  -8.4338  -8.4338  -8.4242  -8.4241  -8.3337  -8.3337
    -7.8118  -7.8118  -7.7402  -7.7402  -7.6162  -7.6162  -7.5976  -7.5976
     1.4937   1.4938   1.5211   1.5211   1.8915   1.8915   1.9814   1.9814
     2.7900   2.7900   3.0958   3.0958   3.2084   3.2084   3.2509   3.2510
     3.3643   3.3643   3.4176   3.4176   3.5988   3.5989   3.8790   3.8790
     4.0291   4.0291   4.4175   4.4175   4.6179   4.6179   4.8890   4.8890
     5.1950   5.1950   5.4111   5.4111   5.4398   5.4398   5.6525   5.6525
     5.8404   5.8404   5.9152   5.9152   6.1804   6.1804   6.3381   6.3381
     6.4257   6.4257   6.5100   6.5100   6.6551   6.6551   6.7706   6.7706
     6.9275   6.9275   6.9880   6.9880   7.0556   7.0556   7.5826   7.5826
     7.6127   7.6127   7.7213   7.7213   7.7836   7.7836   8.0955   8.0955
    10.3581  10.3581  11.3093  11.3093  11.4051  11.4051  11.7742  11.7742
    11.9422  11.9422  12.6389  12.6389  12.6819  12.6819  12.9279  12.9279
    12.9419  12.9419  13.2674  13.2674  13.5071  13.5071  13.9350  13.9350
    14.8942  14.8942  15.6670  15.6670  15.8502  15.8502  15.9746  15.9746
    16.7816  16.7816  17.7831  17.7831  18.2149

          k = 0.0000 0.3174 0.0000 ( 61838 PWs)   bands (ev):

   -66.0271 -66.0269 -66.0262 -66.0261 -66.0259 -66.0259 -66.0252 -66.0249
   -30.4218 -30.4147 -30.4132 -30.4052 -30.4029 -30.3945 -30.3935 -30.3887
   -30.3882 -30.3754 -30.3743 -30.3682 -30.3645 -30.3635 -30.3569 -30.3500
   -30.2883 -30.2874 -30.2869 -30.2866 -30.2791 -30.2765 -30.2722 -30.2698
   -20.1852 -20.1851 -20.1850 -20.1849 -20.1847 -20.1846 -20.1845 -20.1844
   -20.1657 -20.1654 -20.1652 -20.1651 -20.1649 -20.1648 -20.1646 -20.1643
   -20.1620 -20.1617 -20.1616 -20.1615 -20.1613 -20.1612 -20.1611 -20.1607
   -20.1603 -20.1599 -20.1598 -20.1595 -20.1586 -20.1584 -20.1582 -20.1580
   -20.1519 -20.1516 -20.1516 -20.1513 -20.1494 -20.1493 -20.1485 -20.1485
   -20.1454 -20.1452 -20.1451 -20.1450 -20.1426 -20.1425 -20.1414 -20.1413
   -20.1383 -20.1382 -20.1367 -20.1366 -20.1362 -20.1361 -20.1349 -20.1348
    -9.7430  -9.5991  -9.2779  -9.2702  -9.1529  -9.1331  -8.9066  -8.8984
    -8.6809  -8.5746  -8.5648  -8.5593  -8.0849  -8.0373  -8.0222  -7.9989
    -7.7141  -7.7110  -7.6769  -7.6744  -7.5551  -7.5461  -7.5426  -7.5325
     1.3619   1.3651   1.4376   1.4390   1.4836   1.4874   1.7419   1.7776
     2.4552   2.5146   2.5512   2.5878   2.6332   2.7748   2.9456   3.0067
     3.0717   3.1558   3.7045   3.7290   3.7979   3.8202   4.2329   4.5530
     4.6257   4.8507   4.8655   4.8962   4.9405   4.9833   5.1639   5.1660
     5.2121   5.2185   5.5139   5.5469   5.6821   5.6990   5.7864   5.8292
     5.9370   5.9674   5.9676   5.9877   6.0531   6.0917   6.1300   6.2009
     6.2219   6.2643   6.3758   6.5970   6.7030   6.7425   6.9160   6.9454
     6.9583   7.0302   7.1884   7.1907   7.2141   7.2315   7.3901   7.3957
     7.4653   7.4701   7.8184   7.8399   7.9177   7.9258   7.9411   7.9751
     9.6227   9.6233  10.8010  10.8588  10.8651  10.8832  11.8928  12.0296
    12.0906  12.1406  12.4239  12.4399  12.5132  12.5183  12.7499  12.8579
    13.4332  13.4373  13.4830  13.4964  13.7879  13.8508  13.8831  13.8882
    14.9941  15.3508  15.3884  15.5069  15.5239  15.7994  15.9574  15.9988
    16.0817  17.0131  17.3692  17.6572  17.7358

          k = 0.0000 0.3174 0.1661 ( 61872 PWs)   bands (ev):

   -66.0271 -66.0268 -66.0262 -66.0260 -66.0260 -66.0258 -66.0252 -66.0250
   -30.4211 -30.4151 -30.4124 -30.4056 -30.4012 -30.3942 -30.3911 -30.3849
   -30.3845 -30.3758 -30.3693 -30.3685 -30.3616 -30.3608 -30.3576 -30.3484
   -30.2943 -30.2937 -30.2922 -30.2918 -30.2788 -30.2762 -30.2734 -30.2709
   -20.1851 -20.1851 -20.1850 -20.1849 -20.1847 -20.1846 -20.1846 -20.1845
   -20.1657 -20.1653 -20.1652 -20.1651 -20.1649 -20.1648 -20.1646 -20.1643
   -20.1620 -20.1617 -20.1616 -20.1615 -20.1614 -20.1612 -20.1611 -20.1608
   -20.1602 -20.1599 -20.1598 -20.1596 -20.1586 -20.1584 -20.1582 -20.1580
   -20.1519 -20.1516 -20.1516 -20.1514 -20.1489 -20.1489 -20.1480 -20.1480
   -20.1453 -20.1453 -20.1451 -20.1450 -20.1430 -20.1429 -20.1419 -20.1418
   -20.1382 -20.1381 -20.1369 -20.1367 -20.1362 -20.1361 -20.1350 -20.1349
    -9.6925  -9.5449  -9.2879  -9.2032  -9.1490  -9.0668  -8.8683  -8.8601
    -8.6895  -8.5698  -8.5677  -8.5457  -8.0863  -8.0453  -8.0209  -8.0056
    -7.8257  -7.8100  -7.6837  -7.6831  -7.6630  -7.6623  -7.5554  -7.5419
     1.4621   1.4623   1.4875   1.4918   1.6861   1.6896   1.8851   1.9301
     2.4653   2.5756   2.6001   2.6293   2.6415   2.7726   2.9529   3.0648
     3.0972   3.2412   3.7288   3.7917   3.7997   3.8100   4.2130   4.4911
     4.5176   4.5590   4.6396   4.8683   4.8705   4.9657   4.9953   5.0126
     5.1695   5.2352   5.3289   5.4148   5.5094   5.5816   5.6928   5.7450
     5.7903   5.8386   5.8800   5.9602   6.0831   6.1327   6.1379   6.2025
     6.3608   6.4547   6.5234   6.6539   6.7085   6.8927   6.9455   7.0053
     7.0276   7.0513   7.1467   7.1611   7.1801   7.1894   7.2210   7.2743
     7.3364   7.3398   7.8338   7.8442   7.9150   7.9175   7.9299   7.9486
     9.9278   9.9343  10.8611  10.8904  10.9700  11.0323  11.9827  12.0207
    12.1423  12.1636  12.3554  12.3622  12.5615  12.5629  12.8234  12.9026
    13.2603  13.3662  13.4327  13.4376  13.7343  13.7865  13.8024  13.8607
    15.1000  15.3712  15.5216  15.5594  15.5992  15.8643  15.9706  16.2254
    16.2648  16.9772  17.4296  17.4381  17.7562

          k = 0.0000 0.3174 0.3322 ( 61895 PWs)   bands (ev):

   -66.0269 -66.0267 -66.0264 -66.0262 -66.0259 -66.0256 -66.0254 -66.0252
   -30.4195 -30.4161 -30.4105 -30.4068 -30.3986 -30.3951 -30.3848 -30.3776
   -30.3773 -30.3743 -30.3702 -30.3600 -30.3542 -30.3505 -30.3498 -30.3420
   -30.3106 -30.3105 -30.3075 -30.3074 -30.2779 -30.2754 -30.2752 -30.2726
   -20.1851 -20.1850 -20.1849 -20.1848 -20.1848 -20.1847 -20.1847 -20.1846
   -20.1656 -20.1653 -20.1652 -20.1650 -20.1650 -20.1647 -20.1647 -20.1644
   -20.1620 -20.1617 -20.1617 -20.1615 -20.1615 -20.1613 -20.1610 -20.1609
   -20.1601 -20.1599 -20.1597 -20.1596 -20.1585 -20.1583 -20.1583 -20.1581
   -20.1518 -20.1517 -20.1516 -20.1514 -20.1477 -20.1477 -20.1467 -20.1466
   -20.1455 -20.1453 -20.1452 -20.1449 -20.1440 -20.1439 -20.1431 -20.1430
   -20.1379 -20.1378 -20.1372 -20.1370 -20.1359 -20.1358 -20.1353 -20.1351
    -9.5692  -9.4154  -9.3424  -9.1981  -9.0105  -8.8230  -8.7503  -8.7267
    -8.7221  -8.5834  -8.5424  -8.4852  -8.1679  -8.1292  -8.1071  -8.0396
    -8.0168  -7.9917  -7.9838  -7.9133  -7.6535  -7.6399  -7.5811  -7.5676
     1.4986   1.5043   1.5182   1.5240   2.2873   2.3617   2.3854   2.4928
     2.5464   2.6066   2.6302   2.8210   2.8883   2.8970   2.9744   3.0546
     3.3255   3.4358   3.7540   3.7584   3.7896   3.8760   3.9256   3.9485
     4.2032   4.4042   4.4512   4.5159   4.5269   4.6933   4.7120   4.8601
     4.8865   4.9880   5.1458   5.2345   5.3030   5.3114   5.3369   5.4804
     5.5051   5.6955   5.7538   5.9147   6.1720   6.2422   6.2525   6.2631
     6.5230   6.6195   6.6389   6.7214   6.7394   6.8675   6.8815   6.8852
     7.0367   7.0672   7.1335   7.1607   7.1817   7.2243   7.2824   7.3026
     7.3642   7.4214   7.7943   7.8058   7.8441   7.8476   7.9094   7.9282
    10.5833  10.5915  10.8643  10.9308  11.4212  11.4829  11.9046  12.0098
    12.0939  12.1656  12.2641  12.3729  12.6741  12.7005  12.7295  12.7994
    12.8473  13.1617  13.1702  13.3933  13.4443  13.6321  13.7864  13.8381
    15.2293  15.3440  15.6160  15.8918  16.0631  16.0755  16.1038  16.7679
    16.8522  16.9226  17.0264  17.6301  17.7126

          k = 0.0000 0.3174-0.4983 ( 61882 PWs)   bands (ev):

   -66.0267 -66.0267 -66.0264 -66.0264 -66.0256 -66.0256 -66.0254 -66.0254
   -30.4177 -30.4177 -30.4085 -30.4085 -30.3967 -30.3967 -30.3802 -30.3802
   -30.3727 -30.3727 -30.3649 -30.3649 -30.3329 -30.3329 -30.3317 -30.3317
   -30.3294 -30.3294 -30.3271 -30.3271 -30.2767 -30.2767 -30.2741 -30.2741
   -20.1849 -20.1849 -20.1849 -20.1849 -20.1848 -20.1848 -20.1847 -20.1847
   -20.1655 -20.1655 -20.1651 -20.1651 -20.1649 -20.1649 -20.1646 -20.1646
   -20.1619 -20.1619 -20.1617 -20.1617 -20.1614 -20.1614 -20.1610 -20.1610
   -20.1600 -20.1600 -20.1597 -20.1596 -20.1584 -20.1584 -20.1582 -20.1582
   -20.1518 -20.1518 -20.1515 -20.1515 -20.1463 -20.1463 -20.1463 -20.1463
   -20.1451 -20.1451 -20.1450 -20.1450 -20.1446 -20.1446 -20.1445 -20.1445
   -20.1376 -20.1376 -20.1374 -20.1374 -20.1356 -20.1356 -20.1355 -20.1355
    -9.4378  -9.4378  -9.2859  -9.2859  -8.8159  -8.8159  -8.6222  -8.6222
    -8.4840  -8.4840  -8.4569  -8.4569  -8.4070  -8.4070  -8.3057  -8.3057
    -8.0393  -8.0393  -7.9853  -7.9853  -7.6170  -7.6170  -7.6034  -7.6033
     1.5136   1.5136   1.5204   1.5204   2.4708   2.4708   2.6110   2.6110
     2.9786   2.9786   3.1421   3.1421   3.1903   3.1903   3.3076   3.3076
     3.3525   3.3525   3.5027   3.5027   3.5573   3.5573   3.7774   3.7774
     4.1582   4.1582   4.1726   4.1726   4.2336   4.2336   4.4313   4.4313
     4.9494   4.9494   5.0970   5.0970   5.2612   5.2612   5.3898   5.3898
     5.5400   5.5400   5.8357   5.8357   6.2802   6.2802   6.3439   6.3439
     6.5499   6.5499   6.5794   6.5794   6.6588   6.6588   6.8261   6.8261
     7.1419   7.1419   7.1648   7.1648   7.2070   7.2070   7.5860   7.5861
     7.6020   7.6020   7.6439   7.6439   7.6908   7.6909   7.9169   7.9169
    10.8527  10.8527  11.3233  11.3233  11.4087  11.4087  11.9110  11.9110
    12.1108  12.1108  12.2897  12.2897  12.6438  12.6438  12.7005  12.7005
    12.9425  12.9425  13.0350  13.0350  13.4908  13.4908  13.7992  13.7992
    15.2974  15.2974  15.7647  15.7647  16.4189  16.4189  16.5853  16.5853
    16.9435  16.9435  17.4097  17.4098  17.9860

          k = 0.0000-0.4760 0.0000 ( 61818 PWs)   bands (ev):

   -66.0270 -66.0270 -66.0261 -66.0261 -66.0260 -66.0260 -66.0250 -66.0250
   -30.4112 -30.4112 -30.4032 -30.4032 -30.4018 -30.4018 -30.3905 -30.3905
   -30.3883 -30.3883 -30.3713 -30.3713 -30.3637 -30.3637 -30.3579 -30.3579
   -30.2878 -30.2878 -30.2869 -30.2869 -30.2779 -30.2779 -30.2711 -30.2711
   -20.1851 -20.1851 -20.1849 -20.1849 -20.1847 -20.1846 -20.1845 -20.1845
   -20.1654 -20.1654 -20.1651 -20.1651 -20.1649 -20.1649 -20.1645 -20.1645
   -20.1616 -20.1616 -20.1612 -20.1612 -20.1612 -20.1612 -20.1608 -20.1608
   -20.1597 -20.1596 -20.1594 -20.1594 -20.1592 -20.1592 -20.1590 -20.1590
   -20.1517 -20.1517 -20.1515 -20.1515 -20.1493 -20.1493 -20.1485 -20.1485
   -20.1452 -20.1452 -20.1451 -20.1451 -20.1426 -20.1426 -20.1413 -20.1413
   -20.1382 -20.1382 -20.1367 -20.1367 -20.1362 -20.1362 -20.1348 -20.1348
    -9.6620  -9.6620  -9.2013  -9.2013  -9.1864  -9.1864  -8.9025  -8.9025
    -8.3841  -8.3841  -8.3312  -8.3312  -8.3242  -8.3242  -8.3202  -8.3202
    -7.7122  -7.7122  -7.6773  -7.6773  -7.5491  -7.5491  -7.5399  -7.5398
     1.3632   1.3632   1.4387   1.4387   1.4867   1.4867   1.7693   1.7693
     2.5289   2.5289   3.1411   3.1412   3.2774   3.2774   3.3016   3.3016
     3.3153   3.3153   3.4575   3.4575   3.6562   3.6562   3.7257   3.7257
     3.8383   3.8383   4.8641   4.8641   4.9506   4.9506   5.3096   5.3096
     5.3992   5.3992   5.4192   5.4192   5.4562   5.4562   5.8486   5.8486
     5.8936   5.8936   5.9974   5.9974   6.1024   6.1024   6.1948   6.1948
     6.2525   6.2525   6.3897   6.3897   6.7948   6.7948   6.8300   6.8300
     6.9993   6.9993   7.3870   7.3870   7.4410   7.4410   7.5536   7.5536
     7.5688   7.5688   7.6378   7.6379   7.6561   7.6561   7.8553   7.8553
     9.6251   9.6251  11.3619  11.3619  11.4458  11.4458  11.4717  11.4717
    11.5722  11.5722  12.4336  12.4336  12.5188  12.5189  12.8139  12.8139
    13.5640  13.5640  13.5780  13.5780  13.6518  13.6519  13.7052  13.7052
    15.4595  15.4595  15.5725  15.5725  15.7509  15.7509  15.7741  15.7741
    16.6684  16.6684  18.1468  18.1489  18.1822

          k = 0.0000-0.4760 0.1661 ( 61848 PWs)   bands (ev):

   -66.0270 -66.0270 -66.0261 -66.0261 -66.0259 -66.0259 -66.0251 -66.0251
   -30.4101 -30.4101 -30.4035 -30.4035 -30.4002 -30.4002 -30.3908 -30.3908
   -30.3846 -30.3845 -30.3669 -30.3668 -30.3642 -30.3641 -30.3557 -30.3557
   -30.2940 -30.2940 -30.2921 -30.2921 -30.2776 -30.2776 -30.2722 -30.2722
   -20.1851 -20.1851 -20.1849 -20.1849 -20.1847 -20.1847 -20.1845 -20.1845
   -20.1654 -20.1654 -20.1650 -20.1650 -20.1649 -20.1649 -20.1646 -20.1646
   -20.1616 -20.1616 -20.1612 -20.1612 -20.1612 -20.1612 -20.1609 -20.1608
   -20.1596 -20.1596 -20.1594 -20.1594 -20.1592 -20.1592 -20.1590 -20.1590
   -20.1517 -20.1517 -20.1515 -20.1515 -20.1489 -20.1489 -20.1480 -20.1480
   -20.1452 -20.1452 -20.1452 -20.1452 -20.1430 -20.1429 -20.1418 -20.1418
   -20.1381 -20.1381 -20.1368 -20.1368 -20.1361 -20.1361 -20.1349 -20.1349
    -9.6091  -9.6090  -9.2034  -9.2034  -9.1183  -9.1183  -8.8641  -8.8641
    -8.3895  -8.3895  -8.3367  -8.3367  -8.3249  -8.3249  -8.3143  -8.3143
    -7.8192  -7.8192  -7.6821  -7.6821  -7.6654  -7.6654  -7.5492  -7.5492
     1.4624   1.4624   1.4909   1.4909   1.6895   1.6895   1.9206   1.9206
     2.6186   2.6186   3.1592   3.1592   3.2578   3.2578   3.3077   3.3077
     3.3783   3.3783   3.4495   3.4495   3.6726   3.6726   3.7442   3.7442
     3.8698   3.8698   4.5129   4.5129   4.9622   4.9622   5.0980   5.0981
     5.2307   5.2308   5.3457   5.3457   5.4492   5.4492   5.5978   5.5978
     5.8364   5.8364   5.8603   5.8603   6.1330   6.1330   6.1856   6.1856
     6.4538   6.4538   6.5135   6.5135   6.7865   6.7865   6.9878   6.9878
     7.0692   7.0692   7.2053   7.2053   7.2626   7.2626   7.5582   7.5582
     7.5709   7.5709   7.6228   7.6228   7.6369   7.6369   7.8704   7.8704
     9.9351   9.9351  11.4581  11.4581  11.4962  11.4962  11.5229  11.5229
    11.6141  11.6141  12.3557  12.3557  12.5624  12.5624  12.8834  12.8834
    13.4078  13.4078  13.4904  13.4904  13.5771  13.5771  13.7181  13.7181
    15.4574  15.4574  15.7276  15.7276  15.7851  15.7851  16.0126  16.0126
    16.7265  16.7266  18.0115  18.0116  18.1213

          k = 0.0000-0.4760 0.3322 ( 61882 PWs)   bands (ev):

   -66.0268 -66.0268 -66.0263 -66.0263 -66.0258 -66.0257 -66.0253 -66.0253
   -30.4080 -30.4080 -30.4045 -30.4045 -30.3969 -30.3969 -30.3920 -30.3920
   -30.3759 -30.3759 -30.3661 -30.3660 -30.3530 -30.3530 -30.3470 -30.3470
   -30.3106 -30.3106 -30.3076 -30.3076 -30.2767 -30.2767 -30.2740 -30.2740
   -20.1850 -20.1850 -20.1848 -20.1848 -20.1848 -20.1848 -20.1846 -20.1846
   -20.1653 -20.1653 -20.1650 -20.1650 -20.1649 -20.1649 -20.1647 -20.1647
   -20.1616 -20.1616 -20.1614 -20.1614 -20.1612 -20.1612 -20.1610 -20.1610
   -20.1595 -20.1595 -20.1593 -20.1593 -20.1593 -20.1593 -20.1591 -20.1591
   -20.1517 -20.1517 -20.1516 -20.1516 -20.1477 -20.1477 -20.1467 -20.1467
   -20.1454 -20.1454 -20.1450 -20.1450 -20.1440 -20.1439 -20.1431 -20.1431
   -20.1379 -20.1379 -20.1371 -20.1371 -20.1359 -20.1359 -20.1352 -20.1352
    -9.4809  -9.4809  -9.2556  -9.2556  -8.8882  -8.8882  -8.7351  -8.7351
    -8.4259  -8.4258  -8.3634  -8.3634  -8.3198  -8.3198  -8.2917  -8.2916
    -8.0905  -8.0905  -7.9686  -7.9686  -7.6474  -7.6474  -7.5750  -7.5749
     1.5030   1.5030   1.5226   1.5226   2.3528   2.3528   2.5270   2.5270
     2.8754   2.8754   3.1877   3.1877   3.2500   3.2500   3.3308   3.3308
     3.3887   3.3888   3.5222   3.5222   3.6489   3.6489   3.8424   3.8425
     3.9282   3.9282   3.9347   3.9347   4.5736   4.5736   4.7332   4.7332
     4.8787   4.8787   4.9666   4.9666   5.3263   5.3263   5.3860   5.3861
     5.5007   5.5007   5.7663   5.7663   6.2308   6.2308   6.2806   6.2807
     6.5892   6.5893   6.6807   6.6808   6.7756   6.7756   6.9072   6.9072
     7.1372   7.1372   7.2612   7.2612   7.2833   7.2833   7.5333   7.5333
     7.5740   7.5740   7.5943   7.5943   7.6202   7.6202   7.8304   7.8304
    10.6050  10.6050  11.4682  11.4682  11.5371  11.5371  11.8432  11.8432
    11.9233  11.9233  12.0206  12.0206  12.7023  12.7023  12.8067  12.8067
    12.9780  12.9780  13.1927  13.1927  13.5779  13.5779  13.6731  13.6731
    15.4964  15.4964  15.6903  15.6903  16.3529  16.3529  16.7160  16.7160
    16.9252  16.9252  17.5161  17.5161  17.9548

          k = 0.0000-0.4760-0.4983 ( 61900 PWs)   bands (ev):

   -66.0265 -66.0265 -66.0265 -66.0265 -66.0255 -66.0255 -66.0255 -66.0255
   -30.4061 -30.4061 -30.4061 -30.4061 -30.3941 -30.3941 -30.3940 -30.3940
   -30.3694 -30.3694 -30.3694 -30.3694 -30.3326 -30.3325 -30.3325 -30.3325
   -30.3288 -30.3288 -30.3288 -30.3287 -30.2755 -30.2755 -30.2755 -30.2755
   -20.1849 -20.1849 -20.1849 -20.1849 -20.1847 -20.1847 -20.1847 -20.1847
   -20.1651 -20.1651 -20.1651 -20.1651 -20.1648 -20.1648 -20.1648 -20.1648
   -20.1615 -20.1615 -20.1615 -20.1615 -20.1611 -20.1611 -20.1611 -20.1611
   -20.1594 -20.1594 -20.1594 -20.1594 -20.1592 -20.1592 -20.1592 -20.1592
   -20.1517 -20.1516 -20.1516 -20.1516 -20.1463 -20.1463 -20.1463 -20.1463
   -20.1451 -20.1450 -20.1450 -20.1450 -20.1446 -20.1446 -20.1446 -20.1446
   -20.1375 -20.1375 -20.1375 -20.1375 -20.1356 -20.1355 -20.1355 -20.1355
    -9.3485  -9.3484  -9.3484  -9.3484  -8.5922  -8.5922  -8.5922  -8.5922
    -8.5088  -8.5088  -8.5088  -8.5087  -8.2862  -8.2862  -8.2862  -8.2862
    -8.2147  -8.2147  -8.2147  -8.2147  -7.6108  -7.6108  -7.6108  -7.6108
     1.5187   1.5188   1.5188   1.5188   3.0669   3.0669   3.0669   3.0669
     3.1953   3.1953   3.1953   3.1953   3.3135   3.3135   3.3135   3.3135
     3.3817   3.3817   3.3817   3.3817   3.6074   3.6074   3.6074   3.6074
     3.7552   3.7552   3.7552   3.7552   4.4264   4.4264   4.4264   4.4264
     4.5438   4.5438   4.5438   4.5438   5.3435   5.3435   5.3435   5.3435
     5.6261   5.6261   5.6261   5.6261   6.3330   6.3330   6.3330   6.3330
     6.5919   6.5919   6.5919   6.5920   6.7242   6.7242   6.7242   6.7242
     7.3773   7.3773   7.3773   7.3773   7.4724   7.4724   7.4724   7.4724
     7.5634   7.5634   7.5634   7.5634   7.6721   7.6721   7.6721   7.6721
    11.2965  11.2965  11.2965  11.2965  11.5740  11.5740  11.5740  11.5740
    12.3645  12.3645  12.3645  12.3645  12.4152  12.4152  12.4152  12.4152
    12.9424  12.9424  12.9424  12.9424  13.6023  13.6023  13.6023  13.6023
    15.5959  15.5959  15.5959  15.5959  17.0191  17.0191  17.0192  17.0192
    17.4016  17.4016  17.4016  17.4020  17.5360

          k = 0.1667 0.0000 0.0000 ( 61862 PWs)   bands (ev):

   -66.0272 -66.0267 -66.0263 -66.0262 -66.0258 -66.0258 -66.0253 -66.0249
   -30.4334 -30.4271 -30.4270 -30.4206 -30.3963 -30.3910 -30.3856 -30.3842
   -30.3833 -30.3759 -30.3655 -30.3631 -30.3614 -30.3548 -30.3453 -30.3379
   -30.2912 -30.2899 -30.2863 -30.2861 -30.2860 -30.2809 -30.2769 -30.2726
   -20.1852 -20.1851 -20.1850 -20.1849 -20.1847 -20.1846 -20.1846 -20.1844
   -20.1661 -20.1658 -20.1657 -20.1653 -20.1649 -20.1646 -20.1643 -20.1641
   -20.1627 -20.1626 -20.1622 -20.1621 -20.1616 -20.1612 -20.1612 -20.1608
   -20.1604 -20.1600 -20.1600 -20.1597 -20.1574 -20.1572 -20.1569 -20.1568
   -20.1515 -20.1512 -20.1509 -20.1507 -20.1493 -20.1492 -20.1486 -20.1485
   -20.1459 -20.1457 -20.1453 -20.1452 -20.1425 -20.1424 -20.1415 -20.1413
   -20.1382 -20.1380 -20.1367 -20.1365 -20.1364 -20.1363 -20.1351 -20.1349
    -9.8002  -9.4984  -9.4150  -9.3395  -9.1357  -9.0107  -8.9756  -8.8750
    -8.8527  -8.7523  -8.7380  -8.6982  -7.8484  -7.7937  -7.7269  -7.7260
    -7.6982  -7.6768  -7.6670  -7.6469  -7.6325  -7.6199  -7.5706  -7.5407
     1.4280   1.4305   1.4318   1.4413   1.5716   1.6078   1.7288   1.7307
     1.7323   1.8651   1.9665   2.1269   2.5700   2.6634   2.6939   2.7486
     2.8371   2.8987   4.1520   4.2531   4.4381   4.4554   4.5577   4.5790
     4.6974   4.8805   4.9108   4.9153   4.9331   5.1608   5.2542   5.4863
     5.5154   5.5507   5.6035   5.6264   5.7035   5.7110   5.7253   5.7991
     5.8262   5.8984   5.9281   5.9907   6.1085   6.1272   6.1420   6.1836
     6.3638   6.4728   6.4822   6.6051   6.8421   6.8441   6.8494   6.8513
     6.9239   6.9895   6.9993   7.0270   7.0747   7.0771   7.2367   7.2670
     7.2812   7.2840   7.8533   7.8606   8.0466   8.1125   8.2021   8.2506
     9.9041   9.9380  10.2028  10.2408  10.4099  10.4858  12.2622  12.3871
    12.3891  12.4620  12.4654  12.6108  12.6941  12.7179  12.8232  12.9364
    13.2372  13.2762  13.3902  13.4822  13.7942  13.8891  14.1988  14.2041
    14.4544  14.5617  14.8149  15.1478  15.5407  15.5570  15.6084  16.0493
    16.4306  16.8176  17.0181  17.3176  17.7191

          k = 0.1667 0.0000 0.1661 ( 61882 PWs)   bands (ev):

   -66.0271 -66.0267 -66.0263 -66.0262 -66.0258 -66.0258 -66.0254 -66.0249
   -30.4329 -30.4275 -30.4264 -30.4210 -30.3927 -30.3864 -30.3837 -30.3820
   -30.3813 -30.3702 -30.3659 -30.3620 -30.3608 -30.3531 -30.3462 -30.3368
   -30.2960 -30.2944 -30.2918 -30.2918 -30.2860 -30.2806 -30.2793 -30.2742
   -20.1852 -20.1850 -20.1850 -20.1848 -20.1848 -20.1846 -20.1846 -20.1844
   -20.1661 -20.1657 -20.1657 -20.1653 -20.1649 -20.1646 -20.1644 -20.1641
   -20.1627 -20.1626 -20.1623 -20.1622 -20.1616 -20.1613 -20.1612 -20.1609
   -20.1603 -20.1600 -20.1600 -20.1597 -20.1574 -20.1572 -20.1570 -20.1568
   -20.1515 -20.1513 -20.1509 -20.1507 -20.1489 -20.1488 -20.1481 -20.1480
   -20.1458 -20.1458 -20.1453 -20.1453 -20.1429 -20.1428 -20.1420 -20.1418
   -20.1381 -20.1379 -20.1369 -20.1365 -20.1364 -20.1362 -20.1352 -20.1350
    -9.7517  -9.4392  -9.3568  -9.3552  -9.0490  -9.0259  -8.9849  -8.8362
    -8.8189  -8.7451  -8.7088  -8.7031  -7.8571  -7.8238  -7.7857  -7.7821
    -7.7323  -7.7274  -7.6892  -7.6892  -7.6590  -7.6358  -7.6313  -7.6229
     1.5638   1.5894   1.5993   1.6175   1.6229   1.6950   1.7219   1.7381
     1.8174   1.8659   2.0341   2.1929   2.6610   2.7512   2.7647   2.7778
     2.8873   2.9323   4.1494   4.1772   4.4325   4.4409   4.5637   4.5863
     4.5975   4.6086   4.7305   4.7453   4.8795   4.9662   5.2399   5.3614
     5.3753   5.4321   5.4703   5.6098   5.6452   5.6889   5.7169   5.8026
     5.8034   5.8410   5.8521   5.8572   5.9322   6.1470   6.2875   6.3531
     6.4649   6.5469   6.6428   6.7507   6.7585   6.7703   6.8069   6.8475
     6.8600   6.9046   6.9695   6.9842   7.0071   7.0522   7.0542   7.1704
     7.3328   7.3895   7.8580   7.8603   8.0637   8.1164   8.1669   8.2067
    10.0986  10.1538  10.4139  10.4369  10.4707  10.5650  12.3113  12.3346
    12.3956  12.4313  12.4998  12.5646  12.7630  12.7705  12.8215  12.9484
    13.1396  13.2837  13.2955  13.4237  13.8346  13.8811  14.0670  14.0968
    14.4954  14.6753  14.8080  15.2662  15.5781  15.6085  15.6215  16.3329
    16.3975  16.9848  17.0309  17.1822  17.7670

          k = 0.1667 0.0000 0.3322 ( 61886 PWs)   bands (ev):

   -66.0269 -66.0265 -66.0265 -66.0261 -66.0260 -66.0256 -66.0256 -66.0251
   -30.4316 -30.4285 -30.4252 -30.4221 -30.3881 -30.3846 -30.3761 -30.3737
   -30.3714 -30.3671 -30.3638 -30.3547 -30.3504 -30.3494 -30.3462 -30.3327
   -30.3109 -30.3103 -30.3075 -30.3061 -30.2852 -30.2822 -30.2797 -30.2766
   -20.1851 -20.1849 -20.1849 -20.1849 -20.1848 -20.1847 -20.1847 -20.1845
   -20.1660 -20.1658 -20.1656 -20.1654 -20.1648 -20.1645 -20.1645 -20.1642
   -20.1627 -20.1626 -20.1624 -20.1623 -20.1616 -20.1614 -20.1611 -20.1609
   -20.1602 -20.1601 -20.1599 -20.1597 -20.1573 -20.1571 -20.1571 -20.1569
   -20.1515 -20.1513 -20.1509 -20.1508 -20.1477 -20.1477 -20.1468 -20.1467
   -20.1460 -20.1456 -20.1455 -20.1452 -20.1440 -20.1439 -20.1432 -20.1431
   -20.1379 -20.1376 -20.1372 -20.1369 -20.1362 -20.1360 -20.1355 -20.1352
    -9.6329  -9.4104  -9.2974  -9.2140  -9.0731  -9.0167  -8.8031  -8.7589
    -8.7167  -8.6960  -8.6728  -8.5973  -8.1082  -8.1057  -8.0287  -8.0055
    -7.7981  -7.7592  -7.7368  -7.6999  -7.6724  -7.6539  -7.6531  -7.6317
     1.5719   1.5884   1.6751   1.7066   1.7510   1.7679   1.8369   1.8700
     2.3726   2.4157   2.5306   2.6270   2.7777   2.8636   2.9352   3.0215
     3.0399   3.1673   3.8527   3.9863   4.0076   4.0121   4.2523   4.3871
     4.4256   4.5542   4.6215   4.6412   4.7187   4.8609   4.8801   4.9867
     5.1052   5.1961   5.2101   5.3134   5.3868   5.4665   5.6975   5.7301
     5.7981   5.8248   5.9047   5.9391   5.9668   6.1127   6.1862   6.2012
     6.5029   6.5250   6.5868   6.6442   6.6527   6.7701   6.8048   6.8294
     6.8487   6.9749   6.9792   6.9799   7.1671   7.1728   7.2790   7.3038
     7.3957   7.4537   7.8188   7.8312   8.0105   8.0673   8.1098   8.1190
    10.3712  10.3842  10.7229  10.8130  11.0406  11.1571  12.0038  12.0720
    12.2921  12.4513  12.5590  12.5758  12.6499  12.7900  12.8344  12.9446
    13.0016  13.1761  13.1809  13.3743  13.7420  13.7555  13.8817  13.9215
    14.6279  14.7857  14.9784  15.4772  15.5596  15.8439  16.0231  16.3055
    16.5118  17.1435  17.4682  17.5460  17.6401

          k = 0.1667 0.0000-0.4983 ( 61892 PWs)   bands (ev):

   -66.0267 -66.0267 -66.0262 -66.0262 -66.0258 -66.0258 -66.0254 -66.0254
   -30.4300 -30.4300 -30.4236 -30.4236 -30.3860 -30.3860 -30.3695 -30.3695
   -30.3678 -30.3678 -30.3576 -30.3576 -30.3328 -30.3328 -30.3307 -30.3307
   -30.3295 -30.3295 -30.3226 -30.3226 -30.2840 -30.2839 -30.2783 -30.2783
   -20.1850 -20.1850 -20.1848 -20.1848 -20.1848 -20.1848 -20.1846 -20.1846
   -20.1659 -20.1659 -20.1655 -20.1655 -20.1646 -20.1646 -20.1644 -20.1644
   -20.1626 -20.1626 -20.1625 -20.1625 -20.1615 -20.1615 -20.1611 -20.1611
   -20.1602 -20.1601 -20.1598 -20.1598 -20.1572 -20.1572 -20.1570 -20.1570
   -20.1514 -20.1514 -20.1509 -20.1509 -20.1465 -20.1465 -20.1463 -20.1463
   -20.1452 -20.1452 -20.1451 -20.1451 -20.1447 -20.1447 -20.1447 -20.1447
   -20.1375 -20.1375 -20.1373 -20.1373 -20.1358 -20.1358 -20.1356 -20.1356
    -9.5047  -9.5047  -9.1604  -9.1604  -9.0863  -9.0863  -8.7343  -8.7342
    -8.4668  -8.4667  -8.4504  -8.4504  -8.4010  -8.4009  -8.3429  -8.3429
    -7.7718  -7.7718  -7.7184  -7.7184  -7.6712  -7.6712  -7.6434  -7.6434
     1.5783   1.5783   1.6915   1.6915   1.7701   1.7701   1.8737   1.8737
     2.7989   2.7989   3.0973   3.0973   3.1777   3.1777   3.2777   3.2777
     3.3636   3.3636   3.4765   3.4765   3.6621   3.6621   3.8930   3.8930
     3.9678   3.9678   4.5301   4.5301   4.6314   4.6314   5.0139   5.0139
     5.1098   5.1098   5.1804   5.1804   5.3362   5.3363   5.7422   5.7422
     5.8432   5.8432   5.9022   5.9022   5.9751   5.9751   6.1132   6.1132
     6.4395   6.4395   6.5676   6.5676   6.7204   6.7204   6.8250   6.8250
     6.9400   6.9400   7.0191   7.0191   7.0786   7.0786   7.6123   7.6123
     7.6442   7.6442   7.7571   7.7571   7.8169   7.8170   8.1167   8.1167
    10.3976  10.3976  11.3874  11.3874  11.4867  11.4867  11.7273  11.7273
    11.9030  11.9030  12.5989  12.5989  12.8158  12.8158  12.8730  12.8730
    13.0143  13.0143  13.3630  13.3630  13.4632  13.4632  13.8926  13.8926
    14.7356  14.7356  15.2813  15.2813  15.9775  15.9775  16.1169  16.1169
    16.8068  16.8068  17.9439  17.9440  18.0729

          k = 0.1667 0.1587 0.0000 ( 61875 PWs)   bands (ev):

   -66.0272 -66.0267 -66.0263 -66.0262 -66.0259 -66.0258 -66.0253 -66.0249
   -30.4299 -30.4235 -30.4232 -30.4166 -30.3973 -30.3917 -30.3857 -30.3851
   -30.3848 -30.3757 -30.3653 -30.3647 -30.3623 -30.3579 -30.3477 -30.3407
   -30.2911 -30.2900 -30.2864 -30.2861 -30.2858 -30.2814 -30.2767 -30.2731
   -20.1852 -20.1851 -20.1850 -20.1849 -20.1847 -20.1846 -20.1846 -20.1844
   -20.1660 -20.1657 -20.1655 -20.1652 -20.1650 -20.1647 -20.1644 -20.1641
   -20.1625 -20.1623 -20.1620 -20.1619 -20.1616 -20.1612 -20.1612 -20.1608
   -20.1604 -20.1600 -20.1600 -20.1597 -20.1578 -20.1576 -20.1573 -20.1571
   -20.1515 -20.1512 -20.1510 -20.1508 -20.1493 -20.1492 -20.1486 -20.1485
   -20.1458 -20.1457 -20.1454 -20.1453 -20.1425 -20.1424 -20.1415 -20.1414
   -20.1382 -20.1380 -20.1367 -20.1365 -20.1364 -20.1363 -20.1351 -20.1349
    -9.7693  -9.5105  -9.3786  -9.2965  -9.1435  -9.0193  -8.9010  -8.8723
    -8.8538  -8.7082  -8.6985  -8.6648  -7.8790  -7.8135  -7.7875  -7.7791
    -7.7608  -7.7352  -7.7042  -7.6778  -7.6585  -7.6429  -7.5691  -7.5456
     1.4315   1.4353   1.4400   1.4418   1.6819   1.7215   1.7397   1.9298
     1.9464   1.9770   2.0238   2.2281   2.5777   2.6570   2.7711   2.8235
     2.9126   2.9669   4.0455   4.1252   4.2117   4.3110   4.4678   4.5541
     4.6824   4.8122   4.8818   4.9105   4.9916   5.0958   5.1130   5.3707
     5.4377   5.4690   5.4998   5.6168   5.6585   5.6640   5.7222   5.7932
     5.8537   5.9104   5.9443   5.9516   6.0053   6.1167   6.1323   6.1876
     6.3315   6.4426   6.4916   6.6358   6.7955   6.8345   6.8964   6.8968
     6.9215   6.9890   6.9978   7.0538   7.0652   7.0964   7.2350   7.2644
     7.2825   7.2924   7.8527   7.8600   8.0263   8.0661   8.1496   8.1708
     9.9161   9.9432  10.3776  10.3866  10.5801  10.6325  12.1916  12.3858
    12.3951  12.4331  12.4615  12.5095  12.5474  12.6728  12.7472  12.9265
    13.2410  13.2919  13.4017  13.4599  13.8519  13.8583  14.1055  14.1097
    14.6183  14.8242  15.0245  15.2952  15.5434  15.5521  15.9699  16.0582
    16.3955  16.7500  16.9553  17.4195  17.7338

          k = 0.1667 0.1587 0.1661 ( 61853 PWs)   bands (ev):

   -66.0271 -66.0267 -66.0263 -66.0262 -66.0259 -66.0258 -66.0254 -66.0250
   -30.4293 -30.4238 -30.4227 -30.4170 -30.3942 -30.3874 -30.3854 -30.3821
   -30.3814 -30.3701 -30.3658 -30.3652 -30.3601 -30.3559 -30.3485 -30.3395
   -30.2959 -30.2945 -30.2919 -30.2919 -30.2857 -30.2811 -30.2791 -30.2747
   -20.1852 -20.1850 -20.1850 -20.1848 -20.1848 -20.1846 -20.1846 -20.1845
   -20.1660 -20.1656 -20.1656 -20.1652 -20.1649 -20.1647 -20.1644 -20.1642
   -20.1625 -20.1624 -20.1621 -20.1620 -20.1616 -20.1612 -20.1611 -20.1608
   -20.1603 -20.1600 -20.1600 -20.1597 -20.1577 -20.1575 -20.1573 -20.1572
   -20.1515 -20.1512 -20.1510 -20.1508 -20.1489 -20.1488 -20.1481 -20.1480
   -20.1458 -20.1458 -20.1453 -20.1453 -20.1429 -20.1428 -20.1420 -20.1418
   -20.1381 -20.1379 -20.1368 -20.1365 -20.1364 -20.1362 -20.1352 -20.1350
    -9.7194  -9.4514  -9.3147  -9.3138  -9.0570  -9.0348  -8.9104  -8.8348
    -8.8199  -8.7011  -8.6738  -8.6693  -7.8875  -7.8233  -7.8127  -7.8048
    -7.7742  -7.7679  -7.7574  -7.7434  -7.7012  -7.6698  -7.6577  -7.6412
     1.6066   1.6155   1.6649   1.6838   1.6973   1.7277   1.7548   1.9282
     1.9810   2.0181   2.0371   2.2735   2.6701   2.7525   2.8320   2.8565
     2.9588   3.0029   4.0553   4.0961   4.2326   4.2883   4.5024   4.5442
     4.5823   4.6133   4.7017   4.7767   4.8151   4.9116   5.0878   5.2690
     5.3369   5.3687   5.4394   5.4650   5.5240   5.6310   5.6463   5.7174
     5.8196   5.8490   5.8810   5.9144   5.9380   5.9860   6.2749   6.3499
     6.4646   6.4764   6.6384   6.7132   6.7837   6.7972   6.8591   6.8680
     6.9128   6.9157   6.9877   7.0046   7.0340   7.0532   7.0951   7.1817
     7.3403   7.3877   7.8569   7.8603   8.0313   8.0706   8.1170   8.1327
    10.1252  10.1703  10.5583  10.5832  10.6159  10.6946  12.2522  12.3285
    12.3913  12.4379  12.4615  12.4926  12.6284  12.6664  12.7943  12.9456
    13.1415  13.2703  13.2939  13.4144  13.8412  13.8656  13.9690  14.0120
    14.6960  14.9583  15.0227  15.3970  15.6096  15.6185  15.9726  16.3093
    16.3642  16.8798  17.1009  17.1584  17.7791

          k = 0.1667 0.1587 0.3322 ( 61873 PWs)   bands (ev):

   -66.0269 -66.0265 -66.0264 -66.0260 -66.0260 -66.0256 -66.0255 -66.0251
   -30.4280 -30.4248 -30.4213 -30.4181 -30.3901 -30.3864 -30.3782 -30.3735
   -30.3716 -30.3675 -30.3665 -30.3547 -30.3516 -30.3498 -30.3478 -30.3350
   -30.3110 -30.3104 -30.3076 -30.3065 -30.2849 -30.2819 -30.2802 -30.2771
   -20.1851 -20.1849 -20.1849 -20.1849 -20.1848 -20.1847 -20.1847 -20.1845
   -20.1659 -20.1656 -20.1655 -20.1653 -20.1648 -20.1646 -20.1645 -20.1643
   -20.1625 -20.1623 -20.1622 -20.1621 -20.1615 -20.1613 -20.1611 -20.1609
   -20.1602 -20.1601 -20.1599 -20.1597 -20.1577 -20.1575 -20.1574 -20.1573
   -20.1515 -20.1513 -20.1510 -20.1508 -20.1477 -20.1477 -20.1468 -20.1467
   -20.1459 -20.1456 -20.1455 -20.1452 -20.1440 -20.1439 -20.1432 -20.1431
   -20.1379 -20.1377 -20.1371 -20.1369 -20.1361 -20.1360 -20.1355 -20.1353
    -9.5969  -9.3687  -9.3097  -9.1599  -9.0827  -8.9430  -8.8113  -8.7411
    -8.6981  -8.6819  -8.6488  -8.5756  -8.1144  -8.1036  -8.0427  -8.0031
    -7.8323  -7.8077  -7.7703  -7.7502  -7.7374  -7.7320  -7.6873  -7.6743
     1.6853   1.7006   1.7487   1.7655   1.8827   1.8971   1.9674   2.0165
     2.3718   2.4255   2.5325   2.6426   2.8508   2.9177   2.9630   3.0366
     3.0985   3.2301   3.8555   3.9559   3.9959   4.0051   4.2385   4.2906
     4.3309   4.5186   4.5224   4.6329   4.6768   4.7943   4.8357   4.9368
     4.9553   5.0536   5.1092   5.2433   5.2992   5.3530   5.5059   5.6908
     5.7313   5.7563   5.8887   5.9077   5.9252   5.9518   6.1430   6.1931
     6.4564   6.6118   6.6269   6.7236   6.7743   6.7813   6.8144   6.8731
     6.9134   6.9639   7.0152   7.0624   7.1616   7.1847   7.2785   7.3105
     7.3941   7.4464   7.8199   7.8288   7.9694   8.0100   8.0653   8.0733
    10.5183  10.5348  10.7532  10.8326  11.1422  11.2348  12.0050  12.0683
    12.2925  12.4366  12.5628  12.5893  12.6209  12.6700  12.8118  12.8613
    12.8796  13.1315  13.1756  13.3609  13.6373  13.6636  13.8700  13.8908
    14.8644  14.9999  15.3160  15.6564  15.8336  15.8755  16.0440  16.2774
    16.6194  17.1154  17.3053  17.5350  17.6114

          k = 0.1667 0.1587-0.4983 ( 61874 PWs)   bands (ev):

   -66.0267 -66.0267 -66.0263 -66.0263 -66.0258 -66.0258 -66.0254 -66.0254
   -30.4263 -30.4263 -30.4196 -30.4196 -30.3879 -30.3879 -30.3712 -30.3712
   -30.3689 -30.3689 -30.3587 -30.3587 -30.3328 -30.3328 -30.3312 -30.3311
   -30.3295 -30.3295 -30.3239 -30.3239 -30.2837 -30.2837 -30.2789 -30.2788
   -20.1850 -20.1850 -20.1848 -20.1848 -20.1848 -20.1848 -20.1847 -20.1846
   -20.1658 -20.1658 -20.1654 -20.1654 -20.1647 -20.1647 -20.1644 -20.1644
   -20.1624 -20.1624 -20.1623 -20.1623 -20.1614 -20.1614 -20.1610 -20.1610
   -20.1601 -20.1601 -20.1598 -20.1598 -20.1576 -20.1576 -20.1574 -20.1574
   -20.1514 -20.1514 -20.1509 -20.1509 -20.1465 -20.1465 -20.1463 -20.1463
   -20.1452 -20.1452 -20.1451 -20.1451 -20.1447 -20.1447 -20.1447 -20.1447
   -20.1375 -20.1375 -20.1373 -20.1373 -20.1358 -20.1358 -20.1356 -20.1356
    -9.4650  -9.4650  -9.1714  -9.1714  -9.0178  -9.0178  -8.7014  -8.7014
    -8.4709  -8.4709  -8.4511  -8.4511  -8.4022  -8.4022  -8.3365  -8.3365
    -7.8211  -7.8211  -7.7540  -7.7540  -7.7218  -7.7218  -7.7035  -7.7035
     1.6943   1.6943   1.7676   1.7676   1.8992   1.8992   2.0108   2.0108
     2.8662   2.8662   3.1149   3.1149   3.1924   3.1924   3.2875   3.2875
     3.3649   3.3649   3.4969   3.4969   3.6524   3.6524   3.9032   3.9032
     4.0195   4.0195   4.4146   4.4146   4.5363   4.5363   4.8333   4.8333
     5.0088   5.0088   5.1291   5.1291   5.2134   5.2134   5.5977   5.5977
     5.8084   5.8084   5.8208   5.8208   5.9488   5.9488   5.9742   5.9742
     6.5581   6.5581   6.6985   6.6985   6.7460   6.7460   6.8500   6.8500
     6.9791   6.9791   7.0148   7.0148   7.1207   7.1207   7.6134   7.6134
     7.6406   7.6406   7.7329   7.7329   7.7852   7.7852   8.0700   8.0700
    10.5640  10.5640  11.3942  11.3942  11.4872  11.4872  11.7919  11.7919
    11.9557  11.9557  12.6106  12.6106  12.6985  12.6985  12.8237  12.8237
    12.9873  12.9873  13.2507  13.2507  13.3990  13.3990  13.8673  13.8673
    14.9607  14.9607  15.6483  15.6483  16.0571  16.0571  16.1301  16.1301
    16.8446  16.8446  17.7856  17.7857  18.0648

          k = 0.1667 0.3174 0.0000 ( 61885 PWs)   bands (ev):

   -66.0271 -66.0268 -66.0262 -66.0261 -66.0259 -66.0259 -66.0252 -66.0250
   -30.4208 -30.4139 -30.4134 -30.4056 -30.4014 -30.3947 -30.3909 -30.3860
   -30.3857 -30.3759 -30.3748 -30.3652 -30.3628 -30.3596 -30.3532 -30.3473
   -30.2908 -30.2901 -30.2866 -30.2863 -30.2851 -30.2825 -30.2762 -30.2742
   -20.1852 -20.1851 -20.1850 -20.1849 -20.1847 -20.1846 -20.1845 -20.1845
   -20.1657 -20.1654 -20.1652 -20.1651 -20.1649 -20.1649 -20.1646 -20.1643
   -20.1620 -20.1617 -20.1615 -20.1615 -20.1613 -20.1611 -20.1611 -20.1607
   -20.1603 -20.1599 -20.1598 -20.1596 -20.1586 -20.1584 -20.1582 -20.1580
   -20.1514 -20.1511 -20.1511 -20.1509 -20.1493 -20.1492 -20.1486 -20.1485
   -20.1457 -20.1456 -20.1455 -20.1454 -20.1425 -20.1425 -20.1415 -20.1414
   -20.1382 -20.1381 -20.1367 -20.1365 -20.1364 -20.1363 -20.1351 -20.1349
    -9.6940  -9.5477  -9.2960  -9.1971  -9.1690  -9.0476  -8.8672  -8.8572
    -8.6905  -8.5677  -8.5662  -8.5474  -8.0859  -8.0365  -8.0294  -8.0070
    -7.8066  -7.7931  -7.7017  -7.6871  -7.6626  -7.6496  -7.5648  -7.5523
     1.4327   1.4358   1.4429   1.4442   1.7204   1.7298   1.9106   1.9600
     2.4656   2.5749   2.5970   2.6241   2.6411   2.7598   3.0166   3.0428
     3.1508   3.1695   3.7009   3.7171   3.8485   3.8700   4.2176   4.4706
     4.5249   4.6113   4.6687   4.8127   4.8557   4.8999   4.9984   5.0501
     5.1643   5.1679   5.3760   5.4597   5.5145   5.6075   5.6975   5.7242
     5.8051   5.8519   5.8806   5.9494   6.1048   6.1260   6.1433   6.1899
     6.3475   6.4154   6.4801   6.6522   6.7225   6.9229   6.9436   6.9852
     7.0352   7.0430   7.1363   7.1870   7.1880   7.1942   7.2660   7.2669
     7.3153   7.3503   7.8249   7.8504   7.9060   7.9138   7.9425   7.9677
     9.9336   9.9470  10.8043  10.8489  11.0291  11.0425  11.8870  12.0803
    12.1321  12.2015  12.4104  12.4223  12.4749  12.5061  12.8108  12.9049
    13.2922  13.3484  13.4698  13.4918  13.6855  13.7222  13.8830  13.8846
    15.1267  15.3452  15.4683  15.5428  15.6225  15.8573  15.9293  16.2318
    16.2798  16.9756  17.3608  17.4619  17.8382

          k = 0.1667 0.3174 0.1661 ( 61895 PWs)   bands (ev):

   -66.0270 -66.0268 -66.0262 -66.0261 -66.0259 -66.0259 -66.0253 -66.0251
   -30.4201 -30.4140 -30.4128 -30.4061 -30.3993 -30.3918 -30.3910 -30.3822
   -30.3817 -30.3764 -30.3694 -30.3633 -30.3621 -30.3577 -30.3539 -30.3459
   -30.2956 -30.2948 -30.2922 -30.2921 -30.2849 -30.2822 -30.2784 -30.2759
   -20.1851 -20.1850 -20.1850 -20.1849 -20.1847 -20.1846 -20.1846 -20.1845
   -20.1657 -20.1654 -20.1652 -20.1651 -20.1649 -20.1648 -20.1646 -20.1643
   -20.1620 -20.1617 -20.1616 -20.1615 -20.1614 -20.1612 -20.1611 -20.1608
   -20.1602 -20.1599 -20.1599 -20.1596 -20.1586 -20.1584 -20.1582 -20.1581
   -20.1514 -20.1512 -20.1511 -20.1509 -20.1489 -20.1488 -20.1481 -20.1480
   -20.1457 -20.1457 -20.1454 -20.1454 -20.1429 -20.1428 -20.1419 -20.1418
   -20.1381 -20.1380 -20.1368 -20.1366 -20.1363 -20.1362 -20.1352 -20.1350
    -9.6406  -9.4894  -9.2217  -9.2150  -9.0832  -9.0638  -8.8315  -8.8232
    -8.6996  -8.5625  -8.5536  -8.5498  -8.0888  -8.0419  -8.0298  -8.0134
    -7.8193  -7.8107  -7.7827  -7.7782  -7.7022  -7.6873  -7.6600  -7.6477
     1.6087   1.6136   1.6906   1.6949   1.7269   1.7363   1.9681   2.0284
     2.4713   2.5732   2.6110   2.6880   2.7177   2.7754   3.0518   3.1052
     3.1648   3.2346   3.7223   3.7680   3.8507   3.8700   4.2010   4.4985
     4.5166   4.5497   4.5828   4.6377   4.7164   4.8574   4.8788   4.9522
     4.9959   5.0554   5.2542   5.2694   5.4766   5.4892   5.5146   5.5387
     5.7451   5.7662   5.8083   5.8335   5.9062   5.9131   6.3044   6.3380
     6.5052   6.5243   6.6163   6.7086   6.8377   6.8877   6.9183   6.9629
     6.9915   7.0205   7.0899   7.1076   7.1764   7.1969   7.2306   7.2526
     7.3846   7.3968   7.8300   7.8518   7.8900   7.9157   7.9237   7.9479
    10.1590  10.1797  10.9637  10.9842  11.0415  11.0871  11.9732  12.1009
    12.1742  12.1991  12.4047  12.4365  12.4500  12.4832  12.8650  12.9381
    13.2134  13.3025  13.3294  13.4268  13.6441  13.7251  13.7365  13.8153
    15.2536  15.4974  15.5496  15.6070  15.6527  15.9226  16.2057  16.2530
    16.3697  16.9424  17.4263  17.5149  17.5493

          k = 0.1667 0.3174 0.3322 ( 61875 PWs)   bands (ev):

   -66.0268 -66.0266 -66.0264 -66.0261 -66.0259 -66.0257 -66.0255 -66.0252
   -30.4184 -30.4151 -30.4109 -30.4072 -30.3962 -30.3924 -30.3852 -30.3780
   -30.3729 -30.3718 -30.3648 -30.3567 -30.3541 -30.3511 -30.3484 -30.3403
   -30.3110 -30.3106 -30.3078 -30.3073 -30.2841 -30.2814 -30.2811 -30.2783
   -20.1850 -20.1850 -20.1849 -20.1848 -20.1848 -20.1847 -20.1847 -20.1846
   -20.1656 -20.1653 -20.1653 -20.1650 -20.1650 -20.1647 -20.1647 -20.1644
   -20.1620 -20.1618 -20.1617 -20.1615 -20.1615 -20.1613 -20.1611 -20.1609
   -20.1601 -20.1599 -20.1598 -20.1596 -20.1585 -20.1584 -20.1583 -20.1581
   -20.1514 -20.1512 -20.1511 -20.1509 -20.1477 -20.1477 -20.1468 -20.1467
   -20.1458 -20.1456 -20.1455 -20.1453 -20.1440 -20.1439 -20.1432 -20.1431
   -20.1378 -20.1377 -20.1371 -20.1369 -20.1361 -20.1360 -20.1354 -20.1353
    -9.5096  -9.3481  -9.2707  -9.1142  -9.0293  -8.8404  -8.7380  -8.7189
    -8.6994  -8.5665  -8.5373  -8.4912  -8.1679  -8.1350  -8.0972  -8.0392
    -8.0210  -7.9977  -7.9883  -7.9195  -7.7666  -7.7530  -7.6957  -7.6828
     1.7353   1.7478   1.7563   1.7659   2.2925   2.3662   2.3777   2.4920
     2.5323   2.6035   2.6171   2.8030   2.9634   3.0189   3.0780   3.1546
     3.3328   3.4323   3.7481   3.7686   3.8314   3.8952   3.9697   4.0446
     4.1957   4.3993   4.4456   4.5078   4.5198   4.6221   4.7098   4.7849
     4.8123   4.9187   4.9740   4.9798   5.0555   5.1291   5.2522   5.2810
     5.4328   5.4561   5.5569   5.7273   5.8543   5.9137   6.1740   6.1908
     6.6106   6.6942   6.7036   6.8170   6.8874   6.9126   7.0070   7.0447
     7.0851   7.1096   7.1482   7.1658   7.2207   7.2895   7.3023   7.3444
     7.3935   7.4347   7.8054   7.8126   7.8313   7.8446   7.9028   7.9182
    10.7043  10.7306  11.0338  11.0764  11.4328  11.4959  11.9791  12.0407
    12.1518  12.2502  12.2788  12.3667  12.5836  12.6745  12.7039  12.7882
    12.8725  13.0912  13.1340  13.3743  13.3824  13.4833  13.7039  13.7290
    15.4090  15.5139  15.8080  16.0391  16.0698  16.1563  16.2151  16.8120
    16.8271  16.9408  17.0651  17.6382  17.7428

          k = 0.1667 0.3174-0.4983 ( 61892 PWs)   bands (ev):

   -66.0266 -66.0266 -66.0264 -66.0264 -66.0257 -66.0257 -66.0255 -66.0255
   -30.4166 -30.4166 -30.4089 -30.4089 -30.3939 -30.3939 -30.3806 -30.3806
   -30.3675 -30.3675 -30.3616 -30.3616 -30.3328 -30.3328 -30.3321 -30.3320
   -30.3293 -30.3293 -30.3265 -30.3265 -30.2828 -30.2828 -30.2801 -30.2801
   -20.1849 -20.1849 -20.1848 -20.1848 -20.1848 -20.1848 -20.1847 -20.1847
   -20.1655 -20.1655 -20.1651 -20.1651 -20.1649 -20.1649 -20.1646 -20.1646
   -20.1619 -20.1619 -20.1617 -20.1617 -20.1614 -20.1614 -20.1610 -20.1610
   -20.1600 -20.1600 -20.1597 -20.1597 -20.1584 -20.1584 -20.1583 -20.1583
   -20.1513 -20.1513 -20.1510 -20.1510 -20.1464 -20.1464 -20.1463 -20.1463
   -20.1452 -20.1452 -20.1451 -20.1451 -20.1448 -20.1447 -20.1447 -20.1447
   -20.1375 -20.1375 -20.1373 -20.1373 -20.1358 -20.1358 -20.1357 -20.1357
    -9.3702  -9.3702  -9.2069  -9.2069  -8.8325  -8.8325  -8.6020  -8.6020
    -8.4950  -8.4950  -8.4584  -8.4584  -8.3918  -8.3918  -8.3097  -8.3097
    -8.0363  -8.0363  -7.9920  -7.9920  -7.7313  -7.7313  -7.7177  -7.7177
     1.7540   1.7540   1.7672   1.7672   2.4746   2.4746   2.5917   2.5917
     3.0415   3.0415   3.1665   3.1665   3.2092   3.2092   3.3224   3.3224
     3.3691   3.3691   3.5642   3.5643   3.6120   3.6121   3.8242   3.8242
     4.1459   4.1459   4.1803   4.1803   4.2250   4.2250   4.4478   4.4478
     4.8577   4.8577   4.9629   4.9629   5.1198   5.1198   5.1600   5.1601
     5.2505   5.2505   5.6307   5.6307   5.9415   5.9415   5.9717   5.9717
     6.7269   6.7269   6.8414   6.8414   6.8867   6.8867   6.9457   6.9457
     7.1287   7.1287   7.1731   7.1732   7.2773   7.2773   7.6064   7.6064
     7.6282   7.6282   7.6472   7.6472   7.6956   7.6956   7.9043   7.9043
    10.9927  10.9927  11.4075  11.4075  11.4981  11.4981  11.9514  11.9514
    12.1245  12.1245  12.3314  12.3315  12.6120  12.6120  12.6817  12.6817
    12.9029  12.9029  13.0080  13.0080  13.3565  13.3565  13.6928  13.6928
    15.4783  15.4783  16.0019  16.0019  16.4803  16.4803  16.5804  16.5804
    16.9826  16.9826  17.4410  17.4410  17.9521

          k = 0.1667-0.4760 0.0000 ( 61902 PWs)   bands (ev):

   -66.0270 -66.0269 -66.0261 -66.0261 -66.0260 -66.0260 -66.0251 -66.0251
   -30.4099 -30.4099 -30.4024 -30.4024 -30.4012 -30.4012 -30.3908 -30.3908
   -30.3860 -30.3860 -30.3718 -30.3718 -30.3591 -30.3591 -30.3543 -30.3543
   -30.2904 -30.2904 -30.2865 -30.2865 -30.2839 -30.2839 -30.2753 -30.2753
   -20.1851 -20.1851 -20.1850 -20.1849 -20.1846 -20.1846 -20.1845 -20.1845
   -20.1654 -20.1654 -20.1651 -20.1651 -20.1649 -20.1649 -20.1646 -20.1646
   -20.1616 -20.1616 -20.1612 -20.1612 -20.1612 -20.1612 -20.1608 -20.1608
   -20.1597 -20.1597 -20.1594 -20.1594 -20.1592 -20.1592 -20.1591 -20.1590
   -20.1512 -20.1512 -20.1510 -20.1510 -20.1493 -20.1493 -20.1486 -20.1485
   -20.1456 -20.1456 -20.1455 -20.1455 -20.1425 -20.1425 -20.1414 -20.1414
   -20.1381 -20.1381 -20.1366 -20.1366 -20.1364 -20.1364 -20.1350 -20.1350
    -9.6113  -9.6113  -9.2185  -9.2185  -9.1044  -9.1044  -8.8619  -8.8619
    -8.3908  -8.3908  -8.3363  -8.3363  -8.3209  -8.3208  -8.3174  -8.3174
    -7.8021  -7.8021  -7.6949  -7.6949  -7.6569  -7.6569  -7.5588  -7.5588
     1.4342   1.4342   1.4440   1.4440   1.7280   1.7280   1.9495   1.9495
     2.6171   2.6171   3.1442   3.1442   3.2509   3.2509   3.3152   3.3152
     3.3871   3.3871   3.4655   3.4655   3.6642   3.6642   3.7570   3.7570
     3.8623   3.8623   4.5494   4.5494   4.8403   4.8403   5.1627   5.1627
     5.2510   5.2511   5.3396   5.3397   5.4394   5.4394   5.6354   5.6355
     5.8250   5.8250   5.8563   5.8563   6.1248   6.1248   6.1876   6.1876
     6.4453   6.4453   6.4857   6.4857   6.8083   6.8083   6.9872   6.9872
     7.0724   7.0724   7.2212   7.2212   7.2606   7.2606   7.5491   7.5491
     7.5782   7.5783   7.6221   7.6222   7.6524   7.6525   7.8703   7.8703
     9.9439   9.9439  11.3648  11.3648  11.4366  11.4366  11.5977  11.5978
    11.6716  11.6716  12.4198  12.4198  12.4872  12.4872  12.8732  12.8732
    13.4205  13.4205  13.5150  13.5150  13.6402  13.6402  13.6619  13.6619
    15.5135  15.5135  15.6782  15.6782  15.7351  15.7351  16.0241  16.0241
    16.7269  16.7269  17.9808  17.9808  18.1988

          k = 0.1667-0.4760 0.1661 ( 61850 PWs)   bands (ev):

   -66.0269 -66.0269 -66.0261 -66.0261 -66.0260 -66.0260 -66.0252 -66.0252
   -30.4087 -30.4087 -30.4019 -30.4017 -30.4005 -30.4004 -30.3912 -30.3912
   -30.3820 -30.3819 -30.3673 -30.3672 -30.3596 -30.3596 -30.3526 -30.3526
   -30.2953 -30.2952 -30.2923 -30.2922 -30.2837 -30.2836 -30.2773 -30.2772
   -20.1851 -20.1851 -20.1849 -20.1849 -20.1847 -20.1847 -20.1845 -20.1845
   -20.1654 -20.1654 -20.1651 -20.1651 -20.1649 -20.1649 -20.1646 -20.1646
   -20.1616 -20.1616 -20.1612 -20.1612 -20.1612 -20.1612 -20.1609 -20.1609
   -20.1596 -20.1596 -20.1594 -20.1594 -20.1592 -20.1592 -20.1591 -20.1591
   -20.1512 -20.1512 -20.1510 -20.1510 -20.1488 -20.1488 -20.1481 -20.1480
   -20.1456 -20.1456 -20.1455 -20.1455 -20.1429 -20.1429 -20.1419 -20.1419
   -20.1380 -20.1380 -20.1367 -20.1367 -20.1363 -20.1363 -20.1351 -20.1351
    -9.5547  -9.5547  -9.1361  -9.1357  -9.1216  -9.1216  -8.8273  -8.8273
    -8.3984  -8.3977  -8.3352  -8.3340  -8.3249  -8.3234  -8.3154  -8.3135
    -7.8166  -7.8155  -7.7827  -7.7827  -7.6961  -7.6960  -7.6546  -7.6543
     1.6093   1.6126   1.6933   1.6958   1.7338   1.7354   2.0154   2.0177
     2.7090   2.7111   3.1618   3.1631   3.2436   3.2714   3.3056   3.3226
     3.4049   3.4381   3.4452   3.4964   3.6907   3.7061   3.7568   3.7633
     3.8841   3.8884   4.5261   4.5703   4.5917   4.6347   5.0283   5.0501
     5.1357   5.1427   5.1949   5.2525   5.2546   5.3056   5.5443   5.5473
[...]
    12.1411  12.1411  12.1411  12.1411  12.3635  12.3635  12.3635  12.3635
    13.1237  13.1237  13.1237  13.1237  13.3110  13.3110  13.3110  13.3110
    15.4356  15.4356  15.4356  15.4356  16.9193  16.9193  16.9193  16.9193
    17.6182  17.6182  17.6182  17.6182  17.8397

          k =-0.5000 0.3174 0.0000 ( 61900 PWs)   bands (ev):

   -66.0266 -66.0266 -66.0264 -66.0264 -66.0257 -66.0257 -66.0254 -66.0254
   -30.4166 -30.4166 -30.4089 -30.4089 -30.3972 -30.3972 -30.3806 -30.3806
   -30.3784 -30.3784 -30.3715 -30.3714 -30.3260 -30.3260 -30.3252 -30.3252
   -30.3211 -30.3210 -30.3195 -30.3195 -30.2839 -30.2839 -30.2838 -30.2838
   -20.1851 -20.1851 -20.1850 -20.1850 -20.1846 -20.1846 -20.1845 -20.1845
   -20.1656 -20.1656 -20.1651 -20.1651 -20.1650 -20.1650 -20.1645 -20.1645
   -20.1618 -20.1618 -20.1614 -20.1614 -20.1613 -20.1613 -20.1610 -20.1609
   -20.1602 -20.1602 -20.1598 -20.1598 -20.1586 -20.1586 -20.1581 -20.1581
   -20.1490 -20.1490 -20.1489 -20.1489 -20.1484 -20.1484 -20.1481 -20.1481
   -20.1481 -20.1481 -20.1479 -20.1479 -20.1420 -20.1420 -20.1419 -20.1419
   -20.1374 -20.1374 -20.1373 -20.1373 -20.1360 -20.1360 -20.1358 -20.1358
    -9.4464  -9.4463  -9.3033  -9.3033  -8.8208  -8.8208  -8.6272  -8.6272
    -8.4592  -8.4592  -8.4538  -8.4538  -8.3856  -8.3856  -8.2963  -8.2963
    -8.0271  -8.0271  -7.9874  -7.9874  -7.6293  -7.6293  -7.6162  -7.6162
     1.4681   1.4681   1.4741   1.4741   2.4591   2.4591   2.6026   2.6026
     3.0495   3.0495   3.0949   3.0949   3.1586   3.1586   3.3143   3.3143
     3.3641   3.3641   3.5288   3.5288   3.6131   3.6131   3.7660   3.7660
     4.0906   4.0907   4.1623   4.1623   4.3412   4.3412   4.5024   4.5024
     4.9407   4.9407   5.0027   5.0027   5.2537   5.2537   5.4079   5.4079
     5.5445   5.5445   5.8354   5.8354   6.2777   6.2778   6.3175   6.3175
     6.5639   6.5639   6.6333   6.6333   6.6364   6.6364   6.8414   6.8414
     7.1299   7.1299   7.1673   7.1673   7.1770   7.1770   7.5582   7.5582
     7.5794   7.5794   7.6959   7.6959   7.7280   7.7280   7.9477   7.9477
    10.8286  10.8286  11.3504  11.3504  11.4127  11.4127  11.7407  11.7407
    12.1327  12.1327  12.3067  12.3067  12.6459  12.6459  12.8079  12.8079
    12.9223  12.9223  13.0956  13.0956  13.4783  13.4783  13.8689  13.8689
    15.2804  15.2804  15.7121  15.7121  16.4109  16.4109  16.5744  16.5744
    16.8261  16.8261  17.4096  17.4096  17.9718

          k =-0.5000 0.3174 0.1661 ( 61878 PWs)   bands (ev):

   -66.0266 -66.0266 -66.0263 -66.0263 -66.0257 -66.0257 -66.0255 -66.0255
   -30.4158 -30.4158 -30.4093 -30.4093 -30.3941 -30.3941 -30.3810 -30.3810
   -30.3730 -30.3730 -30.3683 -30.3683 -30.3260 -30.3260 -30.3255 -30.3255
   -30.3217 -30.3217 -30.3191 -30.3191 -30.2897 -30.2897 -30.2893 -30.2893
   -20.1851 -20.1851 -20.1850 -20.1850 -20.1847 -20.1847 -20.1846 -20.1846
   -20.1656 -20.1656 -20.1651 -20.1651 -20.1650 -20.1650 -20.1645 -20.1645
   -20.1619 -20.1618 -20.1615 -20.1615 -20.1613 -20.1613 -20.1610 -20.1610
   -20.1601 -20.1601 -20.1598 -20.1598 -20.1586 -20.1586 -20.1582 -20.1582
   -20.1487 -20.1487 -20.1487 -20.1487 -20.1482 -20.1482 -20.1481 -20.1481
   -20.1479 -20.1479 -20.1479 -20.1479 -20.1424 -20.1424 -20.1424 -20.1424
   -20.1373 -20.1373 -20.1372 -20.1372 -20.1361 -20.1361 -20.1359 -20.1359
    -9.3775  -9.3775  -9.2232  -9.2232  -8.8363  -8.8363  -8.6085  -8.6085
    -8.4776  -8.4776  -8.4464  -8.4464  -8.3738  -8.3738  -8.2999  -8.2999
    -8.0247  -8.0247  -7.9929  -7.9929  -7.7458  -7.7457  -7.7315  -7.7315
     1.7154   1.7154   1.7251   1.7251   2.4653   2.4654   2.5865   2.5865
     3.0827   3.0827   3.1486   3.1486   3.1714   3.1715   3.3355   3.3355
     3.3871   3.3871   3.5866   3.5866   3.6537   3.6537   3.8143   3.8143
     4.0808   4.0808   4.1726   4.1726   4.3355   4.3355   4.4981   4.4981
     4.8347   4.8347   4.9205   4.9205   5.1149   5.1149   5.1592   5.1593
     5.2656   5.2656   5.6247   5.6247   5.9241   5.9241   5.9587   5.9587
     6.7340   6.7340   6.8736   6.8736   6.9099   6.9099   6.9504   6.9504
     7.1032   7.1032   7.1836   7.1836   7.2429   7.2429   7.5672   7.5672
     7.5946   7.5946   7.7019   7.7019   7.7332   7.7332   7.9257   7.9257
    10.9854  10.9854  11.4217  11.4217  11.4908  11.4908  11.7953  11.7953
    12.1485  12.1485  12.3460  12.3461  12.6320  12.6320  12.7661  12.7661
    12.9114  12.9114  13.0606  13.0606  13.3275  13.3275  13.7337  13.7337
    15.4825  15.4825  15.9555  15.9556  16.4690  16.4690  16.5766  16.5766
    16.8834  16.8834  17.4468  17.4469  17.9233

          k =-0.5000 0.3174 0.3322 ( 61848 PWs)   bands (ev):

   -66.0264 -66.0264 -66.0262 -66.0261 -66.0259 -66.0259 -66.0257 -66.0257
   -30.4139 -30.4139 -30.4104 -30.4104 -30.3885 -30.3885 -30.3823 -30.3823
   -30.3579 -30.3579 -30.3571 -30.3571 -30.3285 -30.3285 -30.3276 -30.3275
   -30.3224 -30.3224 -30.3177 -30.3177 -30.3046 -30.3046 -30.3026 -30.3026
   -20.1850 -20.1850 -20.1849 -20.1849 -20.1847 -20.1847 -20.1846 -20.1846
   -20.1655 -20.1655 -20.1652 -20.1652 -20.1649 -20.1649 -20.1646 -20.1646
   -20.1619 -20.1618 -20.1616 -20.1616 -20.1613 -20.1613 -20.1611 -20.1611
   -20.1600 -20.1600 -20.1598 -20.1598 -20.1585 -20.1585 -20.1583 -20.1583
   -20.1486 -20.1486 -20.1484 -20.1484 -20.1482 -20.1482 -20.1480 -20.1480
   -20.1469 -20.1469 -20.1469 -20.1469 -20.1436 -20.1436 -20.1436 -20.1436
   -20.1371 -20.1371 -20.1370 -20.1370 -20.1364 -20.1364 -20.1362 -20.1362
    -9.2004  -9.2004  -9.0038  -9.0038  -8.8897  -8.8897  -8.5668  -8.5668
    -8.5154  -8.5154  -8.4153  -8.4153  -8.3508  -8.3508  -8.3072  -8.3072
    -8.0635  -8.0635  -8.0301  -8.0301  -8.0049  -8.0049  -7.9555  -7.9555
     2.3119   2.3119   2.3921   2.3921   2.4861   2.4861   2.6091   2.6091
     3.1209   3.1209   3.1633   3.1633   3.3004   3.3004   3.3645   3.3645
     3.4584   3.4585   3.7437   3.7437   3.8117   3.8117   3.9194   3.9194
     4.0454   4.0454   4.2009   4.2009   4.3178   4.3178   4.3304   4.3304
     4.4634   4.4634   4.5937   4.5937   4.7672   4.7672   4.9629   4.9629
     5.0370   5.0370   5.1416   5.1416   5.1739   5.1739   5.4260   5.4260
     6.9299   6.9299   6.9920   6.9920   7.0792   7.0792   7.1165   7.1165
     7.2768   7.2768   7.3683   7.3683   7.4325   7.4325   7.5762   7.5762
     7.6177   7.6177   7.7091   7.7091   7.7367   7.7367   7.8627   7.8627
    11.3919  11.3919  11.6441  11.6441  11.7412  11.7412  11.8924  11.8924
    12.2086  12.2086  12.4402  12.4402  12.5056  12.5057  12.5219  12.5219
    12.8538  12.8538  12.9483  12.9483  12.9870  12.9870  13.3809  13.3809
    15.9937  15.9937  16.4237  16.4237  16.6985  16.6985  16.7691  16.7691
    17.0890  17.0890  17.5077  17.5077  17.7548

          k =-0.5000 0.3174-0.4983 ( 61876 PWs)   bands (ev):

   -66.0262 -66.0261 -66.0261 -66.0261 -66.0259 -66.0259 -66.0259 -66.0259
   -30.4120 -30.4120 -30.4120 -30.4120 -30.3846 -30.3846 -30.3846 -30.3846
   -30.3407 -30.3407 -30.3407 -30.3407 -30.3379 -30.3379 -30.3379 -30.3378
   -30.3185 -30.3185 -30.3185 -30.3185 -30.3131 -30.3131 -30.3131 -30.3131
   -20.1849 -20.1849 -20.1849 -20.1848 -20.1848 -20.1848 -20.1848 -20.1848
   -20.1654 -20.1654 -20.1654 -20.1653 -20.1648 -20.1648 -20.1648 -20.1648
   -20.1618 -20.1618 -20.1618 -20.1618 -20.1612 -20.1612 -20.1612 -20.1612
   -20.1599 -20.1599 -20.1599 -20.1599 -20.1584 -20.1584 -20.1584 -20.1584
   -20.1485 -20.1485 -20.1485 -20.1485 -20.1481 -20.1481 -20.1481 -20.1481
   -20.1454 -20.1453 -20.1453 -20.1453 -20.1452 -20.1452 -20.1452 -20.1452
   -20.1368 -20.1368 -20.1368 -20.1367 -20.1366 -20.1366 -20.1366 -20.1366
    -9.0085  -9.0085  -9.0085  -9.0085  -8.7277  -8.7276  -8.7276  -8.7276
    -8.4015  -8.4015  -8.4015  -8.4015  -8.2922  -8.2922  -8.2922  -8.2922
    -8.2651  -8.2651  -8.2650  -8.2650  -7.9967  -7.9967  -7.9967  -7.9967
     2.4805   2.4805   2.4805   2.4805   3.0655   3.0655   3.0655   3.0655
     3.1809   3.1809   3.1809   3.1809   3.3224   3.3224   3.3224   3.3224
     3.4719   3.4719   3.4719   3.4719   3.9715   3.9715   3.9715   3.9715
     4.1067   4.1067   4.1067   4.1067   4.2052   4.2052   4.2052   4.2052
     4.4279   4.4279   4.4279   4.4279   4.5237   4.5237   4.5237   4.5237
     4.8392   4.8392   4.8392   4.8392   5.1863   5.1863   5.1863   5.1863
     6.9954   6.9954   6.9954   6.9954   7.1139   7.1139   7.1139   7.1139
     7.4789   7.4789   7.4789   7.4789   7.5600   7.5600   7.5600   7.5600
     7.6584   7.6585   7.6585   7.6585   7.7802   7.7802   7.7802   7.7802
    11.8200  11.8200  11.8200  11.8200  11.9678  11.9678  11.9678  11.9678
    12.1621  12.1621  12.1621  12.1621  12.4410  12.4410  12.4410  12.4410
    12.8013  12.8013  12.8013  12.8013  13.0135  13.0135  13.0135  13.0135
    16.3370  16.3370  16.3370  16.3370  17.0789  17.0789  17.0789  17.0789
    17.5155  17.5155  17.5155  17.5155  17.8482

          k =-0.5000-0.4760 0.0000 ( 61932 PWs)   bands (ev):

   -66.0265 -66.0265 -66.0265 -66.0265 -66.0256 -66.0256 -66.0256 -66.0255
   -30.4054 -30.4054 -30.4050 -30.4050 -30.3949 -30.3949 -30.3940 -30.3940
   -30.3766 -30.3766 -30.3761 -30.3761 -30.3253 -30.3253 -30.3244 -30.3244
   -30.3221 -30.3221 -30.3209 -30.3209 -30.2840 -30.2840 -30.2839 -30.2839
   -20.1850 -20.1850 -20.1850 -20.1850 -20.1846 -20.1846 -20.1846 -20.1846
   -20.1653 -20.1653 -20.1653 -20.1653 -20.1648 -20.1648 -20.1647 -20.1647
   -20.1614 -20.1614 -20.1614 -20.1614 -20.1610 -20.1610 -20.1610 -20.1610
   -20.1596 -20.1596 -20.1596 -20.1596 -20.1592 -20.1592 -20.1592 -20.1592
   -20.1490 -20.1490 -20.1490 -20.1490 -20.1483 -20.1483 -20.1482 -20.1482
   -20.1480 -20.1480 -20.1480 -20.1480 -20.1420 -20.1420 -20.1420 -20.1420
   -20.1374 -20.1374 -20.1374 -20.1373 -20.1359 -20.1359 -20.1359 -20.1359
    -9.3655  -9.3654  -9.3583  -9.3583  -8.6048  -8.6048  -8.5750  -8.5750
    -8.5118  -8.5118  -8.4875  -8.4875  -8.3012  -8.3011  -8.2470  -8.2470
    -8.2334  -8.2334  -8.1840  -8.1839  -7.6232  -7.6232  -7.6228  -7.6228
     1.4688   1.4688   1.4752   1.4752   2.9970   2.9970   3.1082   3.1082
     3.1599   3.1599   3.1630   3.1630   3.3367   3.3367   3.3486   3.3486
     3.3875   3.3875   3.5016   3.5016   3.5730   3.5730   3.6119   3.6119
     3.6572   3.6572   3.9636   3.9636   4.3693   4.3693   4.4548   4.4548
     4.4578   4.4578   4.5709   4.5709   5.3151   5.3151   5.3633   5.3633
     5.5922   5.5922   5.6512   5.6512   6.3056   6.3056   6.3165   6.3165
     6.6277   6.6277   6.6492   6.6492   6.6828   6.6828   6.7540   6.7540
     7.3352   7.3352   7.3498   7.3498   7.3951   7.3951   7.5256   7.5256
     7.6057   7.6057   7.6521   7.6521   7.6578   7.6578   7.6916   7.6917
    11.3438  11.3438  11.3638  11.3638  11.4172  11.4172  11.4449  11.4449
    12.3240  12.3240  12.3901  12.3901  12.4417  12.4417  12.5275  12.5275
    12.9620  12.9620  12.9753  12.9753  13.6054  13.6054  13.6511  13.6511
    15.5727  15.5727  15.5896  15.5896  16.9050  16.9050  17.0433  17.0433
    17.3205  17.3205  17.4234  17.4238  17.4888

          k =-0.5000-0.4760 0.1661 ( 61856 PWs)   bands (ev):

   -66.0265 -66.0264 -66.0264 -66.0264 -66.0256 -66.0256 -66.0256 -66.0256
   -30.4039 -30.4039 -30.4033 -30.4033 -30.3953 -30.3953 -30.3944 -30.3944
   -30.3719 -30.3719 -30.3715 -30.3715 -30.3256 -30.3255 -30.3248 -30.3247
   -30.3221 -30.3221 -30.3209 -30.3208 -30.2898 -30.2898 -30.2896 -30.2896
   -20.1850 -20.1850 -20.1850 -20.1850 -20.1846 -20.1846 -20.1846 -20.1846
   -20.1653 -20.1653 -20.1652 -20.1652 -20.1648 -20.1648 -20.1648 -20.1648
   -20.1614 -20.1614 -20.1614 -20.1614 -20.1611 -20.1611 -20.1610 -20.1610
   -20.1596 -20.1596 -20.1595 -20.1595 -20.1592 -20.1592 -20.1592 -20.1592
   -20.1487 -20.1487 -20.1487 -20.1487 -20.1481 -20.1481 -20.1481 -20.1481
   -20.1479 -20.1479 -20.1479 -20.1479 -20.1424 -20.1424 -20.1424 -20.1424
   -20.1373 -20.1373 -20.1373 -20.1373 -20.1360 -20.1360 -20.1360 -20.1360
    -9.2896  -9.2896  -9.2816  -9.2815  -8.6252  -8.6252  -8.5962  -8.5962
    -8.4948  -8.4948  -8.4688  -8.4688  -8.2981  -8.2981  -8.2502  -8.2502
    -8.2297  -8.2297  -8.1872  -8.1871  -7.7395  -7.7395  -7.7392  -7.7392
     1.7187   1.7187   1.7266   1.7266   3.0103   3.0103   3.1173   3.1173
     3.1666   3.1666   3.1787   3.1787   3.3021   3.3021   3.3654   3.3654
     3.4547   3.4547   3.5451   3.5451   3.6166   3.6166   3.6606   3.6606
     3.6973   3.6973   3.9847   3.9847   4.3748   4.3748   4.4350   4.4350
     4.4638   4.4638   4.5597   4.5598   4.9959   4.9959   5.1706   5.1706
     5.2654   5.2654   5.4145   5.4145   5.9233   5.9233   5.9483   5.9483
     6.8033   6.8033   6.8742   6.8742   6.9451   6.9451   6.9842   6.9842
     7.3237   7.3237   7.3552   7.3552   7.4363   7.4363   7.5161   7.5161
     7.5895   7.5895   7.6350   7.6350   7.6874   7.6874   7.7033   7.7033
    11.3977  11.3977  11.4499  11.4499  11.5083  11.5083  11.5940  11.5940
    12.3333  12.3334  12.3962  12.3962  12.4348  12.4348  12.5387  12.5387
    12.8829  12.8829  12.9523  12.9523  13.4524  13.4524  13.5115  13.5115
    15.8157  15.8157  15.8396  15.8396  16.9594  16.9594  17.0955  17.0955
    17.3278  17.3278  17.4355  17.4359  17.4932

          k =-0.5000-0.4760 0.3322 ( 61820 PWs)   bands (ev):

   -66.0263 -66.0263 -66.0263 -66.0263 -66.0258 -66.0258 -66.0258 -66.0258
   -30.4009 -30.4009 -30.4002 -30.4002 -30.3965 -30.3965 -30.3956 -30.3956
   -30.3580 -30.3580 -30.3577 -30.3577 -30.3282 -30.3282 -30.3277 -30.3277
   -30.3211 -30.3211 -30.3198 -30.3198 -30.3041 -30.3041 -30.3037 -30.3037
   -20.1849 -20.1849 -20.1849 -20.1849 -20.1847 -20.1847 -20.1847 -20.1847
   -20.1652 -20.1652 -20.1651 -20.1651 -20.1649 -20.1649 -20.1649 -20.1649
   -20.1614 -20.1614 -20.1614 -20.1614 -20.1612 -20.1612 -20.1612 -20.1612
   -20.1595 -20.1595 -20.1594 -20.1594 -20.1593 -20.1593 -20.1592 -20.1592
   -20.1485 -20.1485 -20.1485 -20.1484 -20.1482 -20.1482 -20.1481 -20.1481
   -20.1469 -20.1469 -20.1469 -20.1469 -20.1436 -20.1436 -20.1436 -20.1436
   -20.1370 -20.1370 -20.1370 -20.1370 -20.1363 -20.1363 -20.1363 -20.1363
    -9.0864  -9.0864  -9.0746  -9.0746  -8.6924  -8.6924  -8.6642  -8.6642
    -8.4397  -8.4397  -8.4124  -8.4124  -8.2910  -8.2910  -8.2588  -8.2588
    -8.2200  -8.2199  -8.1963  -8.1963  -8.0151  -8.0151  -8.0143  -8.0143
     2.3746   2.3746   2.3911   2.3911   3.0412   3.0412   3.1023   3.1023
     3.1884   3.1884   3.2181   3.2181   3.3047   3.3047   3.3551   3.3551
     3.5503   3.5503   3.6082   3.6082   3.7033   3.7033   3.7567   3.7567
     3.9228   3.9228   4.0656   4.0656   4.3468   4.3468   4.3634   4.3634
     4.4306   4.4306   4.4995   4.4995   4.6050   4.6050   4.7214   4.7214
     4.7980   4.7980   4.9433   4.9433   5.1496   5.1496   5.1891   5.1891
     7.0537   7.0537   7.1601   7.1601   7.2473   7.2473   7.2771   7.2771
     7.3446   7.3446   7.4035   7.4035   7.4796   7.4796   7.5033   7.5033
     7.5743   7.5743   7.6477   7.6477   7.6931   7.6931   7.7288   7.7288
    11.6224  11.6224  11.6588  11.6588  11.8363  11.8363  11.9353  11.9353
    12.3188  12.3188  12.3558  12.3559  12.4245  12.4245  12.5413  12.5413
    12.6503  12.6503  12.7689  12.7689  13.0600  13.0600  13.1383  13.1383
    16.5134  16.5134  16.5647  16.5647  17.1061  17.1061  17.2310  17.2311
    17.3306  17.3307  17.4494  17.4501  17.5035

          k =-0.5000-0.4760-0.4983 ( 61920 PWs)   bands (ev):

   -66.0260 -66.0260 -66.0260 -66.0260 -66.0260 -66.0260 -66.0260 -66.0260
   -30.3985 -30.3985 -30.3984 -30.3984 -30.3975 -30.3975 -30.3975 -30.3975
   -30.3407 -30.3407 -30.3407 -30.3406 -30.3380 -30.3379 -30.3379 -30.3379
   -30.3175 -30.3175 -30.3175 -30.3175 -30.3149 -30.3149 -30.3149 -30.3148
   -20.1848 -20.1848 -20.1848 -20.1848 -20.1848 -20.1848 -20.1848 -20.1848
   -20.1651 -20.1651 -20.1651 -20.1651 -20.1650 -20.1650 -20.1650 -20.1650
   -20.1613 -20.1613 -20.1613 -20.1613 -20.1613 -20.1613 -20.1613 -20.1613
   -20.1594 -20.1594 -20.1594 -20.1594 -20.1593 -20.1593 -20.1593 -20.1593
   -20.1484 -20.1484 -20.1484 -20.1484 -20.1482 -20.1482 -20.1482 -20.1482
   -20.1453 -20.1453 -20.1453 -20.1453 -20.1452 -20.1452 -20.1452 -20.1452
   -20.1367 -20.1367 -20.1367 -20.1367 -20.1367 -20.1367 -20.1367 -20.1367
    -8.8472  -8.8472  -8.8472  -8.8472  -8.8236  -8.8236  -8.8236  -8.8236
    -8.3205  -8.3205  -8.3205  -8.3205  -8.2892  -8.2892  -8.2892  -8.2892
    -8.2381  -8.2380  -8.2380  -8.2380  -8.2040  -8.2040  -8.2039  -8.2039
     2.9978   2.9978   2.9979   2.9979   3.0873   3.0873   3.0873   3.0873
     3.2404   3.2404   3.2404   3.2404   3.3677   3.3677   3.3677   3.3677
     3.4489   3.4489   3.4489   3.4489   3.6333   3.6333   3.6334   3.6334
     4.2450   4.2451   4.2451   4.2451   4.2694   4.2694   4.2694   4.2694
     4.4541   4.4541   4.4541   4.4541   4.5195   4.5195   4.5195   4.5195
     4.5914   4.5914   4.5914   4.5914   4.6638   4.6638   4.6638   4.6638
     7.1862   7.1862   7.1862   7.1862   7.3643   7.3643   7.3643   7.3643
     7.4203   7.4203   7.4203   7.4203   7.4793   7.4794   7.4794   7.4794
     7.6434   7.6434   7.6434   7.6434   7.7156   7.7156   7.7156   7.7156
    11.9670  11.9670  11.9670  11.9670  11.9857  11.9857  11.9857  11.9857
    12.3035  12.3035  12.3035  12.3035  12.4761  12.4761  12.4761  12.4761
    12.6332  12.6332  12.6332  12.6332  12.7294  12.7294  12.7294  12.7294
    17.1698  17.1698  17.1698  17.1698  17.2512  17.2512  17.2512  17.2513
    17.4587  17.4587  17.4588  17.4588  17.5280

     the Fermi energy is     9.6306 ev

!    total energy              =   -6261.04139214 Ry
     Harris-Foulkes estimate   =   -6261.04139214 Ry
     estimated scf accuracy    <          1.2E-09 Ry

     The total energy is the sum of the following terms:

     one-electron contribution =   -4689.85216938 Ry
     hartree contribution      =    2583.42697757 Ry
     xc contribution           =    -965.77287969 Ry
     ewald contribution        =   -3188.84331157 Ry
     smearing contrib. (-TS)   =      -0.00000907 Ry

     convergence has been achieved in  13 iterations

     Writing output data file chempot_1.save/
 
     init_run     :     48.49s CPU     50.75s WALL (       1 calls)
     electrons    :   1888.81s CPU   1924.27s WALL (       1 calls)

     Called by init_run:
     wfcinit      :     45.74s CPU     47.77s WALL (       1 calls)
     potinit      :      1.04s CPU      1.09s WALL (       1 calls)
     hinit0       :      1.49s CPU      1.60s WALL (       1 calls)

     Called by electrons:
     c_bands      :   1685.01s CPU   1717.02s WALL (      13 calls)
     sum_band     :    195.93s CPU    197.25s WALL (      13 calls)
     v_of_rho     :      1.71s CPU      1.79s WALL (      14 calls)
     mix_rho      :      3.52s CPU      4.24s WALL (      13 calls)

     Called by c_bands:
     init_us_2    :     11.19s CPU     11.85s WALL (      54 calls)
     cegterg      :   1499.65s CPU   1529.73s WALL (      26 calls)

     Called by sum_band:

     Called by *egterg:
     h_psi        :   1117.18s CPU   1134.12s WALL (     114 calls)
     g_psi        :      1.76s CPU      1.78s WALL (      86 calls)
     cdiaghg      :     19.60s CPU     19.69s WALL (     112 calls)

     Called by h_psi:
     h_psi:pot    :   1114.25s CPU   1124.36s WALL (     114 calls)
     h_psi:calbec :    169.38s CPU    175.33s WALL (     114 calls)
     vloc_psi     :    771.79s CPU    774.90s WALL (     114 calls)
     add_vuspsi   :    173.07s CPU    174.13s WALL (     114 calls)

     General routines
     calbec       :    169.38s CPU    175.32s WALL (     114 calls)
     fft          :      0.91s CPU      0.96s WALL (      42 calls)
     ffts         :      0.31s CPU      0.31s WALL (      13 calls)
     fftw         :    807.83s CPU    810.43s WALL (   33796 calls)
 
     Parallel routines
 
     PWSCF        :  32m27.56s CPU  33m28.38s WALL

 
   This run was terminated on:  17:13:22   3Dec2019            

=------------------------------------------------------------------------------=
   JOB DONE.
=------------------------------------------------------------------------------=
