
     Program PWSCF v.6.2 (svn rev. 14038) starts on  8Mar2020 at 20:29:30 

     This program is part of the open-source Quantum ESPRESSO suite
     for quantum simulation of materials; please cite
         "P. Giannozzi et al., J. Phys.:Condens. Matter 21 395502 (2009);
         "P. Giannozzi et al., J. Phys.:Condens. Matter 29 465901 (2017);
          URL http://www.quantum-espresso.org", 
     in publications or presentations arising from this work. More details at
     http://www.quantum-espresso.org/quote

     Parallel version (MPI), running on    40 processors

     MPI processes distributed on     3 nodes
     K-points division:     npool     =      40
     Reading input from rscf.in

     Current dimensions of program PWSCF are:
     Max number of different atomic species (ntypx) = 10
     Max number of k-points (npk) =  40000
     Max angular momentum in pseudopotentials (lmaxx) =  3

     Subspace diagonalization in iterative solution of the eigenvalue problem:
     a serial algorithm will be used

 
     G-vector sticks info
     --------------------
     sticks:   dense  smooth     PW     G-vecs:    dense   smooth      PW
     Sum        7305    7305   1941               498127   498127   69057
 


     bravais-lattice index     =            0
     lattice parameter (alat)  =      13.8397  a.u.
     unit-cell volume          =    2804.9816 (a.u.)^3
     number of atoms/cell      =           32
     number of atomic types    =            2
     number of electrons       =       368.00
     number of Kohn-Sham states=          221
     kinetic-energy cutoff     =     120.0000  Ry
     charge density cutoff     =     480.0000  Ry
     convergence threshold     =      1.0E-08
     mixing beta               =       0.7000
     number of iterations used =            8  plain     mixing
     Exchange-correlation      = SLA PW NOGX NOGC ( 1  4  0  0 0 0)
     nstep                     =           50


     celldm(1)=  13.839685  celldm(2)=   0.000000  celldm(3)=   0.000000
     celldm(4)=   0.000000  celldm(5)=   0.000000  celldm(6)=   0.000000

     crystal axes: (cart. coord. in units of alat)
               a(1) = (   1.000000   0.000000   0.000000 )  
               a(2) = (   0.000000   1.000000   0.000000 )  
               a(3) = (   0.000000   0.000000   1.058160 )  

     reciprocal axes: (cart. coord. in units 2 pi/alat)
               b(1) = (  1.000000  0.000000  0.000000 )  
               b(2) = (  0.000000  1.000000  0.000000 )  
               b(3) = (  0.000000  0.000000  0.945037 )  


     PseudoPot. # 1 for W  read from file:
     /cluster/scratch/mnoe/QE/pps/W_ONCV_LDA-4.0.upf
     MD5 check sum: ba0307d5d4cd419d6f1d13dc49d7c13a
     Pseudo is Norm-conserving + core correction, Zval = 28.0
     Generated using ONCVPSP code by D. R. Hamann
     Using radial grid of 1380 points,  8 beta functions with: 
                l(1) =   0
                l(2) =   0
                l(3) =   1
                l(4) =   1
                l(5) =   2
                l(6) =   2
                l(7) =   3
                l(8) =   3

     PseudoPot. # 2 for O  read from file:
     /cluster/scratch/mnoe/QE/pps/O_ONCV_LDA-3.0.upf
     MD5 check sum: a1bd6164e7280c17a38c229939bfbd54
     Pseudo is Norm-conserving + core correction, Zval =  6.0
     Generated using ONCVPSP code by D. R. Hamann
     Using radial grid of  926 points,  5 beta functions with: 
                l(1) =   0
                l(2) =   0
                l(3) =   1
                l(4) =   1
                l(5) =   2

     atomic species   valence    mass     pseudopotential
        W             28.00   183.84000     W ( 1.00)
        O              6.00    15.99940     O ( 1.00)

      8 Sym. Ops. (no inversion) found ( 4 have fractional translation)



   Cartesian axes

     site n.     atom                  positions (alat units)
         1           W   tau(   1) = (   0.2365600   0.2358600   0.2308059  )
         2           W   tau(   2) = (   0.7634400   0.7641400   0.2308059  )
         3           W   tau(   3) = (   0.2358600   0.7634400   0.8273542  )
         4           W   tau(   4) = (   0.7641400   0.2365600   0.8273542  )
         5           W   tau(   5) = (   0.2634400   0.7358600   0.2982742  )
         6           W   tau(   6) = (   0.7365600   0.2641400   0.2982742  )
         7           W   tau(   7) = (   0.2641400   0.2634400   0.7598859  )
         8           W   tau(   8) = (   0.7358600   0.7365600   0.7598859  )
         9           O   tau(   9) = (   0.2213600   0.2215000   0.5202656  )
        10           O   tau(  10) = (   0.7786400   0.7785000   0.5202656  )
        11           O   tau(  11) = (   0.2215000   0.7786400   0.5378945  )
        12           O   tau(  12) = (   0.7785000   0.2213600   0.5378945  )
        13           O   tau(  13) = (   0.2786400   0.7215000   0.0088145  )
        14           O   tau(  14) = (   0.7213600   0.2785000   0.0088145  )
        15           O   tau(  15) = (   0.2785000   0.2786400   1.0493456  )
        16           O   tau(  16) = (   0.7215000   0.7213600   1.0493456  )
        17           O   tau(  17) = (   0.1994100   0.4960900   0.2901687  )
        18           O   tau(  18) = (   0.8005900   0.5039100   0.2901687  )
        19           O   tau(  19) = (   0.4960900   0.8005900   0.7679914  )
        20           O   tau(  20) = (   0.5039100   0.1994100   0.7679914  )
        21           O   tau(  21) = (   0.3005900   0.9960900   0.2389114  )
        22           O   tau(  22) = (   0.6994100   0.0039100   0.2389114  )
        23           O   tau(  23) = (   0.0039100   0.3005900   0.8192487  )
        24           O   tau(  24) = (   0.9960900   0.6994100   0.8192487  )
        25           O   tau(  25) = (   0.9940300   0.1994100   0.2283404  )
        26           O   tau(  26) = (   0.0059700   0.8005900   0.2283404  )
        27           O   tau(  27) = (   0.1994100   0.0059700   0.8298197  )
        28           O   tau(  28) = (   0.8005900   0.9940300   0.8298197  )
        29           O   tau(  29) = (   0.5059700   0.6994100   0.3007397  )
        30           O   tau(  30) = (   0.4940300   0.3005900   0.3007397  )
        31           O   tau(  31) = (   0.3005900   0.5059700   0.7574204  )
        32           O   tau(  32) = (   0.6994100   0.4940300   0.7574204  )

     number of k points=    40  gaussian smearing, width (Ry)=  0.0007
                       cart. coord. in units 2pi/alat
        k(    1) = (   0.0000000   0.0000000   0.0000000), wk =   0.0092593
        k(    2) = (   0.0000000   0.0000000   0.1575061), wk =   0.0185185
        k(    3) = (   0.0000000   0.0000000   0.3150122), wk =   0.0185185
        k(    4) = (   0.0000000   0.0000000  -0.4725183), wk =   0.0092593
        k(    5) = (   0.0000000   0.1666667   0.0000000), wk =   0.0370370
        k(    6) = (   0.0000000   0.1666667   0.1575061), wk =   0.0740741
        k(    7) = (   0.0000000   0.1666667   0.3150122), wk =   0.0740741
        k(    8) = (   0.0000000   0.1666667  -0.4725183), wk =   0.0370370
        k(    9) = (   0.0000000   0.3333333   0.0000000), wk =   0.0370370
        k(   10) = (   0.0000000   0.3333333   0.1575061), wk =   0.0740741
        k(   11) = (   0.0000000   0.3333333   0.3150122), wk =   0.0740741
        k(   12) = (   0.0000000   0.3333333  -0.4725183), wk =   0.0370370
        k(   13) = (   0.0000000  -0.5000000   0.0000000), wk =   0.0185185
        k(   14) = (   0.0000000  -0.5000000   0.1575061), wk =   0.0370370
        k(   15) = (   0.0000000  -0.5000000   0.3150122), wk =   0.0370370
        k(   16) = (   0.0000000  -0.5000000  -0.4725183), wk =   0.0185185
        k(   17) = (   0.1666667   0.1666667   0.0000000), wk =   0.0370370
        k(   18) = (   0.1666667   0.1666667   0.1575061), wk =   0.0740741
        k(   19) = (   0.1666667   0.1666667   0.3150122), wk =   0.0740741
        k(   20) = (   0.1666667   0.1666667  -0.4725183), wk =   0.0370370
        k(   21) = (   0.1666667   0.3333333   0.0000000), wk =   0.0740741
        k(   22) = (   0.1666667   0.3333333   0.1575061), wk =   0.1481481
        k(   23) = (   0.1666667   0.3333333   0.3150122), wk =   0.1481481
        k(   24) = (   0.1666667   0.3333333  -0.4725183), wk =   0.0740741
        k(   25) = (   0.1666667  -0.5000000   0.0000000), wk =   0.0370370
        k(   26) = (   0.1666667  -0.5000000   0.1575061), wk =   0.0740741
        k(   27) = (   0.1666667  -0.5000000   0.3150122), wk =   0.0740741
        k(   28) = (   0.1666667  -0.5000000  -0.4725183), wk =   0.0370370
        k(   29) = (   0.3333333   0.3333333   0.0000000), wk =   0.0370370
        k(   30) = (   0.3333333   0.3333333   0.1575061), wk =   0.0740741
        k(   31) = (   0.3333333   0.3333333   0.3150122), wk =   0.0740741
        k(   32) = (   0.3333333   0.3333333  -0.4725183), wk =   0.0370370
        k(   33) = (   0.3333333  -0.5000000   0.0000000), wk =   0.0370370
        k(   34) = (   0.3333333  -0.5000000   0.1575061), wk =   0.0740741
        k(   35) = (   0.3333333  -0.5000000   0.3150122), wk =   0.0740741
        k(   36) = (   0.3333333  -0.5000000  -0.4725183), wk =   0.0370370
        k(   37) = (  -0.5000000  -0.5000000   0.0000000), wk =   0.0092593
        k(   38) = (  -0.5000000  -0.5000000   0.1575061), wk =   0.0185185
        k(   39) = (  -0.5000000  -0.5000000   0.3150122), wk =   0.0185185
        k(   40) = (  -0.5000000  -0.5000000  -0.4725183), wk =   0.0092593

     Dense  grid:   498127 G-vectors     FFT dimensions: ( 100, 100, 108)

     Estimated max dynamical RAM per process >       2.74 GB

     Estimated total dynamical RAM >     109.40 GB

     Initial potential from superposition of free atoms

     starting charge  367.99656, renormalised to  368.00000
     Starting wfc are  232 randomized atomic wfcs

     total cpu time spent up to now is       42.4 secs

     Self-consistent Calculation

     iteration #  1     ecut=   120.00 Ry     beta= 0.70
     Davidson diagonalization with overlap
     ethr =  1.00E-02,  avg # of iterations =  4.8

     total cpu time spent up to now is      131.8 secs

     total energy              =   -6253.75759714 Ry
     Harris-Foulkes estimate   =   -6264.54355665 Ry
     estimated scf accuracy    <      13.62281261 Ry

     iteration #  2     ecut=   120.00 Ry     beta= 0.70
     Davidson diagonalization with overlap
     ethr =  3.70E-03,  avg # of iterations =  3.5

     total cpu time spent up to now is      219.5 secs

     total energy              =   -6249.68404922 Ry
     Harris-Foulkes estimate   =   -6271.56471066 Ry
     estimated scf accuracy    <      60.61132666 Ry

     iteration #  3     ecut=   120.00 Ry     beta= 0.70
     Davidson diagonalization with overlap
     ethr =  3.70E-03,  avg # of iterations =  3.2

     total cpu time spent up to now is      302.1 secs

     total energy              =   -6261.03367380 Ry
     Harris-Foulkes estimate   =   -6261.43431138 Ry
     estimated scf accuracy    <       1.31600928 Ry

     iteration #  4     ecut=   120.00 Ry     beta= 0.70
     Davidson diagonalization with overlap
     ethr =  3.58E-04,  avg # of iterations =  2.2

     total cpu time spent up to now is      368.4 secs

     total energy              =   -6261.07199770 Ry
     Harris-Foulkes estimate   =   -6261.16885266 Ry
     estimated scf accuracy    <       0.35568796 Ry

     iteration #  5     ecut=   120.00 Ry     beta= 0.70
     Davidson diagonalization with overlap
     ethr =  9.67E-05,  avg # of iterations =  5.0

     total cpu time spent up to now is      438.5 secs

     total energy              =   -6261.04990756 Ry
     Harris-Foulkes estimate   =   -6261.10207075 Ry
     estimated scf accuracy    <       0.11409718 Ry

     iteration #  6     ecut=   120.00 Ry     beta= 0.70
     Davidson diagonalization with overlap
     ethr =  3.10E-05,  avg # of iterations =  5.2

     total cpu time spent up to now is      513.8 secs

     total energy              =   -6261.07542113 Ry
     Harris-Foulkes estimate   =   -6261.07724544 Ry
     estimated scf accuracy    <       0.00587116 Ry

     iteration #  7     ecut=   120.00 Ry     beta= 0.70
     Davidson diagonalization with overlap
     ethr =  1.60E-06,  avg # of iterations =  3.8

     total cpu time spent up to now is      582.5 secs

     total energy              =   -6261.07583613 Ry
     Harris-Foulkes estimate   =   -6261.07615002 Ry
     estimated scf accuracy    <       0.00093560 Ry

     iteration #  8     ecut=   120.00 Ry     beta= 0.70
     Davidson diagonalization with overlap
     ethr =  2.54E-07,  avg # of iterations =  2.3

     total cpu time spent up to now is      649.5 secs

     total energy              =   -6261.07592647 Ry
     Harris-Foulkes estimate   =   -6261.07597782 Ry
     estimated scf accuracy    <       0.00011764 Ry

     iteration #  9     ecut=   120.00 Ry     beta= 0.70
     Davidson diagonalization with overlap
     ethr =  3.20E-08,  avg # of iterations =  2.9

     total cpu time spent up to now is      722.7 secs

     total energy              =   -6261.07595166 Ry
     Harris-Foulkes estimate   =   -6261.07595483 Ry
     estimated scf accuracy    <       0.00000685 Ry

     iteration # 10     ecut=   120.00 Ry     beta= 0.70
     Davidson diagonalization with overlap
     ethr =  1.86E-09,  avg # of iterations =  2.2

     total cpu time spent up to now is      801.0 secs

     total energy              =   -6261.07595273 Ry
     Harris-Foulkes estimate   =   -6261.07595350 Ry
     estimated scf accuracy    <       0.00000173 Ry

     iteration # 11     ecut=   120.00 Ry     beta= 0.70
     Davidson diagonalization with overlap
     ethr =  4.71E-10,  avg # of iterations =  2.0

     total cpu time spent up to now is      870.6 secs

     total energy              =   -6261.07595304 Ry
     Harris-Foulkes estimate   =   -6261.07595304 Ry
     estimated scf accuracy    <       0.00000002 Ry

     iteration # 12     ecut=   120.00 Ry     beta= 0.70
     Davidson diagonalization with overlap
     ethr =  4.35E-12,  avg # of iterations =  3.9

     total cpu time spent up to now is      966.6 secs

     End of self-consistent calculation

          k = 0.0000 0.0000 0.0000 ( 62239 PWs)   bands (ev):

   -66.2214 -66.2210 -66.2204 -66.2204 -66.2200 -66.2200 -66.2194 -66.2190
   -30.5992 -30.5991 -30.5943 -30.5943 -30.5679 -30.5677 -30.5631 -30.5631
   -30.5078 -30.5078 -30.5057 -30.5017 -30.4875 -30.4837 -30.4837 -30.4800
   -30.4697 -30.4697 -30.4686 -30.4640 -30.4340 -30.4304 -30.4304 -30.4272
   -20.4038 -20.4036 -20.4033 -20.4033 -20.4029 -20.4029 -20.4027 -20.4025
   -20.3834 -20.3833 -20.3830 -20.3830 -20.3825 -20.3825 -20.3823 -20.3821
   -20.3798 -20.3794 -20.3793 -20.3793 -20.3788 -20.3788 -20.3788 -20.3784
   -20.3678 -20.3672 -20.3672 -20.3667 -20.3666 -20.3653 -20.3652 -20.3652
   -20.3637 -20.3635 -20.3635 -20.3628 -20.3620 -20.3619 -20.3619 -20.3612
   -20.3591 -20.3589 -20.3589 -20.3589 -20.3564 -20.3564 -20.3561 -20.3560
   -20.3484 -20.3481 -20.3474 -20.3474 -20.3471 -20.3471 -20.3462 -20.3461
    -9.9145  -9.6879  -9.4261  -9.4261  -9.2431  -9.2431  -9.0481  -9.0282
    -8.6998  -8.6143  -8.5961  -8.5961  -7.9899  -7.9223  -7.8489  -7.8184
    -7.7929  -7.7928  -7.7014  -7.7014  -7.6687  -7.5918  -7.5918  -7.5336
     1.2770   1.2818   1.3743   1.3743   1.3881   1.3881   1.6087   1.6782
     1.9956   2.0262   2.0262   2.1186   2.3420   2.4391   2.7224   2.7665
     2.9034   2.9034   4.2746   4.2746   4.4123   4.4979   4.7270   4.7270
     4.8002   4.8002   4.8113   5.1204   5.2835   5.2835   5.3844   5.4801
     5.5114   5.5114   5.5750   5.6296   5.6296   5.6883   5.7255   5.7255
     5.8040   5.8332   5.8456   5.9379   5.9458   5.9458   6.0439   6.0588
     6.1328   6.2675   6.3631   6.5802   6.5802   6.7244   6.8982   6.9436
     6.9901   6.9901   7.0918   7.0918   7.1181   7.1181   7.1416   7.1465
     7.2933   7.2934   7.6184   7.6456   7.9306   7.9858   7.9858   8.1066
     9.6183   9.6557   9.9323  10.0246  10.0246  10.1768  11.9789  11.9789
    12.1436  12.1436  12.1579  12.4474  12.4584  12.4995  12.5673  12.5673
    12.7958  13.0525  13.0525  13.0958  13.4827  13.4827  13.5091  13.8836
    14.2797  14.5226  14.5226  14.9404  15.0584  15.3978  15.4077  15.9118
    15.9118  16.5040  16.6925  16.6925  17.5461

          k = 0.0000 0.0000 0.1575 ( 62231 PWs)   bands (ev):

   -66.2214 -66.2210 -66.2204 -66.2204 -66.2200 -66.2200 -66.2194 -66.2190
   -30.5992 -30.5991 -30.5942 -30.5942 -30.5679 -30.5678 -30.5631 -30.5631
   -30.5074 -30.5074 -30.5051 -30.5018 -30.4839 -30.4813 -30.4813 -30.4779
   -30.4691 -30.4691 -30.4687 -30.4633 -30.4376 -30.4339 -30.4339 -30.4305
   -20.4038 -20.4036 -20.4033 -20.4033 -20.4029 -20.4029 -20.4027 -20.4025
   -20.3834 -20.3833 -20.3830 -20.3830 -20.3825 -20.3825 -20.3822 -20.3821
   -20.3798 -20.3794 -20.3792 -20.3792 -20.3788 -20.3788 -20.3787 -20.3784
   -20.3676 -20.3670 -20.3670 -20.3667 -20.3663 -20.3652 -20.3651 -20.3651
   -20.3638 -20.3635 -20.3635 -20.3628 -20.3623 -20.3622 -20.3622 -20.3615
   -20.3591 -20.3589 -20.3589 -20.3589 -20.3564 -20.3564 -20.3561 -20.3560
   -20.3484 -20.3481 -20.3474 -20.3474 -20.3471 -20.3471 -20.3462 -20.3461
    -9.8944  -9.6991  -9.4068  -9.4068  -9.2499  -9.2499  -9.0468  -9.0295
    -8.6359  -8.5652  -8.5483  -8.5483  -7.9924  -7.9245  -7.8469  -7.8224
    -7.7997  -7.7997  -7.7418  -7.7080  -7.7080  -7.6630  -7.6630  -7.6244
     1.2770   1.2811   1.3741   1.3741   1.3879   1.3879   1.6386   1.6781
     2.1527   2.2370   2.2370   2.3419   2.3481   2.4404   2.7908   2.8363
     2.9671   2.9671   4.1539   4.1539   4.1912   4.2616   4.6768   4.7186
     4.7186   4.7927   4.7927   5.1790   5.1790   5.1821   5.3748   5.4814
     5.4814   5.5379   5.5379   5.5843   5.6613   5.6736   5.6756   5.6756
     5.7018   5.8207   5.8306   5.9227   5.9951   6.0165   6.0165   6.0513
     6.0802   6.2635   6.4224   6.6374   6.6374   6.7218   6.8034   6.8956
     6.9064   6.9064   7.0384   7.0384   7.0911   7.1129   7.1288   7.1288
     7.3016   7.3016   7.6179   7.6450   7.9239   7.9761   7.9761   8.0390
     9.6344   9.6705  10.1333  10.2070  10.2070  10.3502  11.9954  11.9955
    12.0666  12.0666  12.1784  12.2919  12.3076  12.5022  12.5526  12.5526
    12.8227  13.0453  13.0453  13.2238  13.4914  13.4914  13.5327  13.8243
    14.3726  14.6707  14.6707  15.0208  15.3889  15.4089  15.4343  15.8773
    15.8773  16.3100  16.7939  16.7939  17.4900

          k = 0.0000 0.0000 0.3150 ( 62175 PWs)   bands (ev):

   -66.2213 -66.2211 -66.2203 -66.2203 -66.2201 -66.2201 -66.2193 -66.2191
   -30.5991 -30.5991 -30.5942 -30.5942 -30.5679 -30.5678 -30.5631 -30.5631
   -30.5068 -30.5068 -30.5038 -30.5021 -30.4764 -30.4764 -30.4747 -30.4726
   -30.4691 -30.4655 -30.4655 -30.4598 -30.4474 -30.4432 -30.4432 -30.4395
   -20.4037 -20.4036 -20.4033 -20.4033 -20.4029 -20.4029 -20.4026 -20.4025
   -20.3834 -20.3833 -20.3830 -20.3830 -20.3825 -20.3825 -20.3822 -20.3821
   -20.3797 -20.3795 -20.3792 -20.3792 -20.3789 -20.3789 -20.3787 -20.3785
   -20.3672 -20.3667 -20.3664 -20.3664 -20.3655 -20.3650 -20.3650 -20.3650
   -20.3641 -20.3636 -20.3636 -20.3631 -20.3629 -20.3629 -20.3627 -20.3620
   -20.3591 -20.3589 -20.3589 -20.3589 -20.3564 -20.3564 -20.3561 -20.3560
   -20.3483 -20.3482 -20.3473 -20.3473 -20.3471 -20.3471 -20.3462 -20.3461
    -9.8436  -9.7320  -9.3623  -9.3623  -9.2703  -9.2703  -9.0432  -9.0332
    -8.4639  -8.4129  -8.4044  -8.4044  -8.0373  -7.9300  -7.9231  -7.9231
    -7.9028  -7.8580  -7.8411  -7.8214  -7.7650  -7.7650  -7.6988  -7.6988
     1.2772   1.2795   1.3740   1.3741   1.3875   1.3875   1.6663   1.6776
     2.3641   2.4002   2.6622   2.8092   2.8092   2.9606   2.9857   3.0442
     3.1485   3.1485   3.7697   3.8495   3.8617   3.8617   4.1917   4.5578
     4.5578   4.7359   4.7359   4.8235   4.8235   4.9022   5.3158   5.3792
     5.3792   5.4344   5.5204   5.5204   5.6398   5.6634   5.7229   5.7229
     5.7828   5.8157   5.8726   5.9639   5.9658   6.0181   6.0181   6.0479
     6.1085   6.2379   6.4192   6.4285   6.6305   6.6305   6.7653   6.7653
     6.8662   6.8958   7.0887   7.0887   7.1772   7.2076   7.2459   7.2459
     7.3269   7.3269   7.6050   7.6449   7.8148   7.8414   7.8657   7.8657
     9.6562   9.6763  10.6482  10.6701  10.6701  10.8007  11.7603  11.7603
    11.8746  11.9242  12.0230  12.0230  12.2553  12.4538  12.5428  12.5428
    12.9277  13.0812  13.0812  13.2831  13.3933  13.3933  13.5127  13.6896
    14.8117  15.0952  15.0952  15.3529  15.3654  15.4863  15.7627  15.7627
    15.8813  16.3221  17.0213  17.1555  17.1555

          k = 0.0000 0.0000-0.4725 ( 62212 PWs)   bands (ev):

   -66.2212 -66.2212 -66.2202 -66.2202 -66.2202 -66.2202 -66.2192 -66.2192
   -30.5991 -30.5991 -30.5942 -30.5942 -30.5679 -30.5679 -30.5631 -30.5631
   -30.5065 -30.5065 -30.5027 -30.5027 -30.4746 -30.4746 -30.4703 -30.4703
   -30.4606 -30.4606 -30.4558 -30.4558 -30.4550 -30.4550 -30.4509 -30.4509
   -20.4037 -20.4037 -20.4033 -20.4033 -20.4029 -20.4029 -20.4026 -20.4026
   -20.3834 -20.3834 -20.3830 -20.3830 -20.3825 -20.3825 -20.3822 -20.3822
   -20.3796 -20.3796 -20.3792 -20.3792 -20.3789 -20.3789 -20.3786 -20.3786
   -20.3668 -20.3668 -20.3662 -20.3661 -20.3647 -20.3647 -20.3646 -20.3646
   -20.3643 -20.3643 -20.3635 -20.3635 -20.3635 -20.3635 -20.3624 -20.3624
   -20.3590 -20.3590 -20.3589 -20.3589 -20.3564 -20.3564 -20.3560 -20.3560
   -20.3483 -20.3482 -20.3473 -20.3473 -20.3471 -20.3471 -20.3461 -20.3461
    -9.7833  -9.7833  -9.3278  -9.3278  -9.2930  -9.2930  -9.0382  -9.0382
    -8.2398  -8.2398  -8.1781  -8.1781  -8.1770  -8.1770  -8.1560  -8.1560
    -7.9332  -7.9332  -7.8325  -7.8325  -7.7706  -7.7706  -7.7008  -7.7008
     1.2780   1.2780   1.3741   1.3741   1.3873   1.3873   1.6754   1.6754
     2.3850   2.3850   3.1877   3.1877   3.3236   3.3236   3.3606   3.3606
     3.3825   3.3825   3.5375   3.5375   3.7811   3.7811   3.8196   3.8196
     3.9585   3.9585   4.7191   4.7191   4.8017   4.8017   5.3800   5.3800
     5.4629   5.4629   5.5295   5.5295   5.6079   5.6079   5.8205   5.8205
     5.8380   5.8380   5.8905   5.8905   5.9317   5.9317   6.0315   6.0315
     6.1587   6.1587   6.3210   6.3210   6.6237   6.6237   6.6872   6.6872
     6.8768   6.8768   7.0997   7.0997   7.2954   7.2954   7.4655   7.4655
     7.5303   7.5303   7.5926   7.5926   7.6235   7.6235   7.6780   7.6780
     9.6703   9.6703  11.2058  11.2058  11.2369  11.2369  11.2851  11.2851
    11.4280  11.4280  12.0337  12.0337  12.3564  12.3564  12.5449  12.5449
    13.1172  13.1172  13.1876  13.1876  13.2381  13.2381  13.5626  13.5626
    15.2607  15.2607  15.4573  15.4573  15.4719  15.4719  15.5735  15.5735
    16.2278  16.2278  17.4114  17.4114  17.8052

          k = 0.0000 0.1667 0.0000 ( 62262 PWs)   bands (ev):

   -66.2214 -66.2209 -66.2205 -66.2203 -66.2201 -66.2199 -66.2195 -66.2191
   -30.5989 -30.5946 -30.5931 -30.5883 -30.5674 -30.5634 -30.5616 -30.5569
   -30.5137 -30.5101 -30.5076 -30.5035 -30.4871 -30.4862 -30.4834 -30.4826
   -30.4742 -30.4724 -30.4694 -30.4653 -30.4337 -30.4306 -30.4301 -30.4273
   -20.4037 -20.4035 -20.4034 -20.4033 -20.4029 -20.4029 -20.4027 -20.4025
   -20.3834 -20.3833 -20.3830 -20.3829 -20.3825 -20.3825 -20.3823 -20.3821
   -20.3797 -20.3794 -20.3793 -20.3792 -20.3789 -20.3788 -20.3788 -20.3784
   -20.3678 -20.3673 -20.3672 -20.3667 -20.3665 -20.3652 -20.3651 -20.3649
   -20.3636 -20.3636 -20.3631 -20.3625 -20.3621 -20.3620 -20.3618 -20.3611
   -20.3595 -20.3592 -20.3590 -20.3588 -20.3568 -20.3564 -20.3563 -20.3560
   -20.3483 -20.3480 -20.3474 -20.3473 -20.3471 -20.3470 -20.3463 -20.3461
    -9.8648  -9.6359  -9.4455  -9.3511  -9.2587  -9.1591  -9.0107  -8.9894
    -8.7142  -8.6074  -8.6039  -8.5835  -8.0613  -7.9835  -7.9058  -7.9034
    -7.8285  -7.8209  -7.8020  -7.7107  -7.6652  -7.5973  -7.5937  -7.5383
     1.3575   1.3623   1.3776   1.3904   1.6089   1.6222   1.7314   1.8421
     1.9920   2.0175   2.0388   2.1636   2.4303   2.5274   2.7489   2.8422
     2.8940   2.9897   4.1980   4.2586   4.3264   4.4153   4.4403   4.4947
     4.7080   4.7560   4.8503   4.9284   5.0583   5.2527   5.2698   5.3466
     5.4704   5.4892   5.5471   5.5856   5.6135   5.6275   5.6738   5.7169
     5.7194   5.8668   5.9054   5.9166   5.9259   5.9747   5.9851   6.1281
     6.2425   6.3653   6.4747   6.5545   6.7100   6.7925   6.9019   6.9113
     6.9117   6.9553   6.9951   7.0006   7.0209   7.0818   7.1188   7.1305
     7.1559   7.1687   7.6407   7.6627   7.9272   7.9662   8.0026   8.0996
     9.8550   9.9168  10.0219  10.0237  10.3014  10.3443  11.9839  12.0211
    12.0990  12.1948  12.2266  12.4531  12.4576  12.5087  12.5536  12.6132
    12.7440  12.9626  13.0616  13.1370  13.3759  13.4855  13.5175  13.8058
    14.2702  14.5124  14.5148  15.0285  15.0651  15.4268  15.4313  15.8831
    16.1571  16.5101  16.6498  16.8800  17.6128

          k = 0.0000 0.1667 0.1575 ( 62237 PWs)   bands (ev):

   -66.2213 -66.2210 -66.2204 -66.2203 -66.2201 -66.2200 -66.2194 -66.2191
   -30.5989 -30.5946 -30.5930 -30.5883 -30.5674 -30.5634 -30.5617 -30.5569
   -30.5134 -30.5097 -30.5072 -30.5034 -30.4844 -30.4835 -30.4811 -30.4806
   -30.4730 -30.4719 -30.4688 -30.4646 -30.4373 -30.4340 -30.4336 -30.4306
   -20.4037 -20.4035 -20.4034 -20.4033 -20.4029 -20.4029 -20.4027 -20.4025
   -20.3834 -20.3833 -20.3830 -20.3829 -20.3825 -20.3825 -20.3823 -20.3822
   -20.3797 -20.3794 -20.3793 -20.3792 -20.3789 -20.3788 -20.3788 -20.3784
   -20.3676 -20.3670 -20.3669 -20.3665 -20.3664 -20.3652 -20.3651 -20.3649
   -20.3637 -20.3636 -20.3631 -20.3625 -20.3623 -20.3623 -20.3620 -20.3613
   -20.3595 -20.3592 -20.3590 -20.3588 -20.3568 -20.3564 -20.3563 -20.3560
   -20.3483 -20.3481 -20.3474 -20.3473 -20.3472 -20.3470 -20.3463 -20.3461
    -9.8442  -9.6471  -9.4259  -9.3301  -9.2658  -9.1660  -9.0093  -8.9907
    -8.6501  -8.5595  -8.5568  -8.5375  -8.0618  -7.9872  -7.9062  -7.9049
    -7.8316  -7.8245  -7.8079  -7.7391  -7.7167  -7.6753  -7.6683  -7.6261
     1.3579   1.3617   1.3775   1.3906   1.6111   1.6252   1.7818   1.8430
     2.1580   2.2253   2.2423   2.3563   2.4369   2.5249   2.8171   2.9142
     2.9581   3.0539   4.1090   4.1548   4.1979   4.2703   4.3584   4.4214
     4.6229   4.7317   4.8346   4.8888   5.0742   5.1751   5.2446   5.3109
     5.4053   5.4323   5.4878   5.5355   5.5489   5.5688   5.6234   5.7455
     5.7722   5.8001   5.8411   5.9190   5.9471   5.9990   6.0058   6.0336
     6.2801   6.3251   6.4903   6.6201   6.7072   6.7937   6.8218   6.8707
     6.8764   6.9146   6.9648   7.0054   7.0222   7.0768   7.1010   7.1227
     7.1742   7.1845   7.6384   7.6621   7.9234   7.9581   7.9803   8.0350
     9.9012   9.9368  10.1913  10.2087  10.4415  10.4933  11.9940  12.0281
    12.0446  12.1259  12.2466  12.3046  12.3669  12.4512  12.5622  12.5941
    12.7530  12.9494  13.0523  13.2198  13.3762  13.4942  13.5297  13.7525
    14.3906  14.6606  14.7025  15.1255  15.3942  15.4278  15.4476  15.8510
    16.1193  16.4530  16.6135  16.9626  17.5456

          k = 0.0000 0.1667 0.3150 ( 62260 PWs)   bands (ev):

   -66.2212 -66.2210 -66.2204 -66.2202 -66.2202 -66.2200 -66.2194 -66.2192
   -30.5988 -30.5946 -30.5930 -30.5882 -30.5674 -30.5635 -30.5617 -30.5569
   -30.5129 -30.5091 -30.5065 -30.5031 -30.4816 -30.4779 -30.4760 -30.4737
   -30.4711 -30.4669 -30.4652 -30.4607 -30.4471 -30.4434 -30.4429 -30.4396
   -20.4037 -20.4036 -20.4033 -20.4033 -20.4030 -20.4029 -20.4027 -20.4026
   -20.3834 -20.3833 -20.3830 -20.3829 -20.3825 -20.3825 -20.3823 -20.3822
   -20.3797 -20.3795 -20.3792 -20.3792 -20.3789 -20.3789 -20.3787 -20.3785
   -20.3671 -20.3665 -20.3665 -20.3663 -20.3655 -20.3650 -20.3649 -20.3648
   -20.3640 -20.3636 -20.3633 -20.3631 -20.3630 -20.3627 -20.3624 -20.3617
   -20.3595 -20.3592 -20.3591 -20.3589 -20.3568 -20.3564 -20.3563 -20.3560
   -20.3483 -20.3481 -20.3474 -20.3473 -20.3472 -20.3470 -20.3463 -20.3462
    -9.7925  -9.6800  -9.3806  -9.2868  -9.2822  -9.1864  -9.0057  -8.9942
    -8.4745  -8.4150  -8.4134  -8.3972  -8.0783  -8.0141  -7.9412  -7.9397
    -7.9156  -7.9022  -7.8813  -7.8391  -7.8268  -7.7958  -7.7738  -7.7079
     1.3580   1.3608   1.3775   1.3906   1.6127   1.6274   1.8256   1.8431
     2.4530   2.4857   2.6702   2.7703   2.8129   2.9348   3.0139   3.1331
     3.1420   3.2462   3.7914   3.8463   3.8689   3.9105   4.1778   4.3488
     4.3843   4.5706   4.6031   4.7330   4.8602   4.9050   5.0774   5.1717
     5.2237   5.3721   5.4021   5.4337   5.4895   5.5171   5.6450   5.6787
     5.7223   5.7993   5.8217   5.8810   5.9260   5.9661   6.0174   6.0386
     6.2820   6.3178   6.4535   6.5179   6.6248   6.7434   6.8383   6.8888
     6.9380   6.9518   6.9745   6.9942   7.0974   7.1043   7.2145   7.2310
     7.2973   7.3134   7.6229   7.6617   7.8202   7.8386   7.8574   7.8660
     9.9281   9.9578  10.6732  10.6825  10.8336  10.9016  11.7535  11.8318
    11.8981  11.9578  12.0185  12.0966  12.3227  12.4479  12.5368  12.5737
    12.8428  12.9656  13.0849  13.2253  13.2635  13.3949  13.4849  13.6292
    14.8918  15.0874  15.1906  15.3690  15.4284  15.5696  15.7372  15.9804
    16.0418  16.2934  16.9510  17.0843  17.2754

          k = 0.0000 0.1667-0.4725 ( 62246 PWs)   bands (ev):

   -66.2211 -66.2211 -66.2203 -66.2203 -66.2201 -66.2201 -66.2193 -66.2193
   -30.5988 -30.5945 -30.5930 -30.5882 -30.5675 -30.5635 -30.5617 -30.5569
   -30.5127 -30.5089 -30.5062 -30.5030 -30.4807 -30.4766 -30.4743 -30.4706
   -30.4604 -30.4603 -30.4561 -30.4555 -30.4554 -30.4547 -30.4513 -30.4511
   -20.4036 -20.4036 -20.4033 -20.4033 -20.4030 -20.4029 -20.4026 -20.4026
   -20.3833 -20.3833 -20.3830 -20.3829 -20.3825 -20.3825 -20.3822 -20.3822
   -20.3796 -20.3796 -20.3792 -20.3791 -20.3790 -20.3789 -20.3786 -20.3786
   -20.3668 -20.3666 -20.3662 -20.3659 -20.3649 -20.3647 -20.3646 -20.3644
   -20.3643 -20.3643 -20.3636 -20.3635 -20.3634 -20.3630 -20.3623 -20.3620
   -20.3595 -20.3592 -20.3591 -20.3589 -20.3568 -20.3564 -20.3563 -20.3561
   -20.3482 -20.3482 -20.3474 -20.3473 -20.3472 -20.3470 -20.3462 -20.3462
    -9.7332  -9.7299  -9.3449  -9.3106  -9.2457  -9.2097  -9.0026  -8.9973
    -8.2460  -8.2445  -8.1998  -8.1942  -8.1769  -8.1761  -8.1657  -8.1600
    -8.0162  -7.9651  -7.8931  -7.8756  -7.8297  -7.8113  -7.7800  -7.7100
     1.3580   1.3604   1.3775   1.3904   1.6131   1.6277   1.8365   1.8422
     2.4732   2.4749   3.1930   3.1964   3.2934   3.3295   3.3371   3.3798
     3.4421   3.4643   3.5429   3.5503   3.7734   3.8102   3.8269   3.8568
     3.9763   3.9770   4.3702   4.4111   4.7049   4.8417   5.0967   5.2600
     5.3262   5.3528   5.3539   5.4496   5.5469   5.5661   5.5675   5.5887
     5.6981   5.7688   5.8119   5.8344   5.8870   5.9292   6.0193   6.0566
     6.3133   6.3210   6.3987   6.4207   6.6073   6.6747   6.8442   6.9249
     6.9565   6.9631   6.9911   6.9926   7.1106   7.1246   7.4766   7.4853
     7.5341   7.5477   7.5871   7.6013   7.6146   7.6239   7.7001   7.7012
     9.9347   9.9636  11.2075  11.2529  11.2597  11.2879  11.3536  11.3814
    11.4635  11.5111  12.0258  12.0899  12.3960  12.4585  12.4719  12.5733
    13.0345  13.0402  13.0607  13.1070  13.1880  13.2410  13.5125  13.5179
    15.2566  15.3770  15.4404  15.4955  15.5357  15.6299  15.7120  15.7464
    16.2883  16.2901  17.3573  17.3591  17.5972

          k = 0.0000 0.3333 0.0000 ( 62268 PWs)   bands (ev):

   -66.2212 -66.2208 -66.2207 -66.2202 -66.2202 -66.2197 -66.2196 -66.2192
   -30.5980 -30.5955 -30.5765 -30.5724 -30.5656 -30.5644 -30.5447 -30.5400
   -30.5302 -30.5261 -30.5068 -30.5048 -30.4989 -30.4951 -30.4858 -30.4823
   -30.4805 -30.4783 -30.4687 -30.4665 -30.4330 -30.4311 -30.4295 -30.4278
   -20.4036 -20.4034 -20.4034 -20.4032 -20.4031 -20.4028 -20.4028 -20.4026
   -20.3833 -20.3831 -20.3831 -20.3828 -20.3827 -20.3824 -20.3824 -20.3823
   -20.3796 -20.3794 -20.3792 -20.3791 -20.3790 -20.3789 -20.3787 -20.3785
   -20.3677 -20.3674 -20.3671 -20.3668 -20.3660 -20.3654 -20.3647 -20.3641
   -20.3638 -20.3633 -20.3624 -20.3623 -20.3621 -20.3618 -20.3613 -20.3605
   -20.3604 -20.3599 -20.3595 -20.3586 -20.3579 -20.3573 -20.3563 -20.3561
   -20.3481 -20.3479 -20.3476 -20.3474 -20.3471 -20.3468 -20.3465 -20.3463
    -9.7417  -9.5125  -9.5047  -9.3061  -9.1498  -8.9262  -8.8885  -8.8537
    -8.7690  -8.6322  -8.5828  -8.5361  -8.3062  -8.2483  -8.1870  -8.1293
    -7.8938  -7.8271  -7.8071  -7.7363  -7.6525  -7.6124  -7.5851  -7.5512
     1.3874   1.3980   1.4034   1.4108   1.9402   1.9585   1.9854   2.0022
     2.2746   2.3268   2.4697   2.5520   2.6749   2.7796   2.7912   2.8777
     3.0847   3.2100   3.7226   3.7987   3.9879   4.0213   4.2967   4.2993
     4.3496   4.4688   4.6297   4.7192   4.9088   4.9268   4.9324   5.1367
     5.2561   5.2706   5.4115   5.4303   5.4570   5.5578   5.7484   5.7574
     5.8349   5.8761   5.9468   5.9540   5.9840   6.0116   6.1344   6.1466
     6.3228   6.4083   6.4526   6.5811   6.6004   6.6367   6.7215   6.7217
     6.8370   6.9381   6.9455   7.0274   7.0670   7.1078   7.1258   7.1304
     7.3014   7.3965   7.5971   7.6433   7.8590   7.9013   8.0311   8.0729
     9.9833  10.0189  10.5042  10.5866  10.8281  10.9489  11.7580  11.8836
    11.9923  12.1461  12.2351  12.3518  12.4157  12.4631  12.5818  12.6555
    12.7751  12.8475  13.0720  13.1041  13.2545  13.4360  13.4991  13.6382
    14.3155  14.4793  14.5894  14.9351  15.2840  15.5381  15.7936  15.8154
    16.0954  16.8730  17.1336  17.3151  17.4392

          k = 0.0000 0.3333 0.1575 ( 62284 PWs)   bands (ev):

   -66.2211 -66.2208 -66.2206 -66.2203 -66.2201 -66.2198 -66.2196 -66.2193
   -30.5980 -30.5955 -30.5764 -30.5724 -30.5656 -30.5645 -30.5447 -30.5400
   -30.5300 -30.5260 -30.5064 -30.5045 -30.4985 -30.4946 -30.4823 -30.4799
   -30.4777 -30.4764 -30.4681 -30.4658 -30.4365 -30.4346 -30.4329 -30.4311
   -20.4036 -20.4034 -20.4034 -20.4031 -20.4031 -20.4028 -20.4028 -20.4026
   -20.3833 -20.3831 -20.3831 -20.3828 -20.3827 -20.3824 -20.3824 -20.3823
   -20.3796 -20.3794 -20.3793 -20.3791 -20.3790 -20.3789 -20.3787 -20.3785
   -20.3675 -20.3671 -20.3668 -20.3665 -20.3660 -20.3653 -20.3646 -20.3642
   -20.3638 -20.3634 -20.3627 -20.3626 -20.3622 -20.3618 -20.3615 -20.3607
   -20.3604 -20.3599 -20.3595 -20.3586 -20.3579 -20.3573 -20.3563 -20.3561
   -20.3481 -20.3479 -20.3476 -20.3474 -20.3471 -20.3468 -20.3465 -20.3463
    -9.7203  -9.5233  -9.4843  -9.3140  -9.1218  -8.9317  -8.8871  -8.8550
    -8.7073  -8.5892  -8.5386  -8.4974  -8.3048  -8.2492  -8.1890  -8.1280
    -7.8955  -7.8318  -7.8105  -7.7413  -7.7265  -7.6841  -7.6696  -7.6373
     1.3876   1.3984   1.4054   1.4111   2.0965   2.1118   2.1880   2.2138
     2.2867   2.3589   2.4800   2.5873   2.6870   2.7761   2.8511   2.9419
     3.1577   3.2668   3.7248   3.7902   3.9606   4.0090   4.2124   4.2290
     4.3182   4.4527   4.5024   4.6646   4.7938   4.8186   4.8648   5.1025
     5.1723   5.2341   5.2900   5.3867   5.4253   5.5120   5.5499   5.7469
     5.8042   5.8624   5.8851   5.9104   5.9725   5.9838   6.0510   6.0596
     6.3661   6.3964   6.5406   6.5956   6.6606   6.7022   6.7146   6.7525
     6.8345   6.9056   6.9709   7.0145   7.0249   7.0634   7.1027   7.1680
     7.3480   7.4129   7.5963   7.6420   7.8678   7.8970   7.9927   8.0159
    10.1767  10.2067  10.5281  10.6027  10.9304  11.0309  11.7589  11.8895
    11.9992  12.1552  12.2483  12.3141  12.3288  12.4244  12.5214  12.5790
    12.7131  12.8544  13.0329  13.0901  13.2188  13.4107  13.5075  13.6260
    14.4808  14.6324  14.8582  15.2357  15.3755  15.5404  15.7711  15.8533
    16.1830  16.8254  16.9393  17.3601  17.5010

          k = 0.0000 0.3333 0.3150 ( 62269 PWs)   bands (ev):

   -66.2211 -66.2209 -66.2206 -66.2204 -66.2200 -66.2198 -66.2195 -66.2193
   -30.5980 -30.5955 -30.5764 -30.5724 -30.5656 -30.5645 -30.5447 -30.5400
   -30.5298 -30.5257 -30.5058 -30.5041 -30.4979 -30.4939 -30.4752 -30.4733
   -30.4720 -30.4692 -30.4644 -30.4619 -30.4463 -30.4441 -30.4421 -30.4402
   -20.4036 -20.4035 -20.4034 -20.4031 -20.4031 -20.4028 -20.4028 -20.4026
   -20.3833 -20.3831 -20.3831 -20.3828 -20.3827 -20.3824 -20.3824 -20.3823
   -20.3796 -20.3794 -20.3793 -20.3791 -20.3790 -20.3788 -20.3788 -20.3786
   -20.3670 -20.3666 -20.3661 -20.3660 -20.3657 -20.3652 -20.3646 -20.3644
   -20.3638 -20.3637 -20.3634 -20.3632 -20.3626 -20.3619 -20.3617 -20.3609
   -20.3605 -20.3600 -20.3595 -20.3586 -20.3579 -20.3573 -20.3563 -20.3561
   -20.3481 -20.3479 -20.3476 -20.3474 -20.3471 -20.3469 -20.3465 -20.3464
    -9.6674  -9.5548  -9.4363  -9.3373  -9.0593  -8.9507  -8.8833  -8.8579
    -8.5403  -8.4682  -8.4047  -8.3725  -8.3027  -8.2527  -8.1987  -8.1186
    -7.9583  -7.9286  -7.8832  -7.8686  -7.8501  -7.8029  -7.7988  -7.7331
     1.3878   1.3987   1.4067   1.4114   2.2424   2.2623   2.3976   2.4473
     2.6595   2.7043   2.7346   2.7705   2.8323   2.9292   3.0374   3.1240
     3.3731   3.4217   3.7080   3.7373   3.8414   3.8756   3.9117   3.9746
     4.1329   4.3267   4.4861   4.5367   4.6037   4.6429   4.6843   4.7827
     4.8751   4.9801   5.1189   5.1926   5.2970   5.3887   5.4211   5.4601
     5.5611   5.6095   5.8182   5.9391   5.9907   6.0157   6.0497   6.0760
     6.4107   6.4890   6.5457   6.5807   6.6366   6.6785   6.7149   6.7549
     6.9580   6.9952   7.0635   7.0745   7.1181   7.1379   7.2236   7.2708
     7.4400   7.4705   7.5865   7.6437   7.8052   7.8148   7.8394   7.8548
    10.5025  10.5912  10.6840  10.7464  11.2166  11.2964  11.6938  11.8195
    11.9213  12.0042  12.0684  12.1002  12.3018  12.3572  12.4403  12.5765
    12.6574  12.8316  12.9032  13.0328  13.1109  13.3696  13.4053  13.5297
    14.9997  15.0673  15.3774  15.5772  15.6536  15.6724  15.9534  16.2131
    16.4507  16.5983  16.6745  17.2446  17.4949

          k = 0.0000 0.3333-0.4725 ( 62268 PWs)   bands (ev):

   -66.2210 -66.2210 -66.2205 -66.2204 -66.2200 -66.2199 -66.2194 -66.2194
   -30.5980 -30.5955 -30.5763 -30.5723 -30.5657 -30.5645 -30.5447 -30.5400
   -30.5297 -30.5256 -30.5055 -30.5039 -30.4976 -30.4936 -30.4735 -30.4714
   -30.4596 -30.4594 -30.4570 -30.4566 -30.4546 -30.4540 -30.4521 -30.4519
   -20.4036 -20.4035 -20.4034 -20.4031 -20.4031 -20.4028 -20.4028 -20.4027
   -20.3833 -20.3831 -20.3831 -20.3828 -20.3827 -20.3824 -20.3824 -20.3823
   -20.3795 -20.3794 -20.3793 -20.3791 -20.3790 -20.3789 -20.3787 -20.3787
   -20.3667 -20.3663 -20.3659 -20.3654 -20.3650 -20.3648 -20.3646 -20.3646
   -20.3642 -20.3641 -20.3637 -20.3637 -20.3628 -20.3619 -20.3618 -20.3610
   -20.3605 -20.3600 -20.3595 -20.3586 -20.3579 -20.3573 -20.3563 -20.3561
   -20.3480 -20.3480 -20.3475 -20.3474 -20.3471 -20.3469 -20.3465 -20.3464
    -9.6123  -9.5991  -9.3968  -9.3648  -9.0142  -8.9751  -8.8808  -8.8598
    -8.3789  -8.3391  -8.3280  -8.2994  -8.2073  -8.2001  -8.1665  -8.1641
    -8.1247  -8.1110  -8.0487  -8.0262  -7.8776  -7.8065  -7.8059  -7.7354
     1.3878   1.3987   1.4069   1.4114   2.2510   2.2704   2.4350   2.4542
     2.7247   2.7309   3.2031   3.2048   3.2723   3.3055   3.3689   3.3710
     3.5296   3.5374   3.5731   3.5932   3.7159   3.7274   3.7773   3.8893
     3.9375   3.9801   4.0239   4.0363   4.4625   4.5133   4.6365   4.7321
     4.8564   4.9168   4.9562   5.0020   5.2176   5.2473   5.3899   5.4383
     5.6335   5.6688   5.7620   5.8123   5.9930   6.0424   6.0437   6.1062
     6.4259   6.4876   6.5048   6.5631   6.6037   6.6498   6.6916   6.7718
     7.0075   7.0488   7.1188   7.1575   7.1720   7.2176   7.4696   7.5008
     7.5212   7.5732   7.6065   7.6144   7.6413   7.6504   7.6863   7.6989
    10.5324  10.6138  11.2076  11.2685  11.2971  11.3161  11.6706  11.6714
    11.6814  11.7799  11.8150  12.0150  12.2669  12.4042  12.5095  12.6458
    12.6910  12.7181  12.8466  12.8554  13.1981  13.2597  13.3796  13.4400
    15.2670  15.3849  15.4049  15.5022  16.0807  16.0982  16.2409  16.3031
    16.4719  16.5071  17.1049  17.1483  17.2794

          k = 0.0000-0.5000 0.0000 ( 62264 PWs)   bands (ev):

   -66.2209 -66.2209 -66.2205 -66.2205 -66.2199 -66.2199 -66.2195 -66.2195
   -30.5968 -30.5968 -30.5660 -30.5660 -30.5530 -30.5530 -30.5485 -30.5485
   -30.5216 -30.5216 -30.5172 -30.5172 -30.5058 -30.5058 -30.4838 -30.4838
   -30.4806 -30.4806 -30.4676 -30.4676 -30.4320 -30.4320 -30.4286 -30.4286
   -20.4035 -20.4035 -20.4032 -20.4032 -20.4030 -20.4030 -20.4027 -20.4027
   -20.3832 -20.3832 -20.3829 -20.3829 -20.3826 -20.3826 -20.3824 -20.3824
   -20.3795 -20.3795 -20.3791 -20.3791 -20.3790 -20.3790 -20.3786 -20.3786
   -20.3675 -20.3675 -20.3669 -20.3669 -20.3656 -20.3656 -20.3641 -20.3641
   -20.3631 -20.3631 -20.3629 -20.3629 -20.3613 -20.3613 -20.3608 -20.3608
   -20.3604 -20.3604 -20.3593 -20.3593 -20.3581 -20.3581 -20.3562 -20.3562
   -20.3479 -20.3479 -20.3476 -20.3476 -20.3468 -20.3468 -20.3466 -20.3466
    -9.6064  -9.6064  -9.3899  -9.3899  -8.9120  -8.9120  -8.7245  -8.7245
    -8.6035  -8.6035  -8.5698  -8.5698  -8.4969  -8.4969  -8.4061  -8.4061
    -7.8617  -7.8617  -7.7717  -7.7717  -7.6327  -7.6327  -7.5686  -7.5686
     1.4003   1.4003   1.4088   1.4088   1.9806   1.9806   1.9871   1.9871
     2.7931   2.7931   2.9715   2.9715   3.0788   3.0788   3.1799   3.1799
     3.2368   3.2369   3.3580   3.3580   3.5581   3.5581   3.8117   3.8117
     3.9430   3.9430   4.5352   4.5352   4.8282   4.8282   5.0863   5.0863
     5.3005   5.3005   5.3308   5.3308   5.4713   5.4713   5.8025   5.8025
     5.8584   5.8584   5.9925   5.9925   6.0319   6.0319   6.1765   6.1765
     6.3036   6.3036   6.3635   6.3635   6.5712   6.5712   6.6740   6.6740
     6.7907   6.7907   6.9850   6.9850   7.1166   7.1166   7.3907   7.3907
     7.4594   7.4594   7.6502   7.6502   7.7278   7.7278   8.0495   8.0495
    10.0073  10.0073  11.1883  11.1883  11.3230  11.3230  11.4366  11.4366
    11.6634  11.6634  12.3072  12.3072  12.4848  12.4848  12.6141  12.6141
    12.8592  12.8592  13.0403  13.0403  13.2325  13.2325  13.5397  13.5397
    14.4130  14.4130  14.7741  14.7741  15.5803  15.5803  15.7252  15.7252
    16.5667  16.5667  17.7563  17.7564  17.9045

          k = 0.0000-0.5000 0.1575 ( 62234 PWs)   bands (ev):

   -66.2209 -66.2209 -66.2205 -66.2205 -66.2199 -66.2199 -66.2195 -66.2195
   -30.5968 -30.5968 -30.5660 -30.5660 -30.5530 -30.5530 -30.5485 -30.5484
   -30.5215 -30.5215 -30.5171 -30.5171 -30.5054 -30.5054 -30.4805 -30.4805
   -30.4784 -30.4784 -30.4670 -30.4670 -30.4355 -30.4355 -30.4320 -30.4320
   -20.4035 -20.4035 -20.4033 -20.4032 -20.4030 -20.4030 -20.4027 -20.4027
   -20.3832 -20.3832 -20.3829 -20.3829 -20.3826 -20.3826 -20.3824 -20.3824
   -20.3795 -20.3795 -20.3791 -20.3791 -20.3790 -20.3790 -20.3786 -20.3786
   -20.3673 -20.3673 -20.3666 -20.3666 -20.3656 -20.3656 -20.3641 -20.3641
   -20.3633 -20.3633 -20.3630 -20.3630 -20.3615 -20.3615 -20.3609 -20.3609
   -20.3604 -20.3604 -20.3593 -20.3593 -20.3581 -20.3581 -20.3562 -20.3562
   -20.3479 -20.3479 -20.3476 -20.3476 -20.3468 -20.3468 -20.3466 -20.3466
    -9.5852  -9.5852  -9.3991  -9.3991  -8.8663  -8.8663  -8.7065  -8.7065
    -8.6041  -8.6041  -8.5741  -8.5741  -8.4713  -8.4713  -8.3858  -8.3858
    -7.8649  -7.8649  -7.7758  -7.7758  -7.7057  -7.7057  -7.6539  -7.6539
     1.4013   1.4013   1.4097   1.4097   2.1476   2.1476   2.2213   2.2213
     2.8517   2.8517   2.9767   2.9767   3.0780   3.0780   3.1892   3.1892
     3.2397   3.2397   3.3834   3.3834   3.5550   3.5550   3.8388   3.8388
     3.9938   3.9939   4.3618   4.3618   4.6838   4.6838   4.9450   4.9450
     5.2649   5.2649   5.3073   5.3073   5.4037   5.4037   5.6162   5.6162
     5.8213   5.8213   5.9325   5.9325   6.0018   6.0018   6.0902   6.0902
     6.3751   6.3751   6.4157   6.4157   6.5864   6.5864   6.7733   6.7733
     6.8533   6.8533   6.9548   6.9548   7.0608   7.0608   7.3942   7.3942
     7.4588   7.4588   7.6739   7.6739   7.7324   7.7324   8.0026   8.0026
    10.2013  10.2013  11.2006  11.2006  11.3318  11.3318  11.5004  11.5004
    11.7115  11.7115  12.3073  12.3073  12.3734  12.3734  12.6160  12.6160
    12.7989  12.7989  12.9501  12.9501  13.2090  13.2090  13.5450  13.5450
    14.5783  14.5783  15.0886  15.0886  15.6115  15.6115  15.7595  15.7595
    16.6067  16.6067  17.6158  17.6159  17.8257

          k = 0.0000-0.5000 0.3150 ( 62306 PWs)   bands (ev):

   -66.2208 -66.2208 -66.2206 -66.2206 -66.2198 -66.2198 -66.2196 -66.2196
   -30.5968 -30.5967 -30.5661 -30.5661 -30.5529 -30.5529 -30.5484 -30.5484
   -30.5214 -30.5214 -30.5170 -30.5170 -30.5047 -30.5047 -30.4741 -30.4741
   -30.4710 -30.4710 -30.4632 -30.4632 -30.4452 -30.4452 -30.4411 -30.4411
   -20.4035 -20.4035 -20.4033 -20.4033 -20.4030 -20.4029 -20.4027 -20.4027
   -20.3832 -20.3832 -20.3829 -20.3829 -20.3826 -20.3826 -20.3824 -20.3824
   -20.3794 -20.3794 -20.3792 -20.3792 -20.3789 -20.3789 -20.3787 -20.3787
   -20.3668 -20.3668 -20.3659 -20.3659 -20.3655 -20.3655 -20.3642 -20.3642
   -20.3638 -20.3638 -20.3635 -20.3635 -20.3617 -20.3617 -20.3610 -20.3610
   -20.3604 -20.3604 -20.3594 -20.3594 -20.3581 -20.3581 -20.3562 -20.3562
   -20.3478 -20.3478 -20.3477 -20.3477 -20.3468 -20.3468 -20.3466 -20.3466
    -9.5339  -9.5339  -9.4264  -9.4264  -8.7613  -8.7613  -8.6740  -8.6740
    -8.6097  -8.6097  -8.5879  -8.5879  -8.3709  -8.3708  -8.3069  -8.3069
    -7.9461  -7.9461  -7.8700  -7.8700  -7.8333  -7.8333  -7.7679  -7.7679
     1.4019   1.4019   1.4105   1.4105   2.6416   2.6416   2.7761   2.7761
     2.9842   2.9842   3.0074   3.0075   3.0916   3.0916   3.2135   3.2135
     3.2651   3.2651   3.4394   3.4394   3.5453   3.5453   3.8106   3.8106
     4.0743   4.0743   4.1679   4.1679   4.3418   4.3418   4.5499   4.5499
     4.9356   4.9356   5.0927   5.0927   5.2838   5.2838   5.3682   5.3682
     5.5340   5.5340   5.8983   5.8983   6.0585   6.0585   6.0913   6.0913
     6.4412   6.4412   6.4860   6.4860   6.5701   6.5701   6.6820   6.6820
     7.0813   7.0813   7.1306   7.1306   7.1730   7.1730   7.3914   7.3914
     7.4649   7.4649   7.6779   7.6779   7.7065   7.7065   7.8441   7.8441
    10.6776  10.6776  11.2219  11.2219  11.3500  11.3500  11.6231  11.6231
    11.8694  11.8694  12.0442  12.0442  12.3373  12.3373  12.4791  12.4791
    12.6694  12.6694  12.7821  12.7821  13.2020  13.2020  13.4445  13.4445
    15.0403  15.0403  15.5305  15.5305  15.9090  15.9090  16.0762  16.0762
    16.7273  16.7273  17.3122  17.3124  17.5112

          k = 0.0000-0.5000-0.4725 ( 62284 PWs)   bands (ev):

   -66.2207 -66.2207 -66.2207 -66.2207 -66.2197 -66.2197 -66.2197 -66.2197
   -30.5967 -30.5967 -30.5661 -30.5661 -30.5528 -30.5528 -30.5483 -30.5483
   -30.5214 -30.5214 -30.5169 -30.5169 -30.5044 -30.5044 -30.4725 -30.4725
   -30.4586 -30.4586 -30.4578 -30.4578 -30.4535 -30.4535 -30.4527 -30.4527
   -20.4035 -20.4035 -20.4033 -20.4033 -20.4029 -20.4029 -20.4027 -20.4027
   -20.3832 -20.3832 -20.3829 -20.3829 -20.3826 -20.3826 -20.3824 -20.3824
   -20.3794 -20.3794 -20.3793 -20.3793 -20.3789 -20.3789 -20.3788 -20.3788
   -20.3665 -20.3665 -20.3653 -20.3653 -20.3649 -20.3649 -20.3647 -20.3647
   -20.3640 -20.3640 -20.3639 -20.3639 -20.3618 -20.3618 -20.3611 -20.3611
   -20.3604 -20.3604 -20.3594 -20.3594 -20.3581 -20.3581 -20.3562 -20.3562
   -20.3478 -20.3478 -20.3477 -20.3477 -20.3468 -20.3468 -20.3466 -20.3466
    -9.4877  -9.4877  -9.4607  -9.4607  -8.6961  -8.6961  -8.6466  -8.6466
    -8.6368  -8.6368  -8.5954  -8.5954  -8.2116  -8.2116  -8.1597  -8.1597
    -8.1404  -8.1404  -8.0873  -8.0873  -7.8421  -7.8421  -7.7708  -7.7708
     1.4020   1.4020   1.4107   1.4107   2.9507   2.9508   3.0022   3.0022
     3.0786   3.0786   3.1695   3.1695   3.2503   3.2503   3.3148   3.3148
     3.4185   3.4185   3.4653   3.4654   3.5167   3.5167   3.6742   3.6742
     3.7515   3.7515   4.0239   4.0239   4.3696   4.3696   4.4800   4.4800
     4.5315   4.5315   4.6165   4.6165   5.2903   5.2903   5.3146   5.3146
     5.6939   5.6939   5.7408   5.7408   6.0822   6.0822   6.0985   6.0985
     6.4635   6.4635   6.5014   6.5014   6.5389   6.5389   6.6239   6.6239
     7.2154   7.2154   7.2602   7.2602   7.3332   7.3332   7.3819   7.3819
     7.5568   7.5568   7.5993   7.5993   7.6689   7.6689   7.6821   7.6821
    11.1106  11.1106  11.2740  11.2740  11.3553  11.3553  11.3993  11.3993
    12.0253  12.0253  12.0769  12.0769  12.2215  12.2215  12.2764  12.2764
    12.5583  12.5583  12.7681  12.7681  13.2482  13.2482  13.3267  13.3267
    15.3320  15.3320  15.4410  15.4410  16.6095  16.6095  16.7363  16.7368
    16.8257  16.8258  16.9309  16.9316  17.0249

          k = 0.1667 0.1667 0.0000 ( 62234 PWs)   bands (ev):

   -66.2213 -66.2209 -66.2204 -66.2204 -66.2200 -66.2200 -66.2195 -66.2191
   -30.5929 -30.5927 -30.5886 -30.5886 -30.5613 -30.5612 -30.5573 -30.5572
   -30.5135 -30.5134 -30.5113 -30.5084 -30.4866 -30.4862 -30.4856 -30.4841
   -30.4764 -30.4734 -30.4733 -30.4684 -30.4334 -30.4303 -30.4303 -30.4274
   -20.4037 -20.4035 -20.4033 -20.4033 -20.4029 -20.4029 -20.4027 -20.4026
   -20.3833 -20.3832 -20.3830 -20.3830 -20.3825 -20.3825 -20.3823 -20.3822
   -20.3797 -20.3793 -20.3793 -20.3793 -20.3788 -20.3788 -20.3788 -20.3784
   -20.3677 -20.3672 -20.3672 -20.3667 -20.3663 -20.3650 -20.3650 -20.3649
   -20.3635 -20.3632 -20.3631 -20.3624 -20.3621 -20.3619 -20.3618 -20.3610
   -20.3596 -20.3594 -20.3591 -20.3591 -20.3568 -20.3567 -20.3565 -20.3564
   -20.3483 -20.3480 -20.3474 -20.3474 -20.3471 -20.3471 -20.3464 -20.3462
    -9.8124  -9.5797  -9.3730  -9.3689  -9.1768  -9.1729  -8.9755  -8.9556
    -8.7291  -8.6008  -8.5921  -8.5900  -8.0784  -8.0221  -7.9512  -7.9323
    -7.9183  -7.9064  -7.8401  -7.8131  -7.6626  -7.5990  -7.5987  -7.5430
     1.5165   1.5166   1.6035   1.6063   1.6316   1.6379   1.7732   1.9192
     1.9875   2.0321   2.0325   2.2020   2.5226   2.6209   2.8221   2.8695
     2.9705   2.9921   4.1801   4.1854   4.3263   4.3543   4.4775   4.5037
     4.5090   4.5476   4.6535   4.8614   4.9364   5.0052   5.2252   5.2296
     5.3120   5.3590   5.3845   5.5350   5.5691   5.6165   5.6453   5.6548
     5.7079   5.7877   5.8479   5.9405   5.9890   6.0245   6.0304   6.1058
     6.3487   6.4697   6.5638   6.6583   6.7051   6.7513   6.8260   6.8396
     6.8867   6.9302   6.9359   6.9927   7.0102   7.0163   7.0609   7.1095
     7.1444   7.2198   7.6517   7.6641   7.9260   7.9678   8.0011   8.0910
    10.0610  10.0963  10.1193  10.2617  10.4069  10.4301  12.0279  12.0338
    12.1422  12.1515  12.2837  12.4394  12.4903  12.5327  12.5500  12.5811
    12.7632  12.9163  13.0249  13.1453  13.3285  13.4271  13.5180  13.7299
    14.2562  14.4943  14.5110  15.0000  15.2083  15.4554  15.4850  16.1262
    16.1264  16.6717  16.6880  16.7999  17.6729

          k = 0.1667 0.1667 0.1575 ( 62255 PWs)   bands (ev):

   -66.2213 -66.2209 -66.2204 -66.2204 -66.2200 -66.2200 -66.2195 -66.2192
   -30.5928 -30.5927 -30.5886 -30.5886 -30.5613 -30.5612 -30.5573 -30.5572
   -30.5132 -30.5131 -30.5108 -30.5085 -30.4845 -30.4838 -30.4833 -30.4821
   -30.4763 -30.4724 -30.4721 -30.4671 -30.4370 -30.4338 -30.4337 -30.4308
   -20.4037 -20.4035 -20.4033 -20.4033 -20.4029 -20.4029 -20.4027 -20.4026
   -20.3833 -20.3832 -20.3830 -20.3830 -20.3825 -20.3825 -20.3823 -20.3822
   -20.3797 -20.3793 -20.3792 -20.3792 -20.3789 -20.3788 -20.3788 -20.3784
   -20.3675 -20.3670 -20.3670 -20.3664 -20.3663 -20.3650 -20.3650 -20.3649
   -20.3636 -20.3632 -20.3631 -20.3624 -20.3624 -20.3622 -20.3620 -20.3612
   -20.3596 -20.3595 -20.3591 -20.3591 -20.3568 -20.3567 -20.3565 -20.3564
   -20.3482 -20.3480 -20.3474 -20.3474 -20.3471 -20.3471 -20.3464 -20.3462
    -9.7912  -9.5909  -9.3517  -9.3476  -9.1840  -9.1800  -8.9742  -8.9569
    -8.6651  -8.5537  -8.5467  -8.5445  -8.0787  -8.0249  -7.9495  -7.9379
    -7.9182  -7.9094  -7.8441  -7.8150  -7.7388  -7.6795  -7.6786  -7.6285
     1.5163   1.5165   1.6074   1.6077   1.6368   1.6384   1.8420   1.9233
     2.1606   2.2291   2.2335   2.3667   2.5295   2.6181   2.8920   2.9415
     3.0387   3.0532   4.0976   4.1181   4.2196   4.2393   4.4145   4.4243
     4.4792   4.5081   4.5827   4.8536   4.9473   4.9724   5.1880   5.2067
     5.2536   5.3352   5.3478   5.4159   5.4661   5.5019   5.5274   5.5913
     5.6992   5.8090   5.8843   5.9319   5.9537   6.0008   6.0149   6.0443
     6.3883   6.4227   6.5499   6.6658   6.7059   6.7178   6.7913   6.8262
     6.8764   6.9065   6.9150   6.9776   7.0482   7.0727   7.1009   7.1029
     7.1902   7.2255   7.6482   7.6645   7.9227   7.9492   7.9790   8.0287
    10.1105  10.1289  10.2987  10.4068  10.5171  10.5626  12.0358  12.0402
    12.0857  12.1045  12.2993  12.3610  12.3757  12.4582  12.5219  12.6057
    12.7360  12.8975  13.0134  13.1938  13.3469  13.4073  13.5285  13.6702
    14.4058  14.6866  14.6955  15.2300  15.4092  15.4511  15.4989  16.0891
    16.0934  16.5681  16.7717  16.7890  17.5970

          k = 0.1667 0.1667 0.3150 ( 62249 PWs)   bands (ev):

   -66.2212 -66.2210 -66.2203 -66.2203 -66.2201 -66.2201 -66.2194 -66.2192
   -30.5928 -30.5927 -30.5886 -30.5885 -30.5613 -30.5613 -30.5573 -30.5572
   -30.5127 -30.5126 -30.5099 -30.5087 -30.4816 -30.4810 -30.4789 -30.4762
   -30.4732 -30.4668 -30.4665 -30.4618 -30.4468 -30.4431 -30.4431 -30.4398
   -20.4036 -20.4035 -20.4033 -20.4033 -20.4029 -20.4029 -20.4027 -20.4026
   -20.3833 -20.3833 -20.3830 -20.3830 -20.3825 -20.3825 -20.3823 -20.3822
   -20.3796 -20.3794 -20.3792 -20.3792 -20.3789 -20.3789 -20.3787 -20.3785
   -20.3670 -20.3664 -20.3664 -20.3663 -20.3656 -20.3649 -20.3649 -20.3647
   -20.3638 -20.3634 -20.3632 -20.3631 -20.3628 -20.3628 -20.3621 -20.3616
   -20.3596 -20.3595 -20.3591 -20.3591 -20.3568 -20.3568 -20.3564 -20.3564
   -20.3482 -20.3480 -20.3473 -20.3473 -20.3471 -20.3471 -20.3463 -20.3463
    -9.7382  -9.6240  -9.3029  -9.2988  -9.2052  -9.2012  -8.9705  -8.9605
    -8.4883  -8.4118  -8.4087  -8.4060  -8.0961  -8.0384  -7.9835  -7.9551
    -7.9411  -7.9316  -7.9217  -7.8949  -7.8581  -7.8342  -7.8139  -7.7965
     1.5157   1.5160   1.6091   1.6101   1.6393   1.6401   1.9032   1.9240
     2.5461   2.5671   2.6831   2.7702   2.7801   2.9107   3.1009   3.1626
     3.2238   3.2535   3.8162   3.8691   3.8808   3.9199   4.1664   4.3580
     4.3822   4.4621   4.4638   4.6089   4.6437   4.8957   5.0240   5.1048
     5.1164   5.1967   5.2186   5.2543   5.3691   5.4066   5.4486   5.5189
     5.6124   5.7006   5.7945   5.7978   5.8557   5.8811   5.9925   6.0286
     6.4171   6.4402   6.5047   6.6146   6.7298   6.7540   6.8455   6.8510
     6.9097   6.9202   6.9984   7.0397   7.1042   7.1386   7.2256   7.2322
     7.3260   7.3317   7.6310   7.6662   7.8242   7.8256   7.8558   7.8664
    10.1569  10.1581  10.7579  10.8071  10.8857  10.9478  11.8136  11.8358
    11.9413  11.9755  12.0897  12.0954  12.3726  12.4568  12.5128  12.6036
    12.7910  12.9132  13.0113  13.1877  13.2422  13.2673  13.4623  13.5430
    14.9746  15.1857  15.1925  15.4467  15.4574  15.6591  15.9588  15.9676
    16.1537  16.2691  17.0409  17.0750  17.1626

          k = 0.1667 0.1667-0.4725 ( 62220 PWs)   bands (ev):

   -66.2211 -66.2211 -66.2202 -66.2202 -66.2202 -66.2202 -66.2193 -66.2193
   -30.5927 -30.5927 -30.5885 -30.5885 -30.5613 -30.5613 -30.5573 -30.5573
   -30.5124 -30.5124 -30.5091 -30.5091 -30.4804 -30.4804 -30.4768 -30.4768
   -30.4601 -30.4601 -30.4558 -30.4558 -30.4552 -30.4552 -30.4515 -30.4515
   -20.4036 -20.4036 -20.4033 -20.4033 -20.4029 -20.4029 -20.4026 -20.4026
   -20.3833 -20.3833 -20.3830 -20.3829 -20.3825 -20.3825 -20.3823 -20.3823
   -20.3795 -20.3795 -20.3792 -20.3791 -20.3790 -20.3790 -20.3786 -20.3786
   -20.3665 -20.3665 -20.3660 -20.3660 -20.3649 -20.3649 -20.3644 -20.3644
   -20.3643 -20.3643 -20.3634 -20.3634 -20.3630 -20.3630 -20.3619 -20.3619
   -20.3596 -20.3596 -20.3591 -20.3591 -20.3568 -20.3568 -20.3564 -20.3564
   -20.3481 -20.3481 -20.3473 -20.3473 -20.3471 -20.3471 -20.3463 -20.3463
    -9.6761  -9.6761  -9.2632  -9.2632  -9.2275  -9.2275  -8.9655  -8.9655
    -8.2551  -8.2551  -8.1995  -8.1995  -8.1881  -8.1881  -8.1696  -8.1696
    -8.0114  -8.0113  -7.9290  -7.9290  -7.8845  -7.8845  -7.8181  -7.8181
     1.5156   1.5156   1.6100   1.6100   1.6401   1.6401   1.9202   1.9202
     2.5666   2.5667   3.2011   3.2011   3.3109   3.3109   3.3589   3.3589
     3.5092   3.5092   3.5598   3.5598   3.8180   3.8180   3.8486   3.8486
     3.9898   3.9898   4.3918   4.3918   4.4944   4.4944   5.0654   5.0654
     5.2071   5.2071   5.3233   5.3233   5.3761   5.3761   5.4776   5.4776
     5.5768   5.5768   5.6792   5.6792   5.7581   5.7581   6.0167   6.0167
     6.4539   6.4539   6.5509   6.5509   6.7535   6.7535   6.8511   6.8511
     6.9256   6.9256   7.0506   7.0506   7.1380   7.1380   7.4878   7.4878
     7.5488   7.5488   7.5932   7.5932   7.6291   7.6291   7.7048   7.7048
    10.1669  10.1669  11.2819  11.2819  11.3631  11.3631  11.3902  11.3902
    11.5281  11.5281  12.0854  12.0854  12.4478  12.4478  12.5417  12.5417
    12.9748  12.9749  13.0581  13.0581  13.1100  13.1100  13.4496  13.4496
    15.3955  15.3955  15.5713  15.5713  15.7090  15.7090  15.7655  15.7655
    16.3514  16.3514  17.3165  17.3165  17.6280

          k = 0.1667 0.3333 0.0000 ( 62265 PWs)   bands (ev):

   -66.2211 -66.2207 -66.2206 -66.2202 -66.2202 -66.2198 -66.2197 -66.2193
   -30.5919 -30.5895 -30.5761 -30.5723 -30.5600 -30.5582 -30.5444 -30.5404
   -30.5299 -30.5264 -30.5127 -30.5107 -30.4986 -30.4954 -30.4854 -30.4848
   -30.4815 -30.4802 -30.4729 -30.4707 -30.4327 -30.4308 -30.4296 -30.4279
   -20.4036 -20.4034 -20.4034 -20.4032 -20.4030 -20.4029 -20.4028 -20.4026
   -20.3833 -20.3831 -20.3830 -20.3828 -20.3827 -20.3825 -20.3825 -20.3823
   -20.3796 -20.3794 -20.3792 -20.3792 -20.3789 -20.3789 -20.3787 -20.3785
   -20.3676 -20.3673 -20.3671 -20.3668 -20.3658 -20.3651 -20.3644 -20.3642
   -20.3634 -20.3631 -20.3625 -20.3623 -20.3621 -20.3618 -20.3613 -20.3605
   -20.3604 -20.3598 -20.3598 -20.3589 -20.3578 -20.3573 -20.3567 -20.3565
   -20.3481 -20.3478 -20.3476 -20.3473 -20.3472 -20.3469 -20.3466 -20.3464
    -9.6818  -9.4449  -9.4319  -9.2234  -9.1707  -8.9391  -8.8640  -8.8354
    -8.7830  -8.6174  -8.5770  -8.5432  -8.2976  -8.2411  -8.1987  -8.1432
    -7.9942  -7.9300  -7.9188  -7.8509  -7.6511  -7.6131  -7.5902  -7.5560
     1.6147   1.6195   1.6426   1.6483   1.9472   1.9511   1.9796   2.0165
     2.2810   2.3328   2.4473   2.5375   2.7800   2.8761   2.8974   2.9641
     3.0929   3.2077   3.7696   3.8544   3.9693   4.0357   4.2778   4.2798
     4.3369   4.4700   4.5910   4.6720   4.7216   4.7283   4.7984   4.8672
     5.0797   5.1451   5.1935   5.2315   5.3122   5.5039   5.5790   5.6615
     5.6872   5.8553   5.8850   5.8913   5.9371   6.0102   6.0664   6.1276
     6.3771   6.5027   6.5563   6.6148   6.6688   6.7402   6.7855   6.8228
     6.9027   6.9270   6.9625   6.9775   7.0107   7.0537   7.1275   7.2004
     7.3344   7.3966   7.6070   7.6456   7.8724   7.9060   8.0172   8.0591
    10.2110  10.2285  10.6133  10.7035  10.8610  10.9934  11.8193  11.9156
    12.0185  12.1678  12.2740  12.2904  12.4044  12.5208  12.6002  12.6529
    12.7397  12.8796  12.9727  13.0618  13.2457  13.3536  13.4790  13.5582
    14.2951  14.4640  14.5749  14.9099  15.4582  15.6657  15.8430  16.0383
    16.2677  16.8374  17.1688  17.2576  17.3923

          k = 0.1667 0.3333 0.1575 ( 62260 PWs)   bands (ev):

   -66.2211 -66.2207 -66.2206 -66.2202 -66.2202 -66.2198 -66.2197 -66.2193
   -30.5919 -30.5895 -30.5761 -30.5723 -30.5600 -30.5582 -30.5444 -30.5404
   -30.5298 -30.5262 -30.5124 -30.5105 -30.4982 -30.4949 -30.4831 -30.4819
   -30.4803 -30.4773 -30.4716 -30.4692 -30.4363 -30.4343 -30.4330 -30.4313
   -20.4036 -20.4034 -20.4034 -20.4032 -20.4031 -20.4029 -20.4028 -20.4027
   -20.3833 -20.3831 -20.3830 -20.3828 -20.3827 -20.3825 -20.3824 -20.3823
   -20.3796 -20.3793 -20.3792 -20.3791 -20.3790 -20.3789 -20.3788 -20.3785
   -20.3674 -20.3671 -20.3668 -20.3665 -20.3658 -20.3651 -20.3644 -20.3643
   -20.3634 -20.3632 -20.3627 -20.3625 -20.3622 -20.3618 -20.3614 -20.3606
   -20.3605 -20.3599 -20.3598 -20.3589 -20.3578 -20.3573 -20.3567 -20.3565
   -20.3481 -20.3478 -20.3475 -20.3473 -20.3472 -20.3469 -20.3466 -20.3464
    -9.6594  -9.4558  -9.4098  -9.2314  -9.1425  -8.9461  -8.8620  -8.8349
    -8.7234  -8.5759  -8.5332  -8.5049  -8.2963  -8.2434  -8.2004  -8.1410
    -7.9942  -7.9317  -7.9203  -7.8540  -7.7287  -7.6920  -7.6729  -7.6401
     1.6209   1.6273   1.6443   1.6479   2.0994   2.1107   2.1789   2.2133
     2.2925   2.3630   2.4577   2.5700   2.7945   2.8883   2.9436   3.0297
     3.1644   3.2640   3.7699   3.8445   3.9465   4.0295   4.2017   4.2541
     4.3149   4.4101   4.5053   4.6374   4.6570   4.7169   4.7703   4.8427
     4.9878   5.0476   5.1197   5.1842   5.2376   5.3292   5.4644   5.5630
     5.6268   5.7672   5.8120   5.8790   5.8898   5.9461   5.9903   6.0209
     6.3936   6.5131   6.6061   6.6505   6.6944   6.7628   6.7997   6.8490
     6.9007   6.9221   6.9855   7.0121   7.0515   7.0807   7.1570   7.2095
     7.3624   7.4170   7.6061   7.6449   7.8732   7.8961   7.9825   8.0046
    10.3728  10.3806  10.6554  10.7306  10.9531  11.0622  11.8207  11.9263
    12.0286  12.1751  12.2490  12.3197  12.3804  12.4215  12.5212  12.5885
    12.6715  12.8417  12.9671  13.0373  13.2172  13.3068  13.4721  13.5241
    14.4924  14.6581  14.8460  15.2345  15.5209  15.6679  15.8768  16.0185
    16.3405  16.7964  16.9987  17.2700  17.4509

          k = 0.1667 0.3333 0.3150 ( 62265 PWs)   bands (ev):

   -66.2210 -66.2208 -66.2205 -66.2203 -66.2201 -66.2199 -66.2196 -66.2194
   -30.5919 -30.5894 -30.5761 -30.5723 -30.5600 -30.5582 -30.5444 -30.5404
   -30.5295 -30.5260 -30.5119 -30.5101 -30.4976 -30.4941 -30.4804 -30.4783
   -30.4723 -30.4689 -30.4658 -30.4633 -30.4460 -30.4438 -30.4423 -30.4404
   -20.4036 -20.4034 -20.4034 -20.4032 -20.4031 -20.4029 -20.4028 -20.4027
   -20.3832 -20.3831 -20.3830 -20.3828 -20.3827 -20.3825 -20.3824 -20.3823
   -20.3795 -20.3793 -20.3793 -20.3791 -20.3790 -20.3788 -20.3788 -20.3786
   -20.3668 -20.3665 -20.3661 -20.3659 -20.3657 -20.3651 -20.3645 -20.3643
   -20.3636 -20.3635 -20.3632 -20.3631 -20.3626 -20.3619 -20.3615 -20.3608
   -20.3606 -20.3599 -20.3598 -20.3589 -20.3579 -20.3574 -20.3567 -20.3565
   -20.3480 -20.3479 -20.3475 -20.3473 -20.3471 -20.3469 -20.3466 -20.3464
    -9.6041  -9.4880  -9.3584  -9.2551  -9.0793  -8.9675  -8.8577  -8.8370
    -8.5588  -8.4576  -8.4008  -8.3820  -8.2942  -8.2576  -8.2040  -8.1289
    -8.0039  -7.9638  -7.9389  -7.9096  -7.8942  -7.8695  -7.8536  -7.8212
     1.6247   1.6324   1.6452   1.6491   2.2491   2.2682   2.3853   2.4287
     2.6713   2.7365   2.7894   2.8137   2.8293   2.9453   3.1400   3.2215
     3.3751   3.4202   3.7420   3.7908   3.8453   3.9156   3.9404   4.0218
     4.1240   4.3141   4.4428   4.5132   4.5736   4.5947   4.6712   4.7230
     4.8477   4.8688   4.9392   4.9840   5.0865   5.1586   5.2111   5.2699
     5.4049   5.4671   5.5342   5.6790   5.7582   5.8598   5.9152   5.9422
     6.5020   6.5908   6.6297   6.7144   6.7723   6.8350   6.8609   6.9257
     7.0130   7.0479   7.0698   7.0831   7.1394   7.1766   7.2627   7.2966
     7.4431   7.4784   7.5956   7.6480   7.7955   7.8117   7.8407   7.8564
    10.6319  10.6981  10.8301  10.8976  11.2352  11.3106  11.7616  11.8684
    11.9824  12.0426  12.0829  12.1168  12.3009  12.4064  12.4563  12.5157
    12.6400  12.7965  12.8780  12.9773  13.0697  13.2014  13.3630  13.4109
    15.0998  15.1786  15.4677  15.6368  15.7367  15.8650  16.0115  16.2109
    16.5184  16.6517  16.6975  17.2839  17.4251

          k = 0.1667 0.3333-0.4725 ( 62252 PWs)   bands (ev):

   -66.2209 -66.2209 -66.2204 -66.2204 -66.2200 -66.2200 -66.2195 -66.2195
   -30.5919 -30.5894 -30.5760 -30.5723 -30.5600 -30.5582 -30.5444 -30.5404
   -30.5294 -30.5259 -30.5117 -30.5100 -30.4973 -30.4938 -30.4796 -30.4776
   -30.4593 -30.4592 -30.4567 -30.4564 -30.4549 -30.4545 -30.4524 -30.4523
   -20.4035 -20.4035 -20.4034 -20.4031 -20.4031 -20.4029 -20.4028 -20.4027
   -20.3832 -20.3831 -20.3830 -20.3828 -20.3827 -20.3825 -20.3824 -20.3823
   -20.3794 -20.3794 -20.3792 -20.3791 -20.3790 -20.3789 -20.3787 -20.3787
   -20.3664 -20.3661 -20.3659 -20.3655 -20.3650 -20.3649 -20.3646 -20.3646
   -20.3640 -20.3640 -20.3636 -20.3632 -20.3629 -20.3619 -20.3616 -20.3609
   -20.3606 -20.3600 -20.3599 -20.3589 -20.3579 -20.3574 -20.3567 -20.3565
   -20.3479 -20.3479 -20.3475 -20.3474 -20.3471 -20.3470 -20.3465 -20.3465
    -9.5456  -9.5349  -9.3164  -9.2835  -9.0325  -8.9940  -8.8552  -8.8388
    -8.3841  -8.3542  -8.3318  -8.2986  -8.2081  -8.2006  -8.1804  -8.1724
    -8.1208  -8.1063  -8.0569  -8.0332  -7.9717  -7.9102  -7.9059  -7.8431
     1.6255   1.6332   1.6454   1.6494   2.2581   2.2767   2.4204   2.4361
     2.8302   2.8341   3.2082   3.2112   3.2964   3.3164   3.3630   3.3717
     3.5341   3.5493   3.6324   3.6401   3.7495   3.7863   3.8106   3.9209
     3.9476   3.9815   4.0372   4.0750   4.3955   4.4943   4.5826   4.7314
     4.7592   4.8311   4.8858   4.9435   5.0411   5.0640   5.0988   5.2310
     5.3771   5.4130   5.4194   5.5471   5.6993   5.7274   5.9145   5.9326
     6.5300   6.6098   6.6834   6.7037   6.8200   6.8465   6.8681   6.9374
     7.0635   7.0941   7.1349   7.1807   7.1922   7.2225   7.4839   7.5083
     7.5341   7.5760   7.5932   7.6343   7.6500   7.6575   7.6849   7.7000
    10.6708  10.7280  11.2976  11.3752  11.3903  11.4066  11.6732  11.6902
    11.6970  11.7810  11.8836  12.0576  12.2712  12.4688  12.5322  12.5559
    12.6930  12.7207  12.8074  12.8248  13.0639  13.1323  13.2724  13.3425
    15.4566  15.5276  15.6066  15.6723  16.1036  16.1281  16.2247  16.3063
    16.5380  16.5713  17.1183  17.1481  17.2785

          k = 0.1667-0.5000 0.0000 ( 62322 PWs)   bands (ev):

   -66.2208 -66.2208 -66.2204 -66.2204 -66.2200 -66.2200 -66.2196 -66.2196
   -30.5907 -30.5907 -30.5604 -30.5604 -30.5525 -30.5525 -30.5486 -30.5486
   -30.5214 -30.5214 -30.5177 -30.5177 -30.5113 -30.5113 -30.4835 -30.4835
   -30.4833 -30.4833 -30.4720 -30.4720 -30.4317 -30.4317 -30.4287 -30.4287
   -20.4035 -20.4035 -20.4032 -20.4032 -20.4030 -20.4030 -20.4028 -20.4028
   -20.3832 -20.3832 -20.3829 -20.3829 -20.3826 -20.3826 -20.3824 -20.3824
   -20.3795 -20.3795 -20.3791 -20.3791 -20.3790 -20.3790 -20.3786 -20.3786
   -20.3675 -20.3675 -20.3670 -20.3670 -20.3654 -20.3654 -20.3638 -20.3638
   -20.3632 -20.3632 -20.3627 -20.3627 -20.3614 -20.3614 -20.3607 -20.3607
   -20.3605 -20.3605 -20.3593 -20.3593 -20.3583 -20.3583 -20.3566 -20.3566
   -20.3478 -20.3478 -20.3476 -20.3476 -20.3469 -20.3469 -20.3467 -20.3467
    -9.5383  -9.5383  -9.3114  -9.3114  -8.9337  -8.9337  -8.7072  -8.7072
    -8.5931  -8.5931  -8.5843  -8.5843  -8.4879  -8.4879  -8.4099  -8.4099
    -7.9645  -7.9645  -7.8860  -7.8860  -7.6324  -7.6324  -7.5735  -7.5735
     1.6249   1.6249   1.6518   1.6518   1.9729   1.9729   2.0032   2.0032
     2.8631   2.8631   2.9905   2.9905   3.0944   3.0944   3.2125   3.2125
     3.2395   3.2395   3.4208   3.4208   3.6040   3.6040   3.8275   3.8275
     3.9336   3.9336   4.5058   4.5058   4.6800   4.6800   4.9057   4.9057
     5.0314   5.0314   5.1307   5.1307   5.3582   5.3582   5.6551   5.6551
     5.7378   5.7378   5.7807   5.7807   5.9707   5.9707   6.1446   6.1446
     6.4075   6.4075   6.5765   6.5765   6.6489   6.6489   6.8362   6.8362
     6.8676   6.8676   6.9552   6.9552   7.0306   7.0306   7.4099   7.4099
     7.4813   7.4813   7.6713   7.6713   7.7320   7.7320   8.0327   8.0327
    10.2339  10.2339  11.2593  11.2593  11.3866  11.3866  11.4538  11.4538
    11.6957  11.6957  12.3134  12.3134  12.5229  12.5229  12.5934  12.5935
    12.8440  12.8440  13.0274  13.0274  13.1376  13.1376  13.4783  13.4783
    14.3927  14.3927  14.7544  14.7544  15.7751  15.7751  15.9011  15.9011
    16.6246  16.6246  17.7185  17.7186  17.8656

          k = 0.1667-0.5000 0.1575 ( 62292 PWs)   bands (ev):

   -66.2208 -66.2208 -66.2205 -66.2205 -66.2199 -66.2199 -66.2196 -66.2196
   -30.5907 -30.5907 -30.5604 -30.5604 -30.5525 -30.5525 -30.5485 -30.5485
   -30.5214 -30.5214 -30.5176 -30.5176 -30.5110 -30.5110 -30.4819 -30.4819
   -30.4800 -30.4800 -30.4706 -30.4706 -30.4353 -30.4353 -30.4321 -30.4321
   -20.4035 -20.4035 -20.4032 -20.4032 -20.4030 -20.4030 -20.4028 -20.4028
   -20.3832 -20.3832 -20.3829 -20.3829 -20.3826 -20.3826 -20.3824 -20.3824
   -20.3795 -20.3795 -20.3791 -20.3791 -20.3790 -20.3790 -20.3787 -20.3787
   -20.3672 -20.3672 -20.3667 -20.3667 -20.3654 -20.3654 -20.3638 -20.3638
   -20.3633 -20.3633 -20.3629 -20.3629 -20.3615 -20.3615 -20.3608 -20.3608
   -20.3606 -20.3606 -20.3593 -20.3593 -20.3583 -20.3583 -20.3566 -20.3566
   -20.3478 -20.3478 -20.3476 -20.3476 -20.3469 -20.3469 -20.3467 -20.3467
    -9.5156  -9.5156  -9.3208  -9.3208  -8.8888  -8.8888  -8.6923  -8.6923
    -8.5927  -8.5927  -8.5859  -8.5858  -8.4637  -8.4637  -8.3900  -8.3900
    -7.9650  -7.9650  -7.8888  -7.8888  -7.7106  -7.7106  -7.6569  -7.6569
     1.6353   1.6353   1.6509   1.6509   2.1503   2.1504   2.2162   2.2162
     2.9162   2.9162   2.9958   2.9958   3.1010   3.1010   3.2187   3.2187
     3.2483   3.2483   3.4441   3.4441   3.6010   3.6010   3.8549   3.8550
     3.9845   3.9845   4.3681   4.3681   4.6149   4.6149   4.8341   4.8341
     4.9736   4.9736   5.0535   5.0536   5.2233   5.2234   5.5631   5.5631
     5.6599   5.6599   5.7116   5.7116   5.8626   5.8626   5.9978   5.9978
     6.5176   6.5176   6.6108   6.6108   6.7417   6.7417   6.8150   6.8150
     6.8949   6.8949   6.9583   6.9583   7.0922   7.0922   7.4120   7.4120
     7.4802   7.4802   7.6842   7.6842   7.7341   7.7341   7.9896   7.9896
    10.3965  10.3965  11.2778  11.2778  11.3959  11.3959  11.5180  11.5180
    11.7385  11.7385  12.3291  12.3291  12.4094  12.4094  12.5762  12.5762
    12.8029  12.8029  12.9349  12.9349  13.0965  13.0965  13.4652  13.4652
    14.5959  14.5959  15.0727  15.0727  15.8062  15.8063  15.9223  15.9223
    16.6610  16.6610  17.6044  17.6044  17.8041

          k = 0.1667-0.5000 0.3150 ( 62264 PWs)   bands (ev):

   -66.2207 -66.2207 -66.2205 -66.2205 -66.2199 -66.2199 -66.2197 -66.2197
   -30.5907 -30.5907 -30.5604 -30.5604 -30.5524 -30.5524 -30.5484 -30.5484
   -30.5213 -30.5213 -30.5175 -30.5175 -30.5104 -30.5104 -30.4794 -30.4794
   -30.4708 -30.4708 -30.4646 -30.4646 -30.4449 -30.4449 -30.4413 -30.4413
   -20.4035 -20.4035 -20.4033 -20.4032 -20.4030 -20.4030 -20.4028 -20.4028
   -20.3831 -20.3831 -20.3829 -20.3829 -20.3826 -20.3826 -20.3824 -20.3824
   -20.3794 -20.3794 -20.3792 -20.3792 -20.3790 -20.3790 -20.3787 -20.3787
   -20.3667 -20.3667 -20.3659 -20.3659 -20.3654 -20.3654 -20.3640 -20.3640
   -20.3637 -20.3637 -20.3633 -20.3633 -20.3618 -20.3618 -20.3609 -20.3609
   -20.3606 -20.3606 -20.3594 -20.3594 -20.3583 -20.3583 -20.3566 -20.3566
   -20.3478 -20.3478 -20.3476 -20.3476 -20.3469 -20.3469 -20.3467 -20.3467
    -9.4609  -9.4609  -9.3489  -9.3489  -8.7854  -8.7854  -8.6698  -8.6698
    -8.6055  -8.6055  -8.5818  -8.5817  -8.3656  -8.3656  -8.3128  -8.3128
    -7.9827  -7.9827  -7.9256  -7.9256  -7.8821  -7.8821  -7.8453  -7.8453
     1.6425   1.6425   1.6506   1.6506   2.6470   2.6470   2.7493   2.7493
     3.0081   3.0082   3.0297   3.0297   3.1414   3.1414   3.2350   3.2350
     3.3074   3.3074   3.4936   3.4936   3.5891   3.5891   3.8490   3.8490
     4.0671   4.0671   4.1779   4.1779   4.3343   4.3343   4.5461   4.5461
     4.8339   4.8339   4.9369   4.9369   5.0854   5.0854   5.1639   5.1639
     5.2581   5.2581   5.6119   5.6119   5.7401   5.7401   5.8645   5.8645
     6.6224   6.6224   6.7168   6.7168   6.7612   6.7612   6.8632   6.8632
     7.0828   7.0828   7.1327   7.1327   7.2303   7.2303   7.4123   7.4123
     7.4844   7.4845   7.6758   7.6758   7.7069   7.7069   7.8432   7.8432
    10.8124  10.8124  11.3089  11.3089  11.4161  11.4161  11.6639  11.6640
    11.8866  11.8866  12.0867  12.0867  12.3567  12.3567  12.4630  12.4630
    12.6739  12.6739  12.7392  12.7392  13.0704  13.0704  13.3374  13.3374
    15.1525  15.1525  15.7068  15.7068  15.9311  15.9311  16.1641  16.1641
    16.7730  16.7730  17.3224  17.3226  17.5256

          k = 0.1667-0.5000-0.4725 ( 62232 PWs)   bands (ev):

   -66.2206 -66.2206 -66.2206 -66.2206 -66.2198 -66.2198 -66.2198 -66.2198
   -30.5907 -30.5907 -30.5604 -30.5604 -30.5523 -30.5523 -30.5484 -30.5484
   -30.5213 -30.5213 -30.5174 -30.5174 -30.5102 -30.5102 -30.4786 -30.4786
   -30.4583 -30.4583 -30.4575 -30.4575 -30.4539 -30.4539 -30.4532 -30.4532
   -20.4034 -20.4034 -20.4033 -20.4033 -20.4030 -20.4030 -20.4028 -20.4028
   -20.3831 -20.3831 -20.3829 -20.3829 -20.3826 -20.3826 -20.3824 -20.3824
   -20.3793 -20.3793 -20.3792 -20.3792 -20.3789 -20.3789 -20.3788 -20.3788
   -20.3663 -20.3663 -20.3654 -20.3654 -20.3650 -20.3650 -20.3647 -20.3647
   -20.3638 -20.3638 -20.3636 -20.3636 -20.3619 -20.3619 -20.3609 -20.3609
   -20.3606 -20.3606 -20.3594 -20.3594 -20.3584 -20.3584 -20.3566 -20.3566
   -20.3477 -20.3477 -20.3477 -20.3477 -20.3469 -20.3468 -20.3467 -20.3467
    -9.4118  -9.4118  -9.3848  -9.3848  -8.7181  -8.7181  -8.6679  -8.6679
    -8.6197  -8.6197  -8.5796  -8.5795  -8.2104  -8.2104  -8.1682  -8.1682
    -8.1388  -8.1388  -8.0975  -8.0974  -7.9399  -7.9399  -7.8767  -7.8767
     1.6439   1.6439   1.6507   1.6507   2.9646   2.9646   3.0056   3.0056
     3.0993   3.0993   3.1734   3.1735   3.2592   3.2592   3.3584   3.3584
     3.4317   3.4317   3.5166   3.5166   3.5643   3.5643   3.7003   3.7003
     3.7934   3.7934   4.0448   4.0448   4.3734   4.3734   4.4623   4.4623
     4.5322   4.5322   4.6004   4.6004   4.9345   4.9345   5.0627   5.0627
     5.3578   5.3578   5.4855   5.4856   5.7402   5.7402   5.7766   5.7766
     6.6661   6.6661   6.7136   6.7136   6.7879   6.7879   6.8771   6.8771
     7.2170   7.2171   7.2655   7.2655   7.3648   7.3648   7.4003   7.4003
     7.5624   7.5624   7.6088   7.6088   7.6764   7.6765   7.6828   7.6828
    11.1909  11.1909  11.3450  11.3450  11.4480  11.4480  11.5046  11.5046
    12.0416  12.0416  12.0833  12.0833  12.2320  12.2320  12.2796  12.2796
    12.5725  12.5725  12.7067  12.7067  13.1095  13.1095  13.2109  13.2109
    15.5441  15.5441  15.6076  15.6076  16.6285  16.6285  16.7675  16.7679
    16.8252  16.8253  16.9444  16.9451  17.0467

          k = 0.3333 0.3333 0.0000 ( 62316 PWs)   bands (ev):

   -66.2209 -66.2205 -66.2204 -66.2204 -66.2200 -66.2200 -66.2199 -66.2195
   -30.5754 -30.5752 -30.5730 -30.5730 -30.5436 -30.5436 -30.5418 -30.5412
   -30.5292 -30.5289 -30.5275 -30.5263 -30.4990 -30.4970 -30.4966 -30.4942
   -30.4842 -30.4796 -30.4789 -30.4755 -30.4320 -30.4302 -30.4301 -30.4284
   -20.4035 -20.4033 -20.4033 -20.4033 -20.4030 -20.4030 -20.4029 -20.4028
   -20.3831 -20.3830 -20.3829 -20.3829 -20.3827 -20.3826 -20.3826 -20.3824
   -20.3795 -20.3793 -20.3793 -20.3791 -20.3790 -20.3788 -20.3788 -20.3786
   -20.3675 -20.3673 -20.3672 -20.3669 -20.3652 -20.3645 -20.3643 -20.3639
   -20.3629 -20.3628 -20.3623 -20.3622 -20.3621 -20.3620 -20.3608 -20.3607
   -20.3606 -20.3602 -20.3595 -20.3595 -20.3578 -20.3577 -20.3575 -20.3575
   -20.3479 -20.3476 -20.3474 -20.3474 -20.3471 -20.3471 -20.3468 -20.3466
    -9.5295  -9.2735  -9.2441  -9.2298  -8.9990  -8.9817  -8.8569  -8.7725
    -8.7437  -8.5703  -8.5596  -8.5567  -8.3336  -8.2623  -8.2589  -8.2153
    -8.1969  -8.1853  -8.1239  -8.0900  -7.6405  -7.6046  -7.6033  -7.5692
     1.9056   1.9270   1.9369   1.9681   2.1724   2.1821   2.2663   2.2975
     2.3354   2.3923   2.5156   2.6214   3.0000   3.1200   3.1248   3.1543
     3.1892   3.2638   3.7707   3.8395   3.9560   3.9767   4.0872   4.1313
     4.2181   4.2883   4.3333   4.3748   4.3874   4.4760   4.5474   4.6027
     4.6538   4.8138   5.0010   5.0261   5.0474   5.1596   5.2301   5.3615
     5.4262   5.5170   5.5607   5.7712   6.0723   6.0876   6.0978   6.1474
     6.4848   6.5360   6.5740   6.5912   6.7001   6.7113   6.7785   6.7851
     7.0153   7.0353   7.1098   7.1375   7.1870   7.1940   7.3033   7.3509
     7.4072   7.4598   7.5983   7.6049   7.8568   7.8835   7.9735   8.0069
    10.6600  10.7482  10.7659  10.9116  11.1611  11.2643  11.9421  11.9658
    11.9805  12.0347  12.0927  12.1603  12.3724  12.3832  12.6959  12.7143
    12.7214  12.7712  12.8178  12.8996  13.2240  13.2518  13.3671  13.3877
    14.3248  14.5137  14.5364  14.8291  15.9534  16.0459  16.0686  16.6157
    16.6576  16.8644  16.8909  17.4260  17.5556

          k = 0.3333 0.3333 0.1575 ( 62283 PWs)   bands (ev):

   -66.2209 -66.2205 -66.2204 -66.2204 -66.2200 -66.2200 -66.2199 -66.2195
   -30.5754 -30.5752 -30.5730 -30.5729 -30.5436 -30.5436 -30.5417 -30.5412
   -30.5290 -30.5288 -30.5273 -30.5263 -30.4984 -30.4967 -30.4961 -30.4942
   -30.4807 -30.4767 -30.4761 -30.4729 -30.4355 -30.4337 -30.4336 -30.4318
   -20.4035 -20.4033 -20.4033 -20.4032 -20.4030 -20.4030 -20.4029 -20.4028
   -20.3831 -20.3830 -20.3829 -20.3829 -20.3827 -20.3826 -20.3825 -20.3824
   -20.3795 -20.3792 -20.3792 -20.3791 -20.3790 -20.3789 -20.3789 -20.3786
   -20.3673 -20.3670 -20.3669 -20.3666 -20.3653 -20.3645 -20.3643 -20.3639
   -20.3631 -20.3629 -20.3624 -20.3623 -20.3623 -20.3620 -20.3609 -20.3607
   -20.3607 -20.3603 -20.3595 -20.3595 -20.3578 -20.3577 -20.3575 -20.3575
   -20.3479 -20.3476 -20.3474 -20.3473 -20.3471 -20.3471 -20.3468 -20.3466
    -9.5043  -9.2847  -9.2160  -9.2010  -9.0074  -8.9898  -8.8066  -8.7712
    -8.7373  -8.5349  -8.5242  -8.5146  -8.3395  -8.2636  -8.2595  -8.2073
    -8.1933  -8.1871  -8.1226  -8.0914  -7.7200  -7.6860  -7.6844  -7.6519
     2.0661   2.0821   2.0922   2.1543   2.1766   2.2091   2.2855   2.3227
     2.3448   2.4212   2.5210   2.6415   3.0339   3.1562   3.1636   3.2204
     3.2293   3.3043   3.7663   3.8299   3.9487   3.9752   4.0994   4.1252
     4.2297   4.2604   4.3242   4.3624   4.4192   4.4667   4.5457   4.5871
     4.6326   4.8139   4.8635   4.8973   4.9317   5.0019   5.0612   5.2894
     5.3428   5.3937   5.4041   5.6453   5.7968   5.9087   5.9508   5.9748
     6.5346   6.5730   6.6267   6.7026   6.8123   6.8179   6.8941   6.8960
     7.0444   7.0445   7.1118   7.1432   7.1968   7.2292   7.3082   7.3663
     7.4230   7.4818   7.5946   7.6093   7.8638   7.8639   7.9471   7.9596
    10.7707  10.8433  10.8590  11.0004  11.1823  11.2931  11.9709  11.9741
    12.0033  12.0629  12.0973  12.1706  12.3892  12.3998  12.5666  12.5863
    12.6288  12.7110  12.7713  12.8957  13.1734  13.1887  13.2827  13.3409
    14.5832  14.7941  14.8104  15.1615  16.0114  16.0450  16.0944  16.6269
    16.6465  16.8741  16.9047  17.2489  17.5787

          k = 0.3333 0.3333 0.3150 ( 62263 PWs)   bands (ev):

   -66.2208 -66.2206 -66.2203 -66.2203 -66.2201 -66.2201 -66.2198 -66.2196
   -30.5753 -30.5752 -30.5729 -30.5729 -30.5436 -30.5436 -30.5416 -30.5413
   -30.5287 -30.5286 -30.5269 -30.5264 -30.4973 -30.4964 -30.4951 -30.4942
   -30.4713 -30.4682 -30.4678 -30.4651 -30.4452 -30.4431 -30.4430 -30.4410
   -20.4034 -20.4033 -20.4032 -20.4032 -20.4030 -20.4030 -20.4029 -20.4028
   -20.3831 -20.3831 -20.3829 -20.3829 -20.3827 -20.3826 -20.3825 -20.3825
   -20.3794 -20.3792 -20.3792 -20.3792 -20.3789 -20.3789 -20.3789 -20.3787
   -20.3666 -20.3663 -20.3662 -20.3658 -20.3654 -20.3647 -20.3646 -20.3638
   -20.3637 -20.3632 -20.3628 -20.3627 -20.3623 -20.3621 -20.3609 -20.3608
   -20.3607 -20.3605 -20.3596 -20.3596 -20.3578 -20.3578 -20.3575 -20.3575
   -20.3478 -20.3477 -20.3473 -20.3473 -20.3472 -20.3472 -20.3468 -20.3467
    -9.4425  -9.3182  -9.1509  -9.1349  -9.0326  -9.0151  -8.7678  -8.7629
    -8.6325  -8.4319  -8.4168  -8.3874  -8.3658  -8.2689  -8.2587  -8.1902
    -8.1827  -8.1709  -8.1195  -8.0939  -7.9195  -7.8879  -7.8846  -7.8535
     2.1547   2.1609   2.2300   2.2311   2.3149   2.3316   2.4356   2.5019
     2.6917   2.7488   2.7700   2.8451   3.0790   3.1709   3.3071   3.4154
     3.4195   3.4366   3.7284   3.7925   3.8970   3.9219   4.0213   4.0889
     4.0950   4.1463   4.1536   4.3901   4.3982   4.4726   4.5401   4.5629
     4.6178   4.6688   4.7364   4.7635   4.7881   4.8710   4.8824   4.9231
     4.9254   5.0454   5.2842   5.3353   5.4205   5.4252   5.4831   5.4856
[...]
   -19.9000 -19.9000 -19.8998 -19.8998 -19.8962 -19.8962 -19.8951 -19.8951
   -19.8947 -19.8947 -19.8938 -19.8938 -19.8933 -19.8933 -19.8925 -19.8925
   -19.8915 -19.8915 -19.8901 -19.8901 -19.8898 -19.8897 -19.8884 -19.8883
   -19.8777 -19.8777 -19.8773 -19.8773 -19.8772 -19.8772 -19.8769 -19.8769
    -9.0729  -9.0729  -8.8174  -8.8174  -8.6877  -8.6876  -8.3498  -8.3498
    -8.2587  -8.2587  -8.1640  -8.1640  -8.1140  -8.1140  -8.0646  -8.0645
    -7.8003  -7.8003  -7.7450  -7.7450  -7.4818  -7.4818  -7.4499  -7.4499
     2.1323   2.1323   2.1638   2.1638   2.7010   2.7010   2.7378   2.7378
     3.2811   3.2811   3.3785   3.3785   3.4779   3.4779   3.6037   3.6037
     3.6621   3.6621   3.9121   3.9121   4.1208   4.1208   4.1964   4.1965
     4.2551   4.2551   4.3983   4.3983   4.5817   4.5817   4.7507   4.7507
     4.9995   4.9995   5.1790   5.1790   5.3383   5.3383   5.4449   5.4449
     5.4888   5.4888   5.7614   5.7614   6.1239   6.1239   6.2141   6.2142
     6.8745   6.8745   6.9396   6.9396   7.0344   7.0344   7.1354   7.1354
     7.4921   7.4921   7.5742   7.5742   7.6553   7.6553   7.8405   7.8405
     7.9053   7.9053   8.0025   8.0025   8.0274   8.0274   8.2449   8.2449
    11.3129  11.3129  11.8633  11.8633  11.9623  11.9623  12.0769  12.0769
    12.2845  12.2845  12.5254  12.5254  12.8371  12.8371  13.0520  13.0520
    13.2108  13.2108  13.4997  13.4997  13.5218  13.5218  13.8302  13.8302
    15.6113  15.6113  15.9511  15.9511  16.8193  16.8193  16.9191  16.9191
    17.2968  17.2968  17.9507  17.9507  18.2316

          k = 0.3333-0.5000 0.3225 ( 60826 PWs)   bands (ev):

   -65.7720 -65.7720 -65.7717 -65.7717 -65.7715 -65.7715 -65.7712 -65.7712
   -30.1497 -30.1497 -30.1386 -30.1386 -30.1331 -30.1331 -30.1173 -30.1173
   -30.1076 -30.1076 -30.1027 -30.1027 -30.0880 -30.0879 -30.0827 -30.0827
   -30.0764 -30.0764 -30.0621 -30.0621 -30.0585 -30.0585 -30.0450 -30.0450
   -19.9365 -19.9365 -19.9363 -19.9363 -19.9362 -19.9362 -19.9360 -19.9360
   -19.9162 -19.9162 -19.9161 -19.9161 -19.9159 -19.9159 -19.9157 -19.9157
   -19.9107 -19.9107 -19.9104 -19.9104 -19.9104 -19.9104 -19.9101 -19.9101
   -19.8990 -19.8990 -19.8987 -19.8987 -19.8966 -19.8966 -19.8959 -19.8959
   -19.8950 -19.8950 -19.8941 -19.8941 -19.8936 -19.8936 -19.8926 -19.8926
   -19.8915 -19.8915 -19.8901 -19.8901 -19.8898 -19.8898 -19.8884 -19.8884
   -19.8776 -19.8776 -19.8774 -19.8774 -19.8772 -19.8772 -19.8770 -19.8769
    -8.9480  -8.9480  -8.7320  -8.7320  -8.6339  -8.6339  -8.3098  -8.3098
    -8.2511  -8.2511  -8.1572  -8.1572  -8.0973  -8.0973  -8.0481  -8.0481
    -7.8100  -7.8100  -7.7724  -7.7724  -7.7106  -7.7106  -7.6683  -7.6683
     2.6062   2.6062   2.6523   2.6523   2.7962   2.7962   2.8765   2.8765
     3.3797   3.3797   3.4154   3.4154   3.5429   3.5429   3.6242   3.6243
     3.7258   3.7259   3.9869   3.9869   4.1087   4.1087   4.2211   4.2211
     4.2687   4.2687   4.4534   4.4534   4.5085   4.5085   4.6685   4.6686
     4.7476   4.7476   4.9144   4.9144   5.0184   5.0184   5.2411   5.2411
     5.3128   5.3128   5.3913   5.3913   5.4334   5.4334   5.6988   5.6988
     7.1768   7.1768   7.2660   7.2660   7.3380   7.3380   7.4081   7.4081
     7.5152   7.5152   7.5884   7.5884   7.6944   7.6944   7.8436   7.8436
     7.8918   7.8918   7.9709   7.9709   8.0079   8.0080   8.1369   8.1369
    11.6412  11.6412  11.9706  11.9706  12.0750  12.0750  12.2039  12.2039
    12.4053  12.4053  12.6486  12.6486  12.7932  12.7932  12.8394  12.8394
    13.0677  13.0677  13.1982  13.1982  13.2463  13.2463  13.5840  13.5840
    16.2805  16.2805  16.7159  16.7159  16.9031  16.9031  17.0710  17.0710
    17.3730  17.3730  17.8471  17.8471  18.1292

          k = 0.3333-0.5000-0.4837 ( 60864 PWs)   bands (ev):

   -65.7719 -65.7719 -65.7719 -65.7719 -65.7714 -65.7714 -65.7713 -65.7713
   -30.1457 -30.1457 -30.1339 -30.1339 -30.1296 -30.1296 -30.1224 -30.1224
   -30.1070 -30.1070 -30.1032 -30.1032 -30.0885 -30.0885 -30.0831 -30.0831
   -30.0758 -30.0758 -30.0668 -30.0668 -30.0595 -30.0595 -30.0465 -30.0465
   -19.9365 -19.9365 -19.9364 -19.9364 -19.9361 -19.9361 -19.9360 -19.9360
   -19.9162 -19.9162 -19.9161 -19.9161 -19.9159 -19.9158 -19.9158 -19.9158
   -19.9106 -19.9106 -19.9105 -19.9105 -19.9103 -19.9103 -19.9102 -19.9102
   -19.8977 -19.8977 -19.8976 -19.8975 -19.8974 -19.8974 -19.8971 -19.8971
   -19.8952 -19.8952 -19.8942 -19.8942 -19.8937 -19.8937 -19.8926 -19.8926
   -19.8915 -19.8915 -19.8901 -19.8901 -19.8898 -19.8898 -19.8884 -19.8884
   -19.8775 -19.8775 -19.8775 -19.8775 -19.8771 -19.8771 -19.8770 -19.8770
    -8.8302  -8.8302  -8.8050  -8.8050  -8.4425  -8.4425  -8.4036  -8.4036
    -8.1777  -8.1777  -8.1460  -8.1460  -8.0332  -8.0332  -7.9870  -7.9870
    -7.9588  -7.9588  -7.9164  -7.9164  -7.7767  -7.7767  -7.7260  -7.7260
     2.6753   2.6753   2.6822   2.6822   3.3091   3.3091   3.3445   3.3445
     3.4201   3.4201   3.4803   3.4803   3.5645   3.5645   3.6544   3.6544
     3.7689   3.7689   3.8828   3.8828   4.0075   4.0075   4.0465   4.0465
     4.2259   4.2259   4.4030   4.4030   4.5582   4.5582   4.6187   4.6187
     4.7066   4.7066   4.7631   4.7631   4.8636   4.8636   4.9533   4.9534
     5.0533   5.0533   5.2107   5.2107   5.4092   5.4092   5.4485   5.4485
     7.2956   7.2956   7.4012   7.4012   7.4842   7.4842   7.5023   7.5023
     7.5756   7.5756   7.6308   7.6309   7.7708   7.7708   7.8115   7.8116
     7.8887   7.8887   7.9283   7.9283   7.9793   7.9793   8.0271   8.0271
    11.9003  11.9003  12.0126  12.0126  12.2101  12.2101  12.2978  12.2978
    12.5509  12.5509  12.6000  12.6000  12.6893  12.6893  12.7870  12.7870
    12.8798  12.8798  12.9699  12.9699  13.2517  13.2517  13.3560  13.3560
    16.7167  16.7167  16.7572  16.7572  17.3704  17.3704  17.5220  17.5221
    17.6083  17.6084  17.7028  17.7029  17.8510

          k =-0.5000-0.5000 0.0000 ( 60836 PWs)   bands (ev):

   -65.7719 -65.7719 -65.7719 -65.7719 -65.7713 -65.7713 -65.7713 -65.7713
   -30.1553 -30.1553 -30.1546 -30.1546 -30.1197 -30.1197 -30.1189 -30.1189
   -30.1023 -30.1023 -30.0995 -30.0995 -30.0886 -30.0886 -30.0863 -30.0863
   -30.0722 -30.0721 -30.0696 -30.0696 -30.0481 -30.0481 -30.0467 -30.0467
   -19.9364 -19.9364 -19.9364 -19.9364 -19.9361 -19.9361 -19.9361 -19.9361
   -19.9161 -19.9161 -19.9161 -19.9161 -19.9159 -19.9159 -19.9158 -19.9158
   -19.9107 -19.9107 -19.9107 -19.9107 -19.9101 -19.9101 -19.9101 -19.9101
   -19.9004 -19.9003 -19.9003 -19.9003 -19.8956 -19.8956 -19.8950 -19.8950
   -19.8940 -19.8940 -19.8939 -19.8938 -19.8933 -19.8933 -19.8929 -19.8929
   -19.8901 -19.8901 -19.8900 -19.8900 -19.8899 -19.8899 -19.8898 -19.8898
   -19.8775 -19.8775 -19.8775 -19.8775 -19.8771 -19.8771 -19.8770 -19.8770
    -8.9872  -8.9871  -8.9750  -8.9750  -8.4217  -8.4217  -8.3855  -8.3855
    -8.2386  -8.2386  -8.1981  -8.1981  -8.0605  -8.0605  -8.0207  -8.0207
    -8.0139  -8.0139  -7.9754  -7.9754  -7.3685  -7.3685  -7.3674  -7.3674
     1.9199   1.9199   1.9328   1.9328   3.2372   3.2372   3.3081   3.3081
     3.3782   3.3782   3.3904   3.3904   3.5483   3.5483   3.6252   3.6252
     3.6865   3.6865   3.8369   3.8369   3.9964   3.9964   4.0804   4.0804
     4.1383   4.1383   4.1625   4.1625   4.5968   4.5968   4.6420   4.6420
     4.6568   4.6568   4.7121   4.7121   5.4091   5.4091   5.4941   5.4941
     5.7549   5.7550   5.8867   5.8867   6.4384   6.4384   6.4635   6.4635
     6.7269   6.7269   6.7905   6.7905   6.8002   6.8002   6.8162   6.8162
     7.6902   7.6902   7.7068   7.7068   7.7711   7.7711   7.8836   7.8836
     7.9458   7.9458   7.9690   7.9690   8.0179   8.0179   8.1828   8.1828
    11.7599  11.7599  11.7617  11.7617  11.9717  11.9717  11.9988  11.9988
    12.4538  12.4538  12.4935  12.4935  12.6024  12.6024  12.6266  12.6266
    13.5259  13.5259  13.5746  13.5746  13.6453  13.6453  13.7243  13.7243
    15.4939  15.4939  15.5252  15.5252  17.1638  17.1638  17.2836  17.2836
    17.7399  17.7399  17.7590  17.7590  17.9815

          k =-0.5000-0.5000 0.1612 ( 60852 PWs)   bands (ev):

   -65.7719 -65.7719 -65.7719 -65.7719 -65.7713 -65.7713 -65.7713 -65.7713
   -30.1516 -30.1516 -30.1508 -30.1508 -30.1207 -30.1207 -30.1199 -30.1199
   -30.1017 -30.1017 -30.0988 -30.0988 -30.0895 -30.0895 -30.0870 -30.0870
   -30.0717 -30.0717 -30.0691 -30.0691 -30.0512 -30.0512 -30.0497 -30.0497
   -19.9364 -19.9364 -19.9363 -19.9363 -19.9362 -19.9362 -19.9361 -19.9361
   -19.9161 -19.9161 -19.9160 -19.9160 -19.9159 -19.9159 -19.9158 -19.9158
   -19.9107 -19.9107 -19.9107 -19.9107 -19.9101 -19.9101 -19.9101 -19.9101
   -19.9000 -19.9000 -19.8999 -19.8999 -19.8957 -19.8957 -19.8952 -19.8952
   -19.8940 -19.8940 -19.8939 -19.8939 -19.8935 -19.8935 -19.8931 -19.8931
   -19.8901 -19.8901 -19.8900 -19.8900 -19.8900 -19.8900 -19.8898 -19.8898
   -19.8775 -19.8775 -19.8775 -19.8775 -19.8771 -19.8771 -19.8771 -19.8771
    -8.9259  -8.9259  -8.9123  -8.9123  -8.4358  -8.4358  -8.4002  -8.4002
    -8.2207  -8.2207  -8.1813  -8.1813  -8.0581  -8.0581  -8.0223  -8.0223
    -8.0132  -8.0132  -7.9761  -7.9761  -7.4681  -7.4681  -7.4667  -7.4667
     2.1465   2.1465   2.1597   2.1597   3.2493   3.2493   3.3246   3.3247
     3.3842   3.3842   3.4020   3.4020   3.5591   3.5591   3.6627   3.6627
     3.6841   3.6841   3.8348   3.8348   4.0447   4.0447   4.1209   4.1209
     4.1714   4.1714   4.2128   4.2128   4.5882   4.5882   4.6173   4.6173
     4.6620   4.6620   4.7113   4.7113   5.1810   5.1810   5.2416   5.2416
     5.5099   5.5099   5.6154   5.6154   6.1357   6.1357   6.1631   6.1631
     6.9144   6.9144   6.9602   6.9602   7.0387   7.0387   7.0396   7.0396
     7.6925   7.6925   7.7017   7.7017   7.7913   7.7913   7.8840   7.8840
     7.9455   7.9455   7.9569   7.9569   8.0338   8.0338   8.1574   8.1574
    11.8452  11.8452  11.8467  11.8467  12.0347  12.0347  12.0614  12.0614
    12.4552  12.4552  12.4932  12.4932  12.6182  12.6182  12.6357  12.6357
    13.4083  13.4083  13.4418  13.4418  13.5454  13.5454  13.6003  13.6003
    15.8072  15.8072  15.8367  15.8367  17.2181  17.2181  17.3087  17.3087
    17.7182  17.7183  17.7600  17.7601  18.0029

          k =-0.5000-0.5000 0.3225 ( 60824 PWs)   bands (ev):

   -65.7718 -65.7718 -65.7718 -65.7718 -65.7715 -65.7714 -65.7714 -65.7714
   -30.1424 -30.1424 -30.1414 -30.1414 -30.1243 -30.1243 -30.1234 -30.1234
   -30.0998 -30.0998 -30.0967 -30.0967 -30.0923 -30.0923 -30.0893 -30.0893
   -30.0700 -30.0700 -30.0673 -30.0673 -30.0586 -30.0586 -30.0567 -30.0567
   -19.9363 -19.9363 -19.9363 -19.9363 -19.9362 -19.9362 -19.9362 -19.9362
   -19.9161 -19.9161 -19.9160 -19.9160 -19.9160 -19.9159 -19.9159 -19.9159
   -19.9106 -19.9106 -19.9106 -19.9106 -19.9102 -19.9102 -19.9102 -19.9102
   -19.8989 -19.8989 -19.8988 -19.8988 -19.8963 -19.8963 -19.8960 -19.8960
   -19.8940 -19.8940 -19.8939 -19.8939 -19.8938 -19.8938 -19.8936 -19.8936
   -19.8901 -19.8901 -19.8900 -19.8900 -19.8900 -19.8900 -19.8898 -19.8898
   -19.8774 -19.8774 -19.8774 -19.8774 -19.8772 -19.8772 -19.8772 -19.8772
    -8.7687  -8.7687  -8.7492  -8.7492  -8.4840  -8.4840  -8.4522  -8.4522
    -8.1579  -8.1579  -8.1212  -8.1212  -8.0525  -8.0525  -8.0244  -8.0244
    -8.0113  -8.0113  -7.9775  -7.9775  -7.7092  -7.7092  -7.7053  -7.7052
     2.7420   2.7420   2.7520   2.7520   3.2717   3.2717   3.3547   3.3547
     3.4063   3.4063   3.4220   3.4220   3.5873   3.5873   3.6761   3.6761
     3.7513   3.7513   3.8190   3.8190   4.1609   4.1609   4.1645   4.1645
     4.3037   4.3037   4.3611   4.3611   4.5030   4.5030   4.5387   4.5387
     4.6613   4.6614   4.7146   4.7146   4.8200   4.8200   4.8706   4.8706
     5.0864   5.0864   5.1700   5.1700   5.4157   5.4157   5.4526   5.4526
     7.2382   7.2382   7.2956   7.2956   7.3792   7.3792   7.4066   7.4066
     7.6830   7.6830   7.6878   7.6878   7.7921   7.7921   7.8767   7.8767
     7.9301   7.9301   7.9341   7.9341   8.0187   8.0187   8.0901   8.0901
    12.0726  12.0726  12.0825  12.0825  12.1927  12.1927  12.2357  12.2357
    12.4625  12.4625  12.5002  12.5002  12.6759  12.6759  12.6872  12.6872
    13.0746  13.0746  13.1125  13.1125  13.2448  13.2448  13.2877  13.2877
    16.6028  16.6028  16.6493  16.6493  17.3675  17.3675  17.3702  17.3702
    17.6395  17.6396  17.7633  17.7633  18.0599

          k =-0.5000-0.5000-0.4837 ( 60864 PWs)   bands (ev):

   -65.7716 -65.7716 -65.7716 -65.7716 -65.7716 -65.7716 -65.7716 -65.7716
   -30.1331 -30.1331 -30.1307 -30.1307 -30.1307 -30.1307 -30.1306 -30.1305
   -30.0964 -30.0964 -30.0964 -30.0964 -30.0931 -30.0931 -30.0931 -30.0930
   -30.0671 -30.0671 -30.0644 -30.0644 -30.0633 -30.0633 -30.0633 -30.0633
   -19.9363 -19.9363 -19.9363 -19.9363 -19.9362 -19.9362 -19.9362 -19.9362
   -19.9160 -19.9160 -19.9160 -19.9160 -19.9160 -19.9160 -19.9159 -19.9159
   -19.9104 -19.9104 -19.9104 -19.9104 -19.9104 -19.9104 -19.9104 -19.9104
   -19.8975 -19.8975 -19.8975 -19.8975 -19.8975 -19.8975 -19.8972 -19.8972
   -19.8940 -19.8940 -19.8940 -19.8939 -19.8938 -19.8938 -19.8938 -19.8938
   -19.8901 -19.8901 -19.8900 -19.8900 -19.8900 -19.8900 -19.8899 -19.8898
   -19.8773 -19.8773 -19.8773 -19.8773 -19.8773 -19.8773 -19.8773 -19.8773
    -8.6196  -8.6196  -8.5683  -8.5683  -8.5675  -8.5675  -8.5675  -8.5675
    -8.0690  -8.0690  -8.0503  -8.0503  -8.0503  -8.0503  -8.0069  -8.0069
    -7.9762  -7.9762  -7.9527  -7.9527  -7.9527  -7.9527  -7.8968  -7.8968
     3.2432   3.2432   3.2432   3.2432   3.2860   3.2860   3.3498   3.3498
     3.4686   3.4686   3.5867   3.5867   3.6548   3.6548   3.6548   3.6548
     3.6707   3.6707   3.8561   3.8561   3.8561   3.8561   3.9374   3.9374
     4.4939   4.4939   4.5315   4.5315   4.5315   4.5315   4.5944   4.5944
     4.7037   4.7037   4.7392   4.7393   4.7575   4.7575   4.7575   4.7575
     4.8408   4.8408   4.8817   4.8817   4.8817   4.8817   4.9286   4.9286
     7.3885   7.3885   7.5145   7.5145   7.5145   7.5145   7.6294   7.6294
     7.6528   7.6528   7.6528   7.6528   7.7531   7.7531   7.8383   7.8383
     7.9283   7.9283   7.9530   7.9530   7.9530   7.9530   8.0440   8.0441
    12.2759  12.2759  12.2889  12.2889  12.2918  12.2918  12.2918  12.2918
    12.5478  12.5478  12.6595  12.6595  12.6595  12.6595  12.7123  12.7123
    12.8824  12.8824  12.9207  12.9207  12.9207  12.9207  12.9859  12.9859
    17.2790  17.2790  17.4151  17.4152  17.4445  17.4445  17.4445  17.4445
    17.7419  17.7419  17.7419  17.7419  17.8459

     the Fermi energy is     9.4675 ev

!    total energy              =   -6261.10716518 Ry
     Harris-Foulkes estimate   =   -6261.10716518 Ry
     estimated scf accuracy    <          5.9E-12 Ry

     The total energy is the sum of the following terms:

     one-electron contribution =   -4616.08702383 Ry
     hartree contribution      =    2549.95243013 Ry
     xc contribution           =    -965.66582638 Ry
     ewald contribution        =   -3229.30674509 Ry
     smearing contrib. (-TS)   =      -0.00000000 Ry

     convergence has been achieved in  15 iterations

     Forces acting on atoms (cartesian axes, Ry/au):

     atom    1 type  1   force =     0.00642528    0.00459930    0.00702826
     atom    2 type  1   force =    -0.00642528   -0.00459930    0.00702826
     atom    3 type  1   force =     0.00459930   -0.00642528   -0.00702826
     atom    4 type  1   force =    -0.00459930    0.00642528   -0.00702826
     atom    5 type  1   force =    -0.00642528    0.00459930   -0.00702826
     atom    6 type  1   force =     0.00642528   -0.00459930   -0.00702826
     atom    7 type  1   force =    -0.00459930   -0.00642528    0.00702826
     atom    8 type  1   force =     0.00459930    0.00642528    0.00702826
     atom    9 type  2   force =     0.00033462    0.00083854   -0.00136600
     atom   10 type  2   force =    -0.00033462   -0.00083854   -0.00136600
     atom   11 type  2   force =     0.00083854   -0.00033462    0.00136600
     atom   12 type  2   force =    -0.00083854    0.00033462    0.00136600
     atom   13 type  2   force =    -0.00033462    0.00083854    0.00136600
     atom   14 type  2   force =     0.00033462   -0.00083854    0.00136600
     atom   15 type  2   force =    -0.00083854   -0.00033462   -0.00136600
     atom   16 type  2   force =     0.00083854    0.00033462   -0.00136600
     atom   17 type  2   force =    -0.00097767   -0.00218160   -0.00198609
     atom   18 type  2   force =     0.00097767    0.00218160   -0.00198609
     atom   19 type  2   force =    -0.00218160    0.00097767    0.00198609
     atom   20 type  2   force =     0.00218160   -0.00097767    0.00198609
     atom   21 type  2   force =     0.00097767   -0.00218160    0.00198609
     atom   22 type  2   force =    -0.00097767    0.00218160    0.00198609
     atom   23 type  2   force =     0.00218160    0.00097767   -0.00198609
     atom   24 type  2   force =    -0.00218160   -0.00097767   -0.00198609
     atom   25 type  2   force =    -0.00430767    0.00548147    0.00006053
     atom   26 type  2   force =     0.00430767   -0.00548147    0.00006053
     atom   27 type  2   force =     0.00548147    0.00430767   -0.00006053
     atom   28 type  2   force =    -0.00548147   -0.00430767   -0.00006053
     atom   29 type  2   force =     0.00430767    0.00548147   -0.00006053
     atom   30 type  2   force =    -0.00430767   -0.00548147   -0.00006053
     atom   31 type  2   force =    -0.00548147    0.00430767    0.00006053
     atom   32 type  2   force =     0.00548147   -0.00430767    0.00006053

     Total force =     0.000000     Total SCF correction =     0.000000


     Computing stress (Cartesian axis) and pressure

          total   stress  (Ry/bohr**3)                   (kbar)     P=   -0.26
  -0.00000124   0.00000000   0.00000000         -0.18      0.00      0.00
   0.00000000  -0.00000124   0.00000000          0.00     -0.18      0.00
   0.00000000   0.00000000  -0.00000281          0.00      0.00     -0.41


     Writing output data file Landau_31.save
 
     init_run     :     61.80s CPU     63.88s WALL (       2 calls)
     electrons    :   6799.98s CPU   6946.07s WALL (       6 calls)
     update_pot   :     96.02s CPU     96.42s WALL (       4 calls)
     forces       :    146.35s CPU    148.89s WALL (       6 calls)
     stress       :    919.63s CPU    934.43s WALL (       6 calls)

     Called by init_run:
     wfcinit      :     42.79s CPU     44.53s WALL (       2 calls)
     potinit      :      7.88s CPU      7.97s WALL (       2 calls)

     Called by electrons:
     c_bands      :   6053.47s CPU   6187.97s WALL (      91 calls)
     sum_band     :    688.73s CPU    694.84s WALL (      91 calls)
     v_of_rho     :      9.81s CPU     10.01s WALL (      96 calls)
     mix_rho      :     18.36s CPU     22.54s WALL (      91 calls)

     Called by c_bands:
     init_us_2    :     35.35s CPU     38.16s WALL (     184 calls)
     cegterg      :   5099.92s CPU   5230.82s WALL (      91 calls)

     Called by sum_band:

     Called by *egterg:
     h_psi        :   3639.13s CPU   3667.09s WALL (     362 calls)
     g_psi        :      5.64s CPU      5.72s WALL (     269 calls)
     cdiaghg      :     62.48s CPU     62.79s WALL (     355 calls)

     Called by h_psi:
     h_psi:pot    :   3624.65s CPU   3652.11s WALL (     362 calls)
     h_psi:calbec :    584.82s CPU    599.99s WALL (     362 calls)
     vloc_psi     :   2439.80s CPU   2448.49s WALL (     362 calls)
     add_vuspsi   :    600.02s CPU    603.63s WALL (     362 calls)

     General routines
     calbec       :    663.21s CPU    679.54s WALL (     392 calls)
     fft          :      9.45s CPU      9.49s WALL (     432 calls)
     fftw         :   2632.58s CPU   2640.86s WALL (  117365 calls)
 
     Parallel routines
 
     PWSCF        :     2h13m CPU        2h16m WALL

 
   This run was terminated on:  22:46: 9   8Mar2020            

=------------------------------------------------------------------------------=
   JOB DONE.
=------------------------------------------------------------------------------=
