
     Program PWSCF v.6.2 (svn rev. 14038) starts on 28Aug2019 at 21:11:17 

     This program is part of the open-source Quantum ESPRESSO suite
     for quantum simulation of materials; please cite
         "P. Giannozzi et al., J. Phys.:Condens. Matter 21 395502 (2009);
         "P. Giannozzi et al., J. Phys.:Condens. Matter 29 465901 (2017);
          URL http://www.quantum-espresso.org", 
     in publications or presentations arising from this work. More details at
     http://www.quantum-espresso.org/quote

     Parallel version (MPI), running on    64 processors

     MPI processes distributed on    13 nodes
     K-points division:     npool     =      64
     Reading input from scf.in

     Current dimensions of program PWSCF are:
     Max number of different atomic species (ntypx) = 10
     Max number of k-points (npk) =  40000
     Max angular momentum in pseudopotentials (lmaxx) =  3

     Subspace diagonalization in iterative solution of the eigenvalue problem:
     a serial algorithm will be used

 
     G-vector sticks info
     --------------------
     sticks:   dense  smooth     PW     G-vecs:    dense   smooth      PW
     Sum        7597    7597   2023               491425   491425   68105
 


     bravais-lattice index     =            0
     lattice parameter (alat)  =      13.8156  a.u.
     unit-cell volume          =    2766.7240 (a.u.)^3
     number of atoms/cell      =           32
     number of atomic types    =            2
     number of electrons       =       368.84
     number of Kohn-Sham states=          221
     kinetic-energy cutoff     =     120.0000  Ry
     charge density cutoff     =     480.0000  Ry
     convergence threshold     =      1.0E-08
     mixing beta               =       0.7000
     number of iterations used =            8  plain     mixing
     Exchange-correlation      = SLA PW NOGX NOGC ( 1  4  0  0 0 0)

     celldm(1)=  13.815632  celldm(2)=   0.000000  celldm(3)=   0.000000
     celldm(4)=   0.000000  celldm(5)=   0.000000  celldm(6)=   0.000000

     crystal axes: (cart. coord. in units of alat)
               a(1) = (   1.000000   0.000000   0.000000 )  
               a(2) = (   0.000000   1.040733   0.000000 )  
               a(3) = (   0.000000   0.000000   1.008125 )  

     reciprocal axes: (cart. coord. in units 2 pi/alat)
               b(1) = (  1.000000  0.000000  0.000000 )  
               b(2) = (  0.000000  0.960862  0.000000 )  
               b(3) = (  0.000000  0.000000  0.991941 )  


     PseudoPot. # 1 for W  read from file:
     /cluster/scratch/mnoe/QE/pps/W_ONCV_LDA-4.0.upf
     MD5 check sum: ba0307d5d4cd419d6f1d13dc49d7c13a
     Pseudo is Norm-conserving + core correction, Zval = 28.0
     Generated using ONCVPSP code by D. R. Hamann
     Using radial grid of 1380 points,  8 beta functions with: 
                l(1) =   0
                l(2) =   0
                l(3) =   1
                l(4) =   1
                l(5) =   2
                l(6) =   2
                l(7) =   3
                l(8) =   3

     PseudoPot. # 2 for O  read from file:
     /cluster/scratch/mnoe/QE/pps/O_ONCV_LDA-3.0.upf
     MD5 check sum: b55cdb4f45ae2203d24ad12cf8d61a31
     Pseudo is Norm-conserving + core correction, Zval =  6.0
     Generated using ONCVPSP code by D. R. Hamann
     Using radial grid of  926 points,  5 beta functions with: 
                l(1) =   0
                l(2) =   0
                l(3) =   1
                l(4) =   1
                l(5) =   2

     atomic species   valence    mass     pseudopotential
        W             28.00   183.84000     W ( 1.00)
        O              6.00    15.99940     O ( 1.00)

      8 Sym. Ops., with inversion, found ( 6 have fractional translation)



   Cartesian axes

     site n.     atom                  positions (alat units)
         1           W   tau(   1) = (   0.2319600   0.2933409   0.0171784  )
         2           W   tau(   2) = (   0.7680400   0.7473917   0.9909465  )
         3           W   tau(   3) = (   0.2680400   0.2270254   0.5212409  )
         4           W   tau(   4) = (   0.7319600   0.8137072   0.4868840  )
         5           W   tau(   5) = (   0.7680400   0.2933409   0.4868840  )
         6           W   tau(   6) = (   0.2319600   0.7473917   0.5212409  )
         7           W   tau(   7) = (   0.7319600   0.2270254   0.9909465  )
         8           W   tau(   8) = (   0.2680400   0.8137072   0.0171784  )
         9           O   tau(   9) = (   0.2167300   0.0086589   0.0053431  )
        10           O   tau(  10) = (   0.7832700   1.0320738   1.0027819  )
        11           O   tau(  11) = (   0.2832700   0.5117074   0.5094055  )
        12           O   tau(  12) = (   0.7167300   0.5290252   0.4987194  )
        13           O   tau(  13) = (   0.7832700   0.0086589   0.4987194  )
        14           O   tau(  14) = (   0.2167300   1.0320738   0.5094055  )
        15           O   tau(  15) = (   0.7167300   0.5117074   1.0027819  )
        16           O   tau(  16) = (   0.2832700   0.5290252   0.0053431  )
        17           O   tau(  17) = (   0.5049300   0.2246629   0.4531925  )
        18           O   tau(  18) = (   0.4950700   0.8160697   0.5549324  )
        19           O   tau(  19) = (   0.9950700   0.2957034   0.9572550  )
        20           O   tau(  20) = (   0.0049300   0.7450293   0.0508700  )
        21           O   tau(  21) = (   0.4950700   0.2246629   0.0508700  )
        22           O   tau(  22) = (   0.5049300   0.8160697   0.9572550  )
        23           O   tau(  23) = (   0.0049300   0.2957034   0.5549324  )
        24           O   tau(  24) = (   0.9950700   0.7450293   0.4531925  )
        25           O   tau(  25) = (   0.6995400   0.2524297   0.7485529  )
        26           O   tau(  26) = (   0.3004600   0.7883029   0.2595720  )
        27           O   tau(  27) = (   0.8004600   0.2679366   0.2444904  )
        28           O   tau(  28) = (   0.1995400   0.7727960   0.7636346  )
        29           O   tau(  29) = (   0.3004600   0.2524297   0.7636346  )
        30           O   tau(  30) = (   0.6995400   0.7883029   0.2444904  )
        31           O   tau(  31) = (   0.1995400   0.2679366   0.2595720  )
        32           O   tau(  32) = (   0.8004600   0.7727960   0.7485529  )

     number of k points=    64  gaussian smearing, width (Ry)=  0.0007
                       cart. coord. in units 2pi/alat
        k(    1) = (   0.0000000   0.0000000   0.0000000), wk =   0.0092593
        k(    2) = (   0.0000000   0.0000000   0.1653234), wk =   0.0185185
        k(    3) = (   0.0000000   0.0000000   0.3306468), wk =   0.0185185
        k(    4) = (   0.0000000   0.0000000  -0.4959703), wk =   0.0092593
        k(    5) = (   0.0000000   0.1601436   0.0000000), wk =   0.0185185
        k(    6) = (   0.0000000   0.1601436   0.1653234), wk =   0.0370370
        k(    7) = (   0.0000000   0.1601436   0.3306468), wk =   0.0370370
        k(    8) = (   0.0000000   0.1601436  -0.4959703), wk =   0.0185185
        k(    9) = (   0.0000000   0.3202872   0.0000000), wk =   0.0185185
        k(   10) = (   0.0000000   0.3202872   0.1653234), wk =   0.0370370
        k(   11) = (   0.0000000   0.3202872   0.3306468), wk =   0.0370370
        k(   12) = (   0.0000000   0.3202872  -0.4959703), wk =   0.0185185
        k(   13) = (   0.0000000  -0.4804308   0.0000000), wk =   0.0092593
        k(   14) = (   0.0000000  -0.4804308   0.1653234), wk =   0.0185185
        k(   15) = (   0.0000000  -0.4804308   0.3306468), wk =   0.0185185
        k(   16) = (   0.0000000  -0.4804308  -0.4959703), wk =   0.0092593
        k(   17) = (   0.1666667   0.0000000   0.0000000), wk =   0.0185185
        k(   18) = (   0.1666667   0.0000000   0.1653234), wk =   0.0370370
        k(   19) = (   0.1666667   0.0000000   0.3306468), wk =   0.0370370
        k(   20) = (   0.1666667   0.0000000  -0.4959703), wk =   0.0185185
        k(   21) = (   0.1666667   0.1601436   0.0000000), wk =   0.0370370
        k(   22) = (   0.1666667   0.1601436   0.1653234), wk =   0.0740741
        k(   23) = (   0.1666667   0.1601436   0.3306468), wk =   0.0740741
        k(   24) = (   0.1666667   0.1601436  -0.4959703), wk =   0.0370370
        k(   25) = (   0.1666667   0.3202872   0.0000000), wk =   0.0370370
        k(   26) = (   0.1666667   0.3202872   0.1653234), wk =   0.0740741
        k(   27) = (   0.1666667   0.3202872   0.3306468), wk =   0.0740741
        k(   28) = (   0.1666667   0.3202872  -0.4959703), wk =   0.0370370
        k(   29) = (   0.1666667  -0.4804308   0.0000000), wk =   0.0185185
        k(   30) = (   0.1666667  -0.4804308   0.1653234), wk =   0.0370370
        k(   31) = (   0.1666667  -0.4804308   0.3306468), wk =   0.0370370
        k(   32) = (   0.1666667  -0.4804308  -0.4959703), wk =   0.0185185
        k(   33) = (   0.3333333   0.0000000   0.0000000), wk =   0.0185185
        k(   34) = (   0.3333333   0.0000000   0.1653234), wk =   0.0370370
        k(   35) = (   0.3333333   0.0000000   0.3306468), wk =   0.0370370
        k(   36) = (   0.3333333   0.0000000  -0.4959703), wk =   0.0185185
        k(   37) = (   0.3333333   0.1601436   0.0000000), wk =   0.0370370
        k(   38) = (   0.3333333   0.1601436   0.1653234), wk =   0.0740741
        k(   39) = (   0.3333333   0.1601436   0.3306468), wk =   0.0740741
        k(   40) = (   0.3333333   0.1601436  -0.4959703), wk =   0.0370370
        k(   41) = (   0.3333333   0.3202872   0.0000000), wk =   0.0370370
        k(   42) = (   0.3333333   0.3202872   0.1653234), wk =   0.0740741
        k(   43) = (   0.3333333   0.3202872   0.3306468), wk =   0.0740741
        k(   44) = (   0.3333333   0.3202872  -0.4959703), wk =   0.0370370
        k(   45) = (   0.3333333  -0.4804308   0.0000000), wk =   0.0185185
        k(   46) = (   0.3333333  -0.4804308   0.1653234), wk =   0.0370370
        k(   47) = (   0.3333333  -0.4804308   0.3306468), wk =   0.0370370
        k(   48) = (   0.3333333  -0.4804308  -0.4959703), wk =   0.0185185
        k(   49) = (  -0.5000000   0.0000000   0.0000000), wk =   0.0092593
        k(   50) = (  -0.5000000   0.0000000   0.1653234), wk =   0.0185185
        k(   51) = (  -0.5000000   0.0000000   0.3306468), wk =   0.0185185
        k(   52) = (  -0.5000000   0.0000000  -0.4959703), wk =   0.0092593
        k(   53) = (  -0.5000000   0.1601436   0.0000000), wk =   0.0185185
        k(   54) = (  -0.5000000   0.1601436   0.1653234), wk =   0.0370370
        k(   55) = (  -0.5000000   0.1601436   0.3306468), wk =   0.0370370
        k(   56) = (  -0.5000000   0.1601436  -0.4959703), wk =   0.0185185
        k(   57) = (  -0.5000000   0.3202872   0.0000000), wk =   0.0185185
        k(   58) = (  -0.5000000   0.3202872   0.1653234), wk =   0.0370370
        k(   59) = (  -0.5000000   0.3202872   0.3306468), wk =   0.0370370
        k(   60) = (  -0.5000000   0.3202872  -0.4959703), wk =   0.0185185
        k(   61) = (  -0.5000000  -0.4804308   0.0000000), wk =   0.0092593
        k(   62) = (  -0.5000000  -0.4804308   0.1653234), wk =   0.0185185
        k(   63) = (  -0.5000000  -0.4804308   0.3306468), wk =   0.0185185
        k(   64) = (  -0.5000000  -0.4804308  -0.4959703), wk =   0.0092593

     Dense  grid:   491425 G-vectors     FFT dimensions: ( 100, 108, 100)

     Estimated max dynamical RAM per process >       2.68 GB

     Estimated total dynamical RAM >     171.63 GB

     Initial potential from superposition of free atoms

     starting charge  367.99656, renormalised to  368.84000
     Starting wfc are  232 randomized atomic wfcs

     total cpu time spent up to now is       19.1 secs

     Self-consistent Calculation

     iteration #  1     ecut=   120.00 Ry     beta= 0.70
     Davidson diagonalization with overlap
     ethr =  1.00E-02,  avg # of iterations =  5.1

     total cpu time spent up to now is       76.3 secs

     total energy              =   -6253.22331320 Ry
     Harris-Foulkes estimate   =   -6264.05378456 Ry
     estimated scf accuracy    <      13.61916885 Ry

     iteration #  2     ecut=   120.00 Ry     beta= 0.70
     Davidson diagonalization with overlap
     ethr =  3.69E-03,  avg # of iterations =  3.5

     total cpu time spent up to now is      132.4 secs

     total energy              =   -6250.25494534 Ry
     Harris-Foulkes estimate   =   -6269.97952591 Ry
     estimated scf accuracy    <      52.27025270 Ry

     iteration #  3     ecut=   120.00 Ry     beta= 0.70
     Davidson diagonalization with overlap
     ethr =  3.69E-03,  avg # of iterations =  3.3

     total cpu time spent up to now is      185.4 secs

     total energy              =   -6260.45781323 Ry
     Harris-Foulkes estimate   =   -6260.71568343 Ry
     estimated scf accuracy    <       0.85748097 Ry

     iteration #  4     ecut=   120.00 Ry     beta= 0.70
     Davidson diagonalization with overlap
     ethr =  2.32E-04,  avg # of iterations =  2.5

     total cpu time spent up to now is      230.4 secs

     total energy              =   -6260.44724827 Ry
     Harris-Foulkes estimate   =   -6260.51976517 Ry
     estimated scf accuracy    <       0.21290292 Ry

     iteration #  5     ecut=   120.00 Ry     beta= 0.70
     Davidson diagonalization with overlap
     ethr =  5.77E-05,  avg # of iterations =  5.3

     total cpu time spent up to now is      280.4 secs

     total energy              =   -6260.45523850 Ry
     Harris-Foulkes estimate   =   -6260.48220193 Ry
     estimated scf accuracy    <       0.06073003 Ry

     iteration #  6     ecut=   120.00 Ry     beta= 0.70
     Davidson diagonalization with overlap
     ethr =  1.65E-05,  avg # of iterations =  5.3

     total cpu time spent up to now is      330.1 secs

     total energy              =   -6260.46819285 Ry
     Harris-Foulkes estimate   =   -6260.47078811 Ry
     estimated scf accuracy    <       0.00710177 Ry

     iteration #  7     ecut=   120.00 Ry     beta= 0.70
     Davidson diagonalization with overlap
     ethr =  1.93E-06,  avg # of iterations =  4.8

     total cpu time spent up to now is      377.3 secs

     total energy              =   -6260.46896406 Ry
     Harris-Foulkes estimate   =   -6260.46912085 Ry
     estimated scf accuracy    <       0.00029180 Ry

     iteration #  8     ecut=   120.00 Ry     beta= 0.70
     Davidson diagonalization with overlap
     ethr =  7.91E-08,  avg # of iterations =  3.1

     total cpu time spent up to now is      432.7 secs

     total energy              =   -6260.46906579 Ry
     Harris-Foulkes estimate   =   -6260.46908445 Ry
     estimated scf accuracy    <       0.00006995 Ry

     iteration #  9     ecut=   120.00 Ry     beta= 0.70
     Davidson diagonalization with overlap
     ethr =  1.90E-08,  avg # of iterations =  2.0

     total cpu time spent up to now is      477.5 secs

     total energy              =   -6260.46906751 Ry
     Harris-Foulkes estimate   =   -6260.46907463 Ry
     estimated scf accuracy    <       0.00002833 Ry

     iteration # 10     ecut=   120.00 Ry     beta= 0.70
     Davidson diagonalization with overlap
     ethr =  7.68E-09,  avg # of iterations =  1.0

     total cpu time spent up to now is      519.8 secs

     total energy              =   -6260.46906644 Ry
     Harris-Foulkes estimate   =   -6260.46906955 Ry
     estimated scf accuracy    <       0.00000742 Ry

     iteration # 11     ecut=   120.00 Ry     beta= 0.70
     Davidson diagonalization with overlap
     ethr =  2.01E-09,  avg # of iterations =  3.0

     total cpu time spent up to now is      565.2 secs

     total energy              =   -6260.46906798 Ry
     Harris-Foulkes estimate   =   -6260.46906803 Ry
     estimated scf accuracy    <       0.00000009 Ry

     iteration # 12     ecut=   120.00 Ry     beta= 0.70
     Davidson diagonalization with overlap
     ethr =  2.49E-11,  avg # of iterations =  3.0

     total cpu time spent up to now is      623.9 secs

     total energy              =   -6260.46906802 Ry
     Harris-Foulkes estimate   =   -6260.46906803 Ry
     estimated scf accuracy    <       0.00000002 Ry

     iteration # 13     ecut=   120.00 Ry     beta= 0.70
     Davidson diagonalization with overlap
     ethr =  4.49E-12,  avg # of iterations =  2.3

     total cpu time spent up to now is      670.5 secs

     End of self-consistent calculation

          k = 0.0000 0.0000 0.0000 ( 61411 PWs)   bands (ev):

   -65.7169 -65.7163 -65.7160 -65.7158 -65.7154 -65.7153 -65.7149 -65.7144
   -30.1669 -30.1580 -30.1574 -30.1475 -30.1268 -30.1199 -30.1089 -30.1051
   -30.1030 -30.0870 -30.0860 -30.0727 -30.0646 -30.0576 -30.0565 -30.0274
   -30.0100 -30.0090 -29.9991 -29.9914 -29.9771 -29.9688 -29.9683 -29.9599
   -19.8628 -19.8627 -19.8621 -19.8620 -19.8612 -19.8610 -19.8603 -19.8602
   -19.8488 -19.8488 -19.8483 -19.8482 -19.8479 -19.8477 -19.8471 -19.8471
   -19.8427 -19.8421 -19.8412 -19.8409 -19.8409 -19.8397 -19.8397 -19.8387
   -19.8386 -19.8382 -19.8379 -19.8376 -19.8367 -19.8365 -19.8361 -19.8360
   -19.8295 -19.8294 -19.8292 -19.8291 -19.8259 -19.8256 -19.8253 -19.8252
   -19.8146 -19.8144 -19.8138 -19.8136 -19.8095 -19.8094 -19.8087 -19.8086
   -19.8029 -19.8028 -19.8018 -19.8017 -19.7994 -19.7993 -19.7983 -19.7982
    -9.6850  -9.3492  -9.2347  -9.2254  -8.9184  -8.8667  -8.8177  -8.6858
    -8.6586  -8.6041  -8.5556  -8.5468  -7.6755  -7.5971  -7.5563  -7.5282
    -7.5082  -7.5038  -7.5007  -7.4427  -7.4311  -7.3924  -7.3876  -7.3712
     1.6387   1.6577   1.6911   1.6948   1.7236   1.7311   1.7987   1.8899
     1.9058   2.0064   2.0256   2.2270   2.6571   2.7614   2.7786   2.8326
     2.9213   3.0158   4.3545   4.4646   4.6063   4.8661   4.8702   4.9842
     5.0418   5.0603   5.0762   5.0815   5.3445   5.4127   5.4773   5.5942
     5.7463   5.8139   5.8175   5.8292   5.9315   5.9354   5.9611   6.0420
     6.0672   6.0931   6.0950   6.1046   6.2200   6.2277   6.2540   6.3549
     6.4021   6.4908   6.5317   6.7255   6.7566   6.9474   7.0050   7.0452
     7.0809   7.1370   7.1832   7.2303   7.2351   7.2697   7.3868   7.4285
     7.5342   7.5712   7.9308   7.9670   8.1081   8.1780   8.3510   8.3954
    10.0969  10.1391  10.4745  10.4764  10.5502  10.5574  12.3999  12.5630
    12.6256  12.6729  12.8635  12.8718  12.8962  12.9801  13.0014  13.0685
    13.5308  13.5321  13.5813  13.6484  13.8627  13.9293  14.3465  14.3554
    14.9374  14.9662  15.1440  15.2238  15.7161  15.7683  15.9624  16.1972
    16.3551  17.0058  17.1004  17.2964  17.8133

          k = 0.0000 0.0000 0.1653 ( 61407 PWs)   bands (ev):

   -65.7168 -65.7162 -65.7160 -65.7158 -65.7155 -65.7152 -65.7150 -65.7144
   -30.1660 -30.1579 -30.1570 -30.1480 -30.1236 -30.1159 -30.1093 -30.1013
   -30.1008 -30.0870 -30.0821 -30.0736 -30.0626 -30.0598 -30.0546 -30.0262
   -30.0147 -30.0141 -30.0042 -29.9954 -29.9767 -29.9699 -29.9679 -29.9609
   -19.8628 -19.8627 -19.8622 -19.8621 -19.8611 -19.8610 -19.8604 -19.8603
   -19.8487 -19.8487 -19.8482 -19.8481 -19.8479 -19.8478 -19.8472 -19.8471
   -19.8426 -19.8420 -19.8413 -19.8410 -19.8408 -19.8398 -19.8396 -19.8388
   -19.8385 -19.8382 -19.8378 -19.8376 -19.8366 -19.8364 -19.8361 -19.8360
   -19.8295 -19.8294 -19.8292 -19.8291 -19.8258 -19.8257 -19.8253 -19.8252
   -19.8143 -19.8141 -19.8134 -19.8133 -19.8099 -19.8098 -19.8091 -19.8090
   -19.8029 -19.8027 -19.8019 -19.8018 -19.7993 -19.7992 -19.7983 -19.7982
    -9.6398  -9.2937  -9.2527  -9.1703  -8.8827  -8.8349  -8.8268  -8.6474
    -8.6247  -8.5966  -8.5516  -8.5248  -7.7189  -7.6990  -7.5993  -7.5608
    -7.5493  -7.5470  -7.4979  -7.4947  -7.4609  -7.4458  -7.4002  -7.3799
     1.7076   1.7263   1.7546   1.8003   1.8151   1.8263   1.8852   1.9357
     2.0026   2.0270   2.1536   2.3256   2.7476   2.7870   2.8530   2.9132
     2.9182   3.0997   4.3452   4.3545   4.6174   4.6420   4.6933   4.8506
     4.8533   4.8569   5.0765   5.1188   5.1981   5.3618   5.5001   5.5727
     5.6214   5.6986   5.7182   5.8445   5.8631   5.8779   5.9289   5.9382
     5.9671   6.1052   6.1121   6.1580   6.1651   6.2320   6.2693   6.3876
     6.4062   6.6475   6.6946   6.7439   6.8919   6.9543   6.9698   6.9705
     7.0823   7.0825   7.1688   7.2228   7.2482   7.2635   7.3006   7.3311
     7.3698   7.4231   7.9574   7.9762   8.1251   8.1825   8.3006   8.3512
    10.2755  10.3768  10.4716  10.5669  10.7505  10.8128  12.4416  12.5196
    12.6177  12.6872  12.8010  12.9021  12.9129  13.0143  13.0661  13.0735
    13.4113  13.5464  13.5555  13.5996  13.9304  13.9332  14.2288  14.2601
    14.9883  15.0454  15.2197  15.2560  15.7329  15.8178  15.9322  16.3250
    16.4619  17.0325  17.1628  17.2654  17.9006

          k = 0.0000 0.0000 0.3306 ( 61382 PWs)   bands (ev):

   -65.7167 -65.7162 -65.7161 -65.7156 -65.7156 -65.7152 -65.7150 -65.7146
   -30.1638 -30.1593 -30.1545 -30.1495 -30.1175 -30.1107 -30.1062 -30.0927
   -30.0921 -30.0902 -30.0767 -30.0682 -30.0670 -30.0558 -30.0477 -30.0285
   -30.0274 -30.0224 -30.0179 -30.0050 -29.9757 -29.9720 -29.9668 -29.9630
   -19.8627 -19.8625 -19.8623 -19.8622 -19.8610 -19.8609 -19.8605 -19.8604
   -19.8485 -19.8485 -19.8481 -19.8480 -19.8479 -19.8479 -19.8474 -19.8473
   -19.8424 -19.8419 -19.8417 -19.8413 -19.8407 -19.8401 -19.8395 -19.8390
   -19.8384 -19.8382 -19.8378 -19.8376 -19.8365 -19.8363 -19.8362 -19.8360
   -19.8295 -19.8294 -19.8291 -19.8291 -19.8258 -19.8257 -19.8253 -19.8253
   -19.8134 -19.8132 -19.8126 -19.8124 -19.8109 -19.8107 -19.8100 -19.8099
   -19.8027 -19.8025 -19.8021 -19.8020 -19.7991 -19.7990 -19.7985 -19.7984
    -9.5277  -9.3080  -9.1592  -9.0415  -8.9323  -8.8577  -8.5986  -8.5985
    -8.5642  -8.5049  -8.4996  -8.4097  -7.9643  -7.9622  -7.8569  -7.8386
    -7.6032  -7.5731  -7.4789  -7.4734  -7.4717  -7.4542  -7.4213  -7.4040
     1.7106   1.7178   1.8078   1.8234   1.8565   1.8753   1.9651   1.9972
     2.5920   2.6462   2.7277   2.8104   2.8343   2.9114   3.0001   3.1132
     3.1537   3.3296   3.9743   4.1111   4.1257   4.2074   4.3793   4.5357
     4.7396   4.7815   4.8205   4.9095   5.0052   5.1067   5.1846   5.4226
     5.4642   5.4995   5.5357   5.5805   5.7364   5.7885   5.8255   5.9063
     6.0550   6.1157   6.1421   6.1686   6.2672   6.2713   6.4115   6.4166
     6.4871   6.6331   6.6358   6.6911   6.8027   6.8071   6.8316   7.0065
     7.0364   7.1535   7.2056   7.2061   7.2332   7.2694   7.3565   7.4048
     7.4418   7.5764   7.9325   7.9387   8.1363   8.1560   8.1818   8.2091
    10.3914  10.4554  10.9441  11.0799  11.2933  11.4002  12.2156  12.3229
    12.5104  12.5541  12.7228  12.7380  13.0203  13.0206  13.0950  13.2076
    13.2846  13.4188  13.5009  13.6060  13.9380  13.9382  14.0019  14.0279
    15.0865  15.2052  15.3393  15.5380  15.8335  15.8661  16.1853  16.2324
    16.5002  17.2307  17.6439  17.6638  17.7838

          k = 0.0000 0.0000-0.4960 ( 61372 PWs)   bands (ev):

   -65.7164 -65.7164 -65.7159 -65.7159 -65.7154 -65.7154 -65.7148 -65.7148
   -30.1613 -30.1613 -30.1518 -30.1518 -30.1132 -30.1131 -30.0965 -30.0965
   -30.0827 -30.0827 -30.0793 -30.0793 -30.0485 -30.0485 -30.0432 -30.0432
   -30.0346 -30.0346 -30.0152 -30.0152 -29.9741 -29.9741 -29.9651 -29.9651
   -19.8625 -19.8625 -19.8624 -19.8624 -19.8607 -19.8607 -19.8607 -19.8607
   -19.8483 -19.8483 -19.8482 -19.8482 -19.8477 -19.8477 -19.8476 -19.8476
   -19.8421 -19.8421 -19.8416 -19.8416 -19.8404 -19.8404 -19.8393 -19.8393
   -19.8383 -19.8383 -19.8377 -19.8377 -19.8363 -19.8363 -19.8362 -19.8361
   -19.8295 -19.8295 -19.8291 -19.8291 -19.8258 -19.8258 -19.8253 -19.8253
   -19.8122 -19.8122 -19.8120 -19.8120 -19.8113 -19.8113 -19.8112 -19.8112
   -19.8024 -19.8024 -19.8023 -19.8023 -19.7988 -19.7988 -19.7987 -19.7987
    -9.4031  -9.4031  -9.0232  -9.0232  -8.9241  -8.9241  -8.5808  -8.5808
    -8.2816  -8.2815  -8.2645  -8.2645  -8.2376  -8.2375  -8.1682  -8.1682
    -7.5900  -7.5900  -7.4654  -7.4654  -7.4498  -7.4498  -7.4376  -7.4376
     1.7124   1.7124   1.8204   1.8205   1.8657   1.8657   1.9926   1.9926
     2.8402   2.8402   3.2723   3.2723   3.3757   3.3757   3.4050   3.4050
     3.5150   3.5150   3.5770   3.5770   3.8357   3.8357   4.0355   4.0355
     4.1137   4.1137   4.7844   4.7844   4.9411   4.9411   5.2649   5.2649
     5.4891   5.4891   5.6198   5.6198   5.6493   5.6493   5.8655   5.8655
     6.1323   6.1323   6.2335   6.2335   6.2712   6.2712   6.4370   6.4370
     6.4935   6.4935   6.5592   6.5592   6.7656   6.7656   6.8338   6.8338
     6.9925   6.9925   7.2212   7.2212   7.2400   7.2400   7.7233   7.7233
     7.7516   7.7516   7.8406   7.8407   7.9517   7.9517   8.1739   8.1739
    10.4287  10.4287  11.6230  11.6230  11.7574  11.7574  11.9506  11.9506
    12.1044  12.1044  12.6815  12.6815  13.1125  13.1125  13.2368  13.2368
    13.2456  13.2456  13.5992  13.5992  13.7622  13.7622  13.9653  13.9653
    15.1701  15.1701  15.6410  15.6410  15.9600  15.9600  16.0727  16.0727
    16.9263  16.9263  18.1051  18.1051  18.4025

          k = 0.0000 0.1601 0.0000 ( 61380 PWs)   bands (ev):

   -65.7168 -65.7163 -65.7159 -65.7158 -65.7155 -65.7153 -65.7149 -65.7144
   -30.1634 -30.1544 -30.1535 -30.1433 -30.1284 -30.1212 -30.1113 -30.1051
   -30.1035 -30.0899 -30.0865 -30.0720 -30.0673 -30.0590 -30.0552 -30.0302
   -30.0100 -30.0091 -29.9989 -29.9924 -29.9767 -29.9691 -29.9684 -29.9607
   -19.8627 -19.8626 -19.8620 -19.8619 -19.8613 -19.8611 -19.8604 -19.8603
   -19.8488 -19.8488 -19.8483 -19.8482 -19.8478 -19.8477 -19.8471 -19.8471
   -19.8425 -19.8419 -19.8410 -19.8410 -19.8407 -19.8398 -19.8398 -19.8388
   -19.8385 -19.8382 -19.8378 -19.8375 -19.8369 -19.8367 -19.8363 -19.8362
   -19.8295 -19.8294 -19.8292 -19.8291 -19.8258 -19.8256 -19.8254 -19.8253
   -19.8146 -19.8144 -19.8137 -19.8136 -19.8095 -19.8094 -19.8087 -19.8086
   -19.8029 -19.8028 -19.8018 -19.8017 -19.7994 -19.7993 -19.7983 -19.7982
    -9.6516  -9.3631  -9.1897  -9.1849  -8.9266  -8.8773  -8.7418  -8.6829
    -8.6603  -8.5600  -8.5191  -8.5123  -7.7276  -7.6445  -7.6013  -7.5963
    -7.5633  -7.5515  -7.5132  -7.5029  -7.4293  -7.4023  -7.3987  -7.3744
     1.6392   1.6552   1.6919   1.7013   1.7718   1.7987   1.8558   2.0244
     2.0818   2.1219   2.2009   2.3576   2.6674   2.7537   2.8559   2.9177
     2.9939   3.1000   4.2118   4.3309   4.3530   4.5352   4.7958   4.9624
     5.0110   5.0717   5.0996   5.1220   5.2690   5.2850   5.4214   5.5673
     5.6713   5.8076   5.8428   5.8434   5.8545   5.9479   5.9540   5.9947
     6.0059   6.0573   6.0642   6.1437   6.1540   6.2411   6.2699   6.3434
     6.3660   6.4668   6.5805   6.7432   6.8324   6.9389   6.9664   7.0416
     7.1280   7.1512   7.1552   7.1880   7.1933   7.2141   7.3973   7.4274
     7.5506   7.5682   7.9291   7.9640   8.1060   8.1515   8.3106   8.3171
    10.1256  10.1422  10.6633  10.6741  10.6763  10.7022  12.3427  12.5733
    12.6499  12.6763  12.7967  12.8249  12.8621  12.8736  12.9041  13.0006
    13.5087  13.5340  13.5961  13.5991  13.9443  13.9671  14.2473  14.2634
    15.0644  15.1636  15.2984  15.3490  15.7102  15.7602  16.1804  16.3195
    16.3416  16.7603  17.2425  17.4345  17.8414

          k = 0.0000 0.1601 0.1653 ( 61420 PWs)   bands (ev):

   -65.7168 -65.7163 -65.7160 -65.7157 -65.7155 -65.7152 -65.7150 -65.7145
   -30.1624 -30.1541 -30.1532 -30.1438 -30.1255 -30.1174 -30.1118 -30.1013
   -30.1010 -30.0908 -30.0817 -30.0730 -30.0651 -30.0610 -30.0533 -30.0289
   -30.0147 -30.0142 -30.0040 -29.9965 -29.9763 -29.9694 -29.9687 -29.9617
   -19.8627 -19.8625 -19.8620 -19.8619 -19.8612 -19.8611 -19.8605 -19.8604
   -19.8487 -19.8487 -19.8482 -19.8482 -19.8479 -19.8478 -19.8472 -19.8471
   -19.8425 -19.8418 -19.8412 -19.8409 -19.8408 -19.8399 -19.8397 -19.8389
   -19.8385 -19.8382 -19.8378 -19.8375 -19.8368 -19.8366 -19.8363 -19.8362
   -19.8295 -19.8294 -19.8292 -19.8291 -19.8258 -19.8256 -19.8254 -19.8253
   -19.8143 -19.8141 -19.8134 -19.8133 -19.8099 -19.8098 -19.8091 -19.8090
   -19.8029 -19.8027 -19.8019 -19.8018 -19.7993 -19.7992 -19.7983 -19.7982
    -9.6050  -9.3078  -9.2078  -9.1258  -8.8936  -8.8432  -8.7509  -8.6459
    -8.6263  -8.5524  -8.5179  -8.4917  -7.7496  -7.6974  -7.6593  -7.6332
    -7.6047  -7.5623  -7.5476  -7.5184  -7.5000  -7.4976  -7.4106  -7.3831
     1.7499   1.7545   1.7705   1.8003   1.9104   1.9363   1.9363   2.0884
     2.1528   2.1529   2.1966   2.4174   2.7583   2.8447   2.8642   2.9864
     3.0039   3.1826   4.2206   4.2844   4.3842   4.5115   4.6485   4.6748
     4.7956   4.9036   5.0485   5.0539   5.1211   5.2771   5.4259   5.4777
     5.5650   5.6252   5.7760   5.7936   5.8011   5.8784   5.9129   5.9667
     5.9677   6.0536   6.0574   6.1325   6.1565   6.1839   6.2721   6.3495
     6.4533   6.5819   6.7103   6.8099   6.9218   6.9837   6.9871   7.0416
     7.0483   7.1032   7.1445   7.1939   7.2032   7.2179   7.3065   7.3370
     7.4020   7.4206   7.9546   7.9737   8.1150   8.1581   8.2619   8.2811
    10.3570  10.3850  10.6705  10.7032  10.8687  10.9237  12.3963  12.5229
    12.6208  12.7162  12.7549  12.8379  12.9057  12.9123  12.9480  13.0253
    13.3901  13.5068  13.5206  13.6002  13.9443  14.0149  14.1264  14.1727
    15.1209  15.2771  15.3568  15.3906  15.7246  15.8160  16.2888  16.3115
    16.4439  16.9150  17.1588  17.3883  17.8970

          k = 0.0000 0.1601 0.3306 ( 61400 PWs)   bands (ev):

   -65.7166 -65.7162 -65.7161 -65.7157 -65.7156 -65.7151 -65.7151 -65.7146
   -30.1601 -30.1555 -30.1506 -30.1453 -30.1198 -30.1132 -30.1084 -30.0941
   -30.0923 -30.0921 -30.0762 -30.0680 -30.0679 -30.0575 -30.0467 -30.0286
   -30.0277 -30.0248 -30.0175 -30.0066 -29.9753 -29.9716 -29.9676 -29.9638
   -19.8625 -19.8624 -19.8622 -19.8621 -19.8611 -19.8609 -19.8606 -19.8605
   -19.8485 -19.8485 -19.8481 -19.8480 -19.8479 -19.8479 -19.8474 -19.8473
   -19.8422 -19.8417 -19.8415 -19.8411 -19.8407 -19.8401 -19.8396 -19.8391
   -19.8384 -19.8382 -19.8377 -19.8376 -19.8367 -19.8365 -19.8364 -19.8362
   -19.8295 -19.8294 -19.8292 -19.8291 -19.8258 -19.8257 -19.8254 -19.8253
   -19.8134 -19.8132 -19.8126 -19.8124 -19.8109 -19.8108 -19.8100 -19.8099
   -19.8027 -19.8025 -19.8021 -19.8020 -19.7991 -19.7990 -19.7985 -19.7984
    -9.4896  -9.2641  -9.1734  -8.9840  -8.9441  -8.7826  -8.6072  -8.5719
    -8.5299  -8.5067  -8.4838  -8.3898  -7.9706  -7.9600  -7.8703  -7.8361
    -7.6744  -7.6534  -7.5765  -7.5546  -7.4974  -7.4749  -7.4336  -7.4072
     1.7698   1.7803   1.8075   1.8228   2.0507   2.0664   2.1470   2.1904
     2.5913   2.6494   2.7324   2.8478   2.8871   2.9762   3.0126   3.1070
     3.2401   3.4045   3.9863   4.0984   4.1234   4.1611   4.4023   4.4321
     4.5450   4.7335   4.7470   4.8058   4.8424   5.0221   5.0351   5.2876
     5.3116   5.4458   5.4959   5.5172   5.7015   5.7898   5.8387   5.9548
     6.0082   6.0294   6.0866   6.0981   6.1328   6.2831   6.3197   6.3848
     6.5624   6.6230   6.7646   6.7952   6.8022   6.8897   6.9719   6.9904
     7.0388   7.1284   7.1681   7.1884   7.2084   7.2387   7.3814   7.4041
     7.4584   7.5698   7.9307   7.9362   8.1090   8.1349   8.1566   8.1577
    10.5951  10.6604  10.9569  11.0914  11.3791  11.4690  12.2215  12.3198
    12.5278  12.5482  12.7487  12.7761  12.9333  12.9376  13.0225  13.1160
    13.1619  13.3926  13.4605  13.5740  13.8252  13.9510  13.9637  14.0353
    15.2358  15.3179  15.6256  15.6784  15.8482  16.1638  16.1974  16.2530
    16.6268  17.2064  17.3883  17.6954  17.8622

          k = 0.0000 0.1601-0.4960 ( 61444 PWs)   bands (ev):

   -65.7164 -65.7164 -65.7159 -65.7159 -65.7153 -65.7153 -65.7148 -65.7148
   -30.1576 -30.1576 -30.1477 -30.1477 -30.1157 -30.1157 -30.0996 -30.0996
   -30.0825 -30.0825 -30.0795 -30.0795 -30.0485 -30.0485 -30.0441 -30.0441
   -30.0339 -30.0339 -30.0173 -30.0173 -29.9736 -29.9736 -29.9659 -29.9659
   -19.8624 -19.8623 -19.8622 -19.8622 -19.8608 -19.8608 -19.8608 -19.8607
   -19.8483 -19.8483 -19.8482 -19.8482 -19.8477 -19.8477 -19.8476 -19.8476
   -19.8419 -19.8419 -19.8414 -19.8414 -19.8404 -19.8404 -19.8394 -19.8394
   -19.8383 -19.8383 -19.8376 -19.8376 -19.8365 -19.8365 -19.8363 -19.8363
   -19.8295 -19.8295 -19.8292 -19.8291 -19.8257 -19.8257 -19.8253 -19.8253
   -19.8122 -19.8122 -19.8120 -19.8120 -19.8113 -19.8113 -19.8112 -19.8112
   -19.8024 -19.8024 -19.8023 -19.8023 -19.7988 -19.7988 -19.7987 -19.7987
    -9.3614  -9.3614  -9.0363  -9.0363  -8.8536  -8.8536  -8.5466  -8.5466
    -8.2862  -8.2862  -8.2598  -8.2598  -8.2456  -8.2456  -8.1612  -8.1612
    -7.6673  -7.6673  -7.5674  -7.5674  -7.4655  -7.4655  -7.4408  -7.4408
     1.7755   1.7755   1.8199   1.8199   2.0645   2.0645   2.1804   2.1804
     2.9124   2.9124   3.2867   3.2867   3.3970   3.3970   3.4048   3.4048
     3.5117   3.5117   3.6146   3.6146   3.8234   3.8234   4.0487   4.0487
     4.1670   4.1670   4.6705   4.6705   4.6736   4.6736   5.0373   5.0373
     5.3751   5.3751   5.5874   5.5874   5.6474   5.6474   5.8837   5.8837
     6.0360   6.0360   6.0664   6.0664   6.2577   6.2577   6.4349   6.4349
     6.5649   6.5649   6.6180   6.6180   6.8311   6.8311   6.9167   6.9167
     7.0486   7.0486   7.1913   7.1913   7.1916   7.1916   7.7225   7.7225
     7.7498   7.7498   7.8326   7.8326   7.9237   7.9237   8.1491   8.1491
    10.6391  10.6391  11.6316  11.6316  11.7568  11.7568  12.0083  12.0083
    12.1498  12.1498  12.7103  12.7103  12.9677  12.9677  13.1681  13.1681
    13.2321  13.2321  13.4768  13.4768  13.7208  13.7208  13.9802  13.9802
    15.2954  15.2954  15.9737  15.9737  16.0431  16.0431  16.1027  16.1027
    16.9763  16.9763  17.9264  17.9264  18.2813

          k = 0.0000 0.3203 0.0000 ( 61392 PWs)   bands (ev):

   -65.7167 -65.7164 -65.7158 -65.7157 -65.7156 -65.7154 -65.7148 -65.7145
   -30.1543 -30.1451 -30.1433 -30.1338 -30.1317 -30.1256 -30.1187 -30.1051
   -30.1046 -30.1005 -30.0846 -30.0738 -30.0699 -30.0624 -30.0513 -30.0370
   -30.0099 -30.0094 -29.9982 -29.9946 -29.9754 -29.9711 -29.9671 -29.9628
   -19.8624 -19.8622 -19.8616 -19.8615 -19.8615 -19.8614 -19.8607 -19.8606
   -19.8488 -19.8488 -19.8483 -19.8483 -19.8478 -19.8477 -19.8471 -19.8471
   -19.8421 -19.8414 -19.8412 -19.8406 -19.8401 -19.8401 -19.8399 -19.8390
   -19.8383 -19.8380 -19.8377 -19.8375 -19.8374 -19.8371 -19.8369 -19.8367
   -19.8295 -19.8293 -19.8293 -19.8292 -19.8257 -19.8255 -19.8255 -19.8253
   -19.8146 -19.8145 -19.8137 -19.8136 -19.8095 -19.8095 -19.8087 -19.8086
   -19.8029 -19.8028 -19.8018 -19.8018 -19.7994 -19.7993 -19.7982 -19.7982
    -9.5693  -9.4057  -9.0934  -9.0825  -8.9538  -8.9117  -8.6774  -8.6648
    -8.5283  -8.4185  -8.3993  -8.3877  -7.9388  -7.8882  -7.8531  -7.8331
    -7.5947  -7.5892  -7.5149  -7.5080  -7.4245  -7.4093  -7.4031  -7.3829
     1.6409   1.6497   1.6942   1.7014   1.7943   1.7990   1.9824   2.0210
     2.5853   2.6977   2.7090   2.7326   2.8065   2.9203   3.0766   3.1980
     3.2002   3.3718   3.8329   3.8424   4.0262   4.0290   4.3526   4.6786
     4.8362   4.9473   5.0226   5.0523   5.1061   5.1722   5.2979   5.3194
     5.4185   5.4287   5.7215   5.7859   5.8049   5.8565   5.9812   6.0260
     6.0316   6.0604   6.1201   6.1544   6.1974   6.2320   6.2770   6.3624
     6.3939   6.4297   6.6058   6.7246   6.8044   6.8867   7.0230   7.0487
     7.0739   7.1371   7.3285   7.3422   7.3569   7.3742   7.4291   7.4355
     7.5703   7.5740   7.8975   7.9535   8.0235   8.0438   8.0921   8.1387
    10.1472  10.1478  11.0482  11.1364  11.1767  11.1829  12.0765  12.3594
    12.3820  12.4714  12.6798  12.6845  12.7731  12.8276  12.8785  12.9769
    13.5173  13.5669  13.6014  13.6307  13.8352  13.9829  14.0095  14.0575
    15.2825  15.6170  15.6868  15.6915  15.7498  15.9768  16.1144  16.2082
    16.2734  17.2643  17.5237  17.7319  17.8979

          k = 0.0000 0.3203 0.1653 ( 61403 PWs)   bands (ev):

   -65.7167 -65.7164 -65.7159 -65.7156 -65.7156 -65.7153 -65.7149 -65.7146
   -30.1531 -30.1441 -30.1433 -30.1323 -30.1315 -30.1225 -30.1191 -30.1025
   -30.1015 -30.1005 -30.0801 -30.0710 -30.0709 -30.0641 -30.0496 -30.0356
   -30.0148 -30.0145 -30.0032 -29.9990 -29.9750 -29.9707 -29.9681 -29.9637
   -19.8623 -19.8622 -19.8616 -19.8616 -19.8615 -19.8614 -19.8607 -19.8607
   -19.8487 -19.8487 -19.8482 -19.8482 -19.8479 -19.8478 -19.8472 -19.8472
   -19.8420 -19.8413 -19.8411 -19.8407 -19.8403 -19.8401 -19.8400 -19.8391
   -19.8383 -19.8380 -19.8377 -19.8374 -19.8373 -19.8370 -19.8369 -19.8367
   -19.8295 -19.8293 -19.8293 -19.8292 -19.8257 -19.8256 -19.8255 -19.8254
   -19.8143 -19.8141 -19.8134 -19.8133 -19.8099 -19.8098 -19.8090 -19.8090
   -19.8028 -19.8028 -19.8019 -19.8018 -19.7993 -19.7992 -19.7983 -19.7983
    -9.5196  -9.3511  -9.1014  -9.0230  -8.9288  -8.8711  -8.6418  -8.6305
    -8.5372  -8.4133  -8.4016  -8.3740  -7.9411  -7.8951  -7.8539  -7.8392
    -7.6931  -7.6746  -7.5431  -7.5306  -7.5167  -7.5049  -7.4118  -7.3917
     1.7548   1.7574   1.7948   1.8003   1.9381   1.9406   2.1037   2.1500
     2.6037   2.7061   2.7729   2.8048   2.8234   2.9274   3.0832   3.1933
     3.2778   3.4498   3.8427   3.9223   4.0095   4.0354   4.3251   4.6299
     4.6529   4.7064   4.8407   5.0007   5.0544   5.1061   5.1527   5.1786
     5.3616   5.4527   5.5618   5.6187   5.6535   5.7756   5.8393   5.9401
     5.9868   5.9984   6.0495   6.1309   6.1998   6.2015   6.2298   6.3612
     6.5405   6.6108   6.7117   6.7749   6.8421   6.9940   7.0378   7.1298
     7.1359   7.1741   7.2631   7.2845   7.2992   7.3132   7.3508   7.4041
     7.4570   7.4850   7.9194   7.9598   8.0202   8.0533   8.0698   8.1089
    10.4000  10.4040  11.1826  11.1910  11.2053  11.2968  12.1591  12.3660
    12.4312  12.4736  12.6260  12.6331  12.8378  12.8688  12.9117  13.0325
    13.4072  13.4716  13.5252  13.5770  13.8354  13.8779  14.0006  14.0096
    15.3638  15.6530  15.6970  15.8282  15.8419  16.0305  16.1748  16.3650
    16.4505  17.2307  17.5715  17.5823  17.8203

          k = 0.0000 0.3203 0.3306 ( 61420 PWs)   bands (ev):

   -65.7165 -65.7162 -65.7161 -65.7158 -65.7155 -65.7152 -65.7150 -65.7147
   -30.1504 -30.1453 -30.1402 -30.1340 -30.1269 -30.1207 -30.1153 -30.1041
   -30.0923 -30.0921 -30.0748 -30.0700 -30.0670 -30.0614 -30.0435 -30.0311
   -30.0287 -30.0281 -30.0162 -30.0101 -29.9740 -29.9702 -29.9696 -29.9658
   -19.8622 -19.8621 -19.8618 -19.8617 -19.8613 -19.8612 -19.8609 -19.8608
   -19.8485 -19.8485 -19.8481 -19.8480 -19.8479 -19.8479 -19.8474 -19.8474
   -19.8418 -19.8412 -19.8410 -19.8409 -19.8405 -19.8403 -19.8399 -19.8394
   -19.8382 -19.8380 -19.8376 -19.8374 -19.8372 -19.8370 -19.8369 -19.8367
   -19.8294 -19.8294 -19.8292 -19.8292 -19.8257 -19.8256 -19.8255 -19.8254
   -19.8134 -19.8133 -19.8125 -19.8125 -19.8109 -19.8108 -19.8100 -19.8100
   -19.8026 -19.8026 -19.8021 -19.8020 -19.7991 -19.7990 -19.7985 -19.7984
    -9.3961  -9.2174  -9.1592  -8.9818  -8.8433  -8.6377  -8.5718  -8.5341
    -8.5118  -8.4142  -8.3858  -8.3109  -8.0191  -7.9672  -7.9529  -7.8883
    -7.8589  -7.8282  -7.8278  -7.7487  -7.5027  -7.4834  -7.4358  -7.4158
     1.7989   1.8068   1.8141   1.8217   2.4929   2.5655   2.5894   2.6521
     2.7336   2.7643   2.8041   2.9835   3.0673   3.0720   3.1066   3.1858
     3.4936   3.6353   3.8769   3.9425   4.0086   4.0294   4.0897   4.1488
     4.3384   4.5343   4.5468   4.6662   4.6765   4.8455   4.8871   5.0207
     5.0400   5.1965   5.3632   5.4761   5.4890   5.5100   5.5526   5.6645
     5.7113   5.8979   5.9166   6.0955   6.2865   6.3295   6.3326   6.3898
     6.6774   6.7089   6.7770   6.8614   6.8659   6.9718   7.0004   7.0005
     7.2111   7.2115   7.2579   7.3105   7.3313   7.3787   7.4462   7.4494
     7.4811   7.5675   7.9107   7.9132   7.9926   8.0029   8.0160   8.0416
    10.9518  10.9845  11.1792  11.2671  11.6348  11.7258  12.2054  12.3043
    12.4237  12.4435  12.4903  12.6315  12.8311  12.8973  12.9522  12.9847
    13.0537  13.2999  13.3243  13.5435  13.5725  13.8457  13.8776  13.9817
    15.4864  15.6277  15.7899  16.0906  16.2106  16.3215  16.3439  16.9319
    17.0479  17.1139  17.1279  17.7792  17.8794

          k = 0.0000 0.3203-0.4960 ( 61416 PWs)   bands (ev):

   -65.7163 -65.7163 -65.7160 -65.7160 -65.7152 -65.7152 -65.7150 -65.7150
   -30.1475 -30.1475 -30.1367 -30.1367 -30.1232 -30.1232 -30.1086 -30.1086
   -30.0818 -30.0818 -30.0801 -30.0801 -30.0482 -30.0482 -30.0459 -30.0459
   -30.0317 -30.0317 -30.0223 -30.0223 -29.9723 -29.9723 -29.9679 -29.9679
   -19.8620 -19.8620 -19.8619 -19.8619 -19.8611 -19.8611 -19.8610 -19.8610
   -19.8483 -19.8483 -19.8482 -19.8482 -19.8477 -19.8477 -19.8476 -19.8476
   -19.8415 -19.8415 -19.8409 -19.8409 -19.8406 -19.8406 -19.8397 -19.8397
   -19.8381 -19.8381 -19.8375 -19.8375 -19.8371 -19.8371 -19.8368 -19.8368
   -19.8294 -19.8294 -19.8292 -19.8292 -19.8257 -19.8257 -19.8254 -19.8254
   -19.8121 -19.8121 -19.8121 -19.8121 -19.8113 -19.8113 -19.8112 -19.8112
   -19.8024 -19.8024 -19.8023 -19.8023 -19.7988 -19.7988 -19.7987 -19.7987
    -9.2603  -9.2603  -9.0780  -9.0780  -8.6621  -8.6621  -8.4409  -8.4409
    -8.3107  -8.3107  -8.2729  -8.2729  -8.2382  -8.2382  -8.1336  -8.1335
    -7.8894  -7.8894  -7.8154  -7.8154  -7.4693  -7.4692  -7.4494  -7.4494
     1.8097   1.8097   1.8188   1.8188   2.6221   2.6221   2.7745   2.7745
     3.1097   3.1097   3.3279   3.3279   3.3751   3.3752   3.4606   3.4606
     3.4996   3.4996   3.7259   3.7259   3.7701   3.7701   3.9860   3.9860
     4.2554   4.2554   4.3282   4.3282   4.4020   4.4020   4.5528   4.5528
     5.1374   5.1374   5.3229   5.3230   5.4756   5.4756   5.5740   5.5740
     5.7422   5.7422   6.0093   6.0093   6.3600   6.3600   6.4399   6.4399
     6.6858   6.6858   6.7194   6.7194   6.8207   6.8208   6.9460   6.9460
     7.2683   7.2683   7.3282   7.3282   7.3670   7.3670   7.7078   7.7078
     7.7425   7.7425   7.7784   7.7784   7.8398   7.8398   8.0211   8.0211
    11.1574  11.1574  11.6524  11.6524  11.7617  11.7618  12.1808  12.1808
    12.3060  12.3060  12.5652  12.5652  12.7504  12.7504  12.9189  12.9190
    13.2024  13.2024  13.2071  13.2071  13.6883  13.6883  13.8902  13.8902
    15.5741  15.5741  15.9523  15.9523  16.5511  16.5511  16.8433  16.8433
    17.1490  17.1490  17.5567  17.5567  18.0806

          k = 0.0000-0.4804 0.0000 ( 61402 PWs)   bands (ev):

   -65.7166 -65.7166 -65.7157 -65.7157 -65.7155 -65.7155 -65.7147 -65.7146
   -30.1431 -30.1431 -30.1341 -30.1341 -30.1302 -30.1302 -30.1162 -30.1162
   -30.1049 -30.1049 -30.0804 -30.0804 -30.0665 -30.0665 -30.0449 -30.0449
   -30.0097 -30.0097 -29.9968 -29.9967 -29.9734 -29.9734 -29.9651 -29.9651
   -19.8619 -19.8619 -19.8618 -19.8618 -19.8611 -19.8611 -19.8611 -19.8611
   -19.8488 -19.8488 -19.8483 -19.8483 -19.8478 -19.8478 -19.8471 -19.8471
   -19.8416 -19.8416 -19.8407 -19.8407 -19.8402 -19.8401 -19.8395 -19.8395
   -19.8379 -19.8379 -19.8376 -19.8376 -19.8375 -19.8374 -19.8372 -19.8372
   -19.8294 -19.8294 -19.8293 -19.8293 -19.8256 -19.8256 -19.8255 -19.8255
   -19.8145 -19.8145 -19.8137 -19.8137 -19.8095 -19.8095 -19.8087 -19.8087
   -19.8029 -19.8029 -19.8018 -19.8018 -19.7993 -19.7993 -19.7982 -19.7982
    -9.4775  -9.4775  -9.0074  -9.0074  -8.9786  -8.9786  -8.6710  -8.6710
    -8.2317  -8.2317  -8.1768  -8.1768  -8.1663  -8.1663  -8.1518  -8.1518
    -7.5934  -7.5934  -7.5130  -7.5130  -7.4175  -7.4175  -7.3941  -7.3941
     1.6445   1.6445   1.6977   1.6977   1.7987   1.7987   2.0125   2.0126
     2.7033   2.7033   3.2270   3.2270   3.3573   3.3573   3.4257   3.4258
     3.4560   3.4560   3.6219   3.6219   3.8629   3.8629   3.9962   3.9962
     4.0827   4.0827   4.9687   4.9687   5.1165   5.1165   5.4657   5.4657
     5.5273   5.5273   5.6387   5.6387   5.6702   5.6702   6.0332   6.0332
     6.0408   6.0408   6.1257   6.1257   6.2491   6.2491   6.3117   6.3117
     6.4249   6.4249   6.5767   6.5767   6.8973   6.8973   6.9599   6.9599
     7.1037   7.1037   7.4154   7.4154   7.5433   7.5433   7.6774   7.6774
     7.7120   7.7121   7.7686   7.7686   7.8274   7.8274   7.9808   7.9808
    10.1513  10.1513  11.5773  11.5773  11.6693  11.6693  11.8249  11.8249
    11.9266  11.9266  12.6822  12.6822  12.8541  12.8541  12.8931  12.8931
    13.6370  13.6370  13.6379  13.6379  13.7597  13.7597  13.9246  13.9246
    15.5983  15.5984  15.8465  15.8465  15.9518  15.9518  16.0042  16.0042
    16.8404  16.8404  18.2779  18.2782  18.3187

          k = 0.0000-0.4804 0.1653 ( 61400 PWs)   bands (ev):

   -65.7165 -65.7165 -65.7158 -65.7158 -65.7155 -65.7155 -65.7147 -65.7147
   -30.1415 -30.1415 -30.1321 -30.1321 -30.1306 -30.1306 -30.1168 -30.1168
   -30.1015 -30.1015 -30.0766 -30.0766 -30.0679 -30.0679 -30.0433 -30.0433
   -30.0147 -30.0147 -30.0015 -30.0015 -29.9730 -29.9730 -29.9661 -29.9661
   -19.8619 -19.8619 -19.8618 -19.8617 -19.8612 -19.8612 -19.8611 -19.8611
   -19.8487 -19.8487 -19.8482 -19.8482 -19.8478 -19.8478 -19.8472 -19.8472
   -19.8415 -19.8415 -19.8407 -19.8406 -19.8403 -19.8403 -19.8396 -19.8396
   -19.8379 -19.8379 -19.8376 -19.8376 -19.8374 -19.8374 -19.8372 -19.8372
   -19.8294 -19.8294 -19.8293 -19.8293 -19.8256 -19.8256 -19.8255 -19.8255
   -19.8142 -19.8142 -19.8134 -19.8134 -19.8099 -19.8098 -19.8090 -19.8090
   -19.8028 -19.8028 -19.8019 -19.8018 -19.7993 -19.7992 -19.7983 -19.7983
    -9.4246  -9.4246  -8.9968  -8.9968  -8.9281  -8.9281  -8.6361  -8.6361
    -8.2367  -8.2367  -8.1814  -8.1814  -8.1682  -8.1682  -8.1458  -8.1457
    -7.6865  -7.6865  -7.5370  -7.5370  -7.5133  -7.5133  -7.4028  -7.4028
     1.7561   1.7561   1.7997   1.7997   1.9406   1.9406   2.1411   2.1411
     2.7932   2.7932   3.2485   3.2485   3.3553   3.3554   3.4188   3.4189
     3.5196   3.5196   3.6096   3.6096   3.8712   3.8713   4.0151   4.0151
     4.1139   4.1139   4.6548   4.6548   5.0919   5.0919   5.2753   5.2753
     5.3691   5.3691   5.5659   5.5660   5.6303   5.6303   5.7878   5.7878
     5.9942   5.9942   6.0717   6.0717   6.1947   6.1947   6.3288   6.3288
     6.6018   6.6018   6.6805   6.6805   6.8943   6.8943   7.0980   7.0980
     7.1850   7.1850   7.2956   7.2956   7.3665   7.3665   7.6971   7.6971
     7.7047   7.7047   7.7568   7.7568   7.8122   7.8122   7.9973   7.9973
    10.4087  10.4087  11.6844  11.6844  11.7634  11.7634  11.8324  11.8324
    11.9466  11.9466  12.6224  12.6224  12.8844  12.8844  12.9764  12.9765
    13.4893  13.4893  13.6073  13.6073  13.6474  13.6474  13.9395  13.9395
    15.6088  15.6088  15.9456  15.9456  16.0370  16.0370  16.2016  16.2016
    16.8956  16.8956  18.1087  18.1088  18.2611

          k = 0.0000-0.4804 0.3306 ( 61432 PWs)   bands (ev):

   -65.7164 -65.7164 -65.7159 -65.7159 -65.7153 -65.7153 -65.7149 -65.7149
   -30.1380 -30.1380 -30.1324 -30.1323 -30.1269 -30.1269 -30.1188 -30.1188
   -30.0922 -30.0922 -30.0726 -30.0726 -30.0649 -30.0649 -30.0380 -30.0380
   -30.0286 -30.0286 -30.0137 -30.0137 -29.9720 -29.9719 -29.9682 -29.9682
   -19.8617 -19.8617 -19.8616 -19.8616 -19.8613 -19.8613 -19.8613 -19.8612
   -19.8485 -19.8485 -19.8480 -19.8480 -19.8479 -19.8479 -19.8474 -19.8474
   -19.8413 -19.8413 -19.8406 -19.8406 -19.8405 -19.8405 -19.8399 -19.8399
   -19.8378 -19.8378 -19.8376 -19.8376 -19.8373 -19.8373 -19.8372 -19.8372
   -19.8294 -19.8293 -19.8293 -19.8293 -19.8256 -19.8256 -19.8255 -19.8255
   -19.8133 -19.8133 -19.8125 -19.8125 -19.8108 -19.8108 -19.8100 -19.8100
   -19.8026 -19.8026 -19.8021 -19.8020 -19.7990 -19.7990 -19.7985 -19.7985
    -9.2940  -9.2940  -9.0531  -9.0531  -8.7094  -8.7094  -8.5202  -8.5202
    -8.2722  -8.2722  -8.2033  -8.2033  -8.1658  -8.1657  -8.1225  -8.1224
    -7.9362  -7.9362  -7.8112  -7.8112  -7.4944  -7.4944  -7.4270  -7.4270
     1.8053   1.8053   1.8201   1.8201   2.5822   2.5822   2.7152   2.7152
     3.0455   3.0455   3.2878   3.2878   3.3539   3.3539   3.4437   3.4437
     3.5342   3.5342   3.6935   3.6935   3.8329   3.8329   4.0853   4.0854
     4.1132   4.1132   4.1778   4.1779   4.7131   4.7132   4.8754   4.8755
     5.0479   5.0479   5.1507   5.1507   5.5316   5.5316   5.5835   5.5835
     5.6894   5.6894   5.9680   5.9680   6.3361   6.3361   6.3813   6.3813
     6.7080   6.7080   6.8030   6.8030   6.8969   6.8969   7.0208   7.0208
     7.3094   7.3094   7.3693   7.3693   7.4224   7.4224   7.6731   7.6731
     7.7150   7.7150   7.7314   7.7314   7.7879   7.7879   7.9621   7.9621
    11.0002  11.0002  11.7971  11.7971  11.8684  11.8684  12.0428  12.0428
    12.1639  12.1639  12.3266  12.3266  12.9632  12.9632  12.9973  12.9973
    13.1019  13.1019  13.2890  13.2890  13.6671  13.6671  13.8886  13.8886
    15.6730  15.6730  15.9048  15.9048  16.5472  16.5472  16.8799  16.8799
    17.0962  17.0962  17.6300  17.6301  18.1055

          k = 0.0000-0.4804-0.4960 ( 61412 PWs)   bands (ev):

   -65.7162 -65.7161 -65.7161 -65.7161 -65.7151 -65.7151 -65.7151 -65.7151
   -30.1347 -30.1347 -30.1347 -30.1347 -30.1222 -30.1222 -30.1222 -30.1222
   -30.0809 -30.0809 -30.0809 -30.0809 -30.0474 -30.0474 -30.0474 -30.0474
   -30.0277 -30.0277 -30.0277 -30.0277 -29.9703 -29.9703 -29.9703 -29.9703
   -19.8616 -19.8615 -19.8615 -19.8615 -19.8615 -19.8614 -19.8614 -19.8614
   -19.8483 -19.8482 -19.8482 -19.8482 -19.8477 -19.8476 -19.8476 -19.8476
   -19.8410 -19.8410 -19.8410 -19.8410 -19.8402 -19.8402 -19.8402 -19.8402
   -19.8377 -19.8377 -19.8377 -19.8376 -19.8372 -19.8372 -19.8372 -19.8372
   -19.8293 -19.8293 -19.8293 -19.8293 -19.8256 -19.8255 -19.8255 -19.8255
   -19.8121 -19.8121 -19.8121 -19.8121 -19.8113 -19.8113 -19.8113 -19.8113
   -19.8023 -19.8023 -19.8023 -19.8023 -19.7988 -19.7988 -19.7988 -19.7987
    -9.1538  -9.1538  -9.1538  -9.1537  -8.4311  -8.4311  -8.4311  -8.4311
    -8.3201  -8.3201  -8.3201  -8.3201  -8.1315  -8.1315  -8.1315  -8.1315
    -8.0443  -8.0443  -8.0443  -8.0443  -7.4606  -7.4606  -7.4606  -7.4606
     1.8169   1.8169   1.8169   1.8169   3.2173   3.2173   3.2173   3.2173
     3.3228   3.3228   3.3228   3.3228   3.4550   3.4550   3.4550   3.4550
     3.5489   3.5489   3.5489   3.5489   3.8145   3.8145   3.8145   3.8145
     3.9675   3.9675   3.9675   3.9675   4.6036   4.6036   4.6036   4.6036
     4.7233   4.7233   4.7234   4.7234   5.5365   5.5365   5.5365   5.5365
     5.8203   5.8203   5.8203   5.8203   6.4232   6.4232   6.4232   6.4232
     6.7296   6.7296   6.7296   6.7296   6.8569   6.8569   6.8569   6.8569
     7.5065   7.5066   7.5066   7.5066   7.6134   7.6134   7.6135   7.6135
     7.7079   7.7079   7.7079   7.7079   7.8200   7.8200   7.8200   7.8200
    11.6228  11.6228  11.6228  11.6228  11.9306  11.9306  11.9306  11.9306
    12.5368  12.5368  12.5368  12.5368  12.6148  12.6148  12.6148  12.6148
    13.1305  13.1305  13.1305  13.1305  13.7488  13.7488  13.7488  13.7488
    15.7971  15.7971  15.7971  15.7971  17.1531  17.1531  17.1531  17.1531
    17.5703  17.5703  17.5703  17.5704  17.7264

          k = 0.1667 0.0000 0.0000 ( 61396 PWs)   bands (ev):

   -65.7168 -65.7162 -65.7159 -65.7159 -65.7153 -65.7153 -65.7150 -65.7144
   -30.1661 -30.1585 -30.1565 -30.1480 -30.1260 -30.1203 -30.1060 -30.1028
   -30.0992 -30.0879 -30.0866 -30.0674 -30.0660 -30.0552 -30.0519 -30.0251
   -30.0122 -30.0109 -29.9984 -29.9906 -29.9830 -29.9738 -29.9732 -29.9641
   -19.8628 -19.8627 -19.8621 -19.8620 -19.8612 -19.8611 -19.8603 -19.8602
   -19.8488 -19.8487 -19.8483 -19.8483 -19.8478 -19.8477 -19.8471 -19.8471
   -19.8427 -19.8421 -19.8413 -19.8409 -19.8408 -19.8397 -19.8397 -19.8388
   -19.8385 -19.8382 -19.8379 -19.8376 -19.8367 -19.8365 -19.8361 -19.8360
   -19.8293 -19.8291 -19.8289 -19.8288 -19.8261 -19.8259 -19.8256 -19.8255
   -19.8146 -19.8143 -19.8138 -19.8136 -19.8095 -19.8094 -19.8088 -19.8087
   -19.8027 -19.8026 -19.8016 -19.8015 -19.7996 -19.7995 -19.7985 -19.7984
    -9.6409  -9.3006  -9.2454  -9.1826  -8.9347  -8.8295  -8.7842  -8.6598
    -8.6176  -8.5803  -8.5616  -8.5122  -7.7245  -7.6353  -7.5958  -7.5591
    -7.5578  -7.5184  -7.5140  -7.4865  -7.4655  -7.4481  -7.4407  -7.3969
     1.6873   1.6905   1.6933   1.6937   1.7913   1.8254   1.8867   1.9027
     2.0256   2.1370   2.2239   2.3702   2.7324   2.8395   2.8496   2.8685
     3.0031   3.0274   4.2878   4.4331   4.5605   4.6309   4.7197   4.8033
     4.8766   4.9937   5.0167   5.0229   5.0798   5.3841   5.4972   5.6572
     5.7217   5.7541   5.7983   5.7996   5.8381   5.8965   5.9060   5.9669
     6.0539   6.0808   6.1162   6.1447   6.1466   6.1723   6.3367   6.3497
     6.4793   6.5938   6.6720   6.6990   6.9230   6.9404   7.0519   7.0653
     7.0695   7.0722   7.0820   7.1033   7.1490   7.2083   7.3181   7.3328
     7.4383   7.4392   7.9575   7.9795   8.0919   8.1637   8.3619   8.3966
    10.3476  10.3852  10.5193  10.5571  10.6860  10.7919  12.3503  12.5727
    12.6227  12.7056  12.8026  12.8678  12.9117  12.9897  13.0922  13.1366
    13.3942  13.4978  13.5889  13.6532  13.8741  13.9136  14.3440  14.3479
    14.9299  14.9348  15.2244  15.2675  15.7400  15.7536  15.9132  16.1797
    16.6145  16.8800  17.1472  17.4653  17.8977

          k = 0.1667 0.0000 0.1653 ( 61390 PWs)   bands (ev):

   -65.7168 -65.7162 -65.7160 -65.7158 -65.7154 -65.7153 -65.7151 -65.7145
   -30.1651 -30.1575 -30.1570 -30.1485 -30.1226 -30.1162 -30.1065 -30.0988
   -30.0972 -30.0877 -30.0828 -30.0684 -30.0640 -30.0572 -30.0505 -30.0239
   -30.0167 -30.0157 -30.0036 -29.9945 -29.9827 -29.9748 -29.9731 -29.9652
   -19.8628 -19.8627 -19.8621 -19.8621 -19.8611 -19.8610 -19.8603 -19.8603
   -19.8487 -19.8486 -19.8483 -19.8482 -19.8479 -19.8477 -19.8472 -19.8472
   -19.8426 -19.8421 -19.8414 -19.8410 -19.8407 -19.8398 -19.8397 -19.8389
   -19.8385 -19.8382 -19.8379 -19.8376 -19.8366 -19.8364 -19.8361 -19.8360
   -19.8293 -19.8292 -19.8289 -19.8288 -19.8261 -19.8259 -19.8256 -19.8255
   -19.8143 -19.8140 -19.8135 -19.8133 -19.8099 -19.8097 -19.8091 -19.8090
   -19.8026 -19.8025 -19.8017 -19.8016 -19.7996 -19.7994 -19.7986 -19.7985
    -9.5943  -9.2413  -9.2002  -9.1903  -8.8514  -8.8390  -8.8003  -8.6197
    -8.5877  -8.5764  -8.5309  -8.5174  -7.7423  -7.6946  -7.6235  -7.6098
    -7.5972  -7.5741  -7.5501  -7.5318  -7.4939  -7.4693  -7.4627  -7.4509
     1.7701   1.8109   1.8134   1.8812   1.8828   1.8947   1.9394   2.0210
     2.0410   2.1379   2.2695   2.4220   2.8246   2.8760   2.9173   2.9465
     3.0250   3.0938   4.2816   4.3413   4.5739   4.6000   4.7072   4.7112
     4.7567   4.8064   4.8531   4.9219   5.0656   5.2021   5.4655   5.5013
     5.5811   5.6428   5.6534   5.7810   5.8072   5.8182   5.8708   5.9709
     5.9740   5.9962   6.0172   6.0973   6.1277   6.2972   6.3382   6.3591
     6.5858   6.6937   6.8129   6.8585   6.8806   6.9005   6.9621   6.9813
     7.0321   7.0352   7.0677   7.1513   7.1597   7.1671   7.2271   7.2817
     7.4279   7.4728   7.9689   7.9805   8.1099   8.1668   8.3164   8.3524
    10.4854  10.5197  10.7051  10.7674  10.7688  10.8973  12.3891  12.5834
    12.6077  12.6565  12.8273  12.8507  12.9174  13.0525  13.0869  13.1373
    13.3512  13.5097  13.5215  13.6141  13.9091  13.9116  14.2240  14.2543
    14.9587  15.0405  15.2194  15.3864  15.7904  15.8133  15.8932  16.4321
    16.5803  17.0386  17.1505  17.3218  17.9378

          k = 0.1667 0.0000 0.3306 ( 61399 PWs)   bands (ev):

   -65.7166 -65.7161 -65.7160 -65.7157 -65.7156 -65.7152 -65.7151 -65.7147
   -30.1629 -30.1584 -30.1550 -30.1500 -30.1157 -30.1079 -30.1066 -30.0908
   -30.0897 -30.0888 -30.0717 -30.0689 -30.0643 -30.0573 -30.0447 -30.0297
   -30.0290 -30.0203 -30.0169 -30.0038 -29.9816 -29.9774 -29.9720 -29.9677
   -19.8627 -19.8625 -19.8623 -19.8622 -19.8610 -19.8609 -19.8605 -19.8604
   -19.8485 -19.8484 -19.8480 -19.8480 -19.8479 -19.8479 -19.8474 -19.8474
   -19.8424 -19.8419 -19.8417 -19.8413 -19.8406 -19.8400 -19.8396 -19.8391
   -19.8384 -19.8382 -19.8378 -19.8376 -19.8365 -19.8363 -19.8362 -19.8360
   -19.8293 -19.8292 -19.8289 -19.8288 -19.8260 -19.8259 -19.8256 -19.8255
   -19.8134 -19.8132 -19.8126 -19.8125 -19.8108 -19.8107 -19.8101 -19.8100
   -19.8024 -19.8023 -19.8019 -19.8018 -19.7994 -19.7992 -19.7988 -19.7987
    -9.4786  -9.2551  -9.0953  -9.0604  -8.8714  -8.8510  -8.6156  -8.5654
    -8.5317  -8.4892  -8.4797  -8.4178  -7.9561  -7.9518  -7.8723  -7.8513
    -7.6550  -7.6112  -7.5814  -7.5305  -7.5090  -7.4847  -7.4792  -7.4592
     1.7801   1.8003   1.8494   1.8703   2.0358   2.0540   2.1195   2.1405
     2.5979   2.6521   2.7144   2.8242   2.8982   2.9867   3.0964   3.1771
     3.2208   3.3321   3.9931   4.1462   4.1760   4.1808   4.3720   4.5527
     4.5672   4.7357   4.7418   4.7941   4.9828   5.0582   5.0901   5.1618
     5.2424   5.3469   5.4540   5.5171   5.5552   5.6160   5.8680   5.8779
     5.9498   5.9894   6.1142   6.1169   6.1482   6.2083   6.2872   6.3660
     6.6139   6.6511   6.6915   6.7731   6.7982   6.8622   6.9814   7.0162
     7.0380   7.1183   7.1228   7.1561   7.2669   7.2824   7.4364   7.4467
     7.4871   7.5778   7.9443   7.9551   8.1159   8.1639   8.1778   8.2105
    10.6140  10.6362  11.0918  11.2144  11.3038  11.4338  12.2839  12.3766
    12.4795  12.5528  12.6481  12.7418  12.9567  13.0334  13.1470  13.2498
    13.2656  13.4008  13.4425  13.5982  13.8614  13.9337  13.9494  14.0448
    15.0678  15.2032  15.3289  15.6803  15.8017  16.0053  16.1926  16.4891
    16.6345  17.1936  17.5151  17.6680  17.7754

          k = 0.1667 0.0000-0.4960 ( 61362 PWs)   bands (ev):

   -65.7164 -65.7164 -65.7158 -65.7158 -65.7155 -65.7154 -65.7149 -65.7149
   -30.1605 -30.1605 -30.1523 -30.1523 -30.1107 -30.1107 -30.0970 -30.0970
   -30.0785 -30.0785 -30.0766 -30.0766 -30.0493 -30.0493 -30.0447 -30.0447
   -30.0329 -30.0329 -30.0135 -30.0135 -29.9798 -29.9798 -29.9701 -29.9701
   -19.8625 -19.8625 -19.8624 -19.8624 -19.8607 -19.8607 -19.8607 -19.8607
   -19.8482 -19.8482 -19.8482 -19.8482 -19.8477 -19.8477 -19.8476 -19.8476
   -19.8420 -19.8420 -19.8416 -19.8416 -19.8403 -19.8403 -19.8394 -19.8394
   -19.8383 -19.8383 -19.8377 -19.8377 -19.8363 -19.8363 -19.8362 -19.8362
   -19.8292 -19.8292 -19.8289 -19.8288 -19.8260 -19.8260 -19.8255 -19.8255
   -19.8121 -19.8121 -19.8120 -19.8119 -19.8114 -19.8114 -19.8113 -19.8113
   -19.8022 -19.8022 -19.8020 -19.8020 -19.7991 -19.7991 -19.7990 -19.7990
    -9.3510  -9.3510  -8.9472  -8.9472  -8.9401  -8.9401  -8.5490  -8.5490
    -8.2940  -8.2940  -8.2667  -8.2667  -8.2230  -8.2230  -8.1697  -8.1697
    -7.6347  -7.6347  -7.5513  -7.5513  -7.5031  -7.5031  -7.4702  -7.4702
     1.7880   1.7880   1.8596   1.8596   2.0545   2.0545   2.1479   2.1479
     2.9181   2.9181   3.2937   3.2937   3.3558   3.3558   3.4515   3.4515
     3.5144   3.5144   3.6369   3.6369   3.8870   3.8870   4.0572   4.0572
     4.1082   4.1082   4.6239   4.6239   4.8924   4.8924   5.2202   5.2202
     5.2644   5.2644   5.3636   5.3636   5.5010   5.5010   5.9056   5.9056
     5.9654   5.9654   6.0555   6.0555   6.1727   6.1727   6.2978   6.2978
     6.5650   6.5650   6.7286   6.7286   6.7846   6.7846   7.0323   7.0323
     7.1008   7.1008   7.1350   7.1350   7.2079   7.2079   7.7545   7.7545
     7.7843   7.7843   7.8615   7.8615   7.9526   7.9526   8.1577   8.1577
    10.6412  10.6412  11.7081  11.7081  11.8401  11.8401  11.9635  11.9635
    12.1244  12.1244  12.6113  12.6113  13.1304  13.1304  13.1821  13.1821
    13.2930  13.2930  13.5887  13.5887  13.6756  13.6756  13.9521  13.9521
    15.1617  15.1617  15.6185  15.6185  16.0936  16.0936  16.2839  16.2839
    16.9723  16.9723  18.0474  18.0474  18.2024

          k = 0.1667 0.1601 0.0000 ( 61392 PWs)   bands (ev):

   -65.7168 -65.7163 -65.7159 -65.7159 -65.7154 -65.7154 -65.7150 -65.7145
   -30.1626 -30.1549 -30.1526 -30.1438 -30.1276 -30.1215 -30.1086 -30.1028
   -30.0999 -30.0906 -30.0872 -30.0686 -30.0668 -30.0561 -30.0509 -30.0277
   -30.0121 -30.0110 -29.9982 -29.9916 -29.9826 -29.9745 -29.9729 -29.9649
   -19.8627 -19.8626 -19.8620 -19.8619 -19.8612 -19.8611 -19.8604 -19.8603
   -19.8488 -19.8487 -19.8483 -19.8483 -19.8478 -19.8477 -19.8471 -19.8471
   -19.8425 -19.8419 -19.8411 -19.8408 -19.8407 -19.8398 -19.8397 -19.8389
   -19.8385 -19.8381 -19.8379 -19.8376 -19.8369 -19.8367 -19.8363 -19.8362
   -19.8293 -19.8291 -19.8289 -19.8288 -19.8261 -19.8259 -19.8256 -19.8255
   -19.8146 -19.8143 -19.8138 -19.8136 -19.8095 -19.8094 -19.8088 -19.8087
   -19.8027 -19.8026 -19.8016 -19.8015 -19.7996 -19.7995 -19.7985 -19.7984
    -9.6066  -9.3144  -9.2053  -9.1333  -8.9432  -8.7951  -8.7534  -8.6516
    -8.6194  -8.5426  -8.5244  -8.4826  -7.7530  -7.6567  -7.6427  -7.6077
    -7.6006  -7.5672  -7.5599  -7.5352  -7.5004  -7.4816  -7.4391  -7.4083
     1.6878   1.6942   1.7026   1.7035   1.9432   1.9460   2.0218   2.0992
     2.1155   2.2255   2.2468   2.4443   2.7447   2.8417   2.9254   2.9476
     3.0883   3.0976   4.1765   4.2876   4.4030   4.5693   4.5783   4.7129
     4.7942   4.9468   4.9620   5.0258   5.1264   5.2847   5.3611   5.5369
     5.6404   5.7174   5.7443   5.7693   5.8015   5.8655   5.9125   5.9516
     6.0271   6.0718   6.1298   6.1371   6.1442   6.1788   6.2274   6.3361
     6.4784   6.5648   6.6861   6.7311   6.9028   6.9367   7.0137   7.0223
     7.0646   7.0966   7.1538   7.1922   7.1984   7.2033   7.3158   7.3310
     7.4383   7.4509   7.9529   7.9790   8.0889   8.1419   8.3111   8.3185
    10.3756  10.4083  10.6719  10.6762  10.8478  10.9355  12.3068  12.6022
    12.6360  12.6972  12.7830  12.8006  12.8502  12.8955  12.9819  13.0795
    13.3699  13.5088  13.5925  13.5980  13.9060  13.9295  14.2446  14.2570
    15.0891  15.1646  15.3824  15.3997  15.7447  15.7452  16.1266  16.3270
    16.5792  16.8954  17.0266  17.5591  17.9033

          k = 0.1667 0.1601 0.1653 ( 61407 PWs)   bands (ev):

   -65.7167 -65.7162 -65.7159 -65.7158 -65.7154 -65.7153 -65.7150 -65.7145
   -30.1615 -30.1538 -30.1530 -30.1443 -30.1245 -30.1178 -30.1091 -30.0989
   -30.0976 -30.0915 -30.0824 -30.0678 -30.0664 -30.0581 -30.0494 -30.0265
   -30.0167 -30.0158 -30.0033 -29.9956 -29.9822 -29.9745 -29.9739 -29.9661
   -19.8626 -19.8625 -19.8620 -19.8619 -19.8612 -19.8611 -19.8604 -19.8604
   -19.8487 -19.8486 -19.8483 -19.8482 -19.8478 -19.8477 -19.8472 -19.8472
   -19.8424 -19.8419 -19.8412 -19.8408 -19.8408 -19.8398 -19.8398 -19.8390
   -19.8384 -19.8381 -19.8379 -19.8376 -19.8368 -19.8366 -19.8363 -19.8362
   -19.8293 -19.8291 -19.8289 -19.8288 -19.8260 -19.8259 -19.8256 -19.8255
   -19.8142 -19.8140 -19.8135 -19.8133 -19.8098 -19.8098 -19.8091 -19.8090
   -19.8026 -19.8025 -19.8017 -19.8016 -19.7996 -19.7995 -19.7986 -19.7985
    -9.5583  -9.2553  -9.1515  -9.1458  -8.8600  -8.8114  -8.7631  -8.6140
    -8.5893  -8.5377  -8.4982  -8.4872  -7.7673  -7.6942  -7.6637  -7.6422
    -7.6152  -7.6024  -7.5967  -7.5736  -7.5575  -7.5118  -7.5016  -7.4829
     1.8670   1.8879   1.9119   1.9351   1.9469   1.9573   2.0297   2.0958
     2.1525   2.2420   2.2721   2.4844   2.8384   2.9365   2.9573   3.0045
     3.0969   3.1743   4.1834   4.2694   4.4025   4.5347   4.5918   4.6729
     4.7199   4.7586   4.8444   4.8896   4.9864   5.0973   5.3411   5.4143
     5.5266   5.5530   5.6543   5.6708   5.7507   5.7653   5.7873   5.8708
     5.9838   6.0218   6.0565   6.1167   6.1476   6.1713   6.2959   6.3376
     6.6163   6.6303   6.8116   6.8323   6.9062   6.9384   6.9801   6.9954
     7.0528   7.0756   7.1167   7.1410   7.1625   7.2222   7.2607   7.3018
     7.4402   7.4717   7.9647   7.9804   8.0988   8.1457   8.2668   8.2825
    10.5430  10.5884  10.8318  10.8616  10.9024  11.0090  12.3572  12.5878
    12.6394  12.6517  12.7906  12.7989  12.9068  12.9420  12.9815  13.0858
    13.3155  13.4470  13.5230  13.5928  13.8949  13.9533  14.1223  14.1699
    15.1450  15.2888  15.3856  15.4996  15.7922  15.8095  16.2537  16.4312
    16.5464  17.0223  17.1628  17.2891  17.9377

          k = 0.1667 0.1601 0.3306 ( 61384 PWs)   bands (ev):

   -65.7166 -65.7161 -65.7160 -65.7156 -65.7156 -65.7152 -65.7151 -65.7147
   -30.1592 -30.1545 -30.1511 -30.1458 -30.1182 -30.1107 -30.1088 -30.0945
   -30.0896 -30.0889 -30.0713 -30.0687 -30.0650 -30.0589 -30.0437 -30.0297
   -30.0293 -30.0226 -30.0165 -30.0053 -29.9811 -29.9769 -29.9728 -29.9686
   -19.8625 -19.8624 -19.8622 -19.8621 -19.8610 -19.8610 -19.8606 -19.8605
   -19.8485 -19.8484 -19.8480 -19.8480 -19.8479 -19.8479 -19.8474 -19.8474
   -19.8422 -19.8417 -19.8415 -19.8411 -19.8406 -19.8401 -19.8397 -19.8392
   -19.8383 -19.8382 -19.8378 -19.8376 -19.8367 -19.8365 -19.8364 -19.8362
   -19.8292 -19.8292 -19.8289 -19.8289 -19.8260 -19.8259 -19.8256 -19.8255
   -19.8134 -19.8132 -19.8126 -19.8125 -19.8108 -19.8107 -19.8101 -19.8100
   -19.8024 -19.8023 -19.8019 -19.8018 -19.7993 -19.7992 -19.7988 -19.7987
    -9.4386  -9.2077  -9.1096  -9.0034  -8.8631  -8.7964  -8.6246  -8.5369
    -8.5013  -8.4810  -8.4771  -8.3975  -7.9630  -7.9497  -7.8859  -7.8487
    -7.6890  -7.6634  -7.6023  -7.5816  -7.5689  -7.5609  -7.5247  -7.5100
     1.9329   1.9406   2.0231   2.0384   2.0733   2.0876   2.1870   2.2416
     2.5976   2.6555   2.7181   2.8352   2.9752   3.0510   3.1241   3.2150
     3.2572   3.4028   4.0037   4.1113   4.1619   4.1799   4.4105   4.4367
     4.5335   4.6089   4.7024   4.7526   4.8349   4.9675   5.0085   5.0950
     5.1340   5.2338   5.3192   5.4077   5.4749   5.5535   5.7596   5.8315
     5.8929   5.9655   6.0724   6.0957   6.1109   6.1259   6.2169   6.2721
     6.5849   6.7367   6.7855   6.8566   6.8843   6.9148   6.9766   7.0176
     7.0580   7.1092   7.1580   7.2404   7.2720   7.3112   7.4304   7.4594
     7.4942   7.5717   7.9446   7.9520   8.0888   8.1414   8.1450   8.1598
    10.7833  10.8019  11.1201  11.2266  11.3910  11.4959  12.2888  12.3719
    12.4858  12.5714  12.6866  12.7716  12.9003  12.9913  13.0381  13.1251
    13.1547  13.3298  13.4192  13.5782  13.8029  13.8224  13.9599  14.0082
    15.2693  15.3642  15.6410  15.7736  15.9934  16.1491  16.2351  16.4613
    16.7409  17.1777  17.4389  17.5890  17.7541

          k = 0.1667 0.1601-0.4960 ( 61426 PWs)   bands (ev):

   -65.7163 -65.7163 -65.7158 -65.7158 -65.7154 -65.7154 -65.7149 -65.7149
   -30.1566 -30.1566 -30.1482 -30.1482 -30.1134 -30.1134 -30.1001 -30.1001
   -30.0784 -30.0784 -30.0767 -30.0767 -30.0493 -30.0493 -30.0454 -30.0454
   -30.0322 -30.0322 -30.0155 -30.0155 -29.9793 -29.9793 -29.9710 -29.9710
   -19.8623 -19.8623 -19.8623 -19.8622 -19.8608 -19.8608 -19.8608 -19.8608
   -19.8482 -19.8482 -19.8482 -19.8482 -19.8477 -19.8477 -19.8476 -19.8476
   -19.8419 -19.8419 -19.8414 -19.8414 -19.8404 -19.8404 -19.8395 -19.8395
   -19.8382 -19.8382 -19.8377 -19.8377 -19.8365 -19.8365 -19.8363 -19.8363
   -19.8292 -19.8292 -19.8289 -19.8289 -19.8260 -19.8260 -19.8256 -19.8256
   -19.8121 -19.8121 -19.8120 -19.8120 -19.8114 -19.8114 -19.8113 -19.8113
   -19.8022 -19.8022 -19.8020 -19.8020 -19.7991 -19.7991 -19.7990 -19.7990
    -9.3065  -9.3065  -8.9606  -8.9606  -8.8702  -8.8702  -8.5175  -8.5175
    -8.2995  -8.2995  -8.2666  -8.2665  -8.2250  -8.2250  -8.1635  -8.1635
    -7.6798  -7.6798  -7.5842  -7.5842  -7.5566  -7.5566  -7.5364  -7.5364
     1.9365   1.9365   2.0389   2.0389   2.0832   2.0832   2.2371   2.2371
     2.9899   2.9899   3.3102   3.3102   3.3771   3.3771   3.4521   3.4521
     3.5142   3.5142   3.6722   3.6722   3.8750   3.8750   4.0751   4.0751
     4.1565   4.1565   4.5790   4.5790   4.6792   4.6792   5.0156   5.0156
     5.1511   5.1511   5.3147   5.3147   5.4061   5.4061   5.8236   5.8236
     5.9526   5.9526   5.9855   5.9855   6.1068   6.1068   6.1565   6.1565
     6.6796   6.6797   6.8245   6.8245   6.8780   6.8780   7.0104   7.0104
     7.0938   7.0938   7.1605   7.1605   7.2765   7.2765   7.7538   7.7538
     7.7819   7.7820   7.8431   7.8431   7.9235   7.9235   8.1356   8.1356
    10.8194  10.8194  11.7169  11.7169  11.8409  11.8409  12.0217  12.0217
    12.1680  12.1680  12.6441  12.6441  13.0179  13.0179  13.1129  13.1129
    13.2555  13.2555  13.4688  13.4688  13.6162  13.6162  13.9456  13.9456
    15.3391  15.3391  15.9617  15.9617  16.1802  16.1802  16.2838  16.2838
    17.0154  17.0154  17.9132  17.9132  18.1743

          k = 0.1667 0.3203 0.0000 ( 61428 PWs)   bands (ev):

   -65.7167 -65.7164 -65.7158 -65.7158 -65.7155 -65.7155 -65.7149 -65.7146
   -30.1534 -30.1455 -30.1421 -30.1328 -30.1323 -30.1260 -30.1165 -30.1027
   -30.1022 -30.1004 -30.0854 -30.0749 -30.0650 -30.0588 -30.0475 -30.0341
   -30.0120 -30.0113 -29.9975 -29.9938 -29.9812 -29.9766 -29.9717 -29.9671
   -19.8624 -19.8622 -19.8616 -19.8615 -19.8615 -19.8614 -19.8607 -19.8606
   -19.8488 -19.8487 -19.8483 -19.8483 -19.8478 -19.8477 -19.8471 -19.8471
   -19.8421 -19.8414 -19.8411 -19.8406 -19.8403 -19.8401 -19.8399 -19.8391
   -19.8383 -19.8380 -19.8378 -19.8375 -19.8373 -19.8371 -19.8369 -19.8367
   -19.8292 -19.8291 -19.8290 -19.8289 -19.8260 -19.8258 -19.8257 -19.8256
   -19.8145 -19.8144 -19.8138 -19.8137 -19.8095 -19.8094 -19.8087 -19.8087
   -19.8027 -19.8026 -19.8016 -19.8015 -19.7996 -19.7996 -19.7985 -19.7984
    -9.5222  -9.3567  -9.1131  -9.0157  -8.9712  -8.8303  -8.6408  -8.6246
    -8.5395  -8.4097  -8.3979  -8.3763  -7.9394  -7.8845  -7.8627  -7.8429
    -7.6533  -7.6400  -7.5595  -7.5453  -7.5108  -7.4920  -7.4342  -7.4189
     1.6901   1.6955   1.7012   1.7046   2.0124   2.0231   2.1601   2.2153
     2.6058   2.7011   2.7716   2.7934   2.8211   2.9018   3.1747   3.2099
     3.3044   3.3645   3.8317   3.8323   4.0789   4.0802   4.3318   4.5956
     4.6970   4.7829   4.8610   4.9013   5.0142   5.0738   5.1883   5.2663
     5.2967   5.3151   5.6328   5.6577   5.6757   5.8358   5.8555   5.9134
     5.9903   6.0394   6.0608   6.1156   6.1615   6.1658   6.2945   6.3304
     6.4835   6.5582   6.6509   6.7650   6.8469   7.0436   7.0784   7.1037
     7.1521   7.1717   7.2350   7.2869   7.3278   7.3293   7.3869   7.3936
     7.4724   7.5138   7.9141   7.9712   8.0109   8.0457   8.0939   8.1335
    10.4076  10.4239  11.0521  11.1114  11.2986  11.3563  12.0682  12.3632
    12.4638  12.5123  12.6892  12.7314  12.7432  12.7658  12.9197  13.0396
    13.3840  13.5355  13.5939  13.6106  13.7595  13.8767  14.0072  14.0467
    15.4351  15.6148  15.6693  15.7149  15.8743  16.0216  16.0828  16.4040
    16.4698  17.2264  17.4495  17.6112  17.9911

          k = 0.1667 0.3203 0.1653 ( 61429 PWs)   bands (ev):

   -65.7166 -65.7163 -65.7158 -65.7157 -65.7155 -65.7154 -65.7149 -65.7146
   -30.1521 -30.1441 -30.1426 -30.1328 -30.1304 -30.1229 -30.1170 -30.1024
   -30.0989 -30.0982 -30.0809 -30.0720 -30.0661 -30.0606 -30.0459 -30.0328
   -30.0166 -30.0161 -30.0024 -29.9982 -29.9808 -29.9762 -29.9729 -29.9683
   -19.8623 -19.8622 -19.8616 -19.8616 -19.8615 -19.8614 -19.8607 -19.8607
   -19.8487 -19.8487 -19.8482 -19.8482 -19.8478 -19.8477 -19.8472 -19.8472
   -19.8420 -19.8414 -19.8411 -19.8407 -19.8403 -19.8401 -19.8400 -19.8392
   -19.8382 -19.8380 -19.8377 -19.8375 -19.8373 -19.8370 -19.8369 -19.8367
   -19.8292 -19.8291 -19.8290 -19.8289 -19.8260 -19.8258 -19.8257 -19.8256
   -19.8142 -19.8141 -19.8135 -19.8134 -19.8098 -19.8098 -19.8091 -19.8091
   -19.8026 -19.8025 -19.8017 -19.8016 -19.7995 -19.7995 -19.7986 -19.7985
    -9.4701  -9.2985  -9.0434  -9.0343  -8.8888  -8.8475  -8.6071  -8.5943
    -8.5487  -8.4049  -8.3857  -8.3772  -7.9431  -7.8907  -7.8637  -7.8490
    -7.6904  -7.6769  -7.6141  -7.6060  -7.5595  -7.5411  -7.5104  -7.4929
     1.8731   1.8847   1.9396   1.9441   2.0183   2.0295   2.1973   2.2624
     2.6172   2.7030   2.7826   2.8513   2.8943   2.9386   3.1830   3.2814
     3.3073   3.4412   3.8368   3.9095   4.0678   4.0833   4.3102   4.6084
     4.6318   4.6993   4.7652   4.7968   4.9175   5.0101   5.0756   5.1097
     5.1732   5.2727   5.4537   5.4792   5.6481   5.6649   5.6735   5.7421
     5.9283   5.9416   5.9685   6.0053   6.0947   6.0997   6.3194   6.3297
     6.6378   6.6992   6.7944   6.8397   6.9712   7.0317   7.0507   7.0946
     7.1201   7.1639   7.2172   7.2402   7.3204   7.3320   7.3663   7.4091
     7.5003   7.5140   7.9268   7.9724   8.0057   8.0475   8.0699   8.1077
    10.6031  10.6263  11.2078  11.2427  11.3167  11.3904  12.1489  12.4160
    12.4636  12.5084  12.6847  12.7086  12.7244  12.7982  12.9725  13.0791
    13.3219  13.4316  13.5172  13.5545  13.7251  13.8693  13.9040  13.9896
    15.5291  15.7002  15.7912  15.8115  15.8877  16.0741  16.3352  16.4384
    16.5499  17.1958  17.5149  17.6391  17.6951

          k = 0.1667 0.3203 0.3306 ( 61415 PWs)   bands (ev):

   -65.7164 -65.7162 -65.7160 -65.7157 -65.7155 -65.7152 -65.7151 -65.7148
   -30.1493 -30.1441 -30.1407 -30.1345 -30.1254 -30.1186 -30.1157 -30.1047
   -30.0895 -30.0890 -30.0703 -30.0679 -30.0665 -30.0624 -30.0406 -30.0300
   -30.0298 -30.0282 -30.0151 -30.0089 -29.9797 -29.9755 -29.9750 -29.9708
   -19.8622 -19.8621 -19.8618 -19.8617 -19.8613 -19.8612 -19.8609 -19.8608
   -19.8485 -19.8484 -19.8480 -19.8480 -19.8479 -19.8479 -19.8474 -19.8474
   -19.8418 -19.8412 -19.8411 -19.8408 -19.8406 -19.8402 -19.8400 -19.8394
   -19.8381 -19.8380 -19.8376 -19.8375 -19.8372 -19.8370 -19.8369 -19.8367
   -19.8292 -19.8291 -19.8290 -19.8289 -19.8259 -19.8258 -19.8257 -19.8256
   -19.8133 -19.8132 -19.8126 -19.8125 -19.8108 -19.8107 -19.8101 -19.8100
   -19.8024 -19.8023 -19.8019 -19.8018 -19.7993 -19.7993 -19.7988 -19.7987
    -9.3403  -9.1544  -9.0933  -8.9021  -8.8638  -8.6564  -8.5863  -8.5039
    -8.4853  -8.3950  -8.3798  -8.3179  -8.0214  -7.9708  -7.9428  -7.8874
    -7.8596  -7.8414  -7.8290  -7.7554  -7.6057  -7.5876  -7.5404  -7.5221
     2.0150   2.0297   2.0419   2.0530   2.4987   2.5571   2.5948   2.6519
     2.7210   2.7652   2.7891   2.9634   3.1331   3.1751   3.2259   3.2931
     3.5062   3.6298   3.8691   3.9522   4.0482   4.0585   4.1359   4.2161
     4.3330   4.5060   4.5601   4.6515   4.6809   4.7632   4.8868   4.9645
     4.9879   5.1059   5.1464   5.2132   5.2602   5.3488   5.4399   5.4929
     5.6219   5.6461   5.7281   5.9265   6.0191   6.0964   6.2425   6.2632
     6.7480   6.8252   6.8372   6.9486   7.0160   7.0580   7.1381   7.1584
     7.2113   7.2553   7.2916   7.3134   7.3625   7.4331   7.4653   7.4817
     7.5397   7.5629   7.9248   7.9315   7.9708   7.9943   8.0277   8.0387
    11.0738  11.0986  11.3354  11.3919  11.6502  11.7399  12.2792  12.3266
    12.4083  12.5096  12.5790  12.6339  12.7935  12.8581  12.9429  12.9618
    13.0676  13.2351  13.2994  13.5398  13.5524  13.6522  13.8641  13.8859
    15.6537  15.7626  15.9630  16.2025  16.2910  16.3348  16.4242  16.9786
    17.0194  17.1008  17.1857  17.7471  17.8438

          k = 0.1667 0.3203-0.4960 ( 61418 PWs)   bands (ev):

   -65.7162 -65.7162 -65.7159 -65.7159 -65.7153 -65.7153 -65.7150 -65.7150
   -30.1464 -30.1464 -30.1372 -30.1372 -30.1213 -30.1213 -30.1091 -30.1091
   -30.0779 -30.0779 -30.0770 -30.0769 -30.0491 -30.0491 -30.0471 -30.0471
   -30.0299 -30.0299 -30.0204 -30.0204 -29.9779 -29.9779 -29.9732 -29.9732
   -19.8620 -19.8620 -19.8619 -19.8619 -19.8611 -19.8611 -19.8610 -19.8610
   -19.8482 -19.8482 -19.8482 -19.8482 -19.8477 -19.8477 -19.8477 -19.8477
   -19.8414 -19.8414 -19.8409 -19.8409 -19.8406 -19.8406 -19.8397 -19.8397
   -19.8380 -19.8380 -19.8375 -19.8375 -19.8370 -19.8370 -19.8368 -19.8368
   -19.8291 -19.8291 -19.8290 -19.8290 -19.8259 -19.8259 -19.8257 -19.8257
   -19.8121 -19.8121 -19.8120 -19.8120 -19.8114 -19.8114 -19.8113 -19.8113
   -19.8021 -19.8021 -19.8021 -19.8021 -19.7990 -19.7990 -19.7990 -19.7990
    -9.1978  -9.1978  -9.0036  -9.0036  -8.6805  -8.6805  -8.4190  -8.4190
    -8.3288  -8.3288  -8.2703  -8.2703  -8.2202  -8.2202  -8.1377  -8.1377
    -7.8853  -7.8853  -7.8230  -7.8230  -7.5736  -7.5736  -7.5547  -7.5547
     2.0343   2.0343   2.0502   2.0502   2.6280   2.6280   2.7545   2.7545
     3.1777   3.1777   3.3562   3.3562   3.3988   3.3988   3.4740   3.4740
     3.5140   3.5140   3.7717   3.7717   3.8216   3.8217   4.0335   4.0335
     4.2441   4.2441   4.3302   4.3302   4.3925   4.3925   4.5815   4.5815
     5.0305   5.0305   5.1697   5.1697   5.3200   5.3200   5.3704   5.3705
     5.4504   5.4504   5.8067   5.8067   6.0782   6.0782   6.1335   6.1335
     6.8388   6.8388   6.9531   6.9531   7.0054   7.0054   7.0877   7.0877
     7.2724   7.2724   7.3235   7.3235   7.4395   7.4395   7.7368   7.7368
     7.7644   7.7645   7.7842   7.7842   7.8412   7.8412   8.0168   8.0168
    11.2745  11.2745  11.7381  11.7381  11.8522  11.8522  12.2024  12.2024
    12.3210  12.3210  12.6098  12.6099  12.7130  12.7130  12.9220  12.9220
    13.1500  13.1500  13.2098  13.2098  13.5695  13.5695  13.8134  13.8134
    15.7327  15.7327  16.1558  16.1558  16.6195  16.6195  16.8276  16.8276
    17.1664  17.1664  17.5820  17.5820  18.0597

          k = 0.1667-0.4804 0.0000 ( 61442 PWs)   bands (ev):

   -65.7165 -65.7165 -65.7156 -65.7156 -65.7156 -65.7156 -65.7147 -65.7147
   -30.1421 -30.1421 -30.1345 -30.1345 -30.1287 -30.1287 -30.1167 -30.1167
   -30.1023 -30.1023 -30.0813 -30.0813 -30.0622 -30.0622 -30.0415 -30.0415
   -30.0117 -30.0117 -29.9960 -29.9960 -29.9791 -29.9791 -29.9696 -29.9696
   -19.8619 -19.8619 -19.8618 -19.8618 -19.8611 -19.8611 -19.8611 -19.8611
   -19.8488 -19.8487 -19.8483 -19.8483 -19.8477 -19.8477 -19.8471 -19.8471
   -19.8416 -19.8415 -19.8408 -19.8408 -19.8401 -19.8401 -19.8395 -19.8395
   -19.8379 -19.8379 -19.8376 -19.8376 -19.8375 -19.8375 -19.8372 -19.8372
   -19.8291 -19.8291 -19.8290 -19.8290 -19.8259 -19.8259 -19.8257 -19.8257
   -19.8145 -19.8145 -19.8137 -19.8137 -19.8095 -19.8094 -19.8087 -19.8087
   -19.8027 -19.8027 -19.8016 -19.8016 -19.7996 -19.7996 -19.7985 -19.7985
    -9.4288  -9.4288  -9.0261  -9.0261  -8.9013  -8.9013  -8.6320  -8.6320
    -8.2396  -8.2396  -8.1841  -8.1841  -8.1568  -8.1568  -8.1510  -8.1509
    -7.6507  -7.6507  -7.5532  -7.5532  -7.5029  -7.5028  -7.4272  -7.4272
     1.6935   1.6935   1.7016   1.7016   2.0221   2.0221   2.2050   2.2050
     2.7896   2.7896   3.2278   3.2278   3.3485   3.3485   3.4200   3.4200
     3.5346   3.5346   3.6384   3.6384   3.8760   3.8760   4.0202   4.0202
     4.1026   4.1026   4.7235   4.7235   4.9238   4.9238   5.3341   5.3341
     5.4274   5.4274   5.5424   5.5425   5.6041   5.6042   5.8636   5.8636
     6.0143   6.0143   6.0231   6.0231   6.1579   6.1579   6.3280   6.3280
     6.5871   6.5871   6.6366   6.6366   6.9230   6.9230   7.1216   7.1216
     7.1945   7.1945   7.2755   7.2755   7.4092   7.4092   7.6842   7.6842
     7.7235   7.7235   7.7713   7.7713   7.8207   7.8207   7.9985   7.9985
    10.4223  10.4223  11.5792  11.5792  11.6625  11.6625  11.9329  11.9329
    12.0086  12.0086  12.7380  12.7380  12.7450  12.7450  12.9792  12.9792
    13.5100  13.5100  13.6116  13.6116  13.7538  13.7538  13.8637  13.8637
    15.7021  15.7021  15.8699  15.8699  15.9370  15.9370  16.2307  16.2307
    16.8963  16.8963  18.0898  18.0898  18.3245

          k = 0.1667-0.4804 0.1653 ( 61436 PWs)   bands (ev):

   -65.7165 -65.7165 -65.7157 -65.7157 -65.7156 -65.7155 -65.7148 -65.7148
   -30.1404 -30.1404 -30.1324 -30.1323 -30.1292 -30.1291 -30.1174 -30.1173
   -30.0988 -30.0988 -30.0776 -30.0775 -30.0636 -30.0635 -30.0401 -30.0401
   -30.0164 -30.0164 -30.0007 -30.0007 -29.9787 -29.9787 -29.9708 -29.9708
   -19.8619 -19.8619 -19.8618 -19.8618 -19.8612 -19.8612 -19.8611 -19.8611
   -19.8487 -19.8487 -19.8482 -19.8482 -19.8478 -19.8478 -19.8472 -19.8472
   -19.8415 -19.8415 -19.8407 -19.8407 -19.8403 -19.8402 -19.8397 -19.8396
   -19.8378 -19.8378 -19.8376 -19.8376 -19.8374 -19.8374 -19.8372 -19.8372
   -19.8291 -19.8291 -19.8290 -19.8290 -19.8259 -19.8258 -19.8257 -19.8257
   -19.8142 -19.8141 -19.8134 -19.8134 -19.8098 -19.8098 -19.8091 -19.8091
   -19.8026 -19.8026 -19.8016 -19.8016 -19.7995 -19.7995 -19.7985 -19.7985
    -9.3729  -9.3728  -8.9478  -8.9471  -8.9197  -8.9193  -8.6003  -8.6003
    -8.2474  -8.2462  -8.1837  -8.1827  -8.1621  -8.1605  -8.1474  -8.1444
    -7.6881  -7.6864  -7.6120  -7.6117  -7.5524  -7.5523  -7.5031  -7.5028
     1.8745   1.8822   1.9412   1.9453   2.0265   2.0301   2.2481   2.2542
     2.8808   2.8846   3.2478   3.2504   3.3420   3.3905   3.3965   3.4315
     3.5505   3.5840   3.6144   3.6648   3.8875   3.9065   4.0237   4.0343
     4.1264   4.1278   4.6406   4.6934   4.7711   4.8019   5.1723   5.1954
     5.3087   5.3275   5.3604   5.4222   5.4544   5.5079   5.7283   5.7362
     5.7932   5.8220   5.9253   5.9856   6.0574   6.0663   6.3315   6.3333
[...]
    11.7991  11.7991  11.7991  11.7991  12.0626  12.0626  12.0626  12.0626
    12.4629  12.4629  12.4629  12.4629  12.6729  12.6729  12.6729  12.6729
    13.3493  13.3493  13.3493  13.3493  13.5581  13.5581  13.5581  13.5581
    15.7485  15.7485  15.7485  15.7485  17.0281  17.0281  17.0281  17.0281
    17.6348  17.6348  17.6348  17.6348  17.8721

          k =-0.5000 0.3203 0.0000 ( 61460 PWs)   bands (ev):

   -65.7162 -65.7162 -65.7159 -65.7159 -65.7153 -65.7153 -65.7150 -65.7150
   -30.1488 -30.1488 -30.1363 -30.1363 -30.1287 -30.1287 -30.1069 -30.1069
   -30.0917 -30.0917 -30.0847 -30.0847 -30.0334 -30.0334 -30.0326 -30.0326
   -30.0171 -30.0171 -30.0093 -30.0093 -29.9906 -29.9906 -29.9860 -29.9860
   -19.8623 -19.8623 -19.8616 -19.8616 -19.8615 -19.8615 -19.8607 -19.8607
   -19.8485 -19.8485 -19.8485 -19.8485 -19.8475 -19.8475 -19.8474 -19.8474
   -19.8418 -19.8418 -19.8408 -19.8408 -19.8403 -19.8403 -19.8395 -19.8395
   -19.8380 -19.8380 -19.8378 -19.8378 -19.8372 -19.8372 -19.8368 -19.8368
   -19.8275 -19.8275 -19.8274 -19.8274 -19.8273 -19.8273 -19.8272 -19.8272
   -19.8142 -19.8142 -19.8140 -19.8140 -19.8091 -19.8091 -19.8091 -19.8091
   -19.8012 -19.8012 -19.8011 -19.8011 -19.8001 -19.8001 -19.8001 -19.8001
    -9.2745  -9.2745  -9.1138  -9.1138  -8.6752  -8.6752  -8.4539  -8.4539
    -8.2774  -8.2774  -8.2489  -8.2489  -8.1894  -8.1894  -8.1110  -8.1110
    -7.8612  -7.8612  -7.8199  -7.8199  -7.4984  -7.4984  -7.4825  -7.4825
     1.7136   1.7136   1.7234   1.7234   2.6052   2.6052   2.7518   2.7518
     3.2200   3.2201   3.2602   3.2602   3.3269   3.3269   3.4546   3.4546
     3.5580   3.5580   3.7560   3.7560   3.8879   3.8879   3.9686   3.9686
     4.1827   4.1827   4.3043   4.3043   4.5588   4.5588   4.6949   4.6949
     5.1396   5.1396   5.1432   5.1432   5.4393   5.4393   5.6006   5.6006
     5.7460   5.7460   6.0039   6.0039   6.3587   6.3587   6.3851   6.3851
     6.6737   6.6737   6.7921   6.7921   6.8191   6.8191   6.9695   6.9695
     7.2717   7.2717   7.3036   7.3037   7.3471   7.3471   7.6766   7.6766
     7.7143   7.7143   7.8559   7.8559   7.8968   7.8968   8.1003   8.1003
    11.0803  11.0804  11.6795  11.6795  11.7856  11.7856  11.8974  11.8974
    12.3609  12.3609  12.5685  12.5685  12.8729  12.8729  13.0605  13.0605
    13.1669  13.1669  13.3385  13.3385  13.5928  13.5928  13.9938  13.9939
    15.5516  15.5516  15.8536  15.8536  16.5362  16.5362  16.8151  16.8151
    16.9034  16.9034  17.5656  17.5656  18.0582

          k =-0.5000 0.3203 0.1653 ( 61444 PWs)   bands (ev):

   -65.7162 -65.7161 -65.7159 -65.7159 -65.7154 -65.7154 -65.7151 -65.7151
   -30.1474 -30.1474 -30.1369 -30.1369 -30.1258 -30.1258 -30.1075 -30.1075
   -30.0874 -30.0874 -30.0819 -30.0819 -30.0357 -30.0357 -30.0353 -30.0353
   -30.0165 -30.0165 -30.0087 -30.0087 -29.9943 -29.9943 -29.9891 -29.9891
   -19.8623 -19.8623 -19.8616 -19.8616 -19.8614 -19.8614 -19.8607 -19.8607
   -19.8485 -19.8485 -19.8484 -19.8484 -19.8475 -19.8475 -19.8474 -19.8474
   -19.8417 -19.8417 -19.8408 -19.8408 -19.8404 -19.8404 -19.8397 -19.8397
   -19.8380 -19.8380 -19.8377 -19.8377 -19.8372 -19.8372 -19.8368 -19.8368
   -19.8275 -19.8275 -19.8275 -19.8275 -19.8273 -19.8273 -19.8272 -19.8272
   -19.8138 -19.8138 -19.8137 -19.8137 -19.8095 -19.8095 -19.8095 -19.8095
   -19.8011 -19.8011 -19.8011 -19.8011 -19.8002 -19.8002 -19.8001 -19.8001
    -9.2097  -9.2097  -9.0370  -9.0370  -8.6908  -8.6908  -8.4348  -8.4348
    -8.2968  -8.2968  -8.2422  -8.2422  -8.1789  -8.1789  -8.1143  -8.1143
    -7.8588  -7.8588  -7.8250  -7.8250  -7.6065  -7.6065  -7.5891  -7.5891
     1.9528   1.9528   1.9633   1.9633   2.6157   2.6157   2.7388   2.7388
     3.2425   3.2425   3.3166   3.3166   3.3418   3.3418   3.4904   3.4904
     3.5765   3.5765   3.7970   3.7970   3.9182   3.9182   4.0217   4.0217
     4.1737   4.1737   4.3170   4.3170   4.5494   4.5494   4.6753   4.6753
     4.9905   4.9905   5.1144   5.1144   5.3085   5.3085   5.3496   5.3496
     5.4757   5.4757   5.7834   5.7834   6.0416   6.0416   6.0994   6.0994
     6.8481   6.8481   7.0116   7.0116   7.0433   7.0433   7.0875   7.0875
     7.2484   7.2484   7.3346   7.3347   7.3854   7.3854   7.6821   7.6821
     7.7251   7.7251   7.8628   7.8628   7.8967   7.8967   8.0760   8.0760
    11.2293  11.2293  11.7391  11.7391  11.8567  11.8567  11.9491  11.9491
    12.3848  12.3848  12.6063  12.6063  12.8650  12.8650  13.0248  13.0248
    13.1646  13.1646  13.3127  13.3127  13.4626  13.4626  13.8727  13.8727
    15.7426  15.7426  16.0683  16.0683  16.5938  16.5938  16.8127  16.8127
    16.9581  16.9581  17.6043  17.6043  18.0026

          k =-0.5000 0.3203 0.3306 ( 61404 PWs)   bands (ev):

   -65.7160 -65.7160 -65.7157 -65.7157 -65.7155 -65.7155 -65.7153 -65.7153
   -30.1443 -30.1443 -30.1384 -30.1384 -30.1193 -30.1193 -30.1096 -30.1096
   -30.0751 -30.0751 -30.0729 -30.0729 -30.0442 -30.0442 -30.0436 -30.0436
   -30.0145 -30.0145 -30.0068 -30.0068 -30.0025 -30.0025 -29.9960 -29.9960
   -19.8621 -19.8621 -19.8618 -19.8618 -19.8613 -19.8613 -19.8609 -19.8609
   -19.8482 -19.8482 -19.8482 -19.8482 -19.8477 -19.8477 -19.8476 -19.8476
   -19.8415 -19.8415 -19.8409 -19.8409 -19.8404 -19.8404 -19.8399 -19.8399
   -19.8379 -19.8379 -19.8378 -19.8378 -19.8370 -19.8370 -19.8368 -19.8368
   -19.8276 -19.8276 -19.8275 -19.8275 -19.8272 -19.8272 -19.8272 -19.8272
   -19.8130 -19.8130 -19.8129 -19.8129 -19.8105 -19.8105 -19.8104 -19.8104
   -19.8009 -19.8009 -19.8009 -19.8009 -19.8004 -19.8004 -19.8003 -19.8003
    -9.0435  -9.0435  -8.8273  -8.8273  -8.7438  -8.7438  -8.3904  -8.3904
    -8.3425  -8.3425  -8.2195  -8.2195  -8.1570  -8.1570  -8.1192  -8.1192
    -7.8912  -7.8912  -7.8699  -7.8699  -7.8376  -7.8376  -7.7936  -7.7936
     2.4990   2.4990   2.6029   2.6029   2.6509   2.6509   2.7871   2.7871
     3.2877   3.2877   3.3203   3.3203   3.4721   3.4721   3.5516   3.5516
     3.6493   3.6493   3.9260   3.9260   4.0188   4.0189   4.1020   4.1020
     4.1731   4.1731   4.3532   4.3532   4.4598   4.4598   4.5210   4.5210
     4.6708   4.6708   4.8064   4.8064   4.9729   4.9729   5.1294   5.1294
     5.2100   5.2100   5.3151   5.3151   5.3691   5.3691   5.6266   5.6266
     7.0576   7.0577   7.1304   7.1304   7.2358   7.2358   7.2532   7.2532
     7.4123   7.4123   7.4907   7.4907   7.5386   7.5386   7.7007   7.7008
     7.7593   7.7593   7.8694   7.8694   7.8842   7.8842   8.0007   8.0007
    11.6230  11.6230  11.9149  11.9149  12.0187  12.0187  12.1058  12.1058
    12.4719  12.4719  12.6791  12.6791  12.7502  12.7502  12.7995  12.7995
    13.0959  13.0959  13.1953  13.1953  13.2116  13.2116  13.5644  13.5644
    16.2594  16.2594  16.5847  16.5847  16.7907  16.7907  16.9142  16.9142
    17.1469  17.1469  17.6553  17.6553  17.8484

          k =-0.5000 0.3203-0.4960 ( 61424 PWs)   bands (ev):

   -65.7158 -65.7158 -65.7158 -65.7158 -65.7155 -65.7155 -65.7155 -65.7155
   -30.1410 -30.1410 -30.1410 -30.1410 -30.1134 -30.1134 -30.1134 -30.1134
   -30.0597 -30.0597 -30.0597 -30.0597 -30.0571 -30.0571 -30.0571 -30.0571
   -30.0103 -30.0103 -30.0103 -30.0103 -30.0022 -30.0022 -30.0022 -30.0022
   -19.8620 -19.8619 -19.8619 -19.8619 -19.8611 -19.8611 -19.8611 -19.8611
   -19.8480 -19.8480 -19.8480 -19.8480 -19.8479 -19.8479 -19.8479 -19.8479
   -19.8412 -19.8412 -19.8412 -19.8412 -19.8402 -19.8402 -19.8402 -19.8402
   -19.8378 -19.8378 -19.8378 -19.8378 -19.8369 -19.8369 -19.8369 -19.8369
   -19.8276 -19.8275 -19.8275 -19.8275 -19.8272 -19.8272 -19.8272 -19.8272
   -19.8118 -19.8118 -19.8117 -19.8117 -19.8117 -19.8117 -19.8117 -19.8117
   -19.8007 -19.8007 -19.8007 -19.8007 -19.8006 -19.8006 -19.8006 -19.8005
    -8.8618  -8.8618  -8.8618  -8.8618  -8.5572  -8.5572  -8.5572  -8.5572
    -8.2328  -8.2328  -8.2328  -8.2328  -8.1083  -8.1083  -8.1083  -8.1082
    -8.0637  -8.0637  -8.0637  -8.0637  -7.8307  -7.8307  -7.8307  -7.8307
     2.6346   2.6346   2.6346   2.6346   3.2342   3.2342   3.2342   3.2343
     3.3516   3.3516   3.3516   3.3516   3.5143   3.5143   3.5143   3.5143
     3.7093   3.7093   3.7093   3.7094   4.0690   4.0690   4.0690   4.0690
     4.2670   4.2670   4.2670   4.2670   4.3827   4.3827   4.3827   4.3827
     4.6151   4.6151   4.6151   4.6151   4.7530   4.7530   4.7530   4.7531
     5.0223   5.0223   5.0223   5.0223   5.4011   5.4011   5.4011   5.4011
     7.1313   7.1313   7.1313   7.1313   7.2666   7.2666   7.2666   7.2666
     7.5736   7.5736   7.5736   7.5736   7.7126   7.7126   7.7126   7.7126
     7.8019   7.8019   7.8019   7.8019   7.9120   7.9120   7.9120   7.9120
    12.0098  12.0098  12.0098  12.0098  12.2083  12.2083  12.2083  12.2083
    12.4494  12.4494  12.4494  12.4494  12.7238  12.7238  12.7238  12.7238
    13.0202  13.0202  13.0202  13.0202  13.2628  13.2628  13.2628  13.2628
    16.5847  16.5847  16.5847  16.5847  17.1648  17.1648  17.1648  17.1648
    17.5750  17.5750  17.5750  17.5750  17.8899

          k =-0.5000-0.4804 0.0000 ( 61496 PWs)   bands (ev):

   -65.7161 -65.7161 -65.7161 -65.7161 -65.7152 -65.7152 -65.7152 -65.7152
   -30.1378 -30.1378 -30.1374 -30.1374 -30.1218 -30.1218 -30.1208 -30.1208
   -30.0895 -30.0895 -30.0887 -30.0887 -30.0332 -30.0332 -30.0327 -30.0327
   -30.0145 -30.0145 -30.0128 -30.0128 -29.9890 -29.9890 -29.9883 -29.9883
   -19.8619 -19.8619 -19.8619 -19.8619 -19.8611 -19.8611 -19.8611 -19.8611
   -19.8486 -19.8486 -19.8485 -19.8485 -19.8475 -19.8475 -19.8474 -19.8474
   -19.8412 -19.8412 -19.8412 -19.8412 -19.8399 -19.8399 -19.8399 -19.8399
   -19.8377 -19.8377 -19.8377 -19.8376 -19.8374 -19.8374 -19.8374 -19.8374
   -19.8275 -19.8275 -19.8274 -19.8274 -19.8273 -19.8273 -19.8273 -19.8273
   -19.8141 -19.8141 -19.8141 -19.8141 -19.8091 -19.8091 -19.8091 -19.8091
   -19.8012 -19.8012 -19.8012 -19.8012 -19.8001 -19.8001 -19.8001 -19.8001
    -9.1853  -9.1853  -9.1740  -9.1740  -8.4461  -8.4461  -8.4111  -8.4111
    -8.3228  -8.3228  -8.2908  -8.2908  -8.1378  -8.1378  -8.0620  -8.0620
    -8.0606  -8.0606  -7.9960  -7.9960  -7.4913  -7.4913  -7.4907  -7.4907
     1.7145   1.7145   1.7231   1.7231   3.1302   3.1302   3.2217   3.2217
     3.2618   3.2618   3.3021   3.3021   3.4624   3.4624   3.5573   3.5573
     3.5977   3.5977   3.7224   3.7224   3.7407   3.7407   3.8646   3.8646
     3.8935   3.8935   4.2427   4.2427   4.5189   4.5190   4.6153   4.6153
     4.6493   4.6493   4.7272   4.7272   5.4776   5.4776   5.5454   5.5454
     5.7619   5.7619   5.8559   5.8559   6.3765   6.3765   6.3859   6.3859
     6.7817   6.7817   6.7838   6.7838   6.8401   6.8401   6.8877   6.8877
     7.4525   7.4525   7.4814   7.4814   7.5463   7.5463   7.6814   7.6814
     7.7662   7.7662   7.8027   7.8027   7.8172   7.8172   7.8900   7.8900
    11.5918  11.5918  11.6179  11.6179  11.7428  11.7428  11.7776  11.7776
    12.5536  12.5537  12.6393  12.6393  12.6411  12.6411  12.7687  12.7687
    13.2083  13.2083  13.2167  13.2167  13.7032  13.7032  13.7787  13.7787
    15.7527  15.7527  15.7884  15.7884  16.9591  16.9591  17.1547  17.1547
    17.4845  17.4845  17.5766  17.5767  17.6739

          k =-0.5000-0.4804 0.1653 ( 61432 PWs)   bands (ev):

   -65.7160 -65.7160 -65.7160 -65.7160 -65.7152 -65.7152 -65.7152 -65.7152
   -30.1358 -30.1358 -30.1353 -30.1353 -30.1224 -30.1224 -30.1214 -30.1214
   -30.0857 -30.0857 -30.0850 -30.0850 -30.0356 -30.0356 -30.0353 -30.0353
   -30.0139 -30.0139 -30.0122 -30.0122 -29.9925 -29.9925 -29.9917 -29.9917
   -19.8618 -19.8618 -19.8618 -19.8618 -19.8612 -19.8612 -19.8611 -19.8611
   -19.8485 -19.8485 -19.8484 -19.8484 -19.8475 -19.8475 -19.8474 -19.8474
   -19.8411 -19.8411 -19.8411 -19.8411 -19.8400 -19.8400 -19.8400 -19.8400
   -19.8377 -19.8377 -19.8376 -19.8376 -19.8374 -19.8374 -19.8374 -19.8373
   -19.8275 -19.8275 -19.8275 -19.8274 -19.8273 -19.8273 -19.8273 -19.8273
   -19.8138 -19.8138 -19.8138 -19.8138 -19.8095 -19.8095 -19.8095 -19.8095
   -19.8011 -19.8011 -19.8011 -19.8011 -19.8002 -19.8002 -19.8001 -19.8001
    -9.1132  -9.1132  -9.1006  -9.1006  -8.4665  -8.4664  -8.4309  -8.4309
    -8.3077  -8.3077  -8.2737  -8.2737  -8.1345  -8.1345  -8.0736  -8.0736
    -8.0488  -8.0488  -7.9990  -7.9990  -7.5992  -7.5991  -7.5989  -7.5989
     1.9548   1.9548   1.9655   1.9655   3.1488   3.1488   3.2458   3.2458
     3.2628   3.2628   3.3313   3.3313   3.4275   3.4275   3.5640   3.5641
     3.6467   3.6467   3.7596   3.7597   3.8006   3.8006   3.8691   3.8691
     3.9566   3.9566   4.2610   4.2610   4.5256   4.5256   4.6021   4.6021
     4.6455   4.6456   4.7109   4.7109   5.1841   5.1841   5.3408   5.3408
     5.4641   5.4641   5.5973   5.5973   6.0411   6.0411   6.0723   6.0723
     6.9170   6.9170   7.0058   7.0058   7.0750   7.0750   7.1189   7.1189
     7.4431   7.4431   7.4881   7.4881   7.5827   7.5827   7.6685   7.6685
     7.7484   7.7484   7.7839   7.7839   7.8490   7.8490   7.8902   7.8902
    11.6736  11.6736  11.7249  11.7249  11.8031  11.8031  11.8853  11.8853
    12.5682  12.5682  12.6300  12.6300  12.6489  12.6489  12.7857  12.7857
    13.1416  13.1416  13.2045  13.2045  13.5718  13.5718  13.6512  13.6512
    15.9722  15.9722  16.0117  16.0117  17.0138  17.0138  17.2105  17.2105
    17.4831  17.4832  17.5922  17.5923  17.6645

          k =-0.5000-0.4804 0.3306 ( 61424 PWs)   bands (ev):

   -65.7158 -65.7158 -65.7158 -65.7158 -65.7154 -65.7154 -65.7154 -65.7154
   -30.1314 -30.1314 -30.1307 -30.1307 -30.1241 -30.1241 -30.1232 -30.1232
   -30.0746 -30.0746 -30.0741 -30.0741 -30.0439 -30.0439 -30.0438 -30.0438
   -30.0117 -30.0117 -30.0101 -30.0101 -30.0003 -30.0003 -29.9991 -29.9991
   -19.8617 -19.8617 -19.8617 -19.8617 -19.8613 -19.8613 -19.8613 -19.8613
   -19.8482 -19.8482 -19.8482 -19.8482 -19.8477 -19.8477 -19.8476 -19.8476
   -19.8410 -19.8410 -19.8409 -19.8409 -19.8403 -19.8403 -19.8403 -19.8403
   -19.8376 -19.8376 -19.8376 -19.8376 -19.8374 -19.8373 -19.8373 -19.8373
   -19.8275 -19.8275 -19.8275 -19.8275 -19.8273 -19.8273 -19.8273 -19.8272
   -19.8129 -19.8129 -19.8129 -19.8129 -19.8104 -19.8104 -19.8104 -19.8104
   -19.8009 -19.8009 -19.8009 -19.8009 -19.8003 -19.8003 -19.8003 -19.8003
    -8.9206  -8.9206  -8.9032  -8.9032  -8.5359  -8.5359  -8.5001  -8.5001
    -8.2550  -8.2550  -8.2204  -8.2204  -8.1265  -8.1265  -8.0855  -8.0855
    -8.0358  -8.0358  -8.0074  -8.0074  -7.8546  -7.8546  -7.8527  -7.8527
     2.5805   2.5805   2.6061   2.6061   3.1930   3.1930   3.2519   3.2519
     3.2924   3.2924   3.4013   3.4013   3.4044   3.4044   3.5366   3.5367
     3.7370   3.7370   3.8294   3.8294   3.8868   3.8869   3.9410   3.9410
     4.1666   4.1666   4.3123   4.3123   4.5024   4.5025   4.5258   4.5258
     4.5990   4.5990   4.6552   4.6553   4.7967   4.7967   4.9251   4.9252
     5.0040   5.0040   5.1365   5.1365   5.3095   5.3095   5.3609   5.3609
     7.1628   7.1628   7.2806   7.2806   7.3693   7.3693   7.4239   7.4239
     7.4519   7.4519   7.5425   7.5425   7.6252   7.6253   7.6586   7.6586
     7.7279   7.7279   7.7868   7.7868   7.8674   7.8675   7.8826   7.8826
    11.9107  11.9107  11.9897  11.9897  12.0309  12.0309  12.1716  12.1716
    12.5604  12.5604  12.5744  12.5744  12.6776  12.6776  12.8267  12.8267
    12.8827  12.8827  13.0093  13.0093  13.2526  13.2526  13.3282  13.3282
    16.6233  16.6233  16.6899  16.6899  17.1616  17.1616  17.3544  17.3545
    17.4581  17.4581  17.6206  17.6206  17.6676

          k =-0.5000-0.4804-0.4960 ( 61440 PWs)   bands (ev):

   -65.7156 -65.7156 -65.7156 -65.7156 -65.7156 -65.7156 -65.7156 -65.7156
   -30.1273 -30.1273 -30.1273 -30.1273 -30.1262 -30.1262 -30.1262 -30.1262
   -30.0598 -30.0598 -30.0598 -30.0598 -30.0572 -30.0572 -30.0572 -30.0572
   -30.0080 -30.0080 -30.0080 -30.0080 -30.0053 -30.0053 -30.0053 -30.0053
   -19.8615 -19.8615 -19.8615 -19.8615 -19.8615 -19.8615 -19.8615 -19.8615
   -19.8480 -19.8480 -19.8480 -19.8480 -19.8479 -19.8479 -19.8479 -19.8479
   -19.8407 -19.8407 -19.8407 -19.8407 -19.8406 -19.8406 -19.8406 -19.8406
   -19.8376 -19.8376 -19.8375 -19.8375 -19.8373 -19.8373 -19.8373 -19.8373
   -19.8275 -19.8275 -19.8275 -19.8275 -19.8273 -19.8272 -19.8272 -19.8272
   -19.8117 -19.8117 -19.8117 -19.8117 -19.8117 -19.8117 -19.8117 -19.8117
   -19.8007 -19.8007 -19.8007 -19.8007 -19.8006 -19.8006 -19.8006 -19.8006
    -8.6953  -8.6953  -8.6953  -8.6953  -8.6571  -8.6570  -8.6570  -8.6570
    -8.1525  -8.1525  -8.1525  -8.1524  -8.0937  -8.0936  -8.0936  -8.0936
    -8.0702  -8.0702  -8.0702  -8.0702  -8.0170  -8.0170  -8.0170  -8.0170
     3.1300   3.1300   3.1300   3.1300   3.2363   3.2363   3.2363   3.2363
     3.4252   3.4252   3.4252   3.4252   3.5520   3.5520   3.5520   3.5520
     3.6289   3.6289   3.6289   3.6289   3.8432   3.8432   3.8433   3.8433
     4.4009   4.4009   4.4009   4.4009   4.4554   4.4554   4.4555   4.4555
     4.6152   4.6152   4.6152   4.6152   4.7092   4.7092   4.7092   4.7092
     4.7944   4.7944   4.7944   4.7944   4.8968   4.8968   4.8968   4.8968
     7.2988   7.2988   7.2988   7.2988   7.4835   7.4835   7.4835   7.4835
     7.5673   7.5673   7.5673   7.5673   7.6380   7.6380   7.6381   7.6381
     7.7765   7.7765   7.7766   7.7766   7.8711   7.8711   7.8711   7.8711
    12.2259  12.2259  12.2259  12.2259  12.2652  12.2652  12.2652  12.2652
    12.4948  12.4948  12.4948  12.4948  12.6998  12.6998  12.6998  12.6998
    12.8659  12.8659  12.8659  12.8659  13.0074  13.0074  13.0074  13.0074
    17.2259  17.2259  17.2259  17.2259  17.3485  17.3485  17.3485  17.3485
    17.6197  17.6197  17.6197  17.6197  17.7249

     the Fermi energy is    10.5476 ev

!    total energy              =   -6260.46906802 Ry
     Harris-Foulkes estimate   =   -6260.46906802 Ry
     estimated scf accuracy    <          7.8E-10 Ry

     The total energy is the sum of the following terms:

     one-electron contribution =   -4652.56394818 Ry
     hartree contribution      =    2568.79241907 Ry
     xc contribution           =    -966.58542142 Ry
     ewald contribution        =   -3210.11209535 Ry
     smearing contrib. (-TS)   =      -0.00002213 Ry

     convergence has been achieved in  13 iterations

     Writing output data file Landau_39.save
 
     init_run     :     15.19s CPU     16.38s WALL (       1 calls)
     electrons    :    632.49s CPU    651.52s WALL (       1 calls)

     Called by init_run:
     wfcinit      :     12.51s CPU     13.54s WALL (       1 calls)
     potinit      :      1.17s CPU      1.21s WALL (       1 calls)

     Called by electrons:
     c_bands      :    545.60s CPU    563.11s WALL (      13 calls)
     sum_band     :     79.07s CPU     79.84s WALL (      13 calls)
     v_of_rho     :      1.18s CPU      1.21s WALL (      14 calls)
     mix_rho      :      1.95s CPU      2.39s WALL (      13 calls)

     Called by c_bands:
     init_us_2    :      3.76s CPU      4.43s WALL (      27 calls)
     cegterg      :    404.49s CPU    421.47s WALL (      13 calls)

     Called by sum_band:

     Called by *egterg:
     h_psi        :    327.63s CPU    330.14s WALL (      55 calls)
     g_psi        :      0.72s CPU      0.73s WALL (      41 calls)
     cdiaghg      :      5.89s CPU      5.94s WALL (      54 calls)

     Called by h_psi:
     h_psi:pot    :    325.46s CPU    327.78s WALL (      55 calls)
     h_psi:calbec :     31.66s CPU     32.71s WALL (      55 calls)
     vloc_psi     :    259.68s CPU    260.72s WALL (      55 calls)
     add_vuspsi   :     34.11s CPU     34.35s WALL (      55 calls)

     General routines
     calbec       :     31.66s CPU     32.71s WALL (      55 calls)
     fft          :      0.85s CPU      0.87s WALL (      56 calls)
     fftw         :    266.89s CPU    267.70s WALL (   17101 calls)
 
     Parallel routines
 
     PWSCF        : 10m51.10s CPU    11m13.77s WALL

 
   This run was terminated on:  21:22:31  28Aug2019            

=------------------------------------------------------------------------------=
   JOB DONE.
=------------------------------------------------------------------------------=
