
     Program PWSCF v.6.2 (svn rev. 14038) starts on 28Aug2019 at 12:33: 4 

     This program is part of the open-source Quantum ESPRESSO suite
     for quantum simulation of materials; please cite
         "P. Giannozzi et al., J. Phys.:Condens. Matter 21 395502 (2009);
         "P. Giannozzi et al., J. Phys.:Condens. Matter 29 465901 (2017);
          URL http://www.quantum-espresso.org", 
     in publications or presentations arising from this work. More details at
     http://www.quantum-espresso.org/quote

     Parallel version (MPI), running on    64 processors

     MPI processes distributed on    14 nodes
     K-points division:     npool     =      64
     Reading input from scf.in

     Current dimensions of program PWSCF are:
     Max number of different atomic species (ntypx) = 10
     Max number of k-points (npk) =  40000
     Max angular momentum in pseudopotentials (lmaxx) =  3

     Subspace diagonalization in iterative solution of the eigenvalue problem:
     a serial algorithm will be used

 
     G-vector sticks info
     --------------------
     sticks:   dense  smooth     PW     G-vecs:    dense   smooth      PW
     Sum        7629    7629   2041               492793   492793   68271
 


     bravais-lattice index     =            0
     lattice parameter (alat)  =      13.8209  a.u.
     unit-cell volume          =    2774.0979 (a.u.)^3
     number of atoms/cell      =           32
     number of atomic types    =            2
     number of electrons       =       368.36
     number of Kohn-Sham states=          221
     kinetic-energy cutoff     =     120.0000  Ry
     charge density cutoff     =     480.0000  Ry
     convergence threshold     =      1.0E-08
     mixing beta               =       0.7000
     number of iterations used =            8  plain     mixing
     Exchange-correlation      = SLA PW NOGX NOGC ( 1  4  0  0 0 0)

     celldm(1)=  13.820861  celldm(2)=   0.000000  celldm(3)=   0.000000
     celldm(4)=   0.000000  celldm(5)=   0.000000  celldm(6)=   0.000000

     crystal axes: (cart. coord. in units of alat)
               a(1) = (   1.000000   0.000000   0.000000 )  
               a(2) = (   0.000000   1.044041   0.000000 )  
               a(3) = (   0.000000   0.000000   1.006466 )  

     reciprocal axes: (cart. coord. in units 2 pi/alat)
               b(1) = (  1.000000  0.000000  0.000000 )  
               b(2) = (  0.000000  0.957817  0.000000 )  
               b(3) = (  0.000000  0.000000  0.993576 )  


     PseudoPot. # 1 for W  read from file:
     /cluster/scratch/mnoe/QE/pps/W_ONCV_LDA-4.0.upf
     MD5 check sum: ba0307d5d4cd419d6f1d13dc49d7c13a
     Pseudo is Norm-conserving + core correction, Zval = 28.0
     Generated using ONCVPSP code by D. R. Hamann
     Using radial grid of 1380 points,  8 beta functions with: 
                l(1) =   0
                l(2) =   0
                l(3) =   1
                l(4) =   1
                l(5) =   2
                l(6) =   2
                l(7) =   3
                l(8) =   3

     PseudoPot. # 2 for O  read from file:
     /cluster/scratch/mnoe/QE/pps/O_ONCV_LDA-3.0.upf
     MD5 check sum: b55cdb4f45ae2203d24ad12cf8d61a31
     Pseudo is Norm-conserving + core correction, Zval =  6.0
     Generated using ONCVPSP code by D. R. Hamann
     Using radial grid of  926 points,  5 beta functions with: 
                l(1) =   0
                l(2) =   0
                l(3) =   1
                l(4) =   1
                l(5) =   2

     atomic species   valence    mass     pseudopotential
        W             28.00   183.84000     W ( 1.00)
        O              6.00    15.99940     O ( 1.00)

      8 Sym. Ops., with inversion, found ( 6 have fractional translation)



   Cartesian axes

     site n.     atom                  positions (alat units)
         1           W   tau(   1) = (   0.2338100   0.2942734   0.0153889  )
         2           W   tau(   2) = (   0.7661900   0.7497677   0.9910767  )
         3           W   tau(   3) = (   0.2661900   0.2277471   0.5186217  )
         4           W   tau(   4) = (   0.7338100   0.8162939   0.4878439  )
         5           W   tau(   5) = (   0.7661900   0.2942734   0.4878439  )
         6           W   tau(   6) = (   0.2338100   0.7497677   0.5186217  )
         7           W   tau(   7) = (   0.7338100   0.2277471   0.9910767  )
         8           W   tau(   8) = (   0.2661900   0.8162939   0.0153889  )
         9           O   tau(   9) = (   0.2201400   0.0086864   0.0047807  )
        10           O   tau(  10) = (   0.7798600   1.0353547   1.0016848  )
        11           O   tau(  11) = (   0.2798600   0.5133341   0.5080135  )
        12           O   tau(  12) = (   0.7201400   0.5307069   0.4984521  )
        13           O   tau(  13) = (   0.7798600   0.0086864   0.4984521  )
        14           O   tau(  14) = (   0.2201400   1.0353547   0.5080135  )
        15           O   tau(  15) = (   0.7201400   0.5133341   1.0016848  )
        16           O   tau(  16) = (   0.2798600   0.5307069   0.0047807  )
        17           O   tau(  17) = (   0.5044200   0.2290313   0.4524465  )
        18           O   tau(  18) = (   0.4955800   0.8150098   0.5540190  )
        19           O   tau(  19) = (   0.9955800   0.2929893   0.9556793  )
        20           O   tau(  20) = (   0.0044200   0.7510519   0.0507863  )
        21           O   tau(  21) = (   0.4955800   0.2290313   0.0507863  )
        22           O   tau(  22) = (   0.5044200   0.8150098   0.9556793  )
        23           O   tau(  23) = (   0.0044200   0.2929893   0.5540190  )
        24           O   tau(  24) = (   0.9955800   0.7510519   0.4524465  )
        25           O   tau(  25) = (   0.6995400   0.2540256   0.7480958  )
        26           O   tau(  26) = (   0.3004600   0.7900155   0.2583698  )
        27           O   tau(  27) = (   0.8004600   0.2679949   0.2448629  )
        28           O   tau(  28) = (   0.1995400   0.7760462   0.7616025  )
        29           O   tau(  29) = (   0.3004600   0.2540256   0.7616025  )
        30           O   tau(  30) = (   0.6995400   0.7900155   0.2448629  )
        31           O   tau(  31) = (   0.1995400   0.2679949   0.2583698  )
        32           O   tau(  32) = (   0.8004600   0.7760462   0.7480958  )

     number of k points=    64  gaussian smearing, width (Ry)=  0.0007
                       cart. coord. in units 2pi/alat
        k(    1) = (   0.0000000   0.0000000   0.0000000), wk =   0.0092593
        k(    2) = (   0.0000000   0.0000000   0.1655960), wk =   0.0185185
        k(    3) = (   0.0000000   0.0000000   0.3311920), wk =   0.0185185
        k(    4) = (   0.0000000   0.0000000  -0.4967880), wk =   0.0092593
        k(    5) = (   0.0000000   0.1596361   0.0000000), wk =   0.0185185
        k(    6) = (   0.0000000   0.1596361   0.1655960), wk =   0.0370370
        k(    7) = (   0.0000000   0.1596361   0.3311920), wk =   0.0370370
        k(    8) = (   0.0000000   0.1596361  -0.4967880), wk =   0.0185185
        k(    9) = (   0.0000000   0.3192722   0.0000000), wk =   0.0185185
        k(   10) = (   0.0000000   0.3192722   0.1655960), wk =   0.0370370
        k(   11) = (   0.0000000   0.3192722   0.3311920), wk =   0.0370370
        k(   12) = (   0.0000000   0.3192722  -0.4967880), wk =   0.0185185
        k(   13) = (   0.0000000  -0.4789084   0.0000000), wk =   0.0092593
        k(   14) = (   0.0000000  -0.4789084   0.1655960), wk =   0.0185185
        k(   15) = (   0.0000000  -0.4789084   0.3311920), wk =   0.0185185
        k(   16) = (   0.0000000  -0.4789084  -0.4967880), wk =   0.0092593
        k(   17) = (   0.1666667   0.0000000   0.0000000), wk =   0.0185185
        k(   18) = (   0.1666667   0.0000000   0.1655960), wk =   0.0370370
        k(   19) = (   0.1666667   0.0000000   0.3311920), wk =   0.0370370
        k(   20) = (   0.1666667   0.0000000  -0.4967880), wk =   0.0185185
        k(   21) = (   0.1666667   0.1596361   0.0000000), wk =   0.0370370
        k(   22) = (   0.1666667   0.1596361   0.1655960), wk =   0.0740741
        k(   23) = (   0.1666667   0.1596361   0.3311920), wk =   0.0740741
        k(   24) = (   0.1666667   0.1596361  -0.4967880), wk =   0.0370370
        k(   25) = (   0.1666667   0.3192722   0.0000000), wk =   0.0370370
        k(   26) = (   0.1666667   0.3192722   0.1655960), wk =   0.0740741
        k(   27) = (   0.1666667   0.3192722   0.3311920), wk =   0.0740741
        k(   28) = (   0.1666667   0.3192722  -0.4967880), wk =   0.0370370
        k(   29) = (   0.1666667  -0.4789084   0.0000000), wk =   0.0185185
        k(   30) = (   0.1666667  -0.4789084   0.1655960), wk =   0.0370370
        k(   31) = (   0.1666667  -0.4789084   0.3311920), wk =   0.0370370
        k(   32) = (   0.1666667  -0.4789084  -0.4967880), wk =   0.0185185
        k(   33) = (   0.3333333   0.0000000   0.0000000), wk =   0.0185185
        k(   34) = (   0.3333333   0.0000000   0.1655960), wk =   0.0370370
        k(   35) = (   0.3333333   0.0000000   0.3311920), wk =   0.0370370
        k(   36) = (   0.3333333   0.0000000  -0.4967880), wk =   0.0185185
        k(   37) = (   0.3333333   0.1596361   0.0000000), wk =   0.0370370
        k(   38) = (   0.3333333   0.1596361   0.1655960), wk =   0.0740741
        k(   39) = (   0.3333333   0.1596361   0.3311920), wk =   0.0740741
        k(   40) = (   0.3333333   0.1596361  -0.4967880), wk =   0.0370370
        k(   41) = (   0.3333333   0.3192722   0.0000000), wk =   0.0370370
        k(   42) = (   0.3333333   0.3192722   0.1655960), wk =   0.0740741
        k(   43) = (   0.3333333   0.3192722   0.3311920), wk =   0.0740741
        k(   44) = (   0.3333333   0.3192722  -0.4967880), wk =   0.0370370
        k(   45) = (   0.3333333  -0.4789084   0.0000000), wk =   0.0185185
        k(   46) = (   0.3333333  -0.4789084   0.1655960), wk =   0.0370370
        k(   47) = (   0.3333333  -0.4789084   0.3311920), wk =   0.0370370
        k(   48) = (   0.3333333  -0.4789084  -0.4967880), wk =   0.0185185
        k(   49) = (  -0.5000000   0.0000000   0.0000000), wk =   0.0092593
        k(   50) = (  -0.5000000   0.0000000   0.1655960), wk =   0.0185185
        k(   51) = (  -0.5000000   0.0000000   0.3311920), wk =   0.0185185
        k(   52) = (  -0.5000000   0.0000000  -0.4967880), wk =   0.0092593
        k(   53) = (  -0.5000000   0.1596361   0.0000000), wk =   0.0185185
        k(   54) = (  -0.5000000   0.1596361   0.1655960), wk =   0.0370370
        k(   55) = (  -0.5000000   0.1596361   0.3311920), wk =   0.0370370
        k(   56) = (  -0.5000000   0.1596361  -0.4967880), wk =   0.0185185
        k(   57) = (  -0.5000000   0.3192722   0.0000000), wk =   0.0185185
        k(   58) = (  -0.5000000   0.3192722   0.1655960), wk =   0.0370370
        k(   59) = (  -0.5000000   0.3192722   0.3311920), wk =   0.0370370
        k(   60) = (  -0.5000000   0.3192722  -0.4967880), wk =   0.0185185
        k(   61) = (  -0.5000000  -0.4789084   0.0000000), wk =   0.0092593
        k(   62) = (  -0.5000000  -0.4789084   0.1655960), wk =   0.0185185
        k(   63) = (  -0.5000000  -0.4789084   0.3311920), wk =   0.0185185
        k(   64) = (  -0.5000000  -0.4789084  -0.4967880), wk =   0.0092593

     Dense  grid:   492793 G-vectors     FFT dimensions: ( 100, 108, 100)

     Estimated max dynamical RAM per process >       2.69 GB

     Estimated total dynamical RAM >     172.06 GB

     Initial potential from superposition of free atoms

     starting charge  367.99656, renormalised to  368.36000
     Starting wfc are  232 randomized atomic wfcs

     total cpu time spent up to now is       17.9 secs

     Self-consistent Calculation

     iteration #  1     ecut=   120.00 Ry     beta= 0.70
     Davidson diagonalization with overlap
     ethr =  1.00E-02,  avg # of iterations =  5.0

     total cpu time spent up to now is       73.1 secs

     total energy              =   -6253.69395632 Ry
     Harris-Foulkes estimate   =   -6264.34104063 Ry
     estimated scf accuracy    <      13.44390308 Ry

     iteration #  2     ecut=   120.00 Ry     beta= 0.70
     Davidson diagonalization with overlap
     ethr =  3.65E-03,  avg # of iterations =  3.5

     total cpu time spent up to now is      123.3 secs

     total energy              =   -6250.60083953 Ry
     Harris-Foulkes estimate   =   -6270.40085952 Ry
     estimated scf accuracy    <      52.91602757 Ry

     iteration #  3     ecut=   120.00 Ry     beta= 0.70
     Davidson diagonalization with overlap
     ethr =  3.65E-03,  avg # of iterations =  3.4

     total cpu time spent up to now is      171.1 secs

     total energy              =   -6260.82565496 Ry
     Harris-Foulkes estimate   =   -6261.09794031 Ry
     estimated scf accuracy    <       0.89035006 Ry

     iteration #  4     ecut=   120.00 Ry     beta= 0.70
     Davidson diagonalization with overlap
     ethr =  2.42E-04,  avg # of iterations =  2.4

     total cpu time spent up to now is      208.9 secs

     total energy              =   -6260.82518113 Ry
     Harris-Foulkes estimate   =   -6260.89443024 Ry
     estimated scf accuracy    <       0.21641707 Ry

     iteration #  5     ecut=   120.00 Ry     beta= 0.70
     Davidson diagonalization with overlap
     ethr =  5.88E-05,  avg # of iterations =  5.0

     total cpu time spent up to now is      254.1 secs

     total energy              =   -6260.82777314 Ry
     Harris-Foulkes estimate   =   -6260.85765037 Ry
     estimated scf accuracy    <       0.06628764 Ry

     iteration #  6     ecut=   120.00 Ry     beta= 0.70
     Davidson diagonalization with overlap
     ethr =  1.80E-05,  avg # of iterations =  5.4

     total cpu time spent up to now is      299.0 secs

     total energy              =   -6260.84223158 Ry
     Harris-Foulkes estimate   =   -6260.84453531 Ry
     estimated scf accuracy    <       0.00624701 Ry

     iteration #  7     ecut=   120.00 Ry     beta= 0.70
     Davidson diagonalization with overlap
     ethr =  1.70E-06,  avg # of iterations =  4.9

     total cpu time spent up to now is      340.2 secs

     total energy              =   -6260.84294917 Ry
     Harris-Foulkes estimate   =   -6260.84307305 Ry
     estimated scf accuracy    <       0.00023735 Ry

     iteration #  8     ecut=   120.00 Ry     beta= 0.70
     Davidson diagonalization with overlap
     ethr =  6.44E-08,  avg # of iterations =  3.2

     total cpu time spent up to now is      389.9 secs

     total energy              =   -6260.84303044 Ry
     Harris-Foulkes estimate   =   -6260.84304247 Ry
     estimated scf accuracy    <       0.00004365 Ry

     iteration #  9     ecut=   120.00 Ry     beta= 0.70
     Davidson diagonalization with overlap
     ethr =  1.18E-08,  avg # of iterations =  2.0

     total cpu time spent up to now is      427.9 secs

     total energy              =   -6260.84303201 Ry
     Harris-Foulkes estimate   =   -6260.84303691 Ry
     estimated scf accuracy    <       0.00002106 Ry

     iteration # 10     ecut=   120.00 Ry     beta= 0.70
     Davidson diagonalization with overlap
     ethr =  5.72E-09,  avg # of iterations =  1.5

     total cpu time spent up to now is      465.2 secs

     total energy              =   -6260.84303074 Ry
     Harris-Foulkes estimate   =   -6260.84303354 Ry
     estimated scf accuracy    <       0.00000660 Ry

     iteration # 11     ecut=   120.00 Ry     beta= 0.70
     Davidson diagonalization with overlap
     ethr =  1.79E-09,  avg # of iterations =  2.9

     total cpu time spent up to now is      503.0 secs

     total energy              =   -6260.84303209 Ry
     Harris-Foulkes estimate   =   -6260.84303213 Ry
     estimated scf accuracy    <       0.00000009 Ry

     iteration # 12     ecut=   120.00 Ry     beta= 0.70
     Davidson diagonalization with overlap
     ethr =  2.42E-11,  avg # of iterations =  2.3

     total cpu time spent up to now is      549.1 secs

     total energy              =   -6260.84303212 Ry
     Harris-Foulkes estimate   =   -6260.84303213 Ry
     estimated scf accuracy    <       0.00000002 Ry

     iteration # 13     ecut=   120.00 Ry     beta= 0.70
     Davidson diagonalization with overlap
     ethr =  4.49E-12,  avg # of iterations =  2.5

     total cpu time spent up to now is      592.2 secs

     End of self-consistent calculation

          k = 0.0000 0.0000 0.0000 ( 61575 PWs)   bands (ev):

   -65.8721 -65.8716 -65.8712 -65.8711 -65.8707 -65.8705 -65.8702 -65.8696
   -30.3000 -30.2920 -30.2913 -30.2826 -30.2611 -30.2542 -30.2477 -30.2463
   -30.2459 -30.2295 -30.2217 -30.2211 -30.2097 -30.2074 -30.2007 -30.1807
   -30.1499 -30.1484 -30.1424 -30.1387 -30.1289 -30.1215 -30.1206 -30.1133
   -20.0250 -20.0249 -20.0245 -20.0244 -20.0242 -20.0241 -20.0236 -20.0235
   -20.0086 -20.0083 -20.0081 -20.0079 -20.0075 -20.0075 -20.0075 -20.0069
   -20.0035 -20.0033 -20.0027 -20.0026 -20.0024 -20.0022 -20.0019 -20.0019
   -20.0016 -20.0015 -20.0012 -20.0009 -19.9985 -19.9982 -19.9977 -19.9975
   -19.9916 -19.9913 -19.9913 -19.9911 -19.9870 -19.9866 -19.9865 -19.9863
   -19.9823 -19.9821 -19.9812 -19.9811 -19.9763 -19.9763 -19.9754 -19.9754
   -19.9705 -19.9703 -19.9693 -19.9691 -19.9674 -19.9672 -19.9662 -19.9660
    -9.7515  -9.4316  -9.3031  -9.2955  -9.0010  -8.9631  -8.8801  -8.7777
    -8.7556  -8.6738  -8.6297  -8.6247  -7.7280  -7.6511  -7.6160  -7.5911
    -7.5756  -7.5754  -7.5748  -7.5137  -7.4883  -7.4595  -7.4501  -7.4416
     1.5226   1.5367   1.5832   1.5840   1.6166   1.6290   1.6694   1.8188
     1.8303   1.9060   1.9209   2.1308   2.5868   2.6843   2.7272   2.7745
     2.8695   2.9490   4.2915   4.3849   4.5388   4.7471   4.8304   4.9296
     4.9759   5.0057   5.0106   5.0120   5.2704   5.3178   5.4035   5.5576
     5.6771   5.7334   5.7514   5.7609   5.8381   5.8537   5.9401   5.9773
     5.9990   6.0111   6.0351   6.0662   6.1288   6.1561   6.1924   6.2834
     6.3230   6.4180   6.4641   6.6851   6.7101   6.9205   6.9535   7.0212
     7.0243   7.1096   7.1301   7.1354   7.1413   7.2136   7.3631   7.4061
     7.4849   7.5232   7.8871   7.9156   8.0871   8.1539   8.2860   8.3376
     9.9026   9.9356  10.3423  10.3527  10.4108  10.4263  12.3491  12.4567
    12.5671  12.6079  12.7103  12.7454  12.7538  12.8555  12.9281  12.9359
    13.4382  13.4530  13.4924  13.5653  13.7991  13.8885  14.2717  14.2754
    14.7793  14.7854  15.0525  15.1126  15.6174  15.6607  15.8239  16.1283
    16.2535  16.9347  17.0629  17.2226  17.8141

          k = 0.0000 0.0000 0.1656 ( 61537 PWs)   bands (ev):

   -65.8720 -65.8715 -65.8713 -65.8710 -65.8707 -65.8705 -65.8702 -65.8697
   -30.2992 -30.2924 -30.2904 -30.2830 -30.2581 -30.2499 -30.2481 -30.2434
   -30.2427 -30.2243 -30.2225 -30.2218 -30.2073 -30.2055 -30.2024 -30.1795
   -30.1548 -30.1536 -30.1479 -30.1433 -30.1286 -30.1218 -30.1212 -30.1143
   -20.0250 -20.0249 -20.0245 -20.0244 -20.0242 -20.0240 -20.0237 -20.0236
   -20.0086 -20.0083 -20.0081 -20.0079 -20.0076 -20.0075 -20.0075 -20.0069
   -20.0035 -20.0033 -20.0027 -20.0027 -20.0025 -20.0022 -20.0020 -20.0018
   -20.0016 -20.0014 -20.0012 -20.0009 -19.9984 -19.9982 -19.9977 -19.9975
   -19.9916 -19.9913 -19.9913 -19.9911 -19.9869 -19.9866 -19.9865 -19.9863
   -19.9819 -19.9817 -19.9809 -19.9808 -19.9767 -19.9767 -19.9758 -19.9758
   -19.9704 -19.9702 -19.9694 -19.9692 -19.9673 -19.9671 -19.9663 -19.9661
    -9.7059  -9.3766  -9.3208  -9.2388  -8.9787  -8.9163  -8.8891  -8.7401
    -8.7199  -8.6646  -8.6294  -8.5994  -7.7718  -7.7567  -7.6655  -7.6205
    -7.6098  -7.6083  -7.5678  -7.5677  -7.5323  -7.5169  -7.4675  -7.4505
     1.5989   1.6135   1.6319   1.6721   1.7122   1.7303   1.8134   1.8317
     1.9017   1.9342   2.0587   2.2332   2.6765   2.7356   2.7756   2.8602
     2.8616   3.0333   4.2769   4.2906   4.5532   4.5720   4.6254   4.7297
     4.8037   4.8198   5.0186   5.0530   5.0965   5.2855   5.4177   5.5044
     5.5402   5.6512   5.6524   5.7853   5.7873   5.7944   5.8642   5.8733
     5.9091   6.0000   6.0820   6.0842   6.0883   6.1600   6.2445   6.3270
     6.3299   6.5795   6.6347   6.6979   6.8381   6.9077   6.9173   6.9335
     7.0277   7.0443   7.1187   7.1314   7.1733   7.2104   7.2577   7.2826
     7.3160   7.3732   7.9108   7.9245   8.1044   8.1589   8.2378   8.2933
    10.1193  10.1908  10.3481  10.4130  10.6240  10.6834  12.3949  12.4085
    12.5044  12.6727  12.6829  12.7511  12.7743  12.9405  12.9424  12.9429
    13.3059  13.4647  13.4681  13.5032  13.8680  13.8889  14.1478  14.1773
    14.8112  14.8896  15.0481  15.2219  15.6373  15.7133  15.7928  16.2239
    16.4019  16.9725  17.0949  17.2321  17.8653

          k = 0.0000 0.0000 0.3312 ( 61622 PWs)   bands (ev):

   -65.8719 -65.8714 -65.8713 -65.8709 -65.8708 -65.8704 -65.8703 -65.8699
   -30.2974 -30.2936 -30.2885 -30.2843 -30.2535 -30.2491 -30.2400 -30.2346
   -30.2336 -30.2252 -30.2239 -30.2098 -30.2082 -30.1988 -30.1986 -30.1754
   -30.1684 -30.1683 -30.1628 -30.1548 -30.1276 -30.1241 -30.1201 -30.1165
   -20.0249 -20.0248 -20.0246 -20.0245 -20.0241 -20.0239 -20.0238 -20.0237
   -20.0085 -20.0084 -20.0080 -20.0078 -20.0077 -20.0076 -20.0074 -20.0070
   -20.0034 -20.0032 -20.0030 -20.0028 -20.0025 -20.0021 -20.0021 -20.0018
   -20.0016 -20.0012 -20.0012 -20.0010 -19.9982 -19.9980 -19.9978 -19.9976
   -19.9915 -19.9914 -19.9913 -19.9912 -19.9869 -19.9866 -19.9866 -19.9864
   -19.9808 -19.9807 -19.9798 -19.9798 -19.9778 -19.9778 -19.9769 -19.9769
   -19.9702 -19.9700 -19.9696 -19.9694 -19.9671 -19.9669 -19.9665 -19.9663
    -9.5934  -9.3754  -9.2449  -9.1061  -9.0267  -8.9197  -8.6801  -8.6766
    -8.6418  -8.5937  -8.5755  -8.4850  -8.0299  -8.0278  -7.9235  -7.9047
    -7.6642  -7.6328  -7.5488  -7.5447  -7.5441  -7.5254  -7.4893  -7.4750
     1.6056   1.6084   1.6815   1.6983   1.7791   1.8019   1.8565   1.8947
     2.4957   2.5460   2.6472   2.7485   2.7589   2.8574   2.9284   3.0365
     3.0954   3.2624   3.9097   4.0491   4.0500   4.1327   4.3296   4.4602
     4.6427   4.7046   4.7842   4.8681   4.8870   5.0207   5.1222   5.3534
     5.3754   5.4168   5.4532   5.5216   5.6644   5.7073   5.7774   5.8576
     5.9867   6.0169   6.0617   6.1101   6.1968   6.2388   6.3366   6.3762
     6.4460   6.5775   6.5908   6.6476   6.7397   6.7510   6.7660   6.9532
     6.9800   7.1056   7.1136   7.1379   7.1511   7.2126   7.2881   7.3397
     7.4074   7.5221   7.8793   7.8870   8.0800   8.1365   8.1518   8.1604
    10.2695  10.3327  10.7864  10.9162  11.1804  11.2851  12.0943  12.1942
    12.4052  12.5182  12.6435  12.7238  12.8769  12.8897  12.9614  13.0773
    13.1691  13.3200  13.3946  13.5159  13.8495  13.8937  13.9297  13.9383
    14.9119  15.0328  15.1892  15.4983  15.6911  15.7730  16.0933  16.1333
    16.4536  17.1875  17.5768  17.6054  17.7609

          k = 0.0000 0.0000-0.4968 ( 61528 PWs)   bands (ev):

   -65.8717 -65.8716 -65.8711 -65.8711 -65.8706 -65.8706 -65.8701 -65.8701
   -30.2954 -30.2954 -30.2862 -30.2862 -30.2509 -30.2508 -30.2307 -30.2307
   -30.2279 -30.2279 -30.2193 -30.2193 -30.1893 -30.1893 -30.1854 -30.1854
   -30.1821 -30.1821 -30.1672 -30.1672 -30.1261 -30.1261 -30.1186 -30.1186
   -20.0248 -20.0248 -20.0247 -20.0246 -20.0239 -20.0239 -20.0238 -20.0238
   -20.0084 -20.0084 -20.0078 -20.0078 -20.0077 -20.0077 -20.0072 -20.0072
   -20.0032 -20.0032 -20.0031 -20.0031 -20.0024 -20.0023 -20.0020 -20.0020
   -20.0014 -20.0014 -20.0011 -20.0010 -19.9980 -19.9980 -19.9978 -19.9978
   -19.9915 -19.9915 -19.9913 -19.9912 -19.9868 -19.9867 -19.9865 -19.9865
   -19.9793 -19.9793 -19.9792 -19.9792 -19.9784 -19.9784 -19.9784 -19.9783
   -19.9699 -19.9699 -19.9697 -19.9697 -19.9668 -19.9668 -19.9666 -19.9666
    -9.4694  -9.4693  -9.1139  -9.1138  -8.9862  -8.9862  -8.6586  -8.6586
    -8.3575  -8.3575  -8.3379  -8.3379  -8.3121  -8.3121  -8.2406  -8.2406
    -7.6499  -7.6499  -7.5368  -7.5367  -7.5186  -7.5186  -7.5093  -7.5093
     1.6059   1.6060   1.6953   1.6953   1.7906   1.7906   1.8875   1.8875
     2.7880   2.7880   3.1921   3.1921   3.3059   3.3059   3.3255   3.3255
     3.4436   3.4436   3.5029   3.5029   3.7445   3.7445   3.9668   3.9669
     4.0550   4.0550   4.7477   4.7477   4.8199   4.8199   5.1947   5.1948
     5.4194   5.4194   5.5451   5.5451   5.5678   5.5678   5.8186   5.8187
     6.0449   6.0449   6.1654   6.1654   6.2256   6.2257   6.3834   6.3835
     6.4320   6.4320   6.5191   6.5192   6.7006   6.7006   6.7675   6.7675
     6.9394   6.9394   7.1262   7.1262   7.1850   7.1850   7.6635   7.6635
     7.6936   7.6937   7.7958   7.7958   7.8964   7.8964   8.1543   8.1543
    10.3071  10.3071  11.4872  11.4872  11.6119  11.6119  11.8464  11.8464
    12.0062  12.0062  12.6586  12.6586  12.9759  12.9759  13.1134  13.1134
    13.1288  13.1288  13.4984  13.4985  13.6600  13.6600  13.9133  13.9133
    14.9965  14.9965  15.4945  15.4945  15.9192  15.9192  15.9767  15.9767
    16.8445  16.8445  18.0619  18.0619  18.3482

          k = 0.0000 0.1596 0.0000 ( 61582 PWs)   bands (ev):

   -65.8721 -65.8716 -65.8712 -65.8710 -65.8707 -65.8706 -65.8701 -65.8697
   -30.2965 -30.2883 -30.2876 -30.2784 -30.2626 -30.2552 -30.2497 -30.2464
   -30.2462 -30.2291 -30.2256 -30.2203 -30.2102 -30.2086 -30.2027 -30.1836
   -30.1498 -30.1486 -30.1423 -30.1393 -30.1286 -30.1222 -30.1202 -30.1139
   -20.0250 -20.0248 -20.0244 -20.0243 -20.0243 -20.0241 -20.0237 -20.0236
   -20.0086 -20.0082 -20.0081 -20.0079 -20.0076 -20.0075 -20.0075 -20.0069
   -20.0033 -20.0030 -20.0027 -20.0023 -20.0022 -20.0021 -20.0019 -20.0019
   -20.0015 -20.0015 -20.0012 -20.0010 -19.9988 -19.9986 -19.9980 -19.9978
   -19.9916 -19.9914 -19.9913 -19.9911 -19.9870 -19.9867 -19.9865 -19.9863
   -19.9822 -19.9821 -19.9812 -19.9811 -19.9763 -19.9763 -19.9754 -19.9754
   -19.9705 -19.9703 -19.9693 -19.9691 -19.9674 -19.9672 -19.9662 -19.9660
    -9.7195  -9.4448  -9.2606  -9.2566  -9.0089  -8.9728  -8.8047  -8.7758
    -8.7570  -8.6282  -8.5925  -8.5883  -7.7839  -7.7057  -7.6707  -7.6503
    -7.6256  -7.6193  -7.5838  -7.5773  -7.4867  -7.4683  -7.4588  -7.4443
     1.5229   1.5349   1.5846   1.5899   1.6471   1.6695   1.7583   1.9199
     2.0089   2.0503   2.1120   2.2721   2.5956   2.6772   2.8030   2.8566
     2.9407   3.0297   4.1523   4.2686   4.2695   4.4324   4.7612   4.9092
     4.9504   5.0057   5.0269   5.0671   5.1999   5.2143   5.3350   5.4981
     5.5836   5.7566   5.7624   5.7669   5.7739   5.8692   5.9098   5.9150
     5.9327   5.9960   6.0188   6.0828   6.0970   6.1590   6.2025   6.2714
     6.2937   6.3955   6.5023   6.7021   6.7732   6.8968   6.9378   6.9914
     7.0869   7.0923   7.1027   7.1102   7.1312   7.1408   7.3736   7.4037
     7.5001   7.5204   7.8869   7.9132   8.0786   8.1194   8.2460   8.2587
     9.9236   9.9381  10.5363  10.5454  10.5537  10.5712  12.2806  12.4613
    12.5708  12.6183  12.6639  12.7119  12.7222  12.7240  12.7692  12.9264
    13.4343  13.4483  13.5094  13.5256  13.9011  13.9118  14.1746  14.1825
    14.8804  15.0184  15.1886  15.2699  15.6132  15.6541  16.1084  16.2108
    16.2184  16.6910  17.2031  17.3603  17.7893

          k = 0.0000 0.1596 0.1656 ( 61566 PWs)   bands (ev):

   -65.8720 -65.8715 -65.8712 -65.8710 -65.8708 -65.8705 -65.8702 -65.8697
   -30.2957 -30.2887 -30.2867 -30.2789 -30.2599 -30.2513 -30.2500 -30.2434
   -30.2427 -30.2264 -30.2240 -30.2210 -30.2082 -30.2062 -30.2043 -30.1822
   -30.1548 -30.1537 -30.1478 -30.1440 -30.1282 -30.1218 -30.1215 -30.1150
   -20.0249 -20.0248 -20.0245 -20.0244 -20.0242 -20.0241 -20.0237 -20.0236
   -20.0086 -20.0082 -20.0081 -20.0079 -20.0076 -20.0075 -20.0075 -20.0070
   -20.0032 -20.0030 -20.0026 -20.0024 -20.0023 -20.0022 -20.0019 -20.0018
   -20.0016 -20.0014 -20.0012 -20.0009 -19.9988 -19.9985 -19.9981 -19.9979
   -19.9916 -19.9914 -19.9913 -19.9911 -19.9869 -19.9866 -19.9865 -19.9863
   -19.9818 -19.9817 -19.9809 -19.9808 -19.9767 -19.9767 -19.9758 -19.9758
   -19.9704 -19.9702 -19.9694 -19.9692 -19.9673 -19.9672 -19.9662 -19.9661
    -9.6726  -9.3900  -9.2784  -9.1957  -8.9886  -8.9244  -8.8137  -8.7387
    -8.7213  -8.6199  -8.5939  -8.5655  -7.8041  -7.7551  -7.7230  -7.6966
    -7.6700  -7.6326  -7.6083  -7.5888  -7.5702  -7.5653  -7.4768  -7.4532
     1.6275   1.6319   1.6473   1.6721   1.8056   1.8322   1.8435   2.0151
     2.0580   2.0778   2.1075   2.3316   2.6857   2.7677   2.8114   2.9333
     2.9432   3.1129   4.1610   4.2090   4.3194   4.4148   4.5772   4.6121
     4.7548   4.8518   4.9727   4.9993   5.0538   5.2096   5.3372   5.4117
     5.4838   5.5443   5.6989   5.7175   5.7186   5.8033   5.8596   5.8785
     5.9109   5.9833   6.0004   6.0615   6.0785   6.1348   6.2347   6.2798
     6.3834   6.5167   6.6454   6.7520   6.8716   6.9263   6.9488   6.9861
     6.9924   7.0568   7.0947   7.1239   7.1397   7.1608   7.2632   7.2894
     7.3449   7.3711   7.9095   7.9223   8.0868   8.1261   8.2002   8.2214
    10.1794  10.1982  10.5421  10.5681  10.7507  10.7997  12.3379  12.4076
    12.5088  12.6267  12.6729  12.7319  12.7604  12.7745  12.8222  12.9513
    13.2946  13.4280  13.4433  13.5079  13.9010  13.9545  14.0471  14.0880
    14.9391  15.1321  15.2033  15.3590  15.6309  15.7128  16.1801  16.1887
    16.3806  16.8482  17.1005  17.3528  17.8459

          k = 0.0000 0.1596 0.3312 ( 61553 PWs)   bands (ev):

   -65.8718 -65.8714 -65.8714 -65.8709 -65.8708 -65.8703 -65.8703 -65.8699
   -30.2938 -30.2899 -30.2845 -30.2802 -30.2556 -30.2512 -30.2421 -30.2345
   -30.2337 -30.2288 -30.2232 -30.2096 -30.2096 -30.2005 -30.1978 -30.1779
   -30.1685 -30.1684 -30.1626 -30.1560 -30.1273 -30.1237 -30.1208 -30.1172
   -20.0248 -20.0247 -20.0246 -20.0244 -20.0241 -20.0240 -20.0238 -20.0237
   -20.0085 -20.0083 -20.0080 -20.0078 -20.0077 -20.0076 -20.0074 -20.0071
   -20.0031 -20.0030 -20.0027 -20.0025 -20.0025 -20.0021 -20.0021 -20.0018
   -20.0016 -20.0012 -20.0012 -20.0010 -19.9986 -19.9983 -19.9982 -19.9980
   -19.9915 -19.9914 -19.9913 -19.9912 -19.9869 -19.9866 -19.9866 -19.9864
   -19.9808 -19.9807 -19.9798 -19.9798 -19.9778 -19.9778 -19.9769 -19.9769
   -19.9702 -19.9700 -19.9696 -19.9694 -19.9671 -19.9669 -19.9665 -19.9663
    -9.5569  -9.3338  -9.2581  -9.0497  -9.0374  -8.8451  -8.6849  -8.6567
    -8.6060  -8.5954  -8.5558  -8.4645  -8.0360  -8.0255  -7.9369  -7.9023
    -7.7363  -7.7148  -7.6478  -7.6254  -7.5661  -7.5469  -7.5005  -7.4778
     1.6497   1.6623   1.6813   1.6978   1.9717   1.9883   2.0624   2.1013
     2.4949   2.5518   2.6506   2.7639   2.8335   2.9217   2.9399   3.0315
     3.1787   3.3341   3.9186   4.0271   4.0595   4.0859   4.3294   4.3788
     4.4427   4.6618   4.6974   4.7278   4.8066   4.9527   4.9772   5.2179
     5.2391   5.3708   5.4126   5.4297   5.6287   5.6983   5.7452   5.8757
     5.9286   5.9700   6.0170   6.0255   6.0732   6.2488   6.2703   6.3193
     6.5094   6.5806   6.7109   6.7306   6.7472   6.8328   6.9129   6.9295
     6.9883   7.0782   7.0848   7.1326   7.1334   7.1799   7.3163   7.3370
     7.4185   7.5147   7.8782   7.8850   8.0522   8.0978   8.1069   8.1278
    10.4683  10.5332  10.7983  10.9295  11.2715  11.3582  12.0986  12.1915
    12.4166  12.5037  12.6704  12.7504  12.7964  12.8171  12.8841  12.9891
    13.0488  13.2970  13.3616  13.4863  13.7386  13.8615  13.9058  13.9720
    15.0654  15.1585  15.5095  15.6184  15.7570  16.0476  16.0995  16.1448
    16.5813  17.1596  17.3318  17.6286  17.8371

          k = 0.0000 0.1596-0.4968 ( 61564 PWs)   bands (ev):

   -65.8716 -65.8716 -65.8712 -65.8711 -65.8706 -65.8706 -65.8701 -65.8701
   -30.2917 -30.2917 -30.2822 -30.2822 -30.2529 -30.2529 -30.2338 -30.2338
   -30.2274 -30.2274 -30.2200 -30.2199 -30.1893 -30.1893 -30.1861 -30.1861
   -30.1817 -30.1817 -30.1690 -30.1690 -30.1258 -30.1257 -30.1193 -30.1192
   -20.0247 -20.0247 -20.0246 -20.0246 -20.0240 -20.0240 -20.0239 -20.0238
   -20.0084 -20.0084 -20.0079 -20.0078 -20.0077 -20.0077 -20.0072 -20.0072
   -20.0029 -20.0029 -20.0028 -20.0028 -20.0023 -20.0023 -20.0019 -20.0019
   -20.0014 -20.0013 -20.0011 -20.0010 -19.9984 -19.9983 -19.9981 -19.9981
   -19.9915 -19.9915 -19.9913 -19.9913 -19.9867 -19.9867 -19.9865 -19.9865
   -19.9793 -19.9793 -19.9792 -19.9792 -19.9784 -19.9784 -19.9784 -19.9784
   -19.9699 -19.9699 -19.9697 -19.9697 -19.9668 -19.9668 -19.9666 -19.9666
    -9.4297  -9.4297  -9.1260  -9.1260  -8.9163  -8.9163  -8.6238  -8.6238
    -8.3618  -8.3617  -8.3329  -8.3328  -8.3203  -8.3203  -8.2336  -8.2336
    -7.7286  -7.7286  -7.6384  -7.6384  -7.5332  -7.5332  -7.5121  -7.5120
     1.6574   1.6574   1.6949   1.6949   1.9883   1.9883   2.0924   2.0924
     2.8585   2.8585   3.2069   3.2069   3.3180   3.3180   3.3348   3.3348
     3.4403   3.4403   3.5361   3.5361   3.7329   3.7329   3.9786   3.9786
     4.1085   4.1085   4.5694   4.5694   4.6388   4.6388   4.9776   4.9777
     5.3008   5.3008   5.5137   5.5137   5.5630   5.5630   5.7923   5.7923
     5.9558   5.9558   6.0029   6.0029   6.2134   6.2134   6.3821   6.3821
     6.5070   6.5070   6.5696   6.5696   6.7607   6.7607   6.8578   6.8578
     6.9980   6.9980   7.1095   7.1095   7.1313   7.1313   7.6652   7.6652
     7.6912   7.6912   7.7848   7.7848   7.8674   7.8674   8.1210   8.1211
    10.5136  10.5136  11.4952  11.4952  11.6114  11.6114  11.9067  11.9067
    12.0541  12.0541  12.6808  12.6808  12.8312  12.8312  13.0565  13.0565
    13.1085  13.1086  13.3799  13.3799  13.6167  13.6167  13.9277  13.9277
    15.1325  15.1325  15.8438  15.8439  15.9488  15.9488  16.0564  16.0564
    16.8933  16.8933  17.8820  17.8821  18.2456

          k = 0.0000 0.3193 0.0000 ( 61576 PWs)   bands (ev):

   -65.8720 -65.8717 -65.8711 -65.8709 -65.8708 -65.8707 -65.8700 -65.8698
   -30.2875 -30.2788 -30.2779 -30.2676 -30.2671 -30.2592 -30.2558 -30.2467
   -30.2466 -30.2364 -30.2276 -30.2178 -30.2170 -30.2078 -30.2049 -30.1906
   -30.1496 -30.1489 -30.1421 -30.1405 -30.1275 -30.1238 -30.1192 -30.1156
   -20.0248 -20.0247 -20.0244 -20.0243 -20.0242 -20.0241 -20.0238 -20.0237
   -20.0085 -20.0082 -20.0081 -20.0078 -20.0077 -20.0076 -20.0073 -20.0070
   -20.0026 -20.0026 -20.0024 -20.0021 -20.0018 -20.0017 -20.0015 -20.0014
   -20.0014 -20.0013 -20.0013 -20.0010 -19.9997 -19.9995 -19.9990 -19.9988
   -19.9915 -19.9914 -19.9912 -19.9911 -19.9869 -19.9867 -19.9865 -19.9863
   -19.9822 -19.9821 -19.9812 -19.9812 -19.9763 -19.9763 -19.9754 -19.9754
   -19.9704 -19.9704 -19.9692 -19.9692 -19.9673 -19.9673 -19.9661 -19.9661
    -9.6409  -9.4852  -9.1687  -9.1609  -9.0351  -9.0044  -8.7715  -8.7609
    -8.5924  -8.4846  -8.4697  -8.4596  -8.0005  -7.9510  -7.9229  -7.9017
    -7.6487  -7.6446  -7.5858  -7.5816  -7.4820  -7.4691  -7.4678  -7.4517
     1.5242   1.5309   1.5864   1.5914   1.6651   1.6695   1.8788   1.9167
     2.5253   2.6219   2.6503   2.6579   2.7292   2.8534   3.0199   3.1233
     3.1434   3.2882   3.7780   3.7907   3.9381   3.9432   4.2990   4.6215
     4.7504   4.8947   4.9591   4.9729   5.0339   5.0924   5.2417   5.2566
     5.3383   5.3413   5.6394   5.6925   5.7537   5.7927   5.9010   5.9684
     5.9833   6.0011   6.0777   6.0830   6.1117   6.1716   6.2138   6.2878
     6.3190   6.3574   6.5146   6.6680   6.7600   6.8263   6.9729   7.0078
     7.0209   7.0895   7.2734   7.2799   7.3018   7.3221   7.4000   7.4022
     7.5214   7.5223   7.8608   7.9033   7.9801   7.9900   8.0326   8.0741
     9.9415   9.9428  10.9398  11.0194  11.0446  11.0499  11.9910  12.2361
    12.2442  12.3328  12.5674  12.5766  12.6981  12.7313  12.7314  12.9041
    13.4530  13.5000  13.5400  13.5563  13.7851  13.9078  13.9421  13.9702
    15.1791  15.4984  15.5565  15.6011  15.6407  15.9082  16.0336  16.1070
    16.1984  17.1524  17.4670  17.6865  17.8237

          k = 0.0000 0.3193 0.1656 ( 61541 PWs)   bands (ev):

   -65.8719 -65.8716 -65.8711 -65.8709 -65.8709 -65.8706 -65.8701 -65.8698
   -30.2865 -30.2790 -30.2769 -30.2675 -30.2656 -30.2567 -30.2555 -30.2435
   -30.2429 -30.2370 -30.2229 -30.2186 -30.2142 -30.2090 -30.2028 -30.1891
   -30.1546 -30.1540 -30.1476 -30.1455 -30.1271 -30.1235 -30.1204 -30.1167
   -20.0248 -20.0246 -20.0244 -20.0243 -20.0242 -20.0242 -20.0239 -20.0237
   -20.0085 -20.0082 -20.0081 -20.0078 -20.0078 -20.0076 -20.0074 -20.0071
   -20.0026 -20.0025 -20.0024 -20.0021 -20.0018 -20.0017 -20.0017 -20.0016
   -20.0015 -20.0013 -20.0011 -20.0009 -19.9997 -19.9994 -19.9990 -19.9988
   -19.9915 -19.9914 -19.9913 -19.9912 -19.9869 -19.9867 -19.9865 -19.9864
   -19.9818 -19.9818 -19.9808 -19.9808 -19.9767 -19.9767 -19.9758 -19.9758
   -19.9704 -19.9703 -19.9693 -19.9692 -19.9673 -19.9672 -19.9662 -19.9661
    -9.5910  -9.4310  -9.1793  -9.0968  -9.0209  -8.9512  -8.7350  -8.7249
    -8.6011  -8.4794  -8.4726  -8.4458  -8.0025  -7.9583  -7.9230  -7.9081
    -7.7508  -7.7333  -7.6045  -7.5983  -7.5810  -7.5761  -7.4780  -7.4606
     1.6320   1.6336   1.6669   1.6720   1.8335   1.8336   2.0089   2.0551
     2.5406   2.6451   2.6997   2.7271   2.7482   2.8575   3.0267   3.1366
     3.2065   3.3681   3.7910   3.8660   3.9276   3.9443   4.2736   4.5666
     4.5961   4.6361   4.7576   4.9453   4.9768   5.0468   5.0839   5.1077
     5.2817   5.3659   5.4704   5.5368   5.5926   5.6970   5.7764   5.8636
     5.9109   5.9221   5.9794   6.0671   6.1428   6.1654   6.1763   6.2871
     6.4656   6.5427   6.6345   6.7206   6.7826   6.9458   6.9979   7.0781
     7.0893   7.1221   7.2131   7.2374   7.2479   7.2588   7.2934   7.3500
     7.4031   7.4227   7.8798   7.9090   7.9752   8.0001   8.0096   8.0453
    10.2116  10.2155  11.0452  11.0618  11.1008  11.1826  12.0761  12.2223
    12.3161  12.3349  12.5116  12.5136  12.7370  12.7686  12.8071  12.9581
    13.3332  13.4097  13.4577  13.5036  13.7848  13.8039  13.9049  13.9283
    15.2646  15.5290  15.6097  15.7088  15.7291  15.9676  16.0761  16.2931
    16.3756  17.1181  17.5205  17.5255  17.7785

          k = 0.0000 0.3193 0.3312 ( 61588 PWs)   bands (ev):

   -65.8717 -65.8715 -65.8713 -65.8710 -65.8707 -65.8704 -65.8702 -65.8700
   -30.2843 -30.2801 -30.2741 -30.2690 -30.2621 -30.2575 -30.2490 -30.2394
   -30.2342 -30.2335 -30.2212 -30.2134 -30.2090 -30.2042 -30.1952 -30.1839
   -30.1687 -30.1687 -30.1620 -30.1585 -30.1262 -30.1226 -30.1225 -30.1189
   -20.0247 -20.0245 -20.0244 -20.0243 -20.0243 -20.0241 -20.0240 -20.0238
   -20.0084 -20.0082 -20.0081 -20.0078 -20.0077 -20.0075 -20.0075 -20.0072
   -20.0025 -20.0024 -20.0024 -20.0020 -20.0020 -20.0020 -20.0020 -20.0017
   -20.0014 -20.0011 -20.0011 -20.0009 -19.9995 -19.9992 -19.9991 -19.9989
   -19.9915 -19.9914 -19.9913 -19.9912 -19.9868 -19.9866 -19.9866 -19.9864
   -19.9808 -19.9807 -19.9798 -19.9798 -19.9778 -19.9778 -19.9769 -19.9769
   -19.9701 -19.9701 -19.9695 -19.9695 -19.9670 -19.9670 -19.9664 -19.9664
    -9.4679  -9.2994  -9.2356  -9.0721  -8.9124  -8.7143  -8.6367  -8.6218
    -8.6005  -8.4861  -8.4520  -8.3838  -8.0828  -8.0350  -8.0185  -7.9517
    -7.9243  -7.8964  -7.8947  -7.8178  -7.5711  -7.5544  -7.5025  -7.4853
     1.6735   1.6807   1.6899   1.6969   2.4049   2.4850   2.4925   2.5803
     2.6506   2.6928   2.7268   2.9117   2.9920   2.9985   3.0493   3.1285
     3.4253   3.5555   3.8216   3.8658   3.9232   3.9666   4.0186   4.0657
     4.2781   4.4885   4.4910   4.6038   4.6084   4.7785   4.8150   4.9515
     4.9757   5.1126   5.2766   5.3798   5.4150   5.4247   5.4664   5.5884
     5.6272   5.8140   5.8479   6.0219   6.2311   6.2882   6.2919   6.3211
     6.6115   6.6600   6.7139   6.7987   6.8095   6.9228   6.9474   6.9481
     7.1424   7.1546   7.2082   7.2506   7.2716   7.3163   7.3832   7.3915
     7.4316   7.5069   7.8605   7.8657   7.9324   7.9412   7.9702   7.9926
    10.7965  10.8230  11.0435  11.1273  11.5384  11.6193  12.0745  12.1804
    12.3022  12.3455  12.3544  12.5196  12.7531  12.8477  12.8535  12.8856
    12.9298  13.2220  13.2462  13.4640  13.4925  13.7667  13.7912  13.8987
    15.3786  15.5032  15.7036  15.9944  16.1605  16.2159  16.2325  16.8712
    16.9975  17.0070  17.0687  17.7200  17.8098

          k = 0.0000 0.3193-0.4968 ( 61574 PWs)   bands (ev):

   -65.8715 -65.8715 -65.8713 -65.8712 -65.8705 -65.8705 -65.8702 -65.8702
   -30.2820 -30.2820 -30.2712 -30.2712 -30.2594 -30.2593 -30.2430 -30.2430
   -30.2261 -30.2261 -30.2217 -30.2217 -30.1892 -30.1891 -30.1876 -30.1876
   -30.1803 -30.1803 -30.1733 -30.1733 -30.1246 -30.1246 -30.1210 -30.1209
   -20.0245 -20.0245 -20.0244 -20.0244 -20.0241 -20.0241 -20.0240 -20.0240
   -20.0083 -20.0083 -20.0080 -20.0080 -20.0076 -20.0076 -20.0073 -20.0073
   -20.0023 -20.0023 -20.0023 -20.0023 -20.0022 -20.0022 -20.0019 -20.0019
   -20.0012 -20.0012 -20.0009 -20.0009 -19.9993 -19.9992 -19.9990 -19.9990
   -19.9914 -19.9914 -19.9913 -19.9913 -19.9867 -19.9867 -19.9866 -19.9865
   -19.9793 -19.9793 -19.9793 -19.9792 -19.9784 -19.9784 -19.9784 -19.9784
   -19.9699 -19.9698 -19.9698 -19.9698 -19.9667 -19.9667 -19.9667 -19.9667
    -9.3342  -9.3342  -9.1645  -9.1645  -8.7264  -8.7264  -8.5171  -8.5171
    -8.3833  -8.3833  -8.3497  -8.3497  -8.3093  -8.3092  -8.2058  -8.2058
    -7.9524  -7.9524  -7.8857  -7.8857  -7.5367  -7.5367  -7.5196  -7.5195
     1.6857   1.6857   1.6940   1.6940   2.5535   2.5535   2.7001   2.7001
     3.0510   3.0510   3.2499   3.2499   3.2983   3.2984   3.3898   3.3898
     3.4284   3.4284   3.6377   3.6377   3.6845   3.6846   3.9023   3.9023
     4.2081   4.2081   4.2645   4.2645   4.3327   4.3327   4.4982   4.4982
     5.0629   5.0629   5.2347   5.2347   5.3867   5.3867   5.4971   5.4971
     5.6583   5.6583   5.9372   5.9372   6.3138   6.3138   6.3866   6.3866
     6.6288   6.6288   6.6596   6.6597   6.7518   6.7518   6.8913   6.8913
     7.2172   7.2172   7.2634   7.2634   7.3040   7.3040   7.6577   7.6577
     7.6830   7.6830   7.7226   7.7226   7.7795   7.7795   7.9761   7.9762
    11.0239  11.0239  11.5129  11.5129  11.6169  11.6169  12.0722  12.0722
    12.2133  12.2133  12.4412  12.4412  12.6974  12.6974  12.8154  12.8154
    13.0902  13.0902  13.1230  13.1230  13.5860  13.5860  13.8237  13.8238
    15.4538  15.4538  15.8610  15.8611  16.5076  16.5077  16.7288  16.7288
    17.0602  17.0603  17.5135  17.5135  18.0303

          k = 0.0000-0.4789 0.0000 ( 61578 PWs)   bands (ev):

   -65.8718 -65.8718 -65.8709 -65.8709 -65.8708 -65.8708 -65.8699 -65.8699
   -30.2766 -30.2766 -30.2674 -30.2674 -30.2660 -30.2660 -30.2518 -30.2518
   -30.2466 -30.2465 -30.2237 -30.2237 -30.2135 -30.2135 -30.1986 -30.1986
   -30.1493 -30.1492 -30.1416 -30.1416 -30.1258 -30.1258 -30.1175 -30.1175
   -20.0246 -20.0246 -20.0244 -20.0244 -20.0240 -20.0240 -20.0239 -20.0239
   -20.0084 -20.0084 -20.0079 -20.0079 -20.0077 -20.0077 -20.0072 -20.0072
   -20.0025 -20.0025 -20.0021 -20.0021 -20.0016 -20.0015 -20.0013 -20.0013
   -20.0009 -20.0009 -20.0006 -20.0006 -20.0002 -20.0002 -20.0000 -20.0000
   -19.9915 -19.9915 -19.9912 -19.9912 -19.9868 -19.9868 -19.9864 -19.9864
   -19.9822 -19.9822 -19.9812 -19.9812 -19.9763 -19.9763 -19.9754 -19.9754
   -19.9704 -19.9704 -19.9692 -19.9692 -19.9673 -19.9673 -19.9661 -19.9661
    -9.5534  -9.5534  -9.0865  -9.0865  -9.0655  -9.0655  -8.7662  -8.7662
    -8.2958  -8.2957  -8.2422  -8.2422  -8.2324  -8.2324  -8.2219  -8.2218
    -7.6476  -7.6476  -7.5851  -7.5851  -7.4754  -7.4754  -7.4613  -7.4613
     1.5269   1.5269   1.5891   1.5891   1.6691   1.6691   1.9082   1.9082
     2.6314   2.6314   3.1800   3.1800   3.3137   3.3138   3.3695   3.3695
     3.3925   3.3925   3.5551   3.5551   3.7818   3.7818   3.8934   3.8934
     3.9850   3.9850   4.9126   4.9126   5.0444   5.0444   5.4003   5.4003
     5.4718   5.4718   5.5663   5.5663   5.5735   5.5735   5.9567   5.9567
     6.0127   6.0127   6.0321   6.0321   6.1865   6.1865   6.2587   6.2587
     6.3513   6.3513   6.4977   6.4977   6.8503   6.8503   6.9066   6.9066
     7.0573   7.0573   7.3924   7.3924   7.4942   7.4942   7.6261   7.6261
     7.6558   7.6558   7.7144   7.7144   7.7594   7.7594   7.9260   7.9261
     9.9455   9.9455  11.4801  11.4801  11.5672  11.5672  11.6772  11.6772
    11.7809  11.7809  12.5725  12.5725  12.7168  12.7168  12.8332  12.8332
    13.5834  13.5834  13.5857  13.5857  13.6972  13.6972  13.8243  13.8243
    15.5329  15.5329  15.7368  15.7368  15.8560  15.8560  15.8963  15.8963
    16.7721  16.7721  18.2232  18.2236  18.2907

          k = 0.0000-0.4789 0.1656 ( 61528 PWs)   bands (ev):

   -65.8718 -65.8718 -65.8710 -65.8710 -65.8707 -65.8707 -65.8700 -65.8699
   -30.2752 -30.2752 -30.2669 -30.2669 -30.2649 -30.2649 -30.2523 -30.2523
   -30.2431 -30.2431 -30.2198 -30.2198 -30.2144 -30.2144 -30.1968 -30.1968
   -30.1543 -30.1543 -30.1468 -30.1468 -30.1255 -30.1255 -30.1187 -30.1187
   -20.0246 -20.0245 -20.0244 -20.0244 -20.0241 -20.0241 -20.0240 -20.0239
   -20.0083 -20.0083 -20.0080 -20.0079 -20.0077 -20.0077 -20.0072 -20.0072
   -20.0024 -20.0024 -20.0021 -20.0021 -20.0017 -20.0016 -20.0014 -20.0014
   -20.0008 -20.0008 -20.0005 -20.0005 -20.0002 -20.0002 -20.0000 -20.0000
   -19.9915 -19.9915 -19.9912 -19.9912 -19.9868 -19.9868 -19.9864 -19.9864
   -19.9818 -19.9818 -19.9808 -19.9808 -19.9767 -19.9767 -19.9758 -19.9758
   -19.9703 -19.9703 -19.9693 -19.9693 -19.9672 -19.9672 -19.9662 -19.9662
    -9.5007  -9.5007  -9.0831  -9.0831  -9.0059  -9.0059  -8.7299  -8.7299
    -8.3008  -8.3008  -8.2472  -8.2471  -8.2339  -8.2339  -8.2159  -8.2159
    -7.7443  -7.7443  -7.6004  -7.6003  -7.5819  -7.5819  -7.4702  -7.4702
     1.6329   1.6329   1.6713   1.6713   1.8350   1.8350   2.0459   2.0459
     2.7210   2.7210   3.2001   3.2001   3.3082   3.3082   3.3620   3.3620
     3.4583   3.4583   3.5442   3.5442   3.7928   3.7928   3.9121   3.9121
     4.0167   4.0168   4.5895   4.5895   5.0333   5.0333   5.2032   5.2032
     5.3115   5.3116   5.4789   5.4789   5.5546   5.5546   5.7100   5.7100
     5.9279   5.9279   5.9829   5.9829   6.1591   6.1591   6.2629   6.2629
     6.5380   6.5380   6.6095   6.6095   6.8445   6.8445   7.0518   7.0518
     7.1354   7.1354   7.2528   7.2528   7.3172   7.3172   7.6447   7.6447
     7.6483   7.6483   7.7020   7.7020   7.7430   7.7430   7.9419   7.9419
    10.2195  10.2195  11.5881  11.5881  11.6559  11.6559  11.6881  11.6881
    11.8056  11.8056  12.5067  12.5067  12.7526  12.7526  12.9138  12.9138
    13.4357  13.4357  13.5416  13.5416  13.5885  13.5885  13.8370  13.8371
    15.5357  15.5357  15.8478  15.8478  15.9330  15.9330  16.1106  16.1106
    16.8280  16.8280  18.0828  18.0829  18.2023

          k = 0.0000-0.4789 0.3312 ( 61568 PWs)   bands (ev):

   -65.8716 -65.8716 -65.8712 -65.8712 -65.8706 -65.8706 -65.8701 -65.8701
   -30.2724 -30.2724 -30.2680 -30.2679 -30.2607 -30.2607 -30.2539 -30.2539
   -30.2339 -30.2338 -30.2178 -30.2178 -30.2074 -30.2073 -30.1904 -30.1904
   -30.1688 -30.1688 -30.1607 -30.1607 -30.1245 -30.1245 -30.1209 -30.1209
   -20.0245 -20.0244 -20.0243 -20.0243 -20.0242 -20.0242 -20.0241 -20.0240
   -20.0083 -20.0082 -20.0080 -20.0080 -20.0076 -20.0076 -20.0073 -20.0073
   -20.0024 -20.0023 -20.0021 -20.0020 -20.0019 -20.0019 -20.0016 -20.0016
   -20.0006 -20.0006 -20.0004 -20.0003 -20.0002 -20.0002 -20.0001 -20.0000
   -19.9914 -19.9914 -19.9913 -19.9913 -19.9867 -19.9867 -19.9865 -19.9865
   -19.9807 -19.9807 -19.9798 -19.9798 -19.9778 -19.9778 -19.9769 -19.9769
   -19.9701 -19.9701 -19.9695 -19.9695 -19.9670 -19.9670 -19.9664 -19.9664
    -9.3715  -9.3715  -9.1376  -9.1376  -8.7832  -8.7832  -8.6089  -8.6089
    -8.3367  -8.3367  -8.2709  -8.2709  -8.2305  -8.2305  -8.1929  -8.1929
    -8.0017  -8.0017  -7.8782  -7.8782  -7.5639  -7.5639  -7.4949  -7.4949
     1.6793   1.6793   1.6953   1.6953   2.4846   2.4846   2.6316   2.6316
     2.9742   2.9742   3.2354   3.2354   3.3028   3.3028   3.3876   3.3876
     3.4713   3.4713   3.6254   3.6254   3.7598   3.7598   3.9882   3.9882
     4.0357   4.0357   4.0812   4.0813   4.6548   4.6548   4.8148   4.8148
     4.9770   4.9770   5.0759   5.0759   5.4462   5.4462   5.5027   5.5027
     5.6111   5.6112   5.8849   5.8849   6.2878   6.2878   6.3254   6.3254
     6.6524   6.6524   6.7458   6.7458   6.8415   6.8415   6.9693   6.9693
     7.2419   7.2419   7.3243   7.3243   7.3663   7.3663   7.6187   7.6187
     7.6584   7.6584   7.6759   7.6759   7.7204   7.7204   7.9048   7.9048
    10.8372  10.8372  11.6584  11.6584  11.7317  11.7317  11.9486  11.9486
    12.0562  12.0562  12.1981  12.1981  12.8600  12.8600  12.9003  12.9003
    13.0365  13.0365  13.2271  13.2271  13.6009  13.6009  13.7837  13.7837
    15.5892  15.5892  15.8040  15.8040  16.4750  16.4750  16.7995  16.7995
    17.0238  17.0238  17.6002  17.6002  18.0370

          k = 0.0000-0.4789-0.4968 ( 61592 PWs)   bands (ev):

   -65.8714 -65.8714 -65.8714 -65.8714 -65.8704 -65.8703 -65.8703 -65.8703
   -30.2699 -30.2699 -30.2699 -30.2698 -30.2567 -30.2567 -30.2567 -30.2567
   -30.2240 -30.2240 -30.2240 -30.2240 -30.1887 -30.1887 -30.1887 -30.1887
   -30.1776 -30.1776 -30.1775 -30.1775 -30.1229 -30.1229 -30.1229 -30.1229
   -20.0243 -20.0243 -20.0243 -20.0243 -20.0242 -20.0242 -20.0242 -20.0242
   -20.0081 -20.0081 -20.0081 -20.0081 -20.0075 -20.0075 -20.0075 -20.0074
   -20.0022 -20.0022 -20.0022 -20.0021 -20.0019 -20.0019 -20.0019 -20.0019
   -20.0004 -20.0004 -20.0004 -20.0004 -20.0002 -20.0002 -20.0002 -20.0001
   -19.9914 -19.9914 -19.9914 -19.9914 -19.9866 -19.9866 -19.9866 -19.9866
   -19.9793 -19.9793 -19.9793 -19.9793 -19.9784 -19.9784 -19.9784 -19.9784
   -19.9698 -19.9698 -19.9698 -19.9698 -19.9667 -19.9667 -19.9667 -19.9667
    -9.2348  -9.2348  -9.2348  -9.2348  -8.4986  -8.4986  -8.4986  -8.4985
    -8.3987  -8.3987  -8.3987  -8.3987  -8.1967  -8.1967  -8.1967  -8.1967
    -8.1156  -8.1156  -8.1155  -8.1155  -7.5292  -7.5292  -7.5292  -7.5292
     1.6921   1.6922   1.6922   1.6922   3.1485   3.1485   3.1485   3.1485
     3.2622   3.2622   3.2622   3.2623   3.3897   3.3897   3.3897   3.3897
     3.4789   3.4789   3.4789   3.4789   3.7305   3.7305   3.7305   3.7305
     3.8812   3.8812   3.8812   3.8812   4.5326   4.5326   4.5326   4.5326
     4.6508   4.6508   4.6508   4.6508   5.4562   5.4562   5.4562   5.4562
     5.7399   5.7399   5.7400   5.7400   6.3724   6.3724   6.3724   6.3724
     6.6710   6.6710   6.6710   6.6710   6.7982   6.7982   6.7982   6.7982
     7.4544   7.4544   7.4544   7.4544   7.5573   7.5573   7.5573   7.5574
     7.6490   7.6490   7.6490   7.6490   7.7585   7.7585   7.7585   7.7585
    11.4814  11.4814  11.4814  11.4814  11.7866  11.7866  11.7867  11.7867
    12.4544  12.4544  12.4544  12.4544  12.5219  12.5219  12.5219  12.5219
    13.0446  13.0446  13.0446  13.0446  13.6620  13.6620  13.6620  13.6620
    15.7027  15.7027  15.7027  15.7027  17.1165  17.1166  17.1166  17.1166
    17.4901  17.4901  17.4901  17.4901  17.6354

          k = 0.1667 0.0000 0.0000 ( 61546 PWs)   bands (ev):

   -65.8720 -65.8715 -65.8711 -65.8711 -65.8706 -65.8706 -65.8702 -65.8697
   -30.2991 -30.2917 -30.2911 -30.2830 -30.2602 -30.2545 -30.2444 -30.2438
   -30.2420 -30.2301 -30.2224 -30.2156 -30.2086 -30.2059 -30.1980 -30.1786
   -30.1522 -30.1508 -30.1419 -30.1381 -30.1349 -30.1270 -30.1248 -30.1173
   -20.0250 -20.0249 -20.0245 -20.0244 -20.0242 -20.0241 -20.0236 -20.0235
   -20.0086 -20.0082 -20.0081 -20.0080 -20.0076 -20.0075 -20.0075 -20.0069
   -20.0035 -20.0033 -20.0029 -20.0026 -20.0024 -20.0022 -20.0020 -20.0018
   -20.0016 -20.0015 -20.0012 -20.0009 -19.9985 -19.9982 -19.9977 -19.9975
   -19.9912 -19.9910 -19.9909 -19.9908 -19.9872 -19.9870 -19.9868 -19.9866
   -19.9822 -19.9820 -19.9813 -19.9812 -19.9762 -19.9762 -19.9755 -19.9754
   -19.9703 -19.9701 -19.9691 -19.9689 -19.9676 -19.9675 -19.9664 -19.9663
    -9.7068  -9.3820  -9.3149  -9.2487  -9.0168  -8.8912  -8.8793  -8.7467
    -8.7145  -8.6550  -8.6354  -8.5915  -7.7823  -7.7044  -7.6567  -7.6295
    -7.6202  -7.5814  -7.5810  -7.5585  -7.5354  -7.5186  -7.4980  -7.4594
     1.5794   1.5809   1.5828   1.5874   1.6951   1.7317   1.8145   1.8263
     1.9028   2.0221   2.1141   2.2675   2.6648   2.7726   2.7819   2.8167
     2.9373   2.9711   4.2273   4.3566   4.5067   4.5585   4.6492   4.7497
     4.7570   4.9476   4.9591   4.9635   5.0180   5.2907   5.4055   5.5994
     5.6319   5.6928   5.7037   5.7288   5.7762   5.8273   5.8310   5.8883
     5.9840   5.9867   6.0612   6.0625   6.1190   6.1487   6.2652   6.2686
     6.4270   6.5346   6.5969   6.6596   6.8825   6.8969   6.9749   6.9877
     7.0121   7.0354   7.0438   7.0803   7.0835   7.1498   7.2853   7.2878
     7.3733   7.3752   7.9117   7.9273   8.0650   8.1334   8.2982   8.3386
    10.1713  10.2070  10.3867  10.4257  10.5617  10.6572  12.2987  12.5146
    12.5161  12.5988  12.6613  12.7530  12.7892  12.8649  13.0076  13.0114
    13.3094  13.3999  13.4941  13.5687  13.8144  13.8697  14.2691  14.2694
    14.7441  14.7761  15.0587  15.2373  15.6428  15.6555  15.7797  16.1063
    16.5215  16.8459  17.0799  17.3957  17.8680

          k = 0.1667 0.0000 0.1656 ( 61544 PWs)   bands (ev):

   -65.8720 -65.8714 -65.8712 -65.8711 -65.8707 -65.8705 -65.8703 -65.8698
   -30.2983 -30.2915 -30.2909 -30.2835 -30.2568 -30.2503 -30.2446 -30.2400
   -30.2398 -30.2249 -30.2232 -30.2163 -30.2068 -30.2040 -30.1996 -30.1774
   -30.1568 -30.1554 -30.1475 -30.1427 -30.1346 -30.1269 -30.1263 -30.1187
   -20.0250 -20.0249 -20.0245 -20.0244 -20.0242 -20.0241 -20.0237 -20.0236
   -20.0086 -20.0082 -20.0080 -20.0079 -20.0076 -20.0075 -20.0075 -20.0070
   -20.0035 -20.0033 -20.0029 -20.0026 -20.0025 -20.0022 -20.0020 -20.0018
   -20.0017 -20.0014 -20.0012 -20.0009 -19.9984 -19.9982 -19.9977 -19.9975
   -19.9912 -19.9910 -19.9909 -19.9908 -19.9872 -19.9869 -19.9868 -19.9866
   -19.9818 -19.9817 -19.9809 -19.9808 -19.9766 -19.9766 -19.9759 -19.9759
   -19.9702 -19.9701 -19.9692 -19.9690 -19.9675 -19.9674 -19.9665 -19.9663
    -9.6596  -9.3229  -9.2661  -9.2581  -8.9324  -8.9006  -8.8950  -8.7070
    -8.6831  -8.6499  -8.6053  -8.5965  -7.7968  -7.7518  -7.6934  -7.6850
    -7.6594  -7.6386  -7.6106  -7.5981  -7.5658  -7.5391  -7.5338  -7.5216
     1.6799   1.7162   1.7225   1.7721   1.7780   1.8087   1.8364   1.9062
     1.9400   2.0231   2.1684   2.3251   2.7563   2.8233   2.8616   2.8697
     2.9661   3.0287   4.2218   4.2709   4.5196   4.5322   4.6454   4.6534
     4.6910   4.7215   4.8032   4.8279   4.9909   5.1038   5.3809   5.4410
     5.5005   5.5622   5.5715   5.7115   5.7438   5.7584   5.8062   5.8929
     5.9016   5.9369   5.9455   6.0018   6.0514   6.2580   6.2904   6.3226
     6.5335   6.6340   6.7455   6.8141   6.8283   6.8474   6.9012   6.9403
     6.9638   6.9649   7.0250   7.0828   7.0950   7.1154   7.1538   7.2319
     7.3810   7.4304   7.9201   7.9276   8.0834   8.1374   8.2560   8.2943
    10.3307  10.3726  10.5769  10.6210  10.6432  10.7558  12.3412  12.4716
    12.5421  12.5518  12.6928  12.7316  12.8037  12.9342  13.0075  13.0095
    13.2529  13.4087  13.4176  13.5209  13.8495  13.8660  14.1432  14.1732
    14.7777  14.8842  15.0530  15.3549  15.6987  15.7181  15.7556  16.3710
    16.4882  17.0081  17.0954  17.2559  17.8933

          k = 0.1667 0.0000 0.3312 ( 61586 PWs)   bands (ev):

   -65.8718 -65.8714 -65.8713 -65.8709 -65.8708 -65.8704 -65.8704 -65.8699
   -30.2965 -30.2927 -30.2889 -30.2848 -30.2510 -30.2457 -30.2404 -30.2312
   -30.2308 -30.2258 -30.2185 -30.2103 -30.2058 -30.2001 -30.1962 -30.1736
   -30.1698 -30.1694 -30.1623 -30.1540 -30.1336 -30.1296 -30.1255 -30.1214
   -20.0249 -20.0248 -20.0246 -20.0245 -20.0241 -20.0240 -20.0238 -20.0237
   -20.0085 -20.0083 -20.0079 -20.0079 -20.0076 -20.0076 -20.0074 -20.0071
   -20.0034 -20.0033 -20.0030 -20.0028 -20.0025 -20.0021 -20.0021 -20.0018
   -20.0016 -20.0013 -20.0012 -20.0010 -19.9982 -19.9980 -19.9978 -19.9976
   -19.9912 -19.9911 -19.9909 -19.9908 -19.9871 -19.9869 -19.9868 -19.9867
   -19.9807 -19.9806 -19.9799 -19.9798 -19.9777 -19.9777 -19.9770 -19.9770
   -19.9700 -19.9698 -19.9694 -19.9692 -19.9673 -19.9672 -19.9667 -19.9666
    -9.5431  -9.3205  -9.1792  -9.1243  -8.9440  -8.9327  -8.6932  -8.6450
    -8.6103  -8.5691  -8.5675  -8.4927  -8.0212  -8.0174  -7.9393  -7.9173
    -7.7202  -7.6751  -7.6545  -7.6022  -7.5802  -7.5546  -7.5507  -7.5300
     1.6894   1.7084   1.7714   1.7962   1.9162   1.9334   2.0003   2.0267
     2.5018   2.5521   2.6336   2.7394   2.8451   2.9326   3.0286   3.1139
     3.1447   3.2654   3.9309   4.0831   4.1042   4.1065   4.3210   4.4808
     4.5143   4.6533   4.6875   4.7212   4.8740   4.9790   5.0016   5.0873
     5.1812   5.2830   5.3635   5.4323   5.4832   5.5516   5.8045   5.8087
     5.8881   5.9136   6.0337   6.0452   6.0769   6.1588   6.2384   6.2874
     6.5644   6.6010   6.6448   6.7230   6.7358   6.8218   6.9142   6.9466
     6.9537   7.0573   7.0595   7.0824   7.2191   7.2324   7.3782   7.3798
     7.4471   7.5257   7.8895   7.9007   8.0763   8.1374   8.1381   8.1535
    10.5006  10.5213  10.9414  11.0525  11.1906  11.3132  12.1624  12.2474
    12.4140  12.4780  12.6113  12.6610  12.8230  12.9046  13.0165  13.1228
    13.1505  13.2989  13.3278  13.4918  13.8010  13.8447  13.8904  13.9623
    14.8938  15.0349  15.1776  15.6433  15.6600  15.9213  16.1114  16.3976
    16.5908  17.1506  17.4921  17.6114  17.7129

          k = 0.1667 0.0000-0.4968 ( 61568 PWs)   bands (ev):

   -65.8716 -65.8716 -65.8711 -65.8710 -65.8707 -65.8707 -65.8702 -65.8701
   -30.2945 -30.2945 -30.2867 -30.2867 -30.2477 -30.2476 -30.2312 -30.2312
   -30.2230 -30.2230 -30.2171 -30.2171 -30.1899 -30.1899 -30.1867 -30.1867
   -30.1811 -30.1810 -30.1658 -30.1658 -30.1320 -30.1319 -30.1237 -30.1237
   -20.0248 -20.0248 -20.0247 -20.0246 -20.0239 -20.0239 -20.0238 -20.0238
   -20.0084 -20.0084 -20.0078 -20.0078 -20.0078 -20.0077 -20.0072 -20.0072
   -20.0032 -20.0032 -20.0031 -20.0031 -20.0023 -20.0023 -20.0020 -20.0020
   -20.0014 -20.0013 -20.0011 -20.0011 -19.9980 -19.9980 -19.9978 -19.9978
   -19.9911 -19.9911 -19.9909 -19.9909 -19.9870 -19.9870 -19.9868 -19.9868
   -19.9792 -19.9792 -19.9792 -19.9792 -19.9785 -19.9784 -19.9784 -19.9784
   -19.9697 -19.9697 -19.9696 -19.9695 -19.9670 -19.9670 -19.9669 -19.9669
    -9.4155  -9.4155  -9.0361  -9.0361  -9.0017  -9.0017  -8.6274  -8.6274
    -8.3667  -8.3667  -8.3433  -8.3433  -8.2976  -8.2975  -8.2425  -8.2424
    -7.6976  -7.6976  -7.6259  -7.6259  -7.5727  -7.5727  -7.5412  -7.5412
     1.6968   1.6968   1.7839   1.7839   1.9348   1.9348   2.0326   2.0326
     2.8652   2.8652   3.2119   3.2119   3.2805   3.2805   3.3755   3.3755
     3.4433   3.4433   3.5688   3.5688   3.7965   3.7965   3.9908   3.9908
     4.0464   4.0464   4.5803   4.5803   4.7839   4.7839   5.1368   5.1369
     5.1993   5.1993   5.2897   5.2897   5.4292   5.4292   5.8400   5.8400
     5.9077   5.9077   5.9872   5.9872   6.0903   6.0903   6.2243   6.2243
     6.5118   6.5118   6.6658   6.6658   6.7502   6.7502   6.9516   6.9516
     7.0369   7.0369   7.0796   7.0796   7.1495   7.1495   7.6953   7.6953
     7.7243   7.7243   7.8163   7.8163   7.8977   7.8977   8.1330   8.1330
    10.5287  10.5287  11.5734  11.5734  11.6942  11.6943  11.8604  11.8604
    12.0236  12.0236  12.5830  12.5830  12.9988  12.9988  13.0530  13.0530
    13.1700  13.1700  13.4865  13.4865  13.5765  13.5765  13.8949  13.8949
    14.9910  14.9910  15.4721  15.4721  16.0528  16.0528  16.2012  16.2013
    16.8974  16.8974  18.0130  18.0130  18.1628

          k = 0.1667 0.1596 0.0000 ( 61564 PWs)   bands (ev):

   -65.8720 -65.8715 -65.8711 -65.8711 -65.8706 -65.8706 -65.8702 -65.8697
   -30.2956 -30.2881 -30.2872 -30.2789 -30.2616 -30.2556 -30.2465 -30.2440
   -30.2425 -30.2297 -30.2263 -30.2149 -30.2114 -30.2049 -30.1997 -30.1813
   -30.1521 -30.1509 -30.1419 -30.1387 -30.1345 -30.1277 -30.1244 -30.1180
   -20.0250 -20.0248 -20.0244 -20.0243 -20.0243 -20.0241 -20.0237 -20.0236
   -20.0086 -20.0082 -20.0081 -20.0079 -20.0076 -20.0075 -20.0075 -20.0070
   -20.0033 -20.0031 -20.0027 -20.0024 -20.0022 -20.0020 -20.0019 -20.0018
   -20.0016 -20.0015 -20.0012 -20.0010 -19.9988 -19.9986 -19.9980 -19.9978
   -19.9912 -19.9910 -19.9909 -19.9908 -19.9872 -19.9870 -19.9868 -19.9866
   -19.9822 -19.9820 -19.9813 -19.9812 -19.9762 -19.9762 -19.9755 -19.9754
   -19.9703 -19.9701 -19.9691 -19.9689 -19.9676 -19.9675 -19.9664 -19.9663
    -9.6738  -9.3951  -9.2762  -9.2019  -9.0250  -8.8892  -8.8157  -8.7416
    -8.7161  -8.6137  -8.5972  -8.5603  -7.8105  -7.7234  -7.7063  -7.6794
    -7.6676  -7.6370  -7.6244  -7.5974  -7.5699  -7.5536  -7.4964  -7.4683
     1.5796   1.5875   1.5910   1.5929   1.8333   1.8511   1.9015   2.0225
     2.0419   2.1170   2.1503   2.3516   2.6752   2.7654   2.8645   2.8939
     3.0189   3.0404   4.1180   4.2189   4.3251   4.4668   4.5291   4.6434
     4.7361   4.8878   4.9156   4.9662   5.0686   5.2126   5.2631   5.4691
     5.5581   5.6221   5.6506   5.7065   5.7367   5.7795   5.8323   5.8864
     5.9542   6.0108   6.0514   6.0650   6.1000   6.1518   6.1582   6.2697
     6.4155   6.5044   6.6077   6.6913   6.8538   6.8921   6.9684   6.9781
     6.9951   7.0440   7.0911   7.1377   7.1408   7.1529   7.2821   7.2856
     7.3734   7.3856   7.9086   7.9267   8.0567   8.1043   8.2471   8.2600
    10.1925  10.2222  10.5464  10.5533  10.7286  10.8036  12.2455  12.5243
    12.5347  12.5885  12.6433  12.6769  12.7230  12.7862  12.8521  12.9989
    13.2940  13.4120  13.5011  13.5246  13.8561  13.8714  14.1719  14.1776
    14.9029  15.0188  15.2325  15.3765  15.6473  15.6479  16.0510  16.2009
    16.4865  16.8316  16.9892  17.4928  17.8499

          k = 0.1667 0.1596 0.1656 ( 61566 PWs)   bands (ev):

   -65.8719 -65.8715 -65.8712 -65.8710 -65.8707 -65.8706 -65.8702 -65.8698
   -30.2948 -30.2877 -30.2871 -30.2793 -30.2585 -30.2516 -30.2468 -30.2401
   -30.2400 -30.2271 -30.2246 -30.2156 -30.2093 -30.2033 -30.2009 -30.1801
   -30.1567 -30.1555 -30.1474 -30.1434 -30.1342 -30.1274 -30.1261 -30.1194
   -20.0249 -20.0248 -20.0245 -20.0244 -20.0242 -20.0241 -20.0237 -20.0236
   -20.0085 -20.0082 -20.0081 -20.0079 -20.0076 -20.0075 -20.0075 -20.0070
   -20.0032 -20.0031 -20.0027 -20.0024 -20.0023 -20.0021 -20.0019 -20.0018
   -20.0016 -20.0014 -20.0012 -20.0010 -19.9987 -19.9985 -19.9980 -19.9979
   -19.9912 -19.9910 -19.9909 -19.9908 -19.9872 -19.9870 -19.9868 -19.9866
   -19.9818 -19.9817 -19.9809 -19.9808 -19.9766 -19.9766 -19.9759 -19.9759
   -19.9702 -19.9701 -19.9692 -19.9690 -19.9675 -19.9674 -19.9665 -19.9663
    -9.6250  -9.3362  -9.2198  -9.2150  -8.9407  -8.9051  -8.8252  -8.7043
    -8.6844  -8.6078  -8.5717  -8.5648  -7.8227  -7.7515  -7.7271  -7.7104
    -7.6822  -7.6752  -7.6656  -7.6440  -7.6196  -7.5793  -7.5705  -7.5536
     1.7568   1.7736   1.8076   1.8301   1.8441   1.8585   1.9101   2.0199
     2.0759   2.1450   2.1713   2.3944   2.7681   2.8602   2.9030   2.9454
     3.0375   3.1058   4.1254   4.1958   4.3340   4.4387   4.5477   4.6153
     4.6539   4.6935   4.7773   4.8377   4.9161   5.0205   5.2483   5.3523
     5.4511   5.4747   5.5742   5.5802   5.6701   5.7024   5.7183   5.8014
     5.9119   5.9506   5.9821   6.0342   6.0656   6.0976   6.2695   6.3205
     6.5529   6.5680   6.7457   6.7763   6.8556   6.8799   6.9272   6.9431
     6.9956   7.0114   7.0640   7.0845   7.1061   7.1555   7.1951   7.2468
     7.3917   7.4289   7.9171   7.9275   8.0656   8.1089   8.2068   8.2226
    10.3752  10.4194  10.7109  10.7393  10.7786  10.8748  12.2996  12.4724
    12.5381  12.5717  12.6550  12.6739  12.7872  12.8332  12.8509  13.0101
    13.2283  13.3592  13.4214  13.5027  13.8440  13.8910  14.0434  14.0879
    14.9651  15.1462  15.2342  15.4753  15.7010  15.7152  16.1320  16.3595
    16.4547  16.9601  17.1294  17.2355  17.8893

          k = 0.1667 0.1596 0.3312 ( 61541 PWs)   bands (ev):

   -65.8718 -65.8713 -65.8713 -65.8709 -65.8709 -65.8704 -65.8704 -65.8700
   -30.2929 -30.2889 -30.2850 -30.2807 -30.2533 -30.2480 -30.2425 -30.2313
   -30.2308 -30.2293 -30.2179 -30.2103 -30.2070 -30.2017 -30.1954 -30.1760
   -30.1699 -30.1695 -30.1621 -30.1551 -30.1332 -30.1292 -30.1262 -30.1221
   -20.0248 -20.0247 -20.0246 -20.0245 -20.0241 -20.0240 -20.0238 -20.0237
   -20.0085 -20.0083 -20.0080 -20.0078 -20.0077 -20.0076 -20.0074 -20.0071
   -20.0031 -20.0030 -20.0028 -20.0026 -20.0024 -20.0021 -20.0021 -20.0018
   -20.0015 -20.0013 -20.0012 -20.0010 -19.9985 -19.9983 -19.9982 -19.9980
   -19.9912 -19.9910 -19.9910 -19.9909 -19.9871 -19.9869 -19.9868 -19.9867
   -19.9807 -19.9806 -19.9799 -19.9798 -19.9777 -19.9777 -19.9770 -19.9770
   -19.9700 -19.9699 -19.9694 -19.9693 -19.9673 -19.9672 -19.9667 -19.9666
    -9.5046  -9.2753  -9.1926  -9.0684  -8.9551  -8.8582  -8.7018  -8.6209
    -8.5791  -8.5697  -8.5504  -8.4719  -8.0278  -8.0153  -7.9529  -7.9148
    -7.7521  -7.7256  -7.6747  -7.6533  -7.6401  -7.6329  -7.5955  -7.5831
     1.8281   1.8390   1.9103   1.9269   1.9854   2.0033   2.0876   2.1442
     2.5013   2.5581   2.6364   2.7523   2.9205   2.9938   3.0549   3.1398
     3.1932   3.3332   3.9383   4.0430   4.0965   4.1055   4.3424   4.3795
     4.4497   4.5536   4.6378   4.6930   4.7551   4.8967   4.9370   5.0328
     5.0563   5.1611   5.2413   5.3337   5.4004   5.4700   5.6613   5.7673
     5.8203   5.8819   5.9954   6.0233   6.0320   6.0546   6.1712   6.2249
     6.5315   6.6839   6.7218   6.8015   6.8374   6.8578   6.9101   6.9577
     6.9948   7.0497   7.0988   7.1690   7.2204   7.2552   7.3703   7.3955
     7.4508   7.5188   7.8902   7.8981   8.0422   8.0949   8.1078   8.1100
    10.6636  10.6815  10.9695  11.0673  11.2825  11.3810  12.1658  12.2432
    12.4207  12.4834  12.6401  12.6928  12.7696  12.8572  12.9155  13.0093
    13.0339  13.2359  13.3098  13.4734  13.7253  13.7412  13.8956  13.9303
    15.1036  15.2120  15.5013  15.7373  15.9107  16.0291  16.1447  16.3703
    16.6981  17.1307  17.3856  17.5633  17.6949

          k = 0.1667 0.1596-0.4968 ( 61578 PWs)   bands (ev):

   -65.8716 -65.8715 -65.8711 -65.8711 -65.8706 -65.8706 -65.8702 -65.8702
   -30.2907 -30.2907 -30.2827 -30.2826 -30.2500 -30.2500 -30.2343 -30.2343
   -30.2226 -30.2226 -30.2176 -30.2175 -30.1899 -30.1899 -30.1873 -30.1873
   -30.1806 -30.1806 -30.1676 -30.1676 -30.1315 -30.1315 -30.1245 -30.1245
   -20.0247 -20.0247 -20.0246 -20.0246 -20.0240 -20.0240 -20.0239 -20.0239
   -20.0084 -20.0084 -20.0078 -20.0078 -20.0077 -20.0077 -20.0073 -20.0073
   -20.0030 -20.0030 -20.0028 -20.0028 -20.0023 -20.0023 -20.0020 -20.0020
   -20.0013 -20.0013 -20.0011 -20.0011 -19.9983 -19.9983 -19.9981 -19.9981
   -19.9911 -19.9911 -19.9909 -19.9909 -19.9870 -19.9870 -19.9868 -19.9868
   -19.9792 -19.9792 -19.9792 -19.9792 -19.9785 -19.9784 -19.9784 -19.9784
   -19.9697 -19.9697 -19.9696 -19.9695 -19.9670 -19.9670 -19.9669 -19.9669
    -9.3729  -9.3729  -9.0485  -9.0485  -8.9322  -8.9322  -8.5953  -8.5953
    -8.3717  -8.3717  -8.3434  -8.3434  -8.2993  -8.2993  -8.2362  -8.2361
    -7.7416  -7.7416  -7.6557  -7.6557  -7.6280  -7.6280  -7.6093  -7.6093
     1.8337   1.8337   1.9280   1.9280   1.9985   1.9985   2.1385   2.1385
     2.9349   2.9349   3.2286   3.2286   3.2995   3.2995   3.3786   3.3786
     3.4435   3.4436   3.5992   3.5992   3.7854   3.7854   4.0051   4.0051
     4.0975   4.0976   4.5307   4.5307   4.5916   4.5916   4.9447   4.9447
     5.0899   5.0899   5.2383   5.2383   5.3259   5.3259   5.7352   5.7352
     5.8891   5.8891   5.9124   5.9124   6.0380   6.0381   6.0777   6.0777
     6.6292   6.6292   6.7721   6.7722   6.8225   6.8225   6.9424   6.9425
     7.0414   7.0414   7.1020   7.1020   7.2095   7.2095   7.6955   7.6955
     7.7218   7.7218   7.7959   7.7959   7.8676   7.8676   8.1031   8.1031
    10.7029  10.7029  11.5815  11.5815  11.6952  11.6952  11.9211  11.9211
    12.0703  12.0703  12.6098  12.6098  12.8844  12.8844  12.9889  12.9889
    13.1365  13.1365  13.3693  13.3693  13.5136  13.5136  13.8846  13.8846
    15.1822  15.1822  15.8262  15.8262  16.1235  16.1235  16.2188  16.2189
    16.9393  16.9393  17.8737  17.8737  18.1396

          k = 0.1667 0.3193 0.0000 ( 61577 PWs)   bands (ev):

   -65.8719 -65.8716 -65.8710 -65.8710 -65.8707 -65.8707 -65.8701 -65.8698
   -30.2865 -30.2787 -30.2771 -30.2676 -30.2664 -30.2595 -30.2533 -30.2441
   -30.2436 -30.2370 -30.2282 -30.2180 -30.2128 -30.2046 -30.2010 -30.1879
   -30.1519 -30.1511 -30.1417 -30.1400 -30.1334 -30.1295 -30.1234 -30.1198
   -20.0248 -20.0247 -20.0244 -20.0243 -20.0242 -20.0241 -20.0238 -20.0237
   -20.0085 -20.0082 -20.0081 -20.0079 -20.0077 -20.0076 -20.0074 -20.0071
   -20.0026 -20.0026 -20.0024 -20.0022 -20.0019 -20.0016 -20.0015 -20.0014
   -20.0014 -20.0013 -20.0013 -20.0010 -19.9997 -19.9995 -19.9990 -19.9988
   -19.9912 -19.9911 -19.9909 -19.9908 -19.9872 -19.9870 -19.9867 -19.9866
   -19.9822 -19.9821 -19.9813 -19.9812 -19.9762 -19.9762 -19.9755 -19.9754
   -19.9703 -19.9702 -19.9691 -19.9690 -19.9676 -19.9675 -19.9664 -19.9663
    -9.5930  -9.4353  -9.1877  -9.0917  -9.0520  -8.9215  -8.7338  -8.7204
    -8.6030  -8.4768  -8.4683  -8.4492  -8.0015  -7.9482  -7.9321  -7.9110
    -7.7210  -7.7074  -7.6233  -7.6082  -7.5791  -7.5628  -7.4918  -7.4775
     1.5815   1.5872   1.5917   1.5954   1.8898   1.9003   2.0527   2.1063
     2.5419   2.6413   2.6989   2.7177   2.7465   2.8365   3.1170   3.1345
     3.2445   3.2816   3.7755   3.7800   3.9891   3.9954   4.2795   4.5375
     4.6242   4.7112   4.7847   4.8529   4.9392   4.9966   5.1075   5.1802
     5.2400   5.2533   5.5344   5.5823   5.6060   5.7434   5.7901   5.8342
     5.9153   5.9557   5.9842   6.0550   6.1218   6.1450   6.2288   6.2680
     6.4253   6.4910   6.5782   6.7165   6.7949   6.9932   7.0183   7.0505
     7.1014   7.1157   7.1914   7.2513   7.2687   7.2719   7.3331   7.3341
     7.4067   7.4483   7.8734   7.9185   7.9650   7.9904   8.0342   8.0684
    10.2188  10.2335  10.9432  10.9966  11.1800  11.2224  11.9832  12.2438
    12.3240  12.3813  12.5838  12.6129  12.6191  12.6490  12.8346  12.9634
    13.3201  13.4483  13.5337  13.5393  13.7026  13.7941  13.9392  13.9631
    15.3226  15.4956  15.5708  15.6247  15.7605  15.9579  16.0031  16.3371
    16.3758  17.1145  17.4116  17.5517  17.9206

          k = 0.1667 0.3193 0.1656 ( 61583 PWs)   bands (ev):

   -65.8718 -65.8716 -65.8711 -65.8709 -65.8708 -65.8707 -65.8702 -65.8699
   -30.2855 -30.2779 -30.2772 -30.2681 -30.2642 -30.2564 -30.2536 -30.2407
   -30.2402 -30.2375 -30.2235 -30.2152 -30.2135 -30.2057 -30.1993 -30.1865
   -30.1565 -30.1558 -30.1471 -30.1450 -30.1330 -30.1292 -30.1251 -30.1212
   -20.0248 -20.0246 -20.0244 -20.0243 -20.0242 -20.0242 -20.0238 -20.0238
   -20.0084 -20.0082 -20.0081 -20.0078 -20.0077 -20.0076 -20.0074 -20.0071
   -20.0026 -20.0026 -20.0025 -20.0022 -20.0019 -20.0017 -20.0016 -20.0016
   -20.0015 -20.0013 -20.0011 -20.0009 -19.9996 -19.9994 -19.9990 -19.9988
   -19.9912 -19.9911 -19.9909 -19.9908 -19.9871 -19.9870 -19.9868 -19.9867
   -19.9818 -19.9817 -19.9809 -19.9809 -19.9766 -19.9766 -19.9759 -19.9759
   -19.9702 -19.9701 -19.9691 -19.9691 -19.9675 -19.9674 -19.9665 -19.9664
    -9.5406  -9.3773  -9.1165  -9.1100  -8.9684  -8.9383  -8.6994  -8.6887
    -8.6122  -8.4717  -8.4568  -8.4498  -8.0049  -7.9543  -7.9325  -7.9172
    -7.7478  -7.7363  -7.6875  -7.6815  -7.6220  -7.6048  -7.5776  -7.5625
     1.7614   1.7705   1.8351   1.8385   1.8961   1.9067   2.0977   2.1617
     2.5512   2.6417   2.7068   2.7821   2.8200   2.8670   3.1254   3.2125
     3.2440   3.3602   3.7846   3.8498   3.9878   3.9920   4.2591   4.5552
     4.5767   4.6329   4.6880   4.7258   4.8381   4.9490   4.9928   5.0449
     5.0981   5.1861   5.3748   5.3949   5.5812   5.5900   5.6041   5.6568
     5.8542   5.8722   5.8936   5.9280   6.0146   6.0210   6.2949   6.3118
     6.5820   6.6284   6.7227   6.7824   6.9153   6.9810   6.9868   7.0402
     7.0635   7.1047   7.1643   7.1865   7.2615   7.2778   7.3119   7.3466
     7.4496   7.4568   7.8832   7.9198   7.9570   7.9937   8.0099   8.0441
    10.4244  10.4460  11.1010  11.1276  11.1967  11.2607  12.0660  12.2854
    12.3378  12.3781  12.5644  12.5909  12.6192  12.6677  12.8909  13.0025
    13.2564  13.3623  13.4289  13.4817  13.6674  13.7946  13.8170  13.9007
    15.4261  15.6024  15.6934  15.6989  15.7766  16.0174  16.2643  16.3477
    16.4801  17.0831  17.4783  17.5876  17.6409

          k = 0.1667 0.3193 0.3312 ( 61579 PWs)   bands (ev):

   -65.8717 -65.8714 -65.8712 -65.8710 -65.8708 -65.8705 -65.8703 -65.8701
   -30.2832 -30.2789 -30.2746 -30.2695 -30.2601 -30.2550 -30.2494 -30.2399
   -30.2309 -30.2308 -30.2163 -30.2105 -30.2093 -30.2051 -30.1928 -30.1818
   -30.1700 -30.1698 -30.1614 -30.1577 -30.1320 -30.1282 -30.1279 -30.1240
   -20.0247 -20.0245 -20.0244 -20.0243 -20.0242 -20.0241 -20.0240 -20.0239
   -20.0084 -20.0082 -20.0081 -20.0078 -20.0077 -20.0075 -20.0075 -20.0072
   -20.0026 -20.0025 -20.0024 -20.0022 -20.0020 -20.0020 -20.0019 -20.0017
   -20.0013 -20.0011 -20.0011 -20.0009 -19.9994 -19.9992 -19.9991 -19.9989
   -19.9911 -19.9910 -19.9910 -19.9909 -19.9871 -19.9869 -19.9869 -19.9867
   -19.9807 -19.9806 -19.9799 -19.9799 -19.9777 -19.9777 -19.9770 -19.9770
   -19.9700 -19.9699 -19.9694 -19.9693 -19.9673 -19.9672 -19.9667 -19.9666
    -9.4107  -9.2348  -9.1675  -8.9909  -8.9323  -8.7325  -8.6496  -8.5931
    -8.5741  -8.4678  -8.4464  -8.3903  -8.0846  -8.0394  -8.0085  -7.9511
    -7.9263  -7.9083  -7.8960  -7.8242  -7.6775  -7.6614  -7.6104  -7.5945
     1.8970   1.9111   1.9212   1.9319   2.4102   2.4756   2.4989   2.5801
     2.6381   2.6917   2.7133   2.8929   3.0615   3.1077   3.1616   3.2320
     3.4362   3.5508   3.8128   3.8766   3.9641   3.9932   4.0651   4.1421
     4.2710   4.4597   4.5048   4.5873   4.6127   4.6987   4.8142   4.8954
     4.9159   5.0238   5.0739   5.1249   5.1754   5.2601   5.3615   5.4081
     5.5432   5.5686   5.6547   5.8444   5.9440   6.0165   6.1999   6.2190
     6.6901   6.7691   6.7800   6.8910   6.9590   6.9950   7.0842   7.1073
     7.1568   7.1967   7.2343   7.2532   7.3041   7.3757   7.4018   7.4245
     7.4796   7.5077   7.8735   7.8804   7.9147   7.9334   7.9768   7.9855
    10.9212  10.9451  11.2045  11.2578  11.5522  11.6324  12.1490  12.2079
    12.3160  12.3816  12.4477  12.5191  12.7133  12.7795  12.8302  12.8746
    12.9620  13.1586  13.2132  13.4555  13.4647  13.5713  13.7760  13.7971
    15.5491  15.6490  15.8824  16.1189  16.2130  16.2516  16.3261  16.9184
    16.9426  17.0211  17.1300  17.7073  17.7970

          k = 0.1667 0.3193-0.4968 ( 61576 PWs)   bands (ev):

   -65.8715 -65.8714 -65.8712 -65.8712 -65.8705 -65.8705 -65.8703 -65.8703
   -30.2808 -30.2808 -30.2717 -30.2717 -30.2570 -30.2570 -30.2435 -30.2435
   -30.2217 -30.2217 -30.2187 -30.2187 -30.1899 -30.1898 -30.1886 -30.1886
   -30.1792 -30.1791 -30.1719 -30.1719 -30.1304 -30.1304 -30.1264 -30.1264
   -20.0245 -20.0245 -20.0244 -20.0244 -20.0241 -20.0241 -20.0240 -20.0240
   -20.0083 -20.0082 -20.0079 -20.0079 -20.0076 -20.0076 -20.0074 -20.0074
   -20.0024 -20.0024 -20.0023 -20.0023 -20.0022 -20.0021 -20.0019 -20.0019
   -20.0011 -20.0011 -20.0009 -20.0009 -19.9992 -19.9992 -19.9990 -19.9990
   -19.9911 -19.9911 -19.9910 -19.9910 -19.9870 -19.9870 -19.9868 -19.9868
   -19.9792 -19.9792 -19.9792 -19.9792 -19.9785 -19.9784 -19.9784 -19.9784
   -19.9697 -19.9697 -19.9696 -19.9696 -19.9670 -19.9670 -19.9669 -19.9669
    -9.2698  -9.2698  -9.0884  -9.0884  -8.7442  -8.7441  -8.4960  -8.4960
    -8.3989  -8.3988  -8.3485  -8.3485  -8.2924  -8.2923  -8.2099  -8.2099
    -7.9488  -7.9488  -7.8930  -7.8930  -7.6444  -7.6444  -7.6278  -7.6278
     1.9158   1.9158   1.9309   1.9310   2.5586   2.5586   2.6807   2.6807
     3.1161   3.1161   3.2761   3.2762   3.3204   3.3204   3.4033   3.4033
     3.4457   3.4457   3.6881   3.6881   3.7372   3.7372   3.9502   3.9502
     4.1962   4.1962   4.2675   4.2675   4.3236   4.3236   4.5225   4.5225
     4.9606   4.9606   5.0881   5.0881   5.2374   5.2374   5.2850   5.2850
     5.3674   5.3674   5.7328   5.7328   6.0129   6.0129   6.0600   6.0600
     6.7886   6.7886   6.9029   6.9029   6.9514   6.9514   7.0256   7.0256
     7.2157   7.2157   7.2632   7.2632   7.3745   7.3745   7.6844   7.6844
     7.7082   7.7082   7.7250   7.7250   7.7814   7.7814   7.9690   7.9691
    11.1488  11.1489  11.5987  11.5988  11.7074  11.7074  12.0987  12.0987
    12.2283  12.2283  12.4863  12.4863  12.6570  12.6570  12.8141  12.8141
    13.0431  13.0431  13.1142  13.1142  13.4639  13.4639  13.7391  13.7391
    15.6187  15.6187  16.0756  16.0756  16.5745  16.5745  16.7166  16.7166
    17.0852  17.0852  17.5397  17.5397  18.0108

          k = 0.1667-0.4789 0.0000 ( 61632 PWs)   bands (ev):

   -65.8718 -65.8718 -65.8709 -65.8709 -65.8709 -65.8708 -65.8700 -65.8700
   -30.2755 -30.2754 -30.2677 -30.2676 -30.2644 -30.2644 -30.2523 -30.2523
   -30.2440 -30.2440 -30.2245 -30.2245 -30.2091 -30.2091 -30.1954 -30.1954
   -30.1515 -30.1515 -30.1411 -30.1411 -30.1316 -30.1316 -30.1218 -30.1218
   -20.0246 -20.0246 -20.0245 -20.0245 -20.0240 -20.0240 -20.0239 -20.0239
   -20.0083 -20.0083 -20.0079 -20.0079 -20.0078 -20.0078 -20.0072 -20.0072
   -20.0025 -20.0025 -20.0021 -20.0021 -20.0016 -20.0016 -20.0013 -20.0013
   -20.0009 -20.0009 -20.0006 -20.0006 -20.0002 -20.0002 -20.0000 -20.0000
   -19.9911 -19.9911 -19.9909 -19.9908 -19.9871 -19.9871 -19.9867 -19.9867
   -19.9821 -19.9821 -19.9813 -19.9812 -19.9762 -19.9762 -19.9755 -19.9755
   -19.9702 -19.9702 -19.9690 -19.9690 -19.9675 -19.9675 -19.9663 -19.9663
    -9.5039  -9.5039  -9.1046  -9.1046  -8.9865  -8.9865  -8.7267  -8.7267
    -8.3033  -8.3032  -8.2482  -8.2482  -8.2255  -8.2255  -8.2207  -8.2207
    -7.7178  -7.7178  -7.6165  -7.6165  -7.5722  -7.5722  -7.4851  -7.4851
     1.5843   1.5843   1.5934   1.5934   1.8989   1.8989   2.0956   2.0957
     2.7183   2.7183   3.1816   3.1816   3.3003   3.3003   3.3671   3.3672
     3.4703   3.4703   3.5686   3.5686   3.7936   3.7936   3.9194   3.9194
     4.0062   4.0062   4.6498   4.6498   4.8739   4.8739   5.2658   5.2658
     5.3541   5.3541   5.4624   5.4624   5.5358   5.5358   5.7715   5.7716
     5.9362   5.9362   5.9482   5.9482   6.1362   6.1362   6.2660   6.2660
     6.5242   6.5242   6.5723   6.5723   6.8758   6.8758   7.0618   7.0618
     7.1412   7.1412   7.2445   7.2445   7.3462   7.3462   7.6290   7.6290
     7.6666   7.6666   7.7115   7.7115   7.7547   7.7548   7.9425   7.9425
    10.2317  10.2318  11.4818  11.4818  11.5601  11.5601  11.7917  11.7917
    11.8684  11.8684  12.6120  12.6120  12.6275  12.6275  12.9094  12.9095
    13.4492  13.4492  13.5529  13.5529  13.6907  13.6907  13.7658  13.7658
    15.6140  15.6140  15.7912  15.7912  15.8431  15.8431  16.1316  16.1316
    16.8285  16.8285  18.0493  18.0494  18.2943

          k = 0.1667-0.4789 0.1656 ( 61584 PWs)   bands (ev):

   -65.8717 -65.8717 -65.8709 -65.8709 -65.8708 -65.8708 -65.8700 -65.8700
   -30.2740 -30.2739 -30.2659 -30.2657 -30.2647 -30.2645 -30.2528 -30.2528
   -30.2404 -30.2404 -30.2206 -30.2205 -30.2101 -30.2100 -30.1938 -30.1938
   -30.1562 -30.1562 -30.1464 -30.1463 -30.1313 -30.1312 -30.1233 -30.1233
   -20.0246 -20.0245 -20.0244 -20.0244 -20.0241 -20.0240 -20.0240 -20.0240
   -20.0083 -20.0083 -20.0079 -20.0079 -20.0077 -20.0077 -20.0073 -20.0073
   -20.0025 -20.0024 -20.0021 -20.0021 -20.0017 -20.0017 -20.0014 -20.0014
   -20.0008 -20.0008 -20.0006 -20.0005 -20.0002 -20.0002 -20.0000 -20.0000
   -19.9911 -19.9911 -19.9909 -19.9909 -19.9871 -19.9871 -19.9867 -19.9867
   -19.9817 -19.9817 -19.9809 -19.9809 -19.9766 -19.9766 -19.9759 -19.9759
   -19.9701 -19.9701 -19.9691 -19.9691 -19.9675 -19.9674 -19.9664 -19.9664
    -9.4479  -9.4479  -9.0249  -9.0243  -9.0044  -9.0041  -8.6939  -8.6938
    -8.3109  -8.3099  -8.2479  -8.2466  -8.2306  -8.2288  -8.2174  -8.2147
    -7.7457  -7.7443  -7.6865  -7.6864  -7.6153  -7.6151  -7.5713  -7.5710
     1.7624   1.7685   1.8366   1.8402   1.9039   1.9067   2.1477   2.1523
     2.8092   2.8126   3.2007   3.2025   3.2935   3.3335   3.3496   3.3764
     3.4868   3.5208   3.5457   3.5969   3.8092   3.8281   3.9219   3.9314
     4.0297   4.0322   4.5849   4.6331   4.6946   4.7303   5.1122   5.1359
     5.2421   5.2696   5.2749   5.3484   5.3740   5.4259   5.6520   5.6587
     5.7078   5.7320   5.8665   5.9201   5.9732   5.9874   6.3108   6.3135
[...]
    11.7225  11.7225  11.7225  11.7225  11.9634  11.9634  11.9634  11.9635
    12.3261  12.3262  12.3262  12.3262  12.5407  12.5407  12.5407  12.5407
    13.2476  13.2476  13.2476  13.2476  13.4477  13.4477  13.4477  13.4477
    15.6127  15.6127  15.6127  15.6127  16.9977  16.9977  16.9978  16.9978
    17.6024  17.6024  17.6024  17.6025  17.8369

          k =-0.5000 0.3193 0.0000 ( 61642 PWs)   bands (ev):

   -65.8715 -65.8714 -65.8712 -65.8712 -65.8705 -65.8705 -65.8703 -65.8703
   -30.2819 -30.2819 -30.2714 -30.2714 -30.2622 -30.2621 -30.2426 -30.2426
   -30.2337 -30.2337 -30.2270 -30.2270 -30.1785 -30.1785 -30.1768 -30.1768
   -30.1699 -30.1699 -30.1633 -30.1632 -30.1374 -30.1374 -30.1349 -30.1349
   -20.0247 -20.0247 -20.0243 -20.0243 -20.0242 -20.0242 -20.0238 -20.0238
   -20.0082 -20.0082 -20.0079 -20.0079 -20.0077 -20.0077 -20.0074 -20.0074
   -20.0026 -20.0026 -20.0025 -20.0025 -20.0018 -20.0018 -20.0014 -20.0014
   -20.0014 -20.0014 -20.0012 -20.0012 -19.9996 -19.9996 -19.9989 -19.9988
   -19.9891 -19.9891 -19.9890 -19.9890 -19.9887 -19.9887 -19.9887 -19.9887
   -19.9817 -19.9817 -19.9816 -19.9816 -19.9759 -19.9759 -19.9758 -19.9758
   -19.9690 -19.9690 -19.9689 -19.9689 -19.9678 -19.9678 -19.9677 -19.9677
    -9.3450  -9.3450  -9.1915  -9.1915  -8.7372  -8.7372  -8.5262  -8.5262
    -8.3551  -8.3551  -8.3360  -8.3360  -8.2732  -8.2732  -8.1913  -8.1912
    -7.9302  -7.9302  -7.8898  -7.8898  -7.5559  -7.5558  -7.5409  -7.5409
     1.6098   1.6098   1.6179   1.6179   2.5377   2.5377   2.6828   2.6828
     3.1509   3.1509   3.1888   3.1888   3.2518   3.2518   3.3874   3.3874
     3.4698   3.4698   3.6646   3.6646   3.7801   3.7801   3.8852   3.8852
     4.1334   4.1334   4.2414   4.2414   4.4755   4.4755   4.6166   4.6166
     5.0582   5.0582   5.0798   5.0798   5.3631   5.3631   5.5225   5.5225
     5.6624   5.6624   5.9351   5.9351   6.3149   6.3149   6.3451   6.3451
     6.6301   6.6301   6.7270   6.7270   6.7463   6.7463   6.9157   6.9157
     7.2144   7.2144   7.2445   7.2445   7.2784   7.2784   7.6247   7.6247
     7.6559   7.6559   7.7915   7.7915   7.8294   7.8295   8.0400   8.0400
    10.9699  10.9699  11.5425  11.5425  11.6323  11.6323  11.8155  11.8155
    12.2543  12.2543  12.4547  12.4547  12.7690  12.7690  12.9491  12.9491
    13.0574  13.0574  13.2295  13.2295  13.5271  13.5271  13.9246  13.9246
    15.4339  15.4339  15.7772  15.7772  16.4923  16.4923  16.7073  16.7073
    16.8587  16.8587  17.5172  17.5172  18.0137

          k =-0.5000 0.3193 0.1656 ( 61572 PWs)   bands (ev):

   -65.8714 -65.8714 -65.8711 -65.8711 -65.8706 -65.8706 -65.8703 -65.8703
   -30.2807 -30.2807 -30.2719 -30.2719 -30.2592 -30.2592 -30.2431 -30.2431
   -30.2290 -30.2290 -30.2241 -30.2241 -30.1800 -30.1800 -30.1786 -30.1786
   -30.1695 -30.1695 -30.1626 -30.1626 -30.1421 -30.1421 -30.1390 -30.1390
   -20.0247 -20.0247 -20.0243 -20.0243 -20.0242 -20.0242 -20.0238 -20.0238
   -20.0082 -20.0081 -20.0079 -20.0079 -20.0078 -20.0078 -20.0074 -20.0074
   -20.0026 -20.0026 -20.0025 -20.0025 -20.0018 -20.0018 -20.0016 -20.0016
   -20.0014 -20.0014 -20.0010 -20.0010 -19.9995 -19.9995 -19.9989 -19.9989
   -19.9891 -19.9891 -19.9890 -19.9890 -19.9887 -19.9887 -19.9887 -19.9887
   -19.9813 -19.9813 -19.9813 -19.9813 -19.9763 -19.9763 -19.9762 -19.9762
   -19.9689 -19.9689 -19.9688 -19.9688 -19.9679 -19.9679 -19.9678 -19.9678
    -9.2788  -9.2788  -9.1136  -9.1136  -8.7527  -8.7527  -8.5073  -8.5073
    -8.3746  -8.3746  -8.3282  -8.3282  -8.2625  -8.2625  -8.1946  -8.1945
    -7.9279  -7.9279  -7.8951  -7.8951  -7.6670  -7.6670  -7.6507  -7.6507
     1.8518   1.8518   1.8618   1.8618   2.5467   2.5467   2.6690   2.6690
     3.1728   3.1728   3.2429   3.2429   3.2704   3.2704   3.4181   3.4181
     3.4904   3.4904   3.7113   3.7113   3.8140   3.8140   3.9369   3.9369
     4.1234   4.1234   4.2538   4.2538   4.4675   4.4675   4.6029   4.6029
     4.9244   4.9244   5.0329   5.0329   5.2284   5.2284   5.2725   5.2725
     5.3898   5.3898   5.7180   5.7180   5.9859   5.9859   6.0365   6.0365
     6.7996   6.7996   6.9544   6.9544   6.9873   6.9873   7.0294   7.0294
     7.1892   7.1892   7.2740   7.2741   7.3238   7.3239   7.6307   7.6307
     7.6678   7.6678   7.7982   7.7982   7.8309   7.8309   8.0164   8.0164
    11.1218  11.1218  11.6067  11.6067  11.7068  11.7068  11.8667  11.8667
    12.2752  12.2752  12.4935  12.4935  12.7592  12.7592  12.9122  12.9122
    13.0527  13.0527  13.2008  13.2008  13.3891  13.3891  13.7989  13.7989
    15.6287  15.6287  16.0018  16.0018  16.5491  16.5491  16.7067  16.7067
    16.9155  16.9155  17.5548  17.5548  17.9681

          k =-0.5000 0.3193 0.3312 ( 61578 PWs)   bands (ev):

   -65.8712 -65.8712 -65.8710 -65.8710 -65.8708 -65.8708 -65.8705 -65.8705
   -30.2780 -30.2780 -30.2732 -30.2732 -30.2530 -30.2530 -30.2448 -30.2448
   -30.2159 -30.2159 -30.2145 -30.2145 -30.1857 -30.1857 -30.1855 -30.1855
   -30.1676 -30.1676 -30.1607 -30.1607 -30.1531 -30.1531 -30.1482 -30.1482
   -20.0246 -20.0246 -20.0243 -20.0243 -20.0242 -20.0242 -20.0239 -20.0239
   -20.0081 -20.0081 -20.0079 -20.0079 -20.0078 -20.0078 -20.0075 -20.0075
   -20.0026 -20.0026 -20.0024 -20.0024 -20.0019 -20.0019 -20.0019 -20.0019
   -20.0012 -20.0012 -20.0010 -20.0010 -19.9993 -19.9993 -19.9990 -19.9990
   -19.9891 -19.9891 -19.9890 -19.9890 -19.9887 -19.9887 -19.9887 -19.9887
   -19.9803 -19.9803 -19.9802 -19.9802 -19.9774 -19.9774 -19.9773 -19.9773
   -19.9687 -19.9687 -19.9686 -19.9686 -19.9681 -19.9681 -19.9680 -19.9680
    -9.1089  -9.1089  -8.9006  -8.9006  -8.8059  -8.8059  -8.4651  -8.4651
    -8.4156  -8.4156  -8.3020  -8.3020  -8.2400  -8.2400  -8.2002  -8.2001
    -7.9643  -7.9643  -7.9380  -7.9379  -7.9074  -7.9074  -7.8614  -7.8614
     2.4166   2.4166   2.5117   2.5117   2.5765   2.5765   2.7079   2.7080
     3.2135   3.2135   3.2485   3.2485   3.3990   3.3990   3.4675   3.4676
     3.5674   3.5674   3.8537   3.8537   3.9296   3.9296   4.0356   4.0356
     4.0988   4.0988   4.2891   4.2891   4.4036   4.4036   4.4440   4.4440
     4.5848   4.5848   4.7202   4.7202   4.8912   4.8912   5.0598   5.0598
     5.1346   5.1346   5.2417   5.2417   5.2885   5.2885   5.5457   5.5457
     7.0030   7.0030   7.0726   7.0726   7.1740   7.1740   7.1955   7.1955
     7.3572   7.3572   7.4413   7.4413   7.4873   7.4873   7.6456   7.6456
     7.6984   7.6984   7.8043   7.8043   7.8232   7.8233   7.9448   7.9448
    11.5210  11.5210  11.7994  11.7994  11.9207  11.9207  11.9799  11.9799
    12.3531  12.3531  12.5742  12.5742  12.6442  12.6442  12.6791  12.6791
    12.9894  12.9894  13.0847  13.0847  13.1048  13.1048  13.4752  13.4752
    16.1422  16.1422  16.5072  16.5073  16.7519  16.7519  16.8446  16.8446
    17.1094  17.1094  17.6073  17.6074  17.8221

          k =-0.5000 0.3193-0.4968 ( 61576 PWs)   bands (ev):

   -65.8710 -65.8710 -65.8710 -65.8710 -65.8707 -65.8707 -65.8707 -65.8707
   -30.2754 -30.2754 -30.2754 -30.2753 -30.2479 -30.2479 -30.2479 -30.2479
   -30.2005 -30.2005 -30.2005 -30.2005 -30.1977 -30.1977 -30.1977 -30.1976
   -30.1630 -30.1630 -30.1630 -30.1630 -30.1559 -30.1559 -30.1559 -30.1558
   -20.0245 -20.0245 -20.0245 -20.0245 -20.0241 -20.0241 -20.0240 -20.0240
   -20.0080 -20.0080 -20.0080 -20.0079 -20.0077 -20.0077 -20.0076 -20.0076
   -20.0025 -20.0025 -20.0025 -20.0024 -20.0021 -20.0021 -20.0020 -20.0020
   -20.0010 -20.0010 -20.0010 -20.0010 -19.9991 -19.9991 -19.9991 -19.9991
   -19.9891 -19.9891 -19.9891 -19.9891 -19.9887 -19.9887 -19.9887 -19.9887
   -19.9789 -19.9789 -19.9789 -19.9789 -19.9788 -19.9788 -19.9787 -19.9787
   -19.9684 -19.9684 -19.9684 -19.9684 -19.9683 -19.9683 -19.9683 -19.9683
    -8.9239  -8.9239  -8.9239  -8.9239  -8.6294  -8.6294  -8.6294  -8.6294
    -8.3046  -8.3046  -8.3046  -8.3046  -8.1856  -8.1856  -8.1856  -8.1856
    -8.1494  -8.1494  -8.1493  -8.1493  -7.8998  -7.8997  -7.8997  -7.8997
     2.5639   2.5639   2.5639   2.5639   3.1572   3.1572   3.1573   3.1573
     3.2773   3.2773   3.2773   3.2773   3.4260   3.4260   3.4260   3.4260
     3.6160   3.6160   3.6160   3.6160   4.0166   4.0166   4.0166   4.0166
     4.2010   4.2010   4.2010   4.2010   4.3093   4.3093   4.3093   4.3093
     4.5368   4.5368   4.5368   4.5368   4.6638   4.6638   4.6638   4.6638
     4.9466   4.9466   4.9466   4.9466   5.3147   5.3147   5.3147   5.3147
     7.0736   7.0736   7.0736   7.0737   7.2052   7.2052   7.2053   7.2053
     7.5305   7.5305   7.5305   7.5305   7.6503   7.6504   7.6504   7.6504
     7.7410   7.7410   7.7410   7.7410   7.8564   7.8564   7.8564   7.8564
    11.9199  11.9199  11.9200  11.9200  12.1056  12.1056  12.1056  12.1056
    12.3218  12.3218  12.3218  12.3218  12.5999  12.5999  12.5999  12.6000
    12.9203  12.9203  12.9203  12.9203  13.1510  13.1510  13.1510  13.1510
    16.4735  16.4735  16.4735  16.4735  17.1392  17.1392  17.1392  17.1393
    17.5373  17.5373  17.5374  17.5374  17.8553

          k =-0.5000-0.4789 0.0000 ( 61664 PWs)   bands (ev):

   -65.8713 -65.8713 -65.8713 -65.8713 -65.8704 -65.8704 -65.8704 -65.8704
   -30.2709 -30.2709 -30.2704 -30.2704 -30.2572 -30.2572 -30.2562 -30.2562
   -30.2317 -30.2317 -30.2310 -30.2310 -30.1779 -30.1779 -30.1772 -30.1772
   -30.1679 -30.1679 -30.1663 -30.1663 -30.1367 -30.1367 -30.1362 -30.1362
   -20.0245 -20.0245 -20.0245 -20.0245 -20.0240 -20.0240 -20.0240 -20.0240
   -20.0081 -20.0081 -20.0080 -20.0080 -20.0076 -20.0076 -20.0075 -20.0075
   -20.0024 -20.0024 -20.0024 -20.0024 -20.0016 -20.0016 -20.0015 -20.0015
   -20.0007 -20.0007 -20.0007 -20.0007 -20.0001 -20.0001 -20.0001 -20.0001
   -19.9890 -19.9890 -19.9890 -19.9890 -19.9887 -19.9887 -19.9887 -19.9887
   -19.9817 -19.9817 -19.9817 -19.9817 -19.9759 -19.9759 -19.9758 -19.9758
   -19.9690 -19.9690 -19.9690 -19.9690 -19.9678 -19.9678 -19.9678 -19.9678
    -9.2593  -9.2593  -9.2493  -9.2493  -8.5151  -8.5150  -8.4800  -8.4800
    -8.4026  -8.4026  -8.3714  -8.3714  -8.2094  -8.2094  -8.1388  -8.1387
    -8.1364  -8.1364  -8.0746  -8.0746  -7.5492  -7.5492  -7.5486  -7.5486
     1.6104   1.6104   1.6184   1.6184   3.0645   3.0646   3.1772   3.1772
     3.2062   3.2062   3.2246   3.2246   3.4191   3.4191   3.4689   3.4690
     3.4957   3.4957   3.6333   3.6333   3.6658   3.6658   3.7827   3.7827
     3.7837   3.7837   4.1392   4.1392   4.4522   4.4522   4.5424   4.5424
     4.5715   4.5715   4.6622   4.6622   5.4101   5.4101   5.4727   5.4727
     5.6893   5.6893   5.7728   5.7728   6.3357   6.3357   6.3454   6.3454
     6.7223   6.7223   6.7358   6.7358   6.7678   6.7678   6.8328   6.8328
     7.3985   7.3985   7.4214   7.4214   7.4847   7.4847   7.6177   7.6177
     7.7092   7.7093   7.7429   7.7429   7.7478   7.7478   7.8137   7.8137
    11.4937  11.4937  11.5066  11.5066  11.6095  11.6095  11.6220  11.6220
    12.4450  12.4450  12.5244  12.5244  12.5485  12.5485  12.6632  12.6632
    13.0981  13.0981  13.1087  13.1087  13.6434  13.6434  13.7092  13.7092
    15.6655  15.6655  15.6951  15.6951  16.9432  16.9433  17.1283  17.1283
    17.3993  17.3993  17.5064  17.5069  17.5759

          k =-0.5000-0.4789 0.1656 ( 61588 PWs)   bands (ev):

   -65.8713 -65.8713 -65.8713 -65.8712 -65.8705 -65.8705 -65.8705 -65.8705
   -30.2690 -30.2690 -30.2685 -30.2685 -30.2577 -30.2577 -30.2567 -30.2567
   -30.2277 -30.2277 -30.2270 -30.2270 -30.1795 -30.1795 -30.1789 -30.1789
   -30.1674 -30.1674 -30.1657 -30.1657 -30.1412 -30.1412 -30.1406 -30.1406
   -20.0245 -20.0245 -20.0245 -20.0245 -20.0240 -20.0240 -20.0240 -20.0240
   -20.0081 -20.0081 -20.0080 -20.0080 -20.0077 -20.0077 -20.0075 -20.0075
   -20.0024 -20.0024 -20.0024 -20.0024 -20.0017 -20.0017 -20.0016 -20.0016
   -20.0006 -20.0006 -20.0006 -20.0006 -20.0001 -20.0001 -20.0001 -20.0000
   -19.9891 -19.9890 -19.9890 -19.9890 -19.9887 -19.9887 -19.9887 -19.9887
   -19.9813 -19.9813 -19.9813 -19.9813 -19.9763 -19.9763 -19.9762 -19.9762
   -19.9689 -19.9689 -19.9689 -19.9689 -19.9679 -19.9679 -19.9679 -19.9679
    -9.1860  -9.1860  -9.1748  -9.1748  -8.5353  -8.5352  -8.5002  -8.5002
    -8.3869  -8.3869  -8.3537  -8.3537  -8.2064  -8.2064  -8.1487  -8.1487
    -8.1260  -8.1260  -8.0777  -8.0777  -7.6600  -7.6600  -7.6598  -7.6598
     1.8542   1.8542   1.8640   1.8640   3.0813   3.0813   3.1958   3.1958
     3.2047   3.2048   3.2548   3.2548   3.3739   3.3739   3.4798   3.4798
     3.5608   3.5608   3.6703   3.6703   3.7216   3.7216   3.7873   3.7873
     3.8534   3.8534   4.1583   4.1583   4.4586   4.4586   4.5284   4.5284
     4.5699   4.5699   4.6473   4.6473   5.1079   5.1079   5.2721   5.2721
     5.3831   5.3831   5.5219   5.5219   5.9852   5.9852   6.0147   6.0147
     6.8678   6.8678   6.9525   6.9525   7.0193   7.0193   7.0620   7.0620
     7.3881   7.3881   7.4299   7.4299   7.5219   7.5219   7.6061   7.6062
     7.6911   7.6911   7.7195   7.7195   7.7849   7.7849   7.8159   7.8159
    11.5622  11.5622  11.6237  11.6237  11.6593  11.6593  11.7517  11.7517
    12.4583  12.4583  12.5296  12.5296  12.5419  12.5419  12.6783  12.6783
    13.0277  13.0277  13.0936  13.0936  13.5047  13.5047  13.5770  13.5770
    15.8943  15.8943  15.9274  15.9275  16.9965  16.9965  17.1821  17.1822
    17.4015  17.4015  17.5204  17.5208  17.5808

          k =-0.5000-0.4789 0.3312 ( 61548 PWs)   bands (ev):

   -65.8711 -65.8711 -65.8711 -65.8711 -65.8706 -65.8706 -65.8706 -65.8706
   -30.2652 -30.2652 -30.2644 -30.2644 -30.2592 -30.2592 -30.2582 -30.2582
   -30.2158 -30.2158 -30.2153 -30.2153 -30.1857 -30.1857 -30.1855 -30.1855
   -30.1653 -30.1653 -30.1638 -30.1638 -30.1515 -30.1515 -30.1506 -30.1506
   -20.0244 -20.0244 -20.0244 -20.0244 -20.0241 -20.0241 -20.0241 -20.0241
   -20.0080 -20.0080 -20.0079 -20.0079 -20.0077 -20.0077 -20.0076 -20.0076
   -20.0023 -20.0023 -20.0023 -20.0023 -20.0019 -20.0019 -20.0018 -20.0018
   -20.0005 -20.0005 -20.0005 -20.0005 -20.0001 -20.0001 -20.0000 -20.0000
   -19.9891 -19.9891 -19.9890 -19.9890 -19.9887 -19.9887 -19.9887 -19.9887
   -19.9803 -19.9803 -19.9803 -19.9803 -19.9774 -19.9774 -19.9773 -19.9773
   -19.9687 -19.9687 -19.9687 -19.9687 -19.9681 -19.9681 -19.9681 -19.9681
    -8.9899  -8.9899  -8.9742  -8.9742  -8.6036  -8.6036  -8.5689  -8.5689
    -8.3332  -8.3332  -8.2987  -8.2987  -8.1992  -8.1992  -8.1598  -8.1598
    -8.1133  -8.1133  -8.0865  -8.0865  -7.9229  -7.9229  -7.9215  -7.9215
     2.4907   2.4907   2.5133   2.5133   3.1208   3.1209   3.1822   3.1822
     3.2402   3.2402   3.3200   3.3200   3.3536   3.3536   3.4561   3.4561
     3.6609   3.6609   3.7400   3.7400   3.8060   3.8060   3.8611   3.8611
     4.0713   4.0713   4.2185   4.2186   4.4386   4.4386   4.4543   4.4543
     4.5264   4.5264   4.5855   4.5855   4.7191   4.7191   4.8449   4.8449
     4.9219   4.9219   5.0585   5.0585   5.2399   5.2399   5.2876   5.2876
     7.1133   7.1133   7.2287   7.2287   7.3172   7.3172   7.3628   7.3628
     7.4045   7.4045   7.4857   7.4857   7.5633   7.5633   7.5989   7.5989
     7.6656   7.6656   7.7260   7.7260   7.7982   7.7982   7.8193   7.8193
    11.7924  11.7924  11.8535  11.8535  11.9356  11.9356  12.0608  12.0608
    12.4575  12.4575  12.4701  12.4701  12.5600  12.5600  12.7055  12.7055
    12.7785  12.7785  12.9064  12.9064  13.1573  13.1573  13.2354  13.2354
    16.5654  16.5654  16.6240  16.6240  17.1386  17.1386  17.3170  17.3170
    17.3897  17.3897  17.5432  17.5432  17.5887

          k =-0.5000-0.4789-0.4968 ( 61616 PWs)   bands (ev):

   -65.8709 -65.8709 -65.8709 -65.8709 -65.8709 -65.8709 -65.8708 -65.8708
   -30.2618 -30.2618 -30.2617 -30.2617 -30.2607 -30.2607 -30.2607 -30.2607
   -30.2005 -30.2005 -30.2005 -30.2005 -30.1978 -30.1978 -30.1977 -30.1977
   -30.1612 -30.1612 -30.1612 -30.1612 -30.1585 -30.1585 -30.1585 -30.1585
   -20.0243 -20.0243 -20.0243 -20.0243 -20.0243 -20.0242 -20.0242 -20.0242
   -20.0079 -20.0079 -20.0079 -20.0078 -20.0078 -20.0077 -20.0077 -20.0077
   -20.0022 -20.0022 -20.0022 -20.0022 -20.0020 -20.0020 -20.0020 -20.0020
   -20.0004 -20.0004 -20.0004 -20.0004 -20.0001 -20.0001 -20.0000 -20.0000
   -19.9891 -19.9891 -19.9891 -19.9891 -19.9887 -19.9887 -19.9887 -19.9887
   -19.9789 -19.9789 -19.9789 -19.9789 -19.9788 -19.9788 -19.9787 -19.9787
   -19.9684 -19.9684 -19.9684 -19.9684 -19.9684 -19.9684 -19.9683 -19.9683
    -8.7602  -8.7602  -8.7601  -8.7601  -8.7269  -8.7269  -8.7269  -8.7269
    -8.2237  -8.2237  -8.2237  -8.2237  -8.1747  -8.1747  -8.1747  -8.1747
    -8.1423  -8.1423  -8.1423  -8.1423  -8.0959  -8.0958  -8.0958  -8.0958
     3.0633   3.0633   3.0633   3.0633   3.1679   3.1679   3.1679   3.1679
     3.3461   3.3461   3.3461   3.3461   3.4778   3.4778   3.4779   3.4779
     3.5448   3.5448   3.5448   3.5448   3.7549   3.7549   3.7549   3.7549
     4.3373   4.3373   4.3373   4.3373   4.3765   4.3765   4.3765   4.3765
     4.5448   4.5448   4.5448   4.5448   4.6314   4.6314   4.6314   4.6314
     4.7121   4.7121   4.7121   4.7121   4.8071   4.8071   4.8071   4.8072
     7.2460   7.2460   7.2460   7.2460   7.4354   7.4354   7.4354   7.4354
     7.5070   7.5070   7.5070   7.5070   7.5770   7.5770   7.5770   7.5770
     7.7166   7.7166   7.7166   7.7166   7.8073   7.8073   7.8073   7.8073
    12.1154  12.1154  12.1154  12.1154  12.1446  12.1446  12.1446  12.1447
    12.4012  12.4012  12.4012  12.4012  12.5992  12.5992  12.5992  12.5992
    12.7578  12.7578  12.7578  12.7578  12.8862  12.8862  12.8862  12.8862
    17.1967  17.1967  17.1967  17.1967  17.3060  17.3060  17.3060  17.3060
    17.5402  17.5403  17.5403  17.5403  17.6462

     the Fermi energy is    10.2147 ev

!    total energy              =   -6260.84303212 Ry
     Harris-Foulkes estimate   =   -6260.84303212 Ry
     estimated scf accuracy    <          7.3E-10 Ry

     The total energy is the sum of the following terms:

     one-electron contribution =   -4665.03901401 Ry
     hartree contribution      =    2572.98606593 Ry
     xc contribution           =    -966.05566740 Ry
     ewald contribution        =   -3202.73438178 Ry
     smearing contrib. (-TS)   =      -0.00003486 Ry

     convergence has been achieved in  13 iterations

     Writing output data file Landau_35.save
 
     init_run     :     13.55s CPU     14.47s WALL (       1 calls)
     electrons    :    559.18s CPU    574.38s WALL (       1 calls)

     Called by init_run:
     wfcinit      :     11.18s CPU     11.96s WALL (       1 calls)
     potinit      :      1.01s CPU      1.04s WALL (       1 calls)

     Called by electrons:
     c_bands      :    482.89s CPU    496.98s WALL (      13 calls)
     sum_band     :     69.35s CPU     69.86s WALL (      13 calls)
     v_of_rho     :      1.12s CPU      1.15s WALL (      14 calls)
     mix_rho      :      2.00s CPU      2.32s WALL (      13 calls)

     Called by c_bands:
     init_us_2    :      3.68s CPU      4.26s WALL (      27 calls)
     cegterg      :    352.83s CPU    366.46s WALL (      13 calls)

     Called by sum_band:

     Called by *egterg:
     h_psi        :    287.52s CPU    289.37s WALL (      52 calls)
     g_psi        :      0.65s CPU      0.65s WALL (      38 calls)
     cdiaghg      :      4.65s CPU      4.68s WALL (      51 calls)

     Called by h_psi:
     h_psi:pot    :    285.50s CPU    287.23s WALL (      52 calls)
     h_psi:calbec :     27.22s CPU     27.96s WALL (      52 calls)
     vloc_psi     :    228.75s CPU    229.61s WALL (      52 calls)
     add_vuspsi   :     29.53s CPU     29.66s WALL (      52 calls)

     General routines
     calbec       :     27.22s CPU     27.96s WALL (      52 calls)
     fft          :      0.76s CPU      0.77s WALL (      56 calls)
     fftw         :    235.16s CPU    235.83s WALL (   17009 calls)
 
     Parallel routines
 
     PWSCF        :  9m36.49s CPU     9m55.18s WALL

 
   This run was terminated on:  12:42:59  28Aug2019            

=------------------------------------------------------------------------------=
   JOB DONE.
=------------------------------------------------------------------------------=
