
     Program PWSCF v.6.2 (svn rev. 14038) starts on  6Mar2020 at 20:39:21 

     This program is part of the open-source Quantum ESPRESSO suite
     for quantum simulation of materials; please cite
         "P. Giannozzi et al., J. Phys.:Condens. Matter 21 395502 (2009);
         "P. Giannozzi et al., J. Phys.:Condens. Matter 29 465901 (2017);
          URL http://www.quantum-espresso.org", 
     in publications or presentations arising from this work. More details at
     http://www.quantum-espresso.org/quote

     Parallel version (MPI), running on    40 processors

     MPI processes distributed on     3 nodes
     K-points division:     npool     =      40
     Reading input from rscf.in

     Current dimensions of program PWSCF are:
     Max number of different atomic species (ntypx) = 10
     Max number of k-points (npk) =  40000
     Max angular momentum in pseudopotentials (lmaxx) =  3

     Subspace diagonalization in iterative solution of the eigenvalue problem:
     a serial algorithm will be used

 
     G-vector sticks info
     --------------------
     sticks:   dense  smooth     PW     G-vecs:    dense   smooth      PW
     Sum        7747    7747   2077               498127   498127   69057
 


     bravais-lattice index     =            0
     lattice parameter (alat)  =      13.8397  a.u.
     unit-cell volume          =    2804.9816 (a.u.)^3
     number of atoms/cell      =           32
     number of atomic types    =            2
     number of electrons       =       368.00
     number of Kohn-Sham states=          221
     kinetic-energy cutoff     =     120.0000  Ry
     charge density cutoff     =     480.0000  Ry
     convergence threshold     =      1.0E-08
     mixing beta               =       0.7000
     number of iterations used =            8  plain     mixing
     Exchange-correlation      = SLA PW NOGX NOGC ( 1  4  0  0 0 0)
     nstep                     =           50


     celldm(1)=  13.839685  celldm(2)=   0.000000  celldm(3)=   0.000000
     celldm(4)=   0.000000  celldm(5)=   0.000000  celldm(6)=   0.000000

     crystal axes: (cart. coord. in units of alat)
               a(1) = (   1.000000   0.000000   0.000000 )  
               a(2) = (   0.000000   1.058160   0.000000 )  
               a(3) = (   0.000000   0.000000   1.000000 )  

     reciprocal axes: (cart. coord. in units 2 pi/alat)
               b(1) = (  1.000000  0.000000  0.000000 )  
               b(2) = (  0.000000  0.945037  0.000000 )  
               b(3) = (  0.000000  0.000000  1.000000 )  


     PseudoPot. # 1 for W  read from file:
     /cluster/scratch/mnoe/QE/pps/W_ONCV_LDA-4.0.upf
     MD5 check sum: ba0307d5d4cd419d6f1d13dc49d7c13a
     Pseudo is Norm-conserving + core correction, Zval = 28.0
     Generated using ONCVPSP code by D. R. Hamann
     Using radial grid of 1380 points,  8 beta functions with: 
                l(1) =   0
                l(2) =   0
                l(3) =   1
                l(4) =   1
                l(5) =   2
                l(6) =   2
                l(7) =   3
                l(8) =   3

     PseudoPot. # 2 for O  read from file:
     /cluster/scratch/mnoe/QE/pps/O_ONCV_LDA-3.0.upf
     MD5 check sum: a1bd6164e7280c17a38c229939bfbd54
     Pseudo is Norm-conserving + core correction, Zval =  6.0
     Generated using ONCVPSP code by D. R. Hamann
     Using radial grid of  926 points,  5 beta functions with: 
                l(1) =   0
                l(2) =   0
                l(3) =   1
                l(4) =   1
                l(5) =   2

     atomic species   valence    mass     pseudopotential
        W             28.00   183.84000     W ( 1.00)
        O              6.00    15.99940     O ( 1.00)

      8 Sym. Ops. (no inversion) found ( 7 have fractional translation)



   Cartesian axes

     site n.     atom                  positions (alat units)
         1           W   tau(   1) = (   0.2530400   0.2974792  -0.9968101  )
         2           W   tau(   2) = (   0.7468100   0.7606809  -0.9969600  )
         3           W   tau(   3) = (   0.2469600   0.2316008  -0.4968100  )
         4           W   tau(   4) = (   0.7531900   0.8265593  -0.4969600  )
         5           W   tau(   5) = (   0.7469600   0.2974792  -0.5031900  )
         6           W   tau(   6) = (   0.2531900   0.7606809  -0.5030400  )
         7           W   tau(   7) = (   0.7530400   0.2316008  -1.0031900  )
         8           W   tau(   8) = (   0.2468100   0.8265593  -1.0030400  )
         9           O   tau(   9) = (   0.2564700   0.0085979  -0.9935600  )
        10           O   tau(  10) = (   0.7435600   1.0495622  -0.9935300  )
        11           O   tau(  11) = (   0.2435300   0.5204822  -0.4935600  )
        12           O   tau(  12) = (   0.7564400   0.5376779  -0.4935300  )
        13           O   tau(  13) = (   0.7435300   0.0085979  -0.5064400  )
        14           O   tau(  14) = (   0.2564400   1.0495622  -0.5064700  )
        15           O   tau(  15) = (   0.7564699   0.5204822  -1.0064400  )
        16           O   tau(  16) = (   0.2435600   0.5376779  -1.0064699  )
        17           O   tau(  17) = (   0.4986501   0.2727196  -0.5487530  )
        18           O   tau(  18) = (   0.5008800   0.7878319  -0.4512470  )
        19           O   tau(  19) = (   0.0013500   0.2563604  -1.0487530  )
        20           O   tau(  20) = (   0.9991200   0.7994082  -0.9512470  )
        21           O   tau(  21) = (   0.5013500   0.2727196  -0.9512470  )
        22           O   tau(  22) = (   0.4991200   0.7878319  -1.0487530  )
        23           O   tau(  23) = (   0.9986500   0.2563604  -0.4512470  )
        24           O   tau(  24) = (   0.0008800   0.7994082  -0.5487530  )
        25           O   tau(  25) = (   0.7012470   0.2587519  -0.2508800  )
        26           O   tau(  26) = (   0.2987530   0.7854405  -0.7513500  )
        27           O   tau(  27) = (   0.7987530   0.2703282  -0.7508800  )
        28           O   tau(  28) = (   0.2012470   0.8017996  -0.2513500  )
        29           O   tau(  29) = (   0.2987530   0.2587519  -1.2491200  )
        30           O   tau(  30) = (   0.7012470   0.7854405  -0.7486501  )
        31           O   tau(  31) = (   0.2012470   0.2703282  -0.7491200  )
        32           O   tau(  32) = (   0.7987530   0.8017996  -1.2486500  )

     number of k points=    40  gaussian smearing, width (Ry)=  0.0007
                       cart. coord. in units 2pi/alat
        k(    1) = (   0.0000000   0.0000000   0.0000000), wk =   0.0092593
        k(    2) = (   0.0000000   0.0000000   0.1666667), wk =   0.0370370
        k(    3) = (   0.0000000   0.0000000   0.3333333), wk =   0.0370370
        k(    4) = (   0.0000000   0.0000000  -0.5000000), wk =   0.0185185
        k(    5) = (   0.0000000   0.1575061   0.0000000), wk =   0.0185185
        k(    6) = (   0.0000000   0.1575061   0.1666667), wk =   0.0740741
        k(    7) = (   0.0000000   0.1575061   0.3333333), wk =   0.0740741
        k(    8) = (   0.0000000   0.1575061  -0.5000000), wk =   0.0370370
        k(    9) = (   0.0000000   0.3150122   0.0000000), wk =   0.0185185
        k(   10) = (   0.0000000   0.3150122   0.1666667), wk =   0.0740741
        k(   11) = (   0.0000000   0.3150122   0.3333333), wk =   0.0740741
        k(   12) = (   0.0000000   0.3150122  -0.5000000), wk =   0.0370370
        k(   13) = (   0.0000000  -0.4725183   0.0000000), wk =   0.0092593
        k(   14) = (   0.0000000  -0.4725183   0.1666667), wk =   0.0370370
        k(   15) = (   0.0000000  -0.4725183   0.3333333), wk =   0.0370370
        k(   16) = (   0.0000000  -0.4725183  -0.5000000), wk =   0.0185185
        k(   17) = (   0.1666667   0.0000000   0.1666667), wk =   0.0370370
        k(   18) = (   0.1666667   0.0000000   0.3333333), wk =   0.0740741
        k(   19) = (   0.1666667   0.0000000  -0.5000000), wk =   0.0370370
        k(   20) = (   0.1666667   0.1575061   0.1666667), wk =   0.0740741
        k(   21) = (   0.1666667   0.1575061   0.3333333), wk =   0.1481481
        k(   22) = (   0.1666667   0.1575061  -0.5000000), wk =   0.0740741
        k(   23) = (   0.1666667   0.3150122   0.1666667), wk =   0.0740741
        k(   24) = (   0.1666667   0.3150122   0.3333333), wk =   0.1481481
        k(   25) = (   0.1666667   0.3150122  -0.5000000), wk =   0.0740741
        k(   26) = (   0.1666667  -0.4725183   0.1666667), wk =   0.0370370
        k(   27) = (   0.1666667  -0.4725183   0.3333333), wk =   0.0740741
        k(   28) = (   0.1666667  -0.4725183  -0.5000000), wk =   0.0370370
        k(   29) = (   0.3333333   0.0000000   0.3333333), wk =   0.0370370
        k(   30) = (   0.3333333   0.0000000  -0.5000000), wk =   0.0370370
        k(   31) = (   0.3333333   0.1575061   0.3333333), wk =   0.0740741
        k(   32) = (   0.3333333   0.1575061  -0.5000000), wk =   0.0740741
        k(   33) = (   0.3333333   0.3150122   0.3333333), wk =   0.0740741
        k(   34) = (   0.3333333   0.3150122  -0.5000000), wk =   0.0740741
        k(   35) = (   0.3333333  -0.4725183   0.3333333), wk =   0.0370370
        k(   36) = (   0.3333333  -0.4725183  -0.5000000), wk =   0.0370370
        k(   37) = (  -0.5000000   0.0000000  -0.5000000), wk =   0.0092593
        k(   38) = (  -0.5000000   0.1575061  -0.5000000), wk =   0.0185185
        k(   39) = (  -0.5000000   0.3150122  -0.5000000), wk =   0.0185185
        k(   40) = (  -0.5000000  -0.4725183  -0.5000000), wk =   0.0092593

     Dense  grid:   498127 G-vectors     FFT dimensions: ( 100, 108, 100)

     Estimated max dynamical RAM per process >       2.74 GB

     Estimated total dynamical RAM >     109.40 GB

     Initial potential from superposition of free atoms

     starting charge  367.99656, renormalised to  368.00000
     Starting wfc are  232 randomized atomic wfcs

     total cpu time spent up to now is       46.2 secs

     Self-consistent Calculation

     iteration #  1     ecut=   120.00 Ry     beta= 0.70
     Davidson diagonalization with overlap
     ethr =  1.00E-02,  avg # of iterations =  5.0

     total cpu time spent up to now is      135.0 secs

     total energy              =   -6253.98515541 Ry
     Harris-Foulkes estimate   =   -6264.58755529 Ry
     estimated scf accuracy    <      13.42602473 Ry

     iteration #  2     ecut=   120.00 Ry     beta= 0.70
     Davidson diagonalization with overlap
     ethr =  3.65E-03,  avg # of iterations =  3.5

     total cpu time spent up to now is      220.8 secs

     total energy              =   -6250.80948364 Ry
     Harris-Foulkes estimate   =   -6270.82189749 Ry
     estimated scf accuracy    <      53.83976577 Ry

     iteration #  3     ecut=   120.00 Ry     beta= 0.70
     Davidson diagonalization with overlap
     ethr =  3.65E-03,  avg # of iterations =  3.4

     total cpu time spent up to now is      303.1 secs

     total energy              =   -6261.08360060 Ry
     Harris-Foulkes estimate   =   -6261.38828836 Ry
     estimated scf accuracy    <       0.99244871 Ry

     iteration #  4     ecut=   120.00 Ry     beta= 0.70
     Davidson diagonalization with overlap
     ethr =  2.70E-04,  avg # of iterations =  3.1

     total cpu time spent up to now is      371.5 secs

     total energy              =   -6261.09762517 Ry
     Harris-Foulkes estimate   =   -6261.17022994 Ry
     estimated scf accuracy    <       0.25003102 Ry

     iteration #  5     ecut=   120.00 Ry     beta= 0.70
     Davidson diagonalization with overlap
     ethr =  6.79E-05,  avg # of iterations =  4.8

     total cpu time spent up to now is      442.0 secs

     total energy              =   -6261.09073945 Ry
     Harris-Foulkes estimate   =   -6261.12694137 Ry
     estimated scf accuracy    <       0.07905410 Ry

     iteration #  6     ecut=   120.00 Ry     beta= 0.70
     Davidson diagonalization with overlap
     ethr =  2.15E-05,  avg # of iterations =  5.2

     total cpu time spent up to now is      518.3 secs

     total energy              =   -6261.10836928 Ry
     Harris-Foulkes estimate   =   -6261.11033871 Ry
     estimated scf accuracy    <       0.00540074 Ry

     iteration #  7     ecut=   120.00 Ry     beta= 0.70
     Davidson diagonalization with overlap
     ethr =  1.47E-06,  avg # of iterations =  5.5

     total cpu time spent up to now is      594.8 secs

     total energy              =   -6261.10901893 Ry
     Harris-Foulkes estimate   =   -6261.10910735 Ry
     estimated scf accuracy    <       0.00018905 Ry

     iteration #  8     ecut=   120.00 Ry     beta= 0.70
     Davidson diagonalization with overlap
     ethr =  5.14E-08,  avg # of iterations =  3.0

     total cpu time spent up to now is      679.3 secs

     total energy              =   -6261.10907892 Ry
     Harris-Foulkes estimate   =   -6261.10908276 Ry
     estimated scf accuracy    <       0.00001478 Ry

     iteration #  9     ecut=   120.00 Ry     beta= 0.70
     Davidson diagonalization with overlap
     ethr =  4.02E-09,  avg # of iterations =  2.0

     total cpu time spent up to now is      752.0 secs

     total energy              =   -6261.10907906 Ry
     Harris-Foulkes estimate   =   -6261.10908111 Ry
     estimated scf accuracy    <       0.00001000 Ry

     iteration # 10     ecut=   120.00 Ry     beta= 0.70
     Davidson diagonalization with overlap
     ethr =  2.72E-09,  avg # of iterations =  1.1

     total cpu time spent up to now is      815.2 secs

     total energy              =   -6261.10907792 Ry
     Harris-Foulkes estimate   =   -6261.10907963 Ry
     estimated scf accuracy    <       0.00000395 Ry

     iteration # 11     ecut=   120.00 Ry     beta= 0.70
     Davidson diagonalization with overlap
     ethr =  1.07E-09,  avg # of iterations =  3.0

     total cpu time spent up to now is      885.0 secs

     total energy              =   -6261.10907876 Ry
     Harris-Foulkes estimate   =   -6261.10907880 Ry
     estimated scf accuracy    <       0.00000011 Ry

     iteration # 12     ecut=   120.00 Ry     beta= 0.70
     Davidson diagonalization with overlap
     ethr =  2.96E-11,  avg # of iterations =  2.0

     total cpu time spent up to now is      960.8 secs

     total energy              =   -6261.10907877 Ry
     Harris-Foulkes estimate   =   -6261.10907878 Ry
     estimated scf accuracy    <       0.00000002 Ry

     iteration # 13     ecut=   120.00 Ry     beta= 0.70
     Davidson diagonalization with overlap
     ethr =  6.17E-12,  avg # of iterations =  2.9

     total cpu time spent up to now is     1034.9 secs

     End of self-consistent calculation

          k = 0.0000 0.0000 0.0000 ( 62239 PWs)   bands (ev):

   -66.1766 -66.1762 -66.1756 -66.1756 -66.1752 -66.1752 -66.1746 -66.1742
   -30.5576 -30.5533 -30.5533 -30.5493 -30.5306 -30.5285 -30.5283 -30.5265
   -30.5243 -30.5243 -30.5221 -30.5221 -30.4948 -30.4933 -30.4933 -30.4919
   -30.4285 -30.4285 -30.4253 -30.4253 -30.4243 -30.4240 -30.4212 -30.4206
   -20.3371 -20.3370 -20.3369 -20.3369 -20.3368 -20.3368 -20.3368 -20.3367
   -20.3178 -20.3175 -20.3175 -20.3172 -20.3146 -20.3141 -20.3139 -20.3139
   -20.3135 -20.3134 -20.3133 -20.3133 -20.3129 -20.3126 -20.3126 -20.3124
   -20.3124 -20.3123 -20.3121 -20.3120 -20.3119 -20.3113 -20.3113 -20.3108
   -20.3051 -20.3049 -20.3045 -20.3045 -20.3044 -20.3041 -20.3040 -20.3040
   -20.3012 -20.3012 -20.3012 -20.3011 -20.3010 -20.3008 -20.3007 -20.3007
   -20.2965 -20.2965 -20.2961 -20.2959 -20.2959 -20.2958 -20.2954 -20.2951
    -9.9631  -9.7024  -9.5177  -9.5177  -9.2776  -9.2776  -9.0839  -9.0712
    -9.0375  -8.8596  -8.8427  -8.8427  -7.8383  -7.7884  -7.7849  -7.7698
    -7.7698  -7.7674  -7.7615  -7.7154  -7.6427  -7.6427  -7.6216  -7.6216
     1.1396   1.1400   1.2363   1.2363   1.2492   1.2492   1.3729   1.5964
     1.6542   1.6542   1.6601   1.8439   2.3576   2.4321   2.5826   2.5855
     2.7306   2.7306   4.1417   4.1417   4.3369   4.3418   4.7928   4.7928
     4.8229   4.8229   4.8471   4.8772   5.0499   5.0499   5.0853   5.4680
     5.4726   5.5154   5.5154   5.5356   5.5356   5.5849   5.5849   5.8472
     5.8472   5.8803   5.8857   5.9055   5.9715   6.0174   6.0390   6.1023
     6.1033   6.2468   6.2554   6.5412   6.5412   6.8372   6.8372   6.8506
     6.8651   6.8657   6.9996   7.0210   7.0762   7.0762   7.3547   7.3547
     7.3946   7.3946   7.7974   7.8119   8.0751   8.0751   8.1394   8.1507
     9.2342   9.2354   9.9476   9.9632   9.9837   9.9837  12.2483  12.2483
    12.2849  12.2849  12.3367  12.3368  12.4803  12.4818  12.8521  12.9102
    13.2038  13.2734  13.3761  13.3761  13.7377  14.0744  14.0744  14.1359
    14.1883  14.3962  14.3962  14.9047  15.4206  15.4308  15.4346  16.0712
    16.0712  16.8384  17.0668  17.0668  17.5004

          k = 0.0000 0.0000 0.1667 ( 62262 PWs)   bands (ev):

   -66.1766 -66.1762 -66.1757 -66.1756 -66.1753 -66.1752 -66.1747 -66.1743
   -30.5574 -30.5536 -30.5533 -30.5496 -30.5294 -30.5272 -30.5247 -30.5234
   -30.5225 -30.5210 -30.5177 -30.5153 -30.4939 -30.4938 -30.4925 -30.4924
   -30.4352 -30.4320 -30.4307 -30.4282 -30.4276 -30.4250 -30.4243 -30.4212
   -20.3370 -20.3370 -20.3369 -20.3369 -20.3368 -20.3368 -20.3368 -20.3367
   -20.3178 -20.3175 -20.3175 -20.3173 -20.3145 -20.3141 -20.3139 -20.3138
   -20.3135 -20.3134 -20.3133 -20.3132 -20.3130 -20.3126 -20.3125 -20.3125
   -20.3124 -20.3123 -20.3121 -20.3120 -20.3119 -20.3113 -20.3113 -20.3108
   -20.3050 -20.3046 -20.3046 -20.3043 -20.3042 -20.3040 -20.3038 -20.3036
   -20.3013 -20.3012 -20.3011 -20.3009 -20.3009 -20.3009 -20.3009 -20.3005
   -20.2970 -20.2965 -20.2965 -20.2963 -20.2960 -20.2958 -20.2957 -20.2952
    -9.9150  -9.6485  -9.5345  -9.4509  -9.2916  -9.1870  -9.0464  -9.0439
    -9.0289  -8.8493  -8.8472  -8.8168  -7.9167  -7.8972  -7.8336  -7.7846
    -7.7755  -7.7736  -7.7569  -7.7531  -7.7530  -7.7189  -7.6520  -7.6309
     1.2241   1.2321   1.2396   1.2552   1.4452   1.4500   1.5109   1.6464
     1.6525   1.7027   1.7703   1.9533   2.4456   2.5235   2.5933   2.6732
     2.7220   2.8183   4.0852   4.1421   4.3251   4.3408   4.3608   4.4339
     4.6759   4.7825   4.8552   4.8616   4.8767   5.0381   5.0623   5.2812
     5.3410   5.4462   5.4993   5.5256   5.5928   5.5997   5.6294   5.6298
     5.7177   5.8038   5.8398   5.9196   5.9905   6.0761   6.1018   6.1134
     6.2716   6.3908   6.4702   6.5289   6.7033   6.7336   6.7990   6.8130
     6.8574   6.8593   6.9563   7.0024   7.0153   7.0855   7.1277   7.1357
     7.1745   7.2373   7.8105   7.8140   8.0352   8.0933   8.1024   8.1469
     9.5851   9.6134   9.9572   9.9816  10.2196  10.2671  12.1802  12.2286
    12.2568  12.3028  12.3412  12.3732  12.4835  12.5772  12.8849  12.9089
    13.0573  13.2360  13.2706  13.3764  13.8281  13.9814  14.0311  14.0727
    14.1781  14.3905  14.4807  15.0191  15.3967  15.4573  15.4890  16.0433
    16.3841  16.8070  17.0079  17.2598  17.5513

          k = 0.0000 0.0000 0.3333 ( 62268 PWs)   bands (ev):

   -66.1764 -66.1760 -66.1759 -66.1755 -66.1754 -66.1750 -66.1749 -66.1745
   -30.5568 -30.5546 -30.5528 -30.5505 -30.5284 -30.5261 -30.5257 -30.5234
   -30.5081 -30.5064 -30.4997 -30.4979 -30.4951 -30.4938 -30.4893 -30.4883
   -30.4532 -30.4503 -30.4486 -30.4456 -30.4274 -30.4252 -30.4242 -30.4220
   -20.3370 -20.3369 -20.3369 -20.3369 -20.3369 -20.3368 -20.3368 -20.3368
   -20.3178 -20.3176 -20.3175 -20.3173 -20.3144 -20.3140 -20.3139 -20.3136
   -20.3134 -20.3133 -20.3133 -20.3131 -20.3129 -20.3129 -20.3127 -20.3125
   -20.3125 -20.3123 -20.3122 -20.3121 -20.3118 -20.3115 -20.3112 -20.3109
   -20.3049 -20.3047 -20.3043 -20.3041 -20.3035 -20.3033 -20.3030 -20.3027
   -20.3017 -20.3016 -20.3014 -20.3012 -20.3005 -20.3003 -20.3002 -20.2998
   -20.2981 -20.2977 -20.2975 -20.2970 -20.2964 -20.2961 -20.2957 -20.2954
    -9.7988  -9.5861  -9.5247  -9.3340  -9.2914  -9.0776  -8.9433  -8.9277
    -8.8790  -8.8602  -8.7876  -8.7123  -8.2208  -8.2167  -8.1190  -8.1009
    -7.8113  -7.7841  -7.7544  -7.7482  -7.7284  -7.7282  -7.6777  -7.6564
     1.2483   1.2613   1.2709   1.2917   1.5730   1.5983   1.6305   1.6361
     2.2109   2.2491   2.4189   2.4979   2.6176   2.7018   2.7080   2.7906
     2.9154   3.0490   3.7229   3.8055   3.8540   3.9451   4.1886   4.2459
     4.2771   4.4894   4.5285   4.7808   4.8202   4.8309   4.9208   4.9976
     5.1381   5.1572   5.1892   5.3579   5.4424   5.4576   5.6612   5.6760
     5.7618   5.7683   5.8148   5.9807   6.0162   6.1464   6.2326   6.2722
     6.3120   6.4049   6.5000   6.5626   6.5690   6.5781   6.6343   6.7232
     6.8224   6.8502   6.8596   6.9773   7.0081   7.0459   7.0798   7.1021
     7.3155   7.3509   7.7419   7.7616   7.9112   7.9672   8.1293   8.1480
     9.9556   9.9752  10.3160  10.3804  10.8391  10.9428  11.8030  11.8487
    12.0648  12.4508  12.4680  12.4758  12.5098  12.5834  12.6702  12.8395
    12.9029  13.0882  13.1626  13.3836  13.6500  13.6723  14.0329  14.0681
    14.2454  14.3720  14.7722  15.2870  15.3044  15.6120  15.8899  15.9579
    16.2753  17.2348  17.4020  17.5476  17.8423

          k = 0.0000 0.0000-0.5000 ( 62264 PWs)   bands (ev):

   -66.1761 -66.1761 -66.1757 -66.1757 -66.1751 -66.1751 -66.1747 -66.1747
   -30.5558 -30.5558 -30.5518 -30.5518 -30.5270 -30.5270 -30.5248 -30.5248
   -30.4978 -30.4978 -30.4969 -30.4969 -30.4769 -30.4769 -30.4751 -30.4751
   -30.4719 -30.4719 -30.4697 -30.4697 -30.4263 -30.4263 -30.4231 -30.4231
   -20.3370 -20.3370 -20.3369 -20.3369 -20.3369 -20.3368 -20.3368 -20.3368
   -20.3177 -20.3177 -20.3174 -20.3174 -20.3142 -20.3142 -20.3136 -20.3136
   -20.3134 -20.3134 -20.3131 -20.3131 -20.3130 -20.3130 -20.3127 -20.3127
   -20.3124 -20.3124 -20.3122 -20.3122 -20.3117 -20.3117 -20.3111 -20.3111
   -20.3048 -20.3048 -20.3042 -20.3042 -20.3024 -20.3024 -20.3023 -20.3023
   -20.3022 -20.3021 -20.3018 -20.3018 -20.2995 -20.2995 -20.2992 -20.2992
   -20.2989 -20.2989 -20.2985 -20.2985 -20.2963 -20.2963 -20.2956 -20.2955
    -9.6759  -9.6759  -9.4094  -9.4094  -9.1497  -9.1497  -8.8834  -8.8834
    -8.5910  -8.5910  -8.5600  -8.5599  -8.5444  -8.5444  -8.4636  -8.4636
    -7.7982  -7.7982  -7.7412  -7.7412  -7.7131  -7.7131  -7.6920  -7.6920
     1.2583   1.2583   1.2887   1.2887   1.6125   1.6125   1.6195   1.6195
     2.6492   2.6492   2.9533   2.9533   3.0832   3.0832   3.1386   3.1386
     3.2408   3.2408   3.2941   3.2941   3.4316   3.4316   3.7575   3.7576
     3.8856   3.8856   4.4127   4.4127   4.7655   4.7655   4.8961   4.8961
     5.2457   5.2457   5.2979   5.2979   5.3132   5.3132   5.7232   5.7232
     5.7523   5.7523   5.9585   5.9585   6.1588   6.1588   6.2446   6.2446
     6.3028   6.3028   6.4280   6.4280   6.4920   6.4920   6.5129   6.5129
     6.7833   6.7833   6.8485   6.8486   7.0608   7.0608   7.4715   7.4715
     7.5289   7.5289   7.6858   7.6858   7.7151   7.7152   8.1453   8.1453
     9.9657   9.9657  11.1175  11.1175  11.1829  11.1829  11.5392  11.5392
    11.7441  11.7441  12.5225  12.5225  12.6753  12.6754  12.7754  12.7754
    12.9160  12.9160  13.2340  13.2340  13.4351  13.4351  14.0604  14.0604
    14.3318  14.3318  15.0811  15.0811  15.7329  15.7329  15.8107  15.8107
    16.6586  16.6586  17.8613  17.8613  18.1464

          k = 0.0000 0.1575 0.0000 ( 62231 PWs)   bands (ev):

   -66.1766 -66.1763 -66.1756 -66.1756 -66.1753 -66.1753 -66.1746 -66.1742
   -30.5540 -30.5496 -30.5495 -30.5454 -30.5306 -30.5285 -30.5281 -30.5265
   -30.5241 -30.5241 -30.5223 -30.5223 -30.4986 -30.4971 -30.4971 -30.4958
   -30.4284 -30.4284 -30.4254 -30.4254 -30.4241 -30.4239 -30.4213 -30.4208
   -20.3370 -20.3370 -20.3369 -20.3369 -20.3368 -20.3368 -20.3368 -20.3367
   -20.3175 -20.3172 -20.3172 -20.3169 -20.3145 -20.3141 -20.3139 -20.3139
   -20.3136 -20.3135 -20.3133 -20.3133 -20.3129 -20.3127 -20.3127 -20.3124
   -20.3124 -20.3124 -20.3124 -20.3122 -20.3119 -20.3115 -20.3115 -20.3109
   -20.3050 -20.3048 -20.3045 -20.3045 -20.3044 -20.3042 -20.3040 -20.3040
   -20.3012 -20.3012 -20.3012 -20.3011 -20.3010 -20.3008 -20.3007 -20.3007
   -20.2965 -20.2965 -20.2961 -20.2959 -20.2959 -20.2958 -20.2954 -20.2951
    -9.9369  -9.7133  -9.4863  -9.4863  -9.2846  -9.2846  -9.0830  -9.0720
    -8.9644  -8.8111  -8.7997  -8.7997  -7.9263  -7.8684  -7.8684  -7.8213
    -7.7899  -7.7866  -7.7692  -7.7634  -7.6420  -7.6420  -7.6230  -7.6230
     1.1396   1.1400   1.2420   1.2420   1.2492   1.2492   1.4775   1.5958
     1.8342   1.8889   1.8889   2.0436   2.3624   2.4270   2.6535   2.6565
     2.7975   2.7975   4.0083   4.0083   4.0837   4.0878   4.7781   4.7945
     4.7945   4.8170   4.8170   4.9380   4.9803   5.0092   5.0092   5.2944
     5.2944   5.4554   5.4554   5.6110   5.6110   5.6345   5.6533   5.6592
     5.8136   5.8169   5.9183   5.9183   5.9451   6.0223   6.0411   6.1029
     6.1089   6.2416   6.2472   6.5638   6.5638   6.8317   6.8624   6.8624
     6.8631   6.8923   6.8939   6.9891   6.9891   6.9907   7.3626   7.3626
     7.3945   7.3945   7.8020   7.8114   8.0361   8.0361   8.0630   8.0698
     9.2348   9.2360  10.1509  10.1584  10.1584  10.1646  12.1485  12.1485
    12.2770  12.2770  12.3252  12.3259  12.3336  12.3336  12.8587  12.9087
    13.2398  13.3031  13.3839  13.3839  13.9465  14.0236  14.0236  14.0414
    14.2214  14.6362  14.6362  15.0587  15.4209  15.4326  15.8336  16.0367
    16.0367  16.5436  17.1962  17.1962  17.5203

          k = 0.0000 0.1575 0.1667 ( 62237 PWs)   bands (ev):

   -66.1765 -66.1762 -66.1757 -66.1755 -66.1753 -66.1752 -66.1746 -66.1743
   -30.5538 -30.5499 -30.5496 -30.5458 -30.5293 -30.5274 -30.5245 -30.5232
   -30.5226 -30.5213 -30.5175 -30.5155 -30.4976 -30.4975 -30.4962 -30.4962
   -30.4351 -30.4322 -30.4306 -30.4281 -30.4278 -30.4251 -30.4242 -30.4213
   -20.3370 -20.3370 -20.3369 -20.3369 -20.3368 -20.3368 -20.3368 -20.3367
   -20.3175 -20.3172 -20.3172 -20.3169 -20.3145 -20.3141 -20.3139 -20.3138
   -20.3135 -20.3135 -20.3134 -20.3132 -20.3130 -20.3128 -20.3127 -20.3125
   -20.3124 -20.3124 -20.3124 -20.3122 -20.3119 -20.3115 -20.3114 -20.3110
   -20.3050 -20.3045 -20.3045 -20.3043 -20.3041 -20.3040 -20.3039 -20.3036
   -20.3013 -20.3011 -20.3011 -20.3010 -20.3009 -20.3009 -20.3009 -20.3005
   -20.2970 -20.2965 -20.2965 -20.2963 -20.2960 -20.2958 -20.2957 -20.2953
    -9.8878  -9.6593  -9.5031  -9.4154  -9.2988  -9.1941  -9.0426  -9.0298
    -8.9733  -8.8042  -8.8023  -8.7779  -7.9344  -7.9130  -7.9033  -7.8687
    -7.8530  -7.8322  -7.7775  -7.7730  -7.7563  -7.7503  -7.6514  -7.6323
     1.2284   1.2320   1.2468   1.2552   1.4837   1.5099   1.5906   1.7689
     1.8420   1.8823   1.9041   2.0910   2.4512   2.5180   2.6639   2.7461
     2.7894   2.8854   3.9793   4.0247   4.0740   4.1215   4.3684   4.4314
     4.7002   4.7314   4.8141   4.8528   4.8678   4.9572   5.0154   5.2500
     5.2567   5.2887   5.3096   5.4749   5.5706   5.5774   5.6398   5.7093
     5.7223   5.7757   5.8538   5.8654   5.8961   6.0879   6.0977   6.1383
     6.2098   6.3829   6.4443   6.5523   6.7236   6.7924   6.8073   6.8187
     6.8487   6.8961   6.9465   6.9581   7.0000   7.0092   7.1280   7.1361
     7.1927   7.2374   7.8127   7.8139   7.9981   8.0296   8.0397   8.0681
     9.5909   9.6131  10.1577  10.1601  10.3877  10.4111  12.1278  12.1962
    12.2251  12.2375  12.3108  12.3275  12.3397  12.4594  12.8986  12.9092
    13.0887  13.2604  13.2814  13.3821  13.8720  13.9047  14.0090  14.0220
    14.2993  14.6310  14.7684  15.1599  15.4569  15.4891  15.8000  16.0097
    16.3473  16.7004  16.9299  17.3691  17.5849

          k = 0.0000 0.1575 0.3333 ( 62284 PWs)   bands (ev):

   -66.1764 -66.1760 -66.1758 -66.1755 -66.1753 -66.1750 -66.1748 -66.1745
   -30.5532 -30.5508 -30.5491 -30.5467 -30.5282 -30.5263 -30.5255 -30.5236
   -30.5089 -30.5078 -30.4997 -30.4989 -30.4984 -30.4975 -30.4916 -30.4906
   -30.4531 -30.4504 -30.4485 -30.4458 -30.4273 -30.4250 -30.4243 -30.4221
   -20.3370 -20.3369 -20.3369 -20.3369 -20.3369 -20.3368 -20.3368 -20.3368
   -20.3174 -20.3173 -20.3171 -20.3170 -20.3143 -20.3140 -20.3139 -20.3136
   -20.3135 -20.3134 -20.3133 -20.3131 -20.3130 -20.3130 -20.3127 -20.3127
   -20.3125 -20.3125 -20.3123 -20.3121 -20.3120 -20.3117 -20.3113 -20.3111
   -20.3049 -20.3046 -20.3044 -20.3041 -20.3034 -20.3033 -20.3030 -20.3027
   -20.3017 -20.3016 -20.3014 -20.3012 -20.3005 -20.3003 -20.3002 -20.2998
   -20.2981 -20.2977 -20.2975 -20.2970 -20.2964 -20.2961 -20.2957 -20.2954
    -9.7694  -9.5548  -9.5350  -9.3418  -9.2416  -9.0053  -8.9376  -8.9275
    -8.8806  -8.8179  -8.7547  -8.6877  -8.2251  -8.2158  -8.1311  -8.0989
    -7.9011  -7.8779  -7.8518  -7.8260  -7.7498  -7.7298  -7.6773  -7.6579
     1.2592   1.2708   1.2774   1.2916   1.7701   1.7950   1.8733   1.8795
     2.2099   2.2647   2.4200   2.5196   2.6865   2.7109   2.7612   2.7969
     2.9896   3.1102   3.7226   3.7993   3.8459   3.8964   4.0842   4.1183
     4.2455   4.3470   4.5448   4.7291   4.7460   4.8002   4.8149   4.8940
     5.0492   5.1122   5.1361   5.1729   5.3734   5.4056   5.4691   5.6370
     5.7061   5.7606   5.8255   5.8765   5.9591   6.1232   6.1792   6.2311
     6.3334   6.5111   6.5569   6.5751   6.6196   6.6726   6.7007   6.7776
     6.8228   6.8343   6.9166   6.9458   6.9877   7.0170   7.0647   7.0907
     7.3107   7.3469   7.7458   7.7595   7.8796   7.9112   8.0593   8.0704
    10.1515  10.1583  10.3258  10.3828  10.9542  11.0354  11.8046  11.8465
    12.0268  12.3394  12.4258  12.4619  12.5022  12.5326  12.6215  12.7334
    12.8955  13.0901  13.1789  13.3811  13.5577  13.5873  14.0122  14.0185
    14.4863  14.6143  15.1158  15.4179  15.6025  15.6943  15.9101  15.9278
    16.3981  17.1727  17.1908  17.4538  17.8009

          k = 0.0000 0.1575-0.5000 ( 62234 PWs)   bands (ev):

   -66.1761 -66.1761 -66.1758 -66.1758 -66.1751 -66.1751 -66.1748 -66.1747
   -30.5521 -30.5521 -30.5480 -30.5480 -30.5268 -30.5268 -30.5250 -30.5250
   -30.5012 -30.5012 -30.5002 -30.5002 -30.4771 -30.4771 -30.4752 -30.4752
   -30.4722 -30.4722 -30.4701 -30.4701 -30.4261 -30.4261 -30.4232 -30.4232
   -20.3370 -20.3370 -20.3369 -20.3369 -20.3368 -20.3368 -20.3368 -20.3368
   -20.3174 -20.3174 -20.3171 -20.3171 -20.3142 -20.3142 -20.3137 -20.3137
   -20.3133 -20.3133 -20.3132 -20.3132 -20.3130 -20.3130 -20.3127 -20.3127
   -20.3126 -20.3126 -20.3122 -20.3122 -20.3119 -20.3119 -20.3112 -20.3112
   -20.3047 -20.3047 -20.3043 -20.3042 -20.3024 -20.3024 -20.3023 -20.3023
   -20.3022 -20.3022 -20.3018 -20.3018 -20.2995 -20.2995 -20.2992 -20.2992
   -20.2989 -20.2989 -20.2985 -20.2985 -20.2962 -20.2962 -20.2956 -20.2956
    -9.6450  -9.6450  -9.4184  -9.4184  -9.0829  -9.0829  -8.8460  -8.8460
    -8.5943  -8.5942  -8.5572  -8.5572  -8.5482  -8.5482  -8.4559  -8.4558
    -7.8911  -7.8911  -7.8401  -7.8401  -7.7132  -7.7132  -7.6935  -7.6935
     1.2736   1.2736   1.2886   1.2886   1.8005   1.8005   1.8831   1.8831
     2.7162   2.7162   2.9683   2.9683   3.0762   3.0762   3.1772   3.1772
     3.2501   3.2501   3.2917   3.2917   3.4218   3.4219   3.7623   3.7623
     3.9361   3.9361   4.2294   4.2294   4.6407   4.6407   4.7619   4.7619
     5.0920   5.0920   5.2788   5.2789   5.2842   5.2843   5.4961   5.4961
     5.7187   5.7187   5.8536   5.8536   6.1552   6.1552   6.2889   6.2889
     6.3315   6.3315   6.4493   6.4493   6.4983   6.4983   6.6820   6.6820
     6.8513   6.8513   6.8653   6.8653   6.9713   6.9713   7.4827   7.4827
     7.5227   7.5227   7.6634   7.6634   7.6863   7.6863   8.0697   8.0697
    10.1586  10.1586  11.1229  11.1229  11.1806  11.1806  11.6039  11.6039
    11.8054  11.8054  12.3930  12.3930  12.6516  12.6516  12.7830  12.7830
    12.8553  12.8553  13.1369  13.1369  13.4066  13.4066  14.0146  14.0146
    14.5787  14.5787  15.4512  15.4512  15.7871  15.7871  15.8680  15.8680
    16.6993  16.6993  17.6646  17.6646  18.1614

          k = 0.0000 0.3150 0.0000 ( 62175 PWs)   bands (ev):

   -66.1765 -66.1763 -66.1755 -66.1755 -66.1753 -66.1753 -66.1745 -66.1743
   -30.5446 -30.5396 -30.5396 -30.5350 -30.5313 -30.5288 -30.5277 -30.5255
   -30.5244 -30.5244 -30.5220 -30.5220 -30.5085 -30.5071 -30.5071 -30.5062
   -30.4280 -30.4280 -30.4258 -30.4258 -30.4237 -30.4236 -30.4216 -30.4213
   -20.3370 -20.3370 -20.3369 -20.3369 -20.3369 -20.3368 -20.3368 -20.3367
   -20.3165 -20.3162 -20.3162 -20.3159 -20.3145 -20.3142 -20.3140 -20.3139
   -20.3139 -20.3135 -20.3135 -20.3134 -20.3133 -20.3133 -20.3133 -20.3128
   -20.3128 -20.3125 -20.3123 -20.3123 -20.3118 -20.3118 -20.3117 -20.3112
   -20.3049 -20.3048 -20.3045 -20.3044 -20.3044 -20.3043 -20.3041 -20.3041
   -20.3012 -20.3012 -20.3012 -20.3011 -20.3009 -20.3008 -20.3007 -20.3007
   -20.2965 -20.2965 -20.2960 -20.2960 -20.2960 -20.2959 -20.2954 -20.2952
    -9.8728  -9.7464  -9.4159  -9.4159  -9.3072  -9.3072  -9.0807  -9.0744
    -8.7580  -8.6620  -8.6590  -8.6590  -8.1650  -8.1187  -8.1187  -8.0910
    -7.7872  -7.7819  -7.7740  -7.7683  -7.6386  -7.6386  -7.6269  -7.6269
     1.1396   1.1398   1.2468   1.2468   1.2491   1.2491   1.5631   1.5932
     2.3757   2.3981   2.4134   2.5454   2.5454   2.7084   2.8617   2.8656
     2.9928   2.9928   3.6280   3.6328   3.6751   3.6751   4.1485   4.4754
     4.4754   4.7600   4.8003   4.8003   4.8278   4.8278   5.0824   5.0824
     5.1053   5.1139   5.3785   5.3785   5.6174   5.6196   5.6636   5.6636
     5.8744   5.8744   5.8843   5.8951   6.0174   6.0306   6.0560   6.1198
     6.1297   6.2106   6.2120   6.5100   6.6240   6.6240   6.8420   6.8420
     6.8924   6.9653   7.1007   7.1021   7.1171   7.1171   7.3722   7.3722
     7.3975   7.3975   7.7965   7.8083   7.8355   7.8409   7.8643   7.8643
     9.2358   9.2366  10.6209  10.6209  10.6618  10.6717  11.7735  11.7735
    11.8974  11.9009  12.2972  12.2973  12.3331  12.3331  12.8745  12.9029
    13.3526  13.3999  13.4471  13.4471  13.7940  13.8167  13.8264  13.8264
    14.8028  15.2031  15.2031  15.4221  15.4283  15.6273  15.9192  15.9192
    15.9896  16.8295  17.2269  17.6430  17.6430

          k = 0.0000 0.3150 0.1667 ( 62260 PWs)   bands (ev):

   -66.1765 -66.1763 -66.1756 -66.1755 -66.1754 -66.1753 -66.1746 -66.1744
   -30.5443 -30.5400 -30.5396 -30.5354 -30.5297 -30.5273 -30.5248 -30.5232
   -30.5224 -30.5223 -30.5171 -30.5159 -30.5075 -30.5070 -30.5063 -30.5054
   -30.4347 -30.4326 -30.4303 -30.4281 -30.4277 -30.4255 -30.4238 -30.4217
   -20.3370 -20.3370 -20.3369 -20.3369 -20.3369 -20.3368 -20.3368 -20.3367
   -20.3165 -20.3162 -20.3162 -20.3159 -20.3145 -20.3141 -20.3140 -20.3139
   -20.3138 -20.3135 -20.3135 -20.3134 -20.3134 -20.3133 -20.3132 -20.3128
   -20.3128 -20.3125 -20.3124 -20.3122 -20.3119 -20.3118 -20.3117 -20.3113
   -20.3049 -20.3046 -20.3044 -20.3043 -20.3042 -20.3041 -20.3039 -20.3037
   -20.3013 -20.3011 -20.3011 -20.3010 -20.3009 -20.3009 -20.3009 -20.3005
   -20.2969 -20.2964 -20.2964 -20.2964 -20.2960 -20.2959 -20.2957 -20.2953
    -9.8216  -9.6925  -9.4324  -9.3357  -9.3219  -9.2173  -9.0395  -9.0323
    -8.7667  -8.6642  -8.6565  -8.6464  -8.1655  -8.1284  -8.1157  -8.0984
    -7.9074  -7.8929  -7.7749  -7.7710  -7.7603  -7.7568  -7.6480  -7.6362
     1.2308   1.2319   1.2525   1.2551   1.5028   1.5095   1.7261   1.7660
     2.4004   2.4652   2.5035   2.5199   2.5461   2.6943   2.8714   2.9686
     2.9854   3.0894   3.6315   3.6656   3.6761   3.7165   4.1400   4.3903
     4.3921   4.4899   4.5014   4.7616   4.7960   4.8539   4.8776   4.9097
     5.0777   5.1144   5.1705   5.2855   5.4296   5.4514   5.6085   5.6214
     5.6787   5.7517   5.7805   5.8563   6.0357   6.0864   6.0990   6.1162
     6.2430   6.3991   6.4006   6.5758   6.6142   6.8281   6.8671   6.9153
     6.9576   6.9656   7.0760   7.0852   7.0954   7.0990   7.1401   7.1466
     7.2389   7.2511   7.7943   7.8051   7.8220   7.8405   7.8429   7.8558
     9.6001   9.6112  10.6257  10.6660  10.8043  10.8362  11.7720  11.8691
    11.9010  11.9769  12.2050  12.2330  12.3493  12.3894  12.9157  12.9210
    13.1936  13.3211  13.3677  13.4429  13.6538  13.6991  13.8048  13.8232
    14.9321  15.1957  15.3996  15.4594  15.4940  15.6988  15.8944  16.1523
    16.2200  16.7929  17.2860  17.3402  17.7587

          k = 0.0000 0.3150 0.3333 ( 62269 PWs)   bands (ev):

   -66.1763 -66.1761 -66.1758 -66.1756 -66.1753 -66.1751 -66.1748 -66.1746
   -30.5434 -30.5409 -30.5389 -30.5363 -30.5285 -30.5261 -30.5257 -30.5234
   -30.5140 -30.5136 -30.5087 -30.5079 -30.5003 -30.4997 -30.4954 -30.4942
   -30.4529 -30.4508 -30.4483 -30.4462 -30.4269 -30.4247 -30.4247 -30.4225
   -20.3370 -20.3370 -20.3369 -20.3369 -20.3369 -20.3368 -20.3368 -20.3368
   -20.3165 -20.3163 -20.3162 -20.3160 -20.3144 -20.3141 -20.3140 -20.3139
   -20.3137 -20.3136 -20.3135 -20.3134 -20.3133 -20.3132 -20.3130 -20.3129
   -20.3127 -20.3126 -20.3126 -20.3121 -20.3121 -20.3119 -20.3116 -20.3114
   -20.3048 -20.3045 -20.3045 -20.3042 -20.3034 -20.3033 -20.3031 -20.3028
   -20.3017 -20.3015 -20.3015 -20.3012 -20.3005 -20.3003 -20.3002 -20.2998
   -20.2981 -20.2977 -20.2975 -20.2970 -20.2963 -20.2960 -20.2958 -20.2955
    -9.6987  -9.5672  -9.4831  -9.3668  -9.1245  -8.9620  -8.9076  -8.8853
    -8.8008  -8.6821  -8.6325  -8.5935  -8.2603  -8.2317  -8.2057  -8.1246
    -8.1123  -8.0932  -8.0795  -8.0172  -7.7465  -7.7340  -7.6739  -7.6619
     1.2671   1.2706   1.2873   1.2913   2.1483   2.2035   2.2753   2.4134
     2.4145   2.5224   2.5492   2.7145   2.7635   2.7669   2.8924   2.9704
     3.2141   3.2961   3.6076   3.6356   3.7243   3.7496   3.8022   3.8150
     4.1147   4.2960   4.4087   4.4293   4.5054   4.5527   4.6011   4.7600
     4.7832   4.8455   4.9991   5.0939   5.1459   5.1984   5.2088   5.3574
     5.3775   5.5580   5.6752   5.8184   6.1205   6.1648   6.1953   6.2379
     6.4119   6.5715   6.6074   6.6269   6.6717   6.7907   6.7966   6.8090
     6.8988   6.9541   7.0258   7.0562   7.0728   7.1320   7.1515   7.1916
     7.2895   7.3388   7.7233   7.7454   7.7530   7.7582   7.8411   7.8549
    10.3398  10.3617  10.6416  10.6649  11.2648  11.3125  11.7533  11.8158
    11.8406  11.9315  12.1623  12.2027  12.5149  12.5807  12.6208  12.6677
    12.8564  13.1016  13.1515  13.3496  13.4363  13.4641  13.8045  13.8179
    15.0789  15.1730  15.5552  15.8194  15.9115  15.9220  15.9985  16.6660
    16.6678  16.8047  17.0318  17.5133  17.6352

          k = 0.0000 0.3150-0.5000 ( 62306 PWs)   bands (ev):

   -66.1760 -66.1760 -66.1758 -66.1758 -66.1750 -66.1750 -66.1748 -66.1748
   -30.5422 -30.5422 -30.5376 -30.5376 -30.5271 -30.5271 -30.5247 -30.5247
   -30.5105 -30.5105 -30.5097 -30.5097 -30.4773 -30.4772 -30.4755 -30.4755
   -30.4725 -30.4725 -30.4707 -30.4707 -30.4258 -30.4258 -30.4236 -30.4236
   -20.3370 -20.3370 -20.3369 -20.3369 -20.3368 -20.3368 -20.3368 -20.3368
   -20.3164 -20.3164 -20.3161 -20.3161 -20.3142 -20.3142 -20.3138 -20.3138
   -20.3137 -20.3137 -20.3135 -20.3135 -20.3131 -20.3131 -20.3129 -20.3129
   -20.3128 -20.3128 -20.3123 -20.3123 -20.3120 -20.3120 -20.3115 -20.3115
   -20.3046 -20.3046 -20.3044 -20.3044 -20.3024 -20.3023 -20.3023 -20.3023
   -20.3022 -20.3022 -20.3018 -20.3018 -20.2995 -20.2995 -20.2991 -20.2991
   -20.2990 -20.2990 -20.2986 -20.2986 -20.2962 -20.2962 -20.2956 -20.2956
    -9.5724  -9.5724  -9.4469  -9.4469  -8.9034  -8.9033  -8.7398  -8.7398
    -8.6061  -8.6061  -8.5883  -8.5883  -8.5157  -8.5157  -8.4243  -8.4242
    -8.1229  -8.1229  -8.0827  -8.0827  -7.7099  -7.7099  -7.6976  -7.6976
     1.2838   1.2838   1.2883   1.2883   2.3974   2.3974   2.5314   2.5314
     2.9073   2.9073   3.0118   3.0119   3.0557   3.0557   3.2348   3.2348
     3.2819   3.2819   3.3148   3.3148   3.3858   3.3859   3.6300   3.6300
     4.0581   4.0581   4.0973   4.0973   4.1400   4.1400   4.3704   4.3704
     4.8147   4.8147   4.9334   4.9334   5.1569   5.1569   5.2591   5.2591
     5.3925   5.3925   5.7468   5.7468   6.2595   6.2595   6.3067   6.3067
     6.4461   6.4461   6.4899   6.4899   6.5302   6.5302   6.7513   6.7513
     7.0490   7.0490   7.0613   7.0613   7.0982   7.0982   7.4969   7.4969
     7.5063   7.5063   7.5737   7.5738   7.5973   7.5974   7.8486   7.8486
    10.6460  10.6460  11.1362  11.1362  11.1749  11.1749  11.6765  11.6765
    11.9918  11.9918  12.1213  12.1213  12.5332  12.5332  12.6271  12.6271
    12.8046  12.8046  12.9447  12.9447  13.4316  13.4316  13.8105  13.8105
    15.1349  15.1349  15.6992  15.6992  16.2787  16.2787  16.4128  16.4128
    16.8554  16.8554  17.2873  17.2873  17.9447

          k = 0.0000-0.4725 0.0000 ( 62212 PWs)   bands (ev):

   -66.1764 -66.1764 -66.1754 -66.1754 -66.1754 -66.1754 -66.1744 -66.1744
   -30.5352 -30.5352 -30.5295 -30.5295 -30.5283 -30.5283 -30.5274 -30.5274
   -30.5210 -30.5210 -30.5194 -30.5194 -30.5185 -30.5184 -30.5179 -30.5179
   -30.4277 -30.4277 -30.4261 -30.4261 -30.4234 -30.4234 -30.4217 -30.4217
   -20.3370 -20.3370 -20.3369 -20.3369 -20.3369 -20.3369 -20.3368 -20.3368
   -20.3153 -20.3153 -20.3150 -20.3150 -20.3149 -20.3149 -20.3146 -20.3146
   -20.3142 -20.3142 -20.3136 -20.3136 -20.3134 -20.3134 -20.3132 -20.3132
   -20.3126 -20.3126 -20.3122 -20.3122 -20.3120 -20.3120 -20.3115 -20.3115
   -20.3048 -20.3048 -20.3044 -20.3044 -20.3043 -20.3043 -20.3042 -20.3042
   -20.3012 -20.3012 -20.3011 -20.3011 -20.3009 -20.3009 -20.3007 -20.3007
   -20.2964 -20.2964 -20.2960 -20.2960 -20.2959 -20.2959 -20.2953 -20.2953
    -9.8019  -9.8019  -9.3513  -9.3513  -9.3487  -9.3487  -9.0775  -9.0775
    -8.4650  -8.4650  -8.4155  -8.4155  -8.4155  -8.4155  -8.4108  -8.4108
    -7.7812  -7.7811  -7.7748  -7.7748  -7.6351  -7.6351  -7.6305  -7.6305
     1.1397   1.1397   1.2485   1.2485   1.2486   1.2486   1.5859   1.5859
     2.3942   2.3942   3.1674   3.1674   3.1988   3.1988   3.2814   3.2814
     3.2825   3.2825   3.2898   3.2898   3.4927   3.4927   3.4989   3.4989
     3.6924   3.6925   4.8063   4.8063   4.8149   4.8149   5.2329   5.2329
     5.2437   5.2437   5.3514   5.3514   5.3563   5.3563   5.7426   5.7426
     5.7437   5.7437   5.9832   5.9832   5.9998   5.9998   6.1448   6.1448
     6.1650   6.1650   6.2588   6.2588   6.7153   6.7153   6.7215   6.7215
     6.9295   6.9295   7.3617   7.3617   7.3720   7.3720   7.4733   7.4733
     7.4782   7.4782   7.5456   7.5456   7.5457   7.5457   7.8094   7.8094
     9.2364   9.2364  11.2137  11.2137  11.2186  11.2186  11.2954  11.2954
    11.3069  11.3069  12.3046  12.3046  12.3332  12.3332  12.8912  12.8912
    13.5463  13.5463  13.5770  13.5770  13.5998  13.5998  13.6069  13.6069
    15.3979  15.3979  15.4262  15.4262  15.6632  15.6632  15.6717  15.6717
    16.5051  16.5051  17.9998  18.0556  18.0558

          k = 0.0000-0.4725 0.1667 ( 62246 PWs)   bands (ev):

   -66.1764 -66.1764 -66.1755 -66.1755 -66.1754 -66.1754 -66.1745 -66.1745
   -30.5346 -30.5335 -30.5299 -30.5283 -30.5278 -30.5271 -30.5256 -30.5246
   -30.5211 -30.5211 -30.5188 -30.5183 -30.5162 -30.5161 -30.5129 -30.5126
   -30.4345 -30.4329 -30.4300 -30.4284 -30.4275 -30.4258 -30.4236 -30.4220
   -20.3370 -20.3370 -20.3369 -20.3369 -20.3369 -20.3369 -20.3368 -20.3368
   -20.3153 -20.3153 -20.3150 -20.3150 -20.3149 -20.3149 -20.3146 -20.3146
   -20.3142 -20.3141 -20.3136 -20.3135 -20.3135 -20.3134 -20.3132 -20.3131
   -20.3127 -20.3127 -20.3123 -20.3121 -20.3120 -20.3119 -20.3115 -20.3115
   -20.3048 -20.3047 -20.3044 -20.3042 -20.3042 -20.3042 -20.3039 -20.3038
   -20.3013 -20.3011 -20.3011 -20.3010 -20.3009 -20.3009 -20.3009 -20.3005
   -20.2969 -20.2964 -20.2964 -20.2964 -20.2960 -20.2960 -20.2957 -20.2954
    -9.7489  -9.7486  -9.3669  -9.3644  -9.2641  -9.2615  -9.0360  -9.0356
    -8.4705  -8.4705  -8.4226  -8.4226  -8.4116  -8.4114  -8.4092  -8.4090
    -7.9032  -7.8987  -7.7721  -7.7686  -7.7632  -7.7602  -7.6445  -7.6399
     1.2314   1.2316   1.2544   1.2545   1.5077   1.5080   1.7566   1.7573
     2.4843   2.4844   3.1731   3.1778   3.2046   3.2114   3.2764   3.2782
     3.2870   3.2891   3.3261   3.3331   3.4896   3.4966   3.5429   3.5467
     3.7179   3.7181   4.4102   4.4135   4.8417   4.8652   4.9824   5.0040
     5.1531   5.1532   5.2105   5.2198   5.3644   5.3657   5.4794   5.4805
     5.7147   5.7149   5.7586   5.7586   6.0962   6.1015   6.1081   6.1088
     6.3770   6.3781   6.4046   6.4053   6.7044   6.7110   6.8998   6.9072
     6.9940   6.9953   7.1234   7.1310   7.1805   7.1902   7.4608   7.4649
     7.4819   7.4847   7.5156   7.5166   7.5330   7.5341   7.8171   7.8173
     9.6056   9.6083  11.2185  11.2233  11.2916  11.2925  11.3471  11.3474
    11.4208  11.4263  12.2090  12.2319  12.3568  12.3838  12.9240  12.9289
    13.3749  13.3805  13.4641  13.4685  13.5727  13.5772  13.5962  13.6037
    15.3994  15.4095  15.6124  15.6184  15.6472  15.6581  15.9368  15.9405
    16.5673  16.5679  17.8931  17.8954  18.0213

          k = 0.0000-0.4725 0.3333 ( 62268 PWs)   bands (ev):

   -66.1762 -66.1762 -66.1757 -66.1757 -66.1752 -66.1752 -66.1747 -66.1747
   -30.5335 -30.5317 -30.5308 -30.5287 -30.5257 -30.5252 -30.5231 -30.5227
   -30.5219 -30.5218 -30.5198 -30.5193 -30.5010 -30.5000 -30.4965 -30.4954
   -30.4526 -30.4511 -30.4481 -30.4465 -30.4266 -30.4250 -30.4244 -30.4228
   -20.3370 -20.3370 -20.3369 -20.3369 -20.3368 -20.3368 -20.3368 -20.3368
   -20.3153 -20.3152 -20.3151 -20.3150 -20.3150 -20.3149 -20.3147 -20.3147
   -20.3141 -20.3139 -20.3137 -20.3136 -20.3133 -20.3132 -20.3130 -20.3128
   -20.3128 -20.3128 -20.3125 -20.3122 -20.3120 -20.3119 -20.3117 -20.3116
   -20.3047 -20.3046 -20.3044 -20.3044 -20.3033 -20.3033 -20.3031 -20.3028
   -20.3017 -20.3015 -20.3015 -20.3012 -20.3005 -20.3003 -20.3003 -20.2998
   -20.2981 -20.2976 -20.2976 -20.2971 -20.2963 -20.2960 -20.2958 -20.2955
    -9.6238  -9.6227  -9.4147  -9.4123  -9.0205  -9.0178  -8.8944  -8.8930
    -8.5089  -8.5086  -8.4556  -8.4553  -8.4059  -8.4059  -8.3891  -8.3890
    -8.1915  -8.1882  -8.0777  -8.0743  -7.7427  -7.7380  -7.6703  -7.6657
     1.2697   1.2697   1.2900   1.2904   2.1955   2.1963   2.3964   2.3982
     2.7463   2.7466   3.1789   3.1878   3.2149   3.2299   3.2643   3.2655
     3.2850   3.2872   3.4044   3.4156   3.4746   3.4868   3.6925   3.6941
     3.7670   3.7698   3.7946   3.7964   4.4764   4.4804   4.6390   4.6442
     4.7733   4.7876   4.8346   4.8515   5.1797   5.1810   5.2674   5.2690
     5.4043   5.4046   5.6405   5.6416   6.1648   6.1648   6.2334   6.2424
     6.5142   6.5165   6.6298   6.6523   6.6796   6.6822   6.8209   6.8268
     6.9837   6.9890   7.1811   7.1836   7.1854   7.1901   7.4382   7.4439
     7.4781   7.4798   7.5013   7.5042   7.5132   7.5137   7.7615   7.7623
    10.3522  10.3588  11.2319  11.2376  11.2743  11.2761  11.7241  11.7242
    11.7649  11.7717  11.8279  11.8392  12.5284  12.5502  12.7301  12.7391
    12.9042  12.9069  13.1859  13.1883  13.5694  13.5780  13.5900  13.5977
    15.4246  15.4334  15.5931  15.6004  16.2351  16.2389  16.6475  16.6513
    16.7807  16.7816  17.3841  17.3873  17.8507

          k = 0.0000-0.4725-0.5000 ( 62284 PWs)   bands (ev):

   -66.1759 -66.1759 -66.1759 -66.1759 -66.1749 -66.1749 -66.1749 -66.1749
   -30.5321 -30.5321 -30.5301 -30.5301 -30.5238 -30.5238 -30.5235 -30.5234
   -30.5213 -30.5212 -30.5206 -30.5206 -30.4772 -30.4772 -30.4758 -30.4758
   -30.4725 -30.4725 -30.4710 -30.4710 -30.4255 -30.4255 -30.4239 -30.4239
   -20.3369 -20.3369 -20.3369 -20.3369 -20.3368 -20.3368 -20.3368 -20.3368
   -20.3152 -20.3152 -20.3151 -20.3151 -20.3149 -20.3149 -20.3148 -20.3148
   -20.3139 -20.3139 -20.3137 -20.3137 -20.3131 -20.3130 -20.3130 -20.3130
   -20.3128 -20.3127 -20.3125 -20.3125 -20.3118 -20.3118 -20.3118 -20.3117
   -20.3045 -20.3045 -20.3045 -20.3045 -20.3023 -20.3023 -20.3023 -20.3023
   -20.3023 -20.3023 -20.3018 -20.3018 -20.2995 -20.2995 -20.2991 -20.2991
   -20.2991 -20.2991 -20.2986 -20.2986 -20.2962 -20.2962 -20.2957 -20.2957
    -9.5000  -9.5000  -9.4974  -9.4974  -8.7015  -8.7015  -8.6913  -8.6913
    -8.6435  -8.6434  -8.6362  -8.6362  -8.3834  -8.3834  -8.3677  -8.3677
    -8.3286  -8.3286  -8.3132  -8.3132  -7.7061  -7.7061  -7.7015  -7.7015
     1.2865   1.2865   1.2877   1.2877   2.9694   2.9694   3.0017   3.0017
     3.1282   3.1282   3.1474   3.1474   3.2014   3.2014   3.2226   3.2226
     3.2661   3.2661   3.2951   3.2951   3.4121   3.4121   3.4791   3.4791
     3.5573   3.5573   3.6806   3.6806   4.2857   4.2857   4.3285   4.3285
     4.4009   4.4010   4.4419   4.4419   5.2136   5.2136   5.2333   5.2333
     5.4954   5.4954   5.5197   5.5197   6.2994   6.2994   6.3029   6.3029
     6.4898   6.4898   6.4968   6.4968   6.6172   6.6173   6.6377   6.6377
     7.2743   7.2743   7.3059   7.3059   7.3339   7.3339   7.4244   7.4244
     7.4414   7.4414   7.4894   7.4894   7.5776   7.5776   7.5823   7.5823
    11.1195  11.1195  11.1476  11.1476  11.2644  11.2644  11.2887  11.2887
    12.2277  12.2277  12.2626  12.2626  12.2963  12.2963  12.3230  12.3230
    12.8354  12.8354  12.8483  12.8484  13.5786  13.5786  13.5867  13.5867
    15.5088  15.5088  15.5165  15.5165  16.8727  16.8727  16.8929  16.8929
    17.2949  17.2949  17.3294  17.3294  17.4285

          k = 0.1667 0.0000 0.1667 ( 62234 PWs)   bands (ev):

   -66.1765 -66.1761 -66.1756 -66.1756 -66.1752 -66.1752 -66.1747 -66.1744
   -30.5573 -30.5536 -30.5536 -30.5500 -30.5240 -30.5227 -30.5220 -30.5198
   -30.5183 -30.5174 -30.5161 -30.5150 -30.4931 -30.4930 -30.4929 -30.4928
   -30.4350 -30.4348 -30.4322 -30.4318 -30.4308 -30.4307 -30.4281 -30.4274
   -20.3370 -20.3370 -20.3369 -20.3369 -20.3368 -20.3368 -20.3368 -20.3367
   -20.3178 -20.3175 -20.3175 -20.3173 -20.3144 -20.3140 -20.3139 -20.3138
   -20.3134 -20.3134 -20.3132 -20.3132 -20.3130 -20.3126 -20.3126 -20.3125
   -20.3125 -20.3124 -20.3122 -20.3120 -20.3119 -20.3113 -20.3113 -20.3109
   -20.3047 -20.3045 -20.3043 -20.3042 -20.3040 -20.3038 -20.3037 -20.3034
   -20.3013 -20.3012 -20.3011 -20.3011 -20.3008 -20.3008 -20.3006 -20.3006
   -20.2971 -20.2969 -20.2966 -20.2964 -20.2963 -20.2962 -20.2959 -20.2956
    -9.8644  -9.5892  -9.4678  -9.4677  -9.2013  -9.2011  -9.0559  -9.0049
    -8.9916  -8.8405  -8.8215  -8.8213  -7.9140  -7.9023  -7.8887  -7.8836
    -7.8378  -7.8096  -7.7788  -7.7732  -7.7622  -7.7525  -7.7422  -7.7222
     1.4031   1.4032   1.4483   1.4494   1.4515   1.5171   1.5174   1.6446
     1.6996   1.7005   1.8587   2.0286   2.5364   2.6192   2.6802   2.6833
     2.7963   2.8255   4.0807   4.0935   4.2918   4.2932   4.4629   4.4635
     4.4980   4.5011   4.6764   4.6944   4.7394   4.8223   5.0396   5.2241
     5.2772   5.2982   5.3606   5.5027   5.5028   5.6103   5.6161   5.7005
     5.7038   5.7336   5.7386   5.7800   5.8396   6.0043   6.3159   6.4066
     6.4438   6.4815   6.5059   6.6566   6.6762   6.6965   6.7168   6.7315
     6.7439   6.8338   6.8472   6.8632   6.8870   6.9794   6.9864   7.0973
     7.2693   7.3294   7.8097   7.8103   8.0375   8.0805   8.0989   8.1099
     9.8180   9.8798  10.2114  10.2216  10.2348  10.3209  12.2309  12.2336
    12.2642  12.2684  12.3052  12.3447  12.5680  12.5694  12.8986  12.9384
    13.0021  13.1198  13.1681  13.3329  13.8708  13.9433  13.9858  14.0122
    14.1311  14.4708  14.4741  15.1443  15.3636  15.5446  15.5597  16.3512
    16.3514  16.9804  16.9808  17.1483  17.5988

          k = 0.1667 0.0000 0.3333 ( 62265 PWs)   bands (ev):

   -66.1763 -66.1759 -66.1758 -66.1754 -66.1754 -66.1750 -66.1749 -66.1745
   -30.5568 -30.5545 -30.5532 -30.5509 -30.5224 -30.5208 -30.5182 -30.5166
   -30.5078 -30.5060 -30.4997 -30.4981 -30.4943 -30.4942 -30.4888 -30.4886
   -30.4529 -30.4500 -30.4488 -30.4460 -30.4340 -30.4318 -30.4308 -30.4286
   -20.3370 -20.3369 -20.3369 -20.3369 -20.3369 -20.3368 -20.3368 -20.3368
   -20.3178 -20.3176 -20.3175 -20.3174 -20.3143 -20.3140 -20.3138 -20.3137
   -20.3134 -20.3132 -20.3132 -20.3132 -20.3129 -20.3128 -20.3127 -20.3126
   -20.3125 -20.3124 -20.3123 -20.3121 -20.3118 -20.3115 -20.3112 -20.3110
   -20.3045 -20.3043 -20.3041 -20.3038 -20.3034 -20.3032 -20.3029 -20.3026
   -20.3017 -20.3016 -20.3015 -20.3011 -20.3006 -20.3002 -20.3001 -20.2999
   -20.2981 -20.2977 -20.2975 -20.2971 -20.2968 -20.2965 -20.2961 -20.2958
    -9.7416  -9.5200  -9.4513  -9.3076  -9.2446  -9.0883  -8.9442  -8.9052
    -8.8560  -8.8341  -8.7834  -8.7184  -8.2105  -8.2065  -8.1349  -8.1125
    -7.8788  -7.8613  -7.8122  -7.8088  -7.7772  -7.7707  -7.7568  -7.7317
     1.4417   1.4456   1.5330   1.5463   1.5887   1.6275   1.6432   1.6967
     2.2177   2.2558   2.4031   2.4874   2.7041   2.7817   2.8187   2.9041
     2.9213   3.0516   3.7743   3.8520   3.8872   3.9236   4.1752   4.2537
     4.2777   4.4719   4.5123   4.5655   4.6339   4.6892   4.7383   4.8850
     4.9813   5.0354   5.0809   5.1786   5.2723   5.3762   5.5606   5.6484
     5.7250   5.7356   5.7826   5.8480   5.8590   6.0087   6.1272   6.1635
     6.4204   6.4563   6.5200   6.5694   6.5954   6.6491   6.6896   6.7044
     6.7880   6.8612   6.8670   6.8844   7.1010   7.1273   7.1370   7.2104
     7.3252   7.3754   7.7502   7.7639   7.9299   7.9696   8.0956   8.1070
    10.2117  10.2238  10.4696  10.5220  10.8474  10.9614  11.8588  11.9000
    12.1140  12.3860  12.4083  12.4859  12.5310  12.5682  12.7240  12.8203
    12.8803  13.0114  13.0521  13.2584  13.6287  13.6471  13.9505  13.9770
    14.2633  14.4450  14.7581  15.2576  15.4533  15.8106  15.9819  16.2560
    16.4245  17.2046  17.4523  17.5146  17.6016

          k = 0.1667 0.0000-0.5000 ( 62322 PWs)   bands (ev):

   -66.1761 -66.1761 -66.1757 -66.1757 -66.1752 -66.1752 -66.1748 -66.1748
   -30.5557 -30.5557 -30.5521 -30.5521 -30.5214 -30.5214 -30.5177 -30.5176
   -30.4972 -30.4972 -30.4970 -30.4970 -30.4766 -30.4766 -30.4749 -30.4749
   -30.4720 -30.4720 -30.4701 -30.4701 -30.4329 -30.4329 -30.4297 -30.4297
   -20.3370 -20.3370 -20.3369 -20.3369 -20.3369 -20.3369 -20.3368 -20.3368
   -20.3177 -20.3177 -20.3175 -20.3175 -20.3141 -20.3141 -20.3136 -20.3136
   -20.3134 -20.3134 -20.3131 -20.3131 -20.3130 -20.3130 -20.3127 -20.3127
   -20.3124 -20.3124 -20.3123 -20.3123 -20.3117 -20.3117 -20.3111 -20.3111
   -20.3044 -20.3044 -20.3039 -20.3039 -20.3024 -20.3024 -20.3023 -20.3023
   -20.3020 -20.3020 -20.3017 -20.3017 -20.2995 -20.2995 -20.2992 -20.2992
   -20.2989 -20.2989 -20.2986 -20.2986 -20.2967 -20.2967 -20.2960 -20.2960
    -9.6126  -9.6126  -9.3242  -9.3242  -9.1629  -9.1629  -8.8554  -8.8554
    -8.5846  -8.5846  -8.5821  -8.5821  -8.5279  -8.5279  -8.4664  -8.4664
    -7.8451  -7.8451  -7.8275  -7.8275  -7.7825  -7.7825  -7.7444  -7.7444
     1.4431   1.4431   1.5512   1.5512   1.6102   1.6102   1.6908   1.6908
     2.7289   2.7289   2.9690   2.9690   3.0558   3.0558   3.1771   3.1771
     3.2611   3.2611   3.3739   3.3739   3.4831   3.4831   3.7736   3.7736
     3.8782   3.8782   4.3845   4.3845   4.5632   4.5632   4.8585   4.8585
     5.0055   5.0055   5.0202   5.0202   5.2365   5.2365   5.6460   5.6460
     5.7662   5.7662   5.8141   5.8141   5.8689   5.8689   5.9968   5.9968
     6.3556   6.3556   6.4655   6.4655   6.6860   6.6860   6.7203   6.7203
     6.8010   6.8011   6.9505   6.9505   7.0054   7.0054   7.5148   7.5148
     7.5525   7.5525   7.6987   7.6987   7.7212   7.7212   8.1061   8.1062
    10.2292  10.2292  11.1946  11.1947  11.2607  11.2607  11.5613  11.5613
    11.7559  11.7559  12.5877  12.5877  12.6274  12.6274  12.6790  12.6790
    12.8909  12.8909  13.2119  13.2119  13.3242  13.3242  13.9617  13.9617
    14.3861  14.3861  15.0585  15.0585  15.8867  15.8867  16.0812  16.0813
    16.7598  16.7598  17.8738  17.8739  17.9219

          k = 0.1667 0.1575 0.1667 ( 62255 PWs)   bands (ev):

   -66.1765 -66.1761 -66.1756 -66.1756 -66.1753 -66.1753 -66.1747 -66.1744
   -30.5537 -30.5499 -30.5499 -30.5461 -30.5241 -30.5225 -30.5223 -30.5199
   -30.5182 -30.5172 -30.5164 -30.5151 -30.4968 -30.4966 -30.4965 -30.4964
   -30.4349 -30.4347 -30.4323 -30.4320 -30.4307 -30.4306 -30.4282 -30.4276
   -20.3370 -20.3370 -20.3369 -20.3369 -20.3368 -20.3368 -20.3368 -20.3367
   -20.3175 -20.3172 -20.3172 -20.3169 -20.3144 -20.3140 -20.3138 -20.3138
   -20.3135 -20.3134 -20.3133 -20.3132 -20.3130 -20.3128 -20.3128 -20.3125
   -20.3125 -20.3124 -20.3124 -20.3122 -20.3120 -20.3115 -20.3115 -20.3110
   -20.3047 -20.3044 -20.3042 -20.3042 -20.3040 -20.3039 -20.3037 -20.3034
   -20.3013 -20.3012 -20.3012 -20.3011 -20.3008 -20.3008 -20.3006 -20.3006
   -20.2970 -20.2969 -20.2966 -20.2964 -20.2963 -20.2962 -20.2959 -20.2956
    -9.8358  -9.6001  -9.4324  -9.4322  -9.2086  -9.2084  -9.0040  -8.9940
    -8.9813  -8.7944  -8.7825  -8.7824  -7.9394  -7.9081  -7.9060  -7.8989
    -7.8908  -7.8525  -7.8493  -7.8455  -7.8007  -7.7705  -7.7604  -7.7437
     1.4032   1.4033   1.4869   1.4883   1.5153   1.5172   1.6224   1.8427
     1.8568   1.8989   1.8993   2.1342   2.5430   2.6140   2.7526   2.7560
     2.8672   2.8895   3.9804   4.0096   4.0990   4.1019   4.4364   4.4368
     4.5008   4.5032   4.6818   4.6981   4.7412   4.7856   4.8497   5.1927
     5.2014   5.2595   5.2605   5.3339   5.3400   5.5714   5.5764   5.6351
     5.7237   5.7288   5.7971   5.8062   5.8084   5.8888   6.3226   6.3477
     6.3786   6.4818   6.4835   6.6570   6.6599   6.7140   6.7630   6.7888
     6.7958   6.8385   6.8690   6.8739   6.9489   6.9625   6.9742   7.1027
     7.2740   7.3281   7.8102   7.8106   7.9865   8.0273   8.0294   8.0347
     9.8339   9.8784  10.3728  10.3803  10.4003  10.4574  12.1855  12.2173
    12.2419  12.2431  12.2611  12.2701  12.4302  12.4306  12.9180  12.9276
    13.0434  13.1375  13.1756  13.3380  13.8594  13.8604  13.8889  13.9395
    14.3863  14.7618  14.7620  15.2719  15.5455  15.5584  15.7689  16.3160
    16.3166  16.8272  17.0827  17.0845  17.6391

          k = 0.1667 0.1575 0.3333 ( 62260 PWs)   bands (ev):

   -66.1763 -66.1759 -66.1758 -66.1754 -66.1754 -66.1751 -66.1749 -66.1746
   -30.5531 -30.5508 -30.5494 -30.5471 -30.5224 -30.5211 -30.5181 -30.5168
   -30.5088 -30.5072 -30.4997 -30.4987 -30.4979 -30.4977 -30.4912 -30.4909
   -30.4528 -30.4502 -30.4488 -30.4461 -30.4339 -30.4317 -30.4310 -30.4288
   -20.3370 -20.3369 -20.3369 -20.3369 -20.3369 -20.3368 -20.3368 -20.3368
   -20.3174 -20.3173 -20.3172 -20.3170 -20.3143 -20.3139 -20.3138 -20.3136
   -20.3135 -20.3133 -20.3132 -20.3132 -20.3130 -20.3130 -20.3128 -20.3127
   -20.3125 -20.3125 -20.3124 -20.3121 -20.3121 -20.3117 -20.3114 -20.3111
   -20.3045 -20.3043 -20.3041 -20.3039 -20.3034 -20.3032 -20.3029 -20.3026
   -20.3017 -20.3016 -20.3015 -20.3011 -20.3006 -20.3002 -20.3001 -20.2999
   -20.2981 -20.2977 -20.2975 -20.2971 -20.2967 -20.2965 -20.2962 -20.2959
    -9.7101  -9.4849  -9.4619  -9.2586  -9.2522  -9.0163  -8.9517  -8.8944
    -8.8571  -8.7956  -8.7503  -8.6934  -8.2145  -8.2061  -8.1478  -8.1103
    -7.9032  -7.8917  -7.8708  -7.8628  -7.8353  -7.8349  -7.8010  -7.7792
     1.4975   1.5129   1.5329   1.5462   1.7814   1.7939   1.8661   1.8936
     2.2167   2.2711   2.4040   2.5069   2.7750   2.8132   2.8622   2.9036
     2.9946   3.1102   3.7711   3.8410   3.8793   3.8893   4.0841   4.1564
     4.2466   4.3556   4.5169   4.5795   4.6456   4.6759   4.7073   4.7663
     4.8819   4.9063   4.9316   5.1531   5.1801   5.2168   5.3209   5.6142
     5.6217   5.6690   5.7384   5.7910   5.8436   5.8620   6.1190   6.1608
     6.3657   6.5152   6.5292   6.6404   6.7030   6.7076   6.7301   6.7605
     6.8453   6.8637   6.9050   6.9401   7.0946   7.1198   7.1339   7.2173
     7.3176   7.3713   7.7518   7.7611   7.8860   7.9135   8.0305   8.0349
    10.3402  10.3874  10.4941  10.5374  10.9618  11.0514  11.8597  11.8970
    12.0860  12.3675  12.4072  12.4187  12.4545  12.5367  12.6576  12.7052
    12.8810  13.0297  13.0417  13.2601  13.5282  13.5538  13.8744  13.8995
    14.5799  14.7399  15.1051  15.5351  15.6835  15.8060  15.9942  16.2250
    16.5280  17.1642  17.2356  17.5065  17.5604

          k = 0.1667 0.1575-0.5000 ( 62292 PWs)   bands (ev):

   -66.1760 -66.1760 -66.1757 -66.1757 -66.1752 -66.1752 -66.1748 -66.1748
   -30.5520 -30.5520 -30.5483 -30.5483 -30.5214 -30.5214 -30.5177 -30.5177
   -30.5005 -30.5005 -30.5001 -30.5001 -30.4768 -30.4768 -30.4750 -30.4750
   -30.4724 -30.4724 -30.4704 -30.4704 -30.4328 -30.4328 -30.4299 -30.4299
   -20.3370 -20.3370 -20.3369 -20.3369 -20.3369 -20.3368 -20.3368 -20.3368
   -20.3174 -20.3174 -20.3171 -20.3171 -20.3141 -20.3141 -20.3136 -20.3136
   -20.3134 -20.3134 -20.3132 -20.3132 -20.3130 -20.3129 -20.3128 -20.3128
   -20.3126 -20.3126 -20.3122 -20.3122 -20.3119 -20.3119 -20.3113 -20.3113
   -20.3044 -20.3044 -20.3040 -20.3040 -20.3024 -20.3024 -20.3023 -20.3023
   -20.3020 -20.3020 -20.3017 -20.3017 -20.2995 -20.2995 -20.2992 -20.2992
   -20.2989 -20.2989 -20.2986 -20.2986 -20.2967 -20.2967 -20.2960 -20.2960
    -9.5785  -9.5785  -9.3334  -9.3334  -9.0967  -9.0967  -8.8208  -8.8208
    -8.5870  -8.5870  -8.5848  -8.5847  -8.5269  -8.5269  -8.4590  -8.4590
    -7.8942  -7.8942  -7.8536  -7.8536  -7.8356  -7.8356  -7.8089  -7.8089
     1.5101   1.5101   1.5509   1.5509   1.8075   1.8075   1.8910   1.8910
     2.7952   2.7952   2.9857   2.9857   3.0637   3.0638   3.1968   3.1969
     3.2644   3.2644   3.3809   3.3809   3.4750   3.4750   3.7804   3.7804
     3.9287   3.9287   4.2360   4.2360   4.5717   4.5717   4.6616   4.6616
     4.9198   4.9198   4.9828   4.9828   5.0812   5.0812   5.4426   5.4426
     5.7025   5.7025   5.7444   5.7444   5.8593   5.8593   5.8720   5.8720
     6.4759   6.4759   6.6164   6.6164   6.6605   6.6605   6.7745   6.7745
     6.8904   6.8904   6.9082   6.9082   7.0353   7.0353   7.5163   7.5164
     7.5467   7.5467   7.6712   7.6712   7.6917   7.6917   8.0358   8.0358
    10.3895  10.3895  11.2007  11.2007  11.2595  11.2595  11.6278  11.6278
    11.8167  11.8167  12.4576  12.4576  12.6100  12.6100  12.6701  12.6701
    12.8699  12.8699  13.1086  13.1086  13.2693  13.2693  13.8826  13.8826
    14.6915  14.6915  15.4341  15.4341  15.9985  15.9986  16.0615  16.0615
    16.7914  16.7914  17.6828  17.6828  17.9456

          k = 0.1667 0.3150 0.1667 ( 62249 PWs)   bands (ev):

   -66.1764 -66.1762 -66.1755 -66.1755 -66.1753 -66.1753 -66.1746 -66.1744
   -30.5440 -30.5400 -30.5399 -30.5357 -30.5257 -30.5230 -30.5227 -30.5204
   -30.5186 -30.5168 -30.5164 -30.5152 -30.5071 -30.5058 -30.5057 -30.5051
   -30.4345 -30.4344 -30.4325 -30.4324 -30.4304 -30.4303 -30.4285 -30.4281
   -20.3370 -20.3370 -20.3369 -20.3369 -20.3369 -20.3369 -20.3368 -20.3368
   -20.3165 -20.3162 -20.3162 -20.3160 -20.3144 -20.3141 -20.3140 -20.3139
   -20.3139 -20.3135 -20.3135 -20.3134 -20.3134 -20.3132 -20.3132 -20.3128
   -20.3127 -20.3126 -20.3123 -20.3123 -20.3118 -20.3118 -20.3118 -20.3113
   -20.3046 -20.3044 -20.3042 -20.3042 -20.3039 -20.3039 -20.3037 -20.3035
   -20.3012 -20.3012 -20.3012 -20.3011 -20.3008 -20.3008 -20.3006 -20.3006
   -20.2970 -20.2968 -20.2965 -20.2965 -20.2963 -20.2963 -20.2959 -20.2957
    -9.7667  -9.6338  -9.3526  -9.3524  -9.2324  -9.2322  -9.0016  -8.9952
    -8.7758  -8.6515  -8.6514  -8.6511  -8.1677  -8.1251  -8.1251  -8.1052
    -7.8996  -7.8955  -7.8856  -7.8805  -7.7988  -7.7852  -7.7579  -7.7476
     1.4031   1.4032   1.5080   1.5094   1.5151   1.5166   1.8034   1.8542
     2.4018   2.5210   2.5214   2.5587   2.5897   2.6878   2.9727   2.9773
     3.0779   3.0877   3.6703   3.6762   3.6860   3.7316   4.1324   4.4276
     4.4300   4.4488   4.4567   4.5435   4.5498   4.7547   4.7709   4.8641
     4.9053   4.9163   5.1108   5.1366   5.3404   5.3776   5.4277   5.4286
     5.6390   5.6617   5.7274   5.7322   5.8056   5.8070   6.3600   6.3714
     6.4239   6.4635   6.4804   6.6246   6.6964   6.7303   6.8552   6.8573
     6.9142   6.9159   6.9957   7.0055   7.0963   7.1025   7.1140   7.1440
     7.3004   7.3336   7.7893   7.7998   7.8119   7.8221   7.8247   7.8571
     9.8555   9.8746  10.7798  10.8208  10.8415  10.8521  11.8449  11.8901
    11.9738  11.9768  12.2553  12.2561  12.2953  12.2956  12.9276  12.9475
    13.1679  13.2142  13.2386  13.3837  13.6389  13.6395  13.6598  13.7399
    15.0804  15.3969  15.3995  15.5512  15.5562  15.7712  16.1927  16.1938
    16.2776  16.7584  17.3441  17.4260  17.4350

          k = 0.1667 0.3150 0.3333 ( 62265 PWs)   bands (ev):

   -66.1762 -66.1760 -66.1757 -66.1755 -66.1753 -66.1751 -66.1748 -66.1746
   -30.5432 -30.5408 -30.5392 -30.5367 -30.5236 -30.5224 -30.5179 -30.5169
   -30.5139 -30.5118 -30.5082 -30.5068 -30.5000 -30.4995 -30.4954 -30.4945
   -30.4526 -30.4505 -30.4486 -30.4466 -30.4335 -30.4314 -30.4313 -30.4292
   -20.3370 -20.3369 -20.3369 -20.3369 -20.3369 -20.3368 -20.3368 -20.3368
   -20.3165 -20.3163 -20.3162 -20.3161 -20.3143 -20.3140 -20.3140 -20.3138
   -20.3137 -20.3136 -20.3135 -20.3134 -20.3133 -20.3131 -20.3130 -20.3130
   -20.3127 -20.3125 -20.3125 -20.3122 -20.3120 -20.3119 -20.3117 -20.3114
   -20.3044 -20.3042 -20.3042 -20.3039 -20.3033 -20.3032 -20.3029 -20.3027
   -20.3016 -20.3016 -20.3015 -20.3011 -20.3006 -20.3002 -20.3001 -20.2999
   -20.2981 -20.2977 -20.2976 -20.2972 -20.2967 -20.2965 -20.2962 -20.2959
    -9.6343  -9.4952  -9.4047  -9.2785  -9.1420  -8.9781  -8.8784  -8.8630
    -8.8104  -8.6681  -8.6279  -8.5986  -8.2506  -8.2460  -8.1981  -8.1239
    -8.1192  -8.1001  -8.0798  -8.0225  -7.8703  -7.8567  -7.7992  -7.7870
     1.5236   1.5316   1.5392   1.5456   2.1537   2.2103   2.2648   2.3986
     2.4124   2.5213   2.5301   2.7041   2.8357   2.9019   2.9915   3.0695
     3.2159   3.2934   3.6429   3.6608   3.7244   3.7474   3.8506   3.9305
     4.1093   4.3009   4.4037   4.4264   4.4904   4.5350   4.5713   4.6255
     4.6804   4.7959   4.8255   4.8841   4.9152   4.9722   5.1275   5.1465
     5.3152   5.3336   5.4610   5.6162   5.7545   5.8128   6.1473   6.1619
     6.5157   6.5986   6.6221   6.7410   6.8038   6.8288   6.9122   6.9704
     7.0016   7.0209   7.0458   7.0616   7.1321   7.1502   7.1891   7.2566
     7.2994   7.3612   7.7256   7.7333   7.7566   7.7594   7.8193   7.8441
    10.4650  10.5005  10.8243  10.8384  11.2760  11.3255  11.8338  11.8714
    11.8779  12.0373  12.1640  12.1935  12.4204  12.5085  12.6336  12.6780
    12.8510  13.0338  13.0990  13.2958  13.3181  13.3490  13.6489  13.6896
    15.2712  15.3796  15.7688  15.9140  15.9882  16.0527  16.1191  16.6384
    16.7271  16.8607  17.0363  17.5490  17.6898

          k = 0.1667 0.3150-0.5000 ( 62264 PWs)   bands (ev):

   -66.1760 -66.1760 -66.1758 -66.1758 -66.1751 -66.1751 -66.1749 -66.1749
   -30.5420 -30.5420 -30.5380 -30.5380 -30.5227 -30.5227 -30.5176 -30.5176
   -30.5102 -30.5102 -30.5085 -30.5085 -30.4770 -30.4769 -30.4752 -30.4752
   -30.4728 -30.4728 -30.4710 -30.4710 -30.4324 -30.4324 -30.4303 -30.4303
   -20.3370 -20.3370 -20.3369 -20.3369 -20.3368 -20.3368 -20.3368 -20.3368
   -20.3164 -20.3164 -20.3162 -20.3162 -20.3142 -20.3142 -20.3138 -20.3138
   -20.3137 -20.3137 -20.3135 -20.3135 -20.3132 -20.3132 -20.3129 -20.3129
   -20.3128 -20.3128 -20.3123 -20.3123 -20.3121 -20.3121 -20.3116 -20.3116
   -20.3043 -20.3043 -20.3041 -20.3041 -20.3024 -20.3023 -20.3023 -20.3023
   -20.3021 -20.3021 -20.3017 -20.3017 -20.2995 -20.2995 -20.2991 -20.2991
   -20.2990 -20.2990 -20.2986 -20.2986 -20.2966 -20.2966 -20.2961 -20.2961
    -9.4986  -9.4986  -9.3631  -9.3631  -8.9192  -8.9192  -8.7221  -8.7221
    -8.6078  -8.6078  -8.5944  -8.5944  -8.5047  -8.5047  -8.4281  -8.4281
    -8.1205  -8.1205  -8.0889  -8.0889  -7.8346  -7.8346  -7.8217  -7.8216
     1.5411   1.5411   1.5502   1.5502   2.3996   2.3996   2.5110   2.5110
     2.9691   2.9691   3.0433   3.0433   3.0681   3.0681   3.2451   3.2451
     3.2785   3.2785   3.4108   3.4108   3.4435   3.4435   3.6727   3.6727
     4.0605   4.0605   4.0953   4.0953   4.1359   4.1359   4.3774   4.3774
     4.7373   4.7373   4.8110   4.8110   4.9905   4.9905   5.0263   5.0263
     5.1088   5.1088   5.5294   5.5294   5.8591   5.8591   5.8782   5.8782
     6.6583   6.6583   6.7780   6.7780   6.8177   6.8177   6.8531   6.8531
     7.0223   7.0223   7.0710   7.0710   7.1705   7.1705   7.5111   7.5111
     7.5285   7.5285   7.5786   7.5786   7.6067   7.6067   7.8292   7.8292
    10.8098  10.8098  11.2144  11.2145  11.2588  11.2588  11.7388  11.7388
    12.0019  12.0019  12.1575  12.1575  12.5171  12.5171  12.5924  12.5924
    12.7648  12.7648  12.8967  12.8967  13.2661  13.2661  13.6635  13.6635
    15.3410  15.3410  15.9743  15.9743  16.3300  16.3300  16.4248  16.4248
    16.9170  16.9171  17.3267  17.3268  17.8761

          k = 0.1667-0.4725 0.1667 ( 62220 PWs)   bands (ev):

   -66.1763 -66.1763 -66.1754 -66.1754 -66.1754 -66.1754 -66.1745 -66.1745
   -30.5326 -30.5326 -30.5285 -30.5285 -30.5272 -30.5272 -30.5215 -30.5215
   -30.5205 -30.5205 -30.5153 -30.5153 -30.5135 -30.5135 -30.5121 -30.5121
   -30.4342 -30.4342 -30.4327 -30.4327 -30.4302 -30.4302 -30.4286 -30.4286
   -20.3370 -20.3370 -20.3369 -20.3369 -20.3369 -20.3369 -20.3368 -20.3368
   -20.3153 -20.3153 -20.3150 -20.3150 -20.3149 -20.3149 -20.3147 -20.3146
   -20.3141 -20.3141 -20.3136 -20.3136 -20.3134 -20.3134 -20.3130 -20.3130
   -20.3127 -20.3127 -20.3122 -20.3122 -20.3120 -20.3120 -20.3116 -20.3116
   -20.3045 -20.3045 -20.3042 -20.3041 -20.3040 -20.3040 -20.3037 -20.3037
   -20.3012 -20.3012 -20.3012 -20.3012 -20.3008 -20.3008 -20.3006 -20.3006
   -20.2969 -20.2969 -20.2964 -20.2964 -20.2964 -20.2964 -20.2958 -20.2958
    -9.6914  -9.6914  -9.2800  -9.2800  -9.2775  -9.2775  -8.9984  -8.9984
    -8.4778  -8.4778  -8.4177  -8.4177  -8.4163  -8.4163  -8.4090  -8.4090
    -7.8941  -7.8941  -7.8881  -7.8881  -7.7928  -7.7928  -7.7528  -7.7528
     1.4031   1.4031   1.5133   1.5133   1.5149   1.5149   1.8433   1.8433
     2.5778   2.5778   3.1842   3.1842   3.2163   3.2163   3.2765   3.2765
     3.2927   3.2927   3.3717   3.3717   3.5385   3.5385   3.5455   3.5455
     3.7376   3.7376   4.4547   4.4547   4.4995   4.4995   4.9410   4.9410
     5.0189   5.0189   5.1345   5.1345   5.1798   5.1798   5.4226   5.4226
     5.4634   5.4634   5.7378   5.7378   5.7700   5.7700   6.4139   6.4139
     6.4586   6.4586   6.5320   6.5320   6.7099   6.7099   6.8906   6.8906
     6.9039   6.9039   7.0677   7.0677   7.2563   7.2563   7.4639   7.4639
     7.4748   7.4748   7.4966   7.4966   7.5436   7.5436   7.8150   7.8150
     9.8678   9.8678  11.3221  11.3221  11.3738  11.3738  11.4123  11.4123
    11.4251  11.4251  12.2584  12.2584  12.2883  12.2883  12.9469  12.9469
    13.3689  13.3689  13.3880  13.3880  13.4057  13.4057  13.5389  13.5389
    15.5483  15.5483  15.6958  15.6958  15.9167  15.9167  15.9292  15.9293
    16.6245  16.6245  17.8995  17.8999  17.9234

          k = 0.1667-0.4725 0.3333 ( 62252 PWs)   bands (ev):

   -66.1761 -66.1761 -66.1756 -66.1756 -66.1752 -66.1752 -66.1747 -66.1747
   -30.5315 -30.5306 -30.5292 -30.5279 -30.5260 -30.5255 -30.5225 -30.5224
   -30.5171 -30.5168 -30.5145 -30.5143 -30.5006 -30.4997 -30.4968 -30.4956
   -30.4523 -30.4508 -30.4484 -30.4468 -30.4333 -30.4317 -30.4310 -30.4294
   -20.3370 -20.3370 -20.3369 -20.3369 -20.3369 -20.3368 -20.3368 -20.3368
   -20.3153 -20.3152 -20.3151 -20.3150 -20.3150 -20.3149 -20.3148 -20.3147
   -20.3140 -20.3139 -20.3137 -20.3135 -20.3133 -20.3133 -20.3129 -20.3129
   -20.3128 -20.3128 -20.3124 -20.3122 -20.3120 -20.3119 -20.3117 -20.3117
   -20.3043 -20.3043 -20.3041 -20.3040 -20.3033 -20.3032 -20.3029 -20.3027
   -20.3016 -20.3016 -20.3015 -20.3011 -20.3006 -20.3002 -20.3002 -20.2999
   -20.2981 -20.2976 -20.2976 -20.2972 -20.2967 -20.2964 -20.2963 -20.2959
    -9.5545  -9.5537  -9.3293  -9.3269  -9.0377  -9.0351  -8.8688  -8.8677
    -8.5211  -8.5202  -8.4485  -8.4467  -8.4043  -8.4030  -8.3945  -8.3943
    -8.1825  -8.1791  -8.0870  -8.0837  -7.8663  -7.8619  -7.7955  -7.7912
     1.5296   1.5301   1.5436   1.5444   2.2022   2.2033   2.3830   2.3851
     2.8492   2.8527   3.1880   3.1949   3.2243   3.2358   3.2599   3.2769
     3.2902   3.3090   3.4324   3.4694   3.5133   3.5417   3.6742   3.6804
     3.7734   3.7842   3.8545   3.9201   4.4463   4.4903   4.5894   4.6066
     4.6617   4.7166   4.7601   4.7943   4.9796   4.9873   5.0008   5.0806
     5.1609   5.2172   5.3213   5.4073   5.7620   5.7798   6.1568   6.1609
     6.5927   6.6015   6.6923   6.7068   6.8465   6.8548   6.9942   7.0497
     7.0816   7.0977   7.1684   7.1906   7.2060   7.2124   7.4347   7.4543
     7.4574   7.4803   7.4845   7.4996   7.5132   7.5359   7.7647   7.7663
    10.4885  10.4941  11.3506  11.3655  11.3900  11.3996  11.7291  11.7394
    11.7478  11.7702  11.8751  11.9261  12.4213  12.4759  12.7277  12.7544
    12.9027  12.9307  13.0881  13.1686  13.3870  13.4113  13.4383  13.4939
    15.6589  15.6775  15.8610  15.8754  16.2718  16.2959  16.6243  16.6500
    16.8165  16.8200  17.4139  17.4477  17.8131

          k = 0.1667-0.4725-0.5000 ( 62232 PWs)   bands (ev):

   -66.1759 -66.1759 -66.1759 -66.1759 -66.1750 -66.1750 -66.1750 -66.1750
   -30.5303 -30.5303 -30.5291 -30.5291 -30.5241 -30.5241 -30.5238 -30.5237
   -30.5157 -30.5157 -30.5154 -30.5154 -30.4769 -30.4769 -30.4755 -30.4755
   -30.4729 -30.4728 -30.4714 -30.4714 -30.4322 -30.4322 -30.4306 -30.4306
   -20.3369 -20.3369 -20.3369 -20.3369 -20.3368 -20.3368 -20.3368 -20.3368
   -20.3152 -20.3152 -20.3151 -20.3151 -20.3149 -20.3149 -20.3148 -20.3148
   -20.3138 -20.3138 -20.3137 -20.3137 -20.3131 -20.3131 -20.3130 -20.3130
   -20.3127 -20.3127 -20.3125 -20.3125 -20.3119 -20.3119 -20.3118 -20.3118
   -20.3042 -20.3042 -20.3042 -20.3042 -20.3023 -20.3023 -20.3023 -20.3023
   -20.3021 -20.3021 -20.3017 -20.3017 -20.2995 -20.2995 -20.2991 -20.2991
   -20.2990 -20.2990 -20.2986 -20.2986 -20.2966 -20.2966 -20.2961 -20.2961
    -9.4196  -9.4196  -9.4169  -9.4169  -8.7235  -8.7235  -8.7141  -8.7141
    -8.6239  -8.6238  -8.6158  -8.6157  -8.3806  -8.3806  -8.3648  -8.3648
    -8.3314  -8.3314  -8.3163  -8.3163  -7.8308  -7.8308  -7.8264  -7.8264
     1.5470   1.5470   1.5490   1.5491   2.9742   2.9742   3.0035   3.0035
     3.1184   3.1184   3.1541   3.1541   3.2164   3.2164   3.2505   3.2505
     3.2860   3.2860   3.3888   3.3888   3.4580   3.4580   3.5151   3.5151
     3.5944   3.5944   3.7077   3.7077   4.2873   4.2873   4.3283   4.3283
     4.3939   4.3939   4.4338   4.4338   4.8647   4.8647   5.0346   5.0346
     5.1459   5.1459   5.3021   5.3021   5.8602   5.8602   5.8725   5.8725
     6.7383   6.7383   6.7709   6.7709   6.8496   6.8496   6.8853   6.8853
     7.2695   7.2695   7.3063   7.3063   7.3569   7.3569   7.4174   7.4174
     7.4453   7.4453   7.4981   7.4981   7.5781   7.5781   7.6075   7.6075
    11.1839  11.1839  11.2205  11.2205  11.3781  11.3781  11.4387  11.4387
    12.2267  12.2267  12.2658  12.2658  12.2973  12.2973  12.3313  12.3313
    12.7399  12.7399  12.8082  12.8082  13.4005  13.4005  13.4456  13.4456
    15.7699  15.7700  15.7890  15.7890  16.9292  16.9292  16.9490  16.9490
    17.3055  17.3056  17.3438  17.3439  17.4194

          k = 0.3333 0.0000 0.3333 ( 62316 PWs)   bands (ev):

   -66.1761 -66.1757 -66.1756 -66.1756 -66.1752 -66.1752 -66.1751 -66.1747
   -30.5562 -30.5541 -30.5540 -30.5518 -30.5097 -30.5078 -30.5073 -30.5017
   -30.5005 -30.5000 -30.4988 -30.4971 -30.4954 -30.4900 -30.4895 -30.4861
   -30.4528 -30.4519 -30.4510 -30.4500 -30.4485 -30.4481 -30.4470 -30.4458
   -20.3370 -20.3369 -20.3369 -20.3369 -20.3369 -20.3368 -20.3368 -20.3368
   -20.3178 -20.3176 -20.3176 -20.3175 -20.3141 -20.3138 -20.3138 -20.3137
   -20.3134 -20.3133 -20.3132 -20.3130 -20.3129 -20.3128 -20.3127 -20.3126
   -20.3126 -20.3125 -20.3124 -20.3123 -20.3117 -20.3114 -20.3114 -20.3111
   -20.3039 -20.3037 -20.3035 -20.3034 -20.3031 -20.3031 -20.3024 -20.3020
   -20.3020 -20.3018 -20.3009 -20.3009 -20.3004 -20.3003 -20.2998 -20.2997
   -20.2985 -20.2980 -20.2978 -20.2977 -20.2973 -20.2972 -20.2972 -20.2968
    -9.6019  -9.3596  -9.3591  -9.2669  -9.1252  -8.9918  -8.9910  -8.7817
    -8.7687  -8.7664  -8.7345  -8.7335  -8.2471  -8.1916  -8.1874  -8.1826
    -8.1750  -8.1722  -8.0673  -8.0477  -7.7924  -7.7667  -7.7667  -7.7413
     1.5277   1.5674   1.5678   1.6090   2.1140   2.1213   2.2323   2.2369
     2.2693   2.2754   2.4834   2.5851   2.9321   2.9382   2.9743   3.0136
     3.1893   3.2142   3.7974   3.8012   3.8802   3.8859   4.0921   4.0937
     4.1465   4.1515   4.2227   4.3131   4.3872   4.4126   4.4818   4.4977
     4.8129   4.8488   4.9113   4.9573   5.0291   5.0332   5.1551   5.4146
     5.4199   5.4771   5.4788   5.6487   5.9090   5.9098   5.9120   6.0522
     6.4802   6.4873   6.5057   6.5123   6.5197   6.5539   6.5551   6.6244
     6.9938   7.1774   7.1783   7.1888   7.1954   7.2936   7.3422   7.3459
     7.3874   7.4913   7.7118   7.7182   7.9010   7.9711   7.9810   8.0195
    10.7110  10.8340  10.8492  10.8595  10.9443  11.1636  12.0273  12.0336
    12.0762  12.0840  12.1808  12.2695  12.5052  12.5058  12.7346  12.7871
    12.7969  12.7977  12.9412  13.0175  13.5458  13.6094  13.6179  13.7114
    14.4427  14.7105  14.7107  15.1628  15.8409  16.3358  16.3801  16.7705
    16.7756  17.2005  17.2028  17.7883  17.8441

          k = 0.3333 0.0000-0.5000 ( 62288 PWs)   bands (ev):

   -66.1759 -66.1759 -66.1755 -66.1755 -66.1754 -66.1754 -66.1750 -66.1750
   -30.5552 -30.5552 -30.5530 -30.5530 -30.5076 -30.5076 -30.4994 -30.4994
   -30.4981 -30.4981 -30.4923 -30.4923 -30.4760 -30.4760 -30.4747 -30.4747
   -30.4720 -30.4720 -30.4710 -30.4710 -30.4508 -30.4508 -30.4477 -30.4477
   -20.3369 -20.3369 -20.3369 -20.3369 -20.3369 -20.3369 -20.3368 -20.3368
   -20.3177 -20.3177 -20.3175 -20.3175 -20.3139 -20.3139 -20.3135 -20.3135
   -20.3135 -20.3134 -20.3131 -20.3131 -20.3129 -20.3128 -20.3127 -20.3127
   -20.3125 -20.3125 -20.3124 -20.3124 -20.3116 -20.3116 -20.3113 -20.3112
   -20.3036 -20.3036 -20.3033 -20.3033 -20.3026 -20.3026 -20.3024 -20.3024
   -20.3015 -20.3015 -20.3010 -20.3010 -20.2998 -20.2998 -20.2992 -20.2992
   -20.2990 -20.2990 -20.2986 -20.2986 -20.2977 -20.2977 -20.2971 -20.2971
    -9.4572  -9.4572  -9.2079  -9.2079  -9.0886  -9.0886  -8.7549  -8.7549
    -8.6348  -8.6348  -8.5641  -8.5640  -8.5045  -8.5044  -8.4698  -8.4698
    -8.1438  -8.1438  -8.1368  -8.1367  -7.7799  -7.7799  -7.7542  -7.7542
     1.5474   1.5474   1.5901   1.5901   2.2493   2.2493   2.2771   2.2771
     2.9195   2.9195   3.0055   3.0055   3.0395   3.0395   3.1968   3.1969
     3.2965   3.2965   3.5749   3.5749   3.6965   3.6965   3.8265   3.8265
     3.8670   3.8670   4.0505   4.0505   4.1867   4.1867   4.3362   4.3362
     4.6833   4.6833   4.8975   4.8975   5.0146   5.0146   5.0956   5.0956
     5.2512   5.2512   5.5202   5.5202   5.9364   5.9364   6.0224   6.0224
     6.4138   6.4138   6.4365   6.4365   6.5002   6.5002   6.5787   6.5787
     7.1660   7.1660   7.2842   7.2842   7.3744   7.3745   7.5441   7.5441
     7.5641   7.5641   7.6967   7.6967   7.7456   7.7456   7.9878   7.9878
    10.8512  10.8512  11.4177  11.4177  11.5005  11.5005  11.6098  11.6098
    11.8249  11.8249  12.2427  12.2427  12.3874  12.3875  12.6209  12.6209
    12.8106  12.8106  13.1687  13.1687  13.2071  13.2071  13.6267  13.6267
    14.6133  14.6133  14.9842  14.9842  16.3016  16.3016  16.7676  16.7676
    17.1205  17.1205  17.5107  17.5107  17.9428

          k = 0.3333 0.1575 0.3333 ( 62283 PWs)   bands (ev):

   -66.1761 -66.1758 -66.1756 -66.1756 -66.1753 -66.1753 -66.1751 -66.1747
   -30.5525 -30.5503 -30.5503 -30.5480 -30.5114 -30.5090 -30.5084 -30.5016
   -30.5008 -30.5003 -30.4990 -30.4988 -30.4973 -30.4922 -30.4917 -30.4883
   -30.4527 -30.4519 -30.4510 -30.4500 -30.4485 -30.4482 -30.4471 -30.4460
   -20.3370 -20.3369 -20.3369 -20.3369 -20.3369 -20.3368 -20.3368 -20.3368
   -20.3174 -20.3173 -20.3173 -20.3171 -20.3141 -20.3138 -20.3137 -20.3137
   -20.3135 -20.3133 -20.3132 -20.3131 -20.3130 -20.3129 -20.3129 -20.3126
   -20.3126 -20.3125 -20.3125 -20.3122 -20.3119 -20.3116 -20.3115 -20.3113
   -20.3039 -20.3037 -20.3035 -20.3034 -20.3032 -20.3031 -20.3024 -20.3020
   -20.3020 -20.3018 -20.3009 -20.3009 -20.3004 -20.3003 -20.2998 -20.2997
   -20.2985 -20.2981 -20.2978 -20.2977 -20.2973 -20.2972 -20.2971 -20.2968
    -9.5644  -9.3119  -9.3112  -9.2781  -9.0546  -9.0003  -8.9995  -8.7808
    -8.7672  -8.7313  -8.7085  -8.7076  -8.2622  -8.1914  -8.1895  -8.1824
    -8.1751  -8.1737  -8.0663  -8.0490  -7.8852  -7.8605  -7.8604  -7.8348
     1.7519   1.7854   1.7858   1.8327   2.1143   2.1212   2.2319   2.2360
[...]
   -20.3303 -20.3303 -20.3299 -20.3299 -20.3298 -20.3298 -20.3294 -20.3294
   -20.3211 -20.3211 -20.3209 -20.3209 -20.3201 -20.3201 -20.3200 -20.3200
   -20.3190 -20.3190 -20.3187 -20.3186 -20.3173 -20.3173 -20.3168 -20.3168
   -20.3166 -20.3166 -20.3163 -20.3163 -20.3152 -20.3152 -20.3148 -20.3148
    -9.3157  -9.3157  -9.1227  -9.1226  -9.0082  -9.0082  -8.6899  -8.6898
    -8.6473  -8.6472  -8.5513  -8.5513  -8.4873  -8.4873  -8.4441  -8.4441
    -8.1865  -8.1865  -8.1499  -8.1499  -8.1258  -8.1258  -8.0763  -8.0763
     2.1829   2.1829   2.2529   2.2529   2.3637   2.3637   2.4813   2.4813
     3.0217   3.0217   3.0709   3.0709   3.1663   3.1663   3.2419   3.2419
     3.3308   3.3308   3.5930   3.5930   3.6837   3.6837   3.7750   3.7750
     4.0266   4.0266   4.0751   4.0751   4.1160   4.1160   4.2264   4.2264
     4.3089   4.3089   4.4417   4.4417   4.5934   4.5934   4.8238   4.8238
     4.9406   4.9406   4.9840   4.9840   5.0363   5.0363   5.2743   5.2743
     6.8416   6.8416   6.8984   6.8984   6.9602   6.9602   7.0224   7.0224
     7.1643   7.1643   7.2590   7.2590   7.3755   7.3755   7.4935   7.4935
     7.5295   7.5295   7.5909   7.5909   7.6237   7.6237   7.7610   7.7610
    11.2131  11.2132  11.4371  11.4371  11.5224  11.5224  11.8215  11.8215
    12.0195  12.0195  12.2684  12.2684  12.3230  12.3230  12.3470  12.3470
    12.6622  12.6623  12.7635  12.7635  12.8471  12.8471  13.2592  13.2592
    15.8405  15.8405  16.3359  16.3359  16.6195  16.6195  16.6905  16.6905
    17.0949  17.0949  17.3732  17.3732  17.6494

          k = 0.3328-0.4737 0.3328 ( 62316 PWs)   bands (ev):

   -66.1929 -66.1929 -66.1924 -66.1924 -66.1923 -66.1923 -66.1919 -66.1919
   -30.5546 -30.5546 -30.5525 -30.5525 -30.5523 -30.5523 -30.5501 -30.5501
   -30.5115 -30.5115 -30.5098 -30.5098 -30.5077 -30.5077 -30.5061 -30.5061
   -30.4623 -30.4623 -30.4612 -30.4612 -30.4590 -30.4590 -30.4579 -30.4579
   -20.3547 -20.3547 -20.3546 -20.3546 -20.3546 -20.3546 -20.3545 -20.3545
   -20.3331 -20.3330 -20.3329 -20.3329 -20.3328 -20.3328 -20.3327 -20.3327
   -20.3316 -20.3316 -20.3313 -20.3313 -20.3311 -20.3311 -20.3308 -20.3308
   -20.3304 -20.3304 -20.3300 -20.3300 -20.3298 -20.3298 -20.3295 -20.3295
   -20.3213 -20.3213 -20.3209 -20.3208 -20.3207 -20.3207 -20.3197 -20.3197
   -20.3195 -20.3195 -20.3185 -20.3185 -20.3180 -20.3180 -20.3174 -20.3174
   -20.3158 -20.3158 -20.3153 -20.3153 -20.3150 -20.3150 -20.3146 -20.3146
    -9.3734  -9.3734  -9.0892  -9.0892  -9.0867  -9.0867  -8.7637  -8.7637
    -8.6119  -8.6119  -8.4560  -8.4560  -8.4540  -8.4539  -8.4330  -8.4330
    -8.1607  -8.1607  -8.1551  -8.1551  -8.1450  -8.1450  -8.0535  -8.0535
     2.1311   2.1311   2.2266   2.2266   2.2331   2.2331   2.4626   2.4626
     3.1140   3.1140   3.1784   3.1784   3.2155   3.2155   3.2522   3.2522
     3.3232   3.3232   3.5265   3.5265   3.6056   3.6056   3.6493   3.6493
     3.7700   3.7700   4.0533   4.0533   4.1769   4.1769   4.3946   4.3946
     4.4912   4.4912   4.6084   4.6084   4.6843   4.6844   4.7384   4.7384
     4.8447   4.8448   4.9522   4.9522   4.9677   4.9677   5.4921   5.4921
     6.9109   6.9109   7.0238   7.0238   7.0564   7.0564   7.1305   7.1305
     7.2055   7.2055   7.2335   7.2335   7.2666   7.2666   7.4058   7.4058
     7.4445   7.4445   7.5011   7.5011   7.5375   7.5375   7.7284   7.7284
    10.8693  10.8693  11.6433  11.6433  11.6941  11.6941  11.7334  11.7334
    11.8258  11.8258  12.0323  12.0323  12.1443  12.1443  12.5805  12.5805
    12.8645  12.8645  12.9003  12.9003  12.9497  12.9497  13.1547  13.1547
    16.2863  16.2863  16.4013  16.4013  16.5509  16.5510  16.5975  16.5975
    16.9727  16.9727  17.4979  17.4979  17.5724

          k = 0.3328-0.4737-0.4992 ( 62280 PWs)   bands (ev):

   -66.1926 -66.1926 -66.1926 -66.1926 -66.1921 -66.1921 -66.1921 -66.1921
   -30.5537 -30.5537 -30.5534 -30.5534 -30.5515 -30.5514 -30.5512 -30.5512
   -30.5095 -30.5095 -30.5082 -30.5082 -30.4863 -30.4863 -30.4849 -30.4849
   -30.4841 -30.4840 -30.4825 -30.4825 -30.4608 -30.4608 -30.4593 -30.4592
   -20.3547 -20.3546 -20.3546 -20.3546 -20.3546 -20.3546 -20.3546 -20.3546
   -20.3330 -20.3330 -20.3330 -20.3329 -20.3328 -20.3328 -20.3328 -20.3328
   -20.3314 -20.3314 -20.3313 -20.3313 -20.3310 -20.3310 -20.3309 -20.3309
   -20.3302 -20.3302 -20.3301 -20.3301 -20.3297 -20.3297 -20.3297 -20.3297
   -20.3210 -20.3210 -20.3210 -20.3210 -20.3201 -20.3201 -20.3200 -20.3200
   -20.3189 -20.3189 -20.3187 -20.3187 -20.3173 -20.3172 -20.3168 -20.3168
   -20.3165 -20.3165 -20.3163 -20.3163 -20.3152 -20.3152 -20.3149 -20.3149
    -9.1990  -9.1990  -9.1956  -9.1956  -8.8011  -8.8011  -8.7931  -8.7931
    -8.5662  -8.5662  -8.5587  -8.5587  -8.4065  -8.4064  -8.3946  -8.3946
    -8.3589  -8.3589  -8.3486  -8.3486  -8.1244  -8.1244  -8.1207  -8.1207
     2.2445   2.2445   2.2489   2.2489   2.9773   2.9773   2.9960   2.9960
     3.1043   3.1043   3.1210   3.1210   3.2459   3.2459   3.2744   3.2744
     3.3546   3.3546   3.3984   3.3984   3.6204   3.6204   3.6471   3.6471
     3.7480   3.7480   3.8224   3.8224   4.2279   4.2279   4.2632   4.2632
     4.3143   4.3143   4.3724   4.3724   4.4430   4.4430   4.5433   4.5433
     4.6367   4.6367   4.7888   4.7888   5.0458   5.0458   5.0611   5.0611
     7.0091   7.0091   7.0505   7.0506   7.1678   7.1678   7.1750   7.1750
     7.2640   7.2640   7.2965   7.2965   7.3385   7.3385   7.3947   7.3947
     7.4697   7.4697   7.5332   7.5332   7.5961   7.5961   7.6205   7.6205
    11.3985  11.3985  11.4314  11.4314  11.7227  11.7227  11.7923  11.7923
    12.1557  12.1557  12.2019  12.2019  12.2840  12.2840  12.3212  12.3212
    12.4649  12.4649  12.5668  12.5668  12.9379  12.9379  13.0138  13.0138
    16.4600  16.4600  16.5033  16.5034  17.0675  17.0676  17.0892  17.0892
    17.3067  17.3068  17.3736  17.3742  17.4051

          k =-0.4992 0.0000-0.4992 ( 62356 PWs)   bands (ev):

   -66.1926 -66.1926 -66.1926 -66.1926 -66.1922 -66.1922 -66.1922 -66.1921
   -30.5817 -30.5817 -30.5817 -30.5817 -30.5241 -30.5241 -30.5239 -30.5239
   -30.4877 -30.4877 -30.4873 -30.4873 -30.4870 -30.4870 -30.4852 -30.4852
   -30.4834 -30.4834 -30.4820 -30.4820 -30.4812 -30.4812 -30.4800 -30.4800
   -20.3547 -20.3547 -20.3547 -20.3546 -20.3546 -20.3546 -20.3546 -20.3546
   -20.3355 -20.3355 -20.3355 -20.3355 -20.3315 -20.3315 -20.3315 -20.3315
   -20.3311 -20.3311 -20.3310 -20.3310 -20.3305 -20.3305 -20.3303 -20.3303
   -20.3303 -20.3303 -20.3303 -20.3302 -20.3292 -20.3292 -20.3291 -20.3291
   -20.3206 -20.3206 -20.3204 -20.3204 -20.3204 -20.3203 -20.3203 -20.3203
   -20.3181 -20.3181 -20.3179 -20.3179 -20.3175 -20.3175 -20.3174 -20.3174
   -20.3162 -20.3162 -20.3162 -20.3162 -20.3159 -20.3159 -20.3158 -20.3158
    -9.3412  -9.3412  -9.3406  -9.3406  -8.7854  -8.7854  -8.7833  -8.7833
    -8.5959  -8.5959  -8.5935  -8.5935  -8.4263  -8.4263  -8.4237  -8.4236
    -8.4036  -8.4036  -8.4009  -8.4009  -7.8009  -7.8009  -7.8008  -7.8008
     1.5093   1.5093   1.5098   1.5098   2.9135   2.9135   2.9231   2.9231
     3.0578   3.0578   3.0725   3.0725   3.1076   3.1076   3.1280   3.1280
     3.3079   3.3079   3.3212   3.3212   3.7721   3.7721   3.7915   3.7915
     3.8102   3.8102   3.8254   3.8254   4.1827   4.1827   4.1853   4.1853
     4.2752   4.2752   4.2765   4.2765   4.9009   4.9009   4.9065   4.9065
     5.3470   5.3470   5.3540   5.3540   5.9820   5.9820   5.9833   5.9833
     6.3783   6.3783   6.3790   6.3790   6.4309   6.4309   6.4322   6.4322
     7.4599   7.4599   7.4621   7.4621   7.4944   7.4944   7.5063   7.5064
     7.6028   7.6029   7.6035   7.6035   7.8055   7.8055   7.8150   7.8150
    11.5184  11.5184  11.5196  11.5196  11.5742  11.5742  11.5795  11.5795
    11.9309  11.9309  11.9316  11.9316  12.1152  12.1152  12.1156  12.1156
    13.0942  13.0942  13.0951  13.0951  13.2542  13.2542  13.2563  13.2563
    14.8689  14.8689  14.8690  14.8690  16.7352  16.7352  16.7421  16.7422
    17.7127  17.7128  17.7147  17.7148  17.8577

          k =-0.4992 0.1579-0.4992 ( 62404 PWs)   bands (ev):

   -66.1925 -66.1925 -66.1925 -66.1925 -66.1922 -66.1922 -66.1922 -66.1922
   -30.5778 -30.5778 -30.5778 -30.5778 -30.5278 -30.5277 -30.5276 -30.5276
   -30.4875 -30.4875 -30.4873 -30.4873 -30.4868 -30.4868 -30.4852 -30.4852
   -30.4835 -30.4835 -30.4820 -30.4820 -30.4816 -30.4816 -30.4804 -30.4804
   -20.3547 -20.3547 -20.3546 -20.3546 -20.3546 -20.3546 -20.3546 -20.3546
   -20.3352 -20.3352 -20.3352 -20.3352 -20.3315 -20.3315 -20.3314 -20.3314
   -20.3312 -20.3312 -20.3310 -20.3310 -20.3307 -20.3307 -20.3305 -20.3305
   -20.3303 -20.3303 -20.3302 -20.3302 -20.3294 -20.3294 -20.3293 -20.3293
   -20.3206 -20.3206 -20.3204 -20.3204 -20.3204 -20.3204 -20.3204 -20.3203
   -20.3180 -20.3180 -20.3179 -20.3179 -20.3176 -20.3176 -20.3174 -20.3174
   -20.3162 -20.3162 -20.3161 -20.3161 -20.3159 -20.3159 -20.3158 -20.3158
    -9.2805  -9.2805  -9.2798  -9.2798  -8.7978  -8.7977  -8.7957  -8.7957
    -8.5811  -8.5811  -8.5787  -8.5787  -8.4255  -8.4255  -8.4229  -8.4229
    -8.4042  -8.4042  -8.4015  -8.4014  -7.8971  -7.8971  -7.8970  -7.8970
     1.7420   1.7420   1.7425   1.7425   2.9300   2.9300   2.9400   2.9401
     3.0650   3.0650   3.0805   3.0805   3.1289   3.1289   3.1515   3.1515
     3.2996   3.2996   3.3130   3.3130   3.8135   3.8135   3.8306   3.8306
     3.8570   3.8570   3.8718   3.8718   4.1734   4.1734   4.1741   4.1741
     4.2765   4.2765   4.2777   4.2777   4.6818   4.6818   4.6869   4.6869
     5.1102   5.1102   5.1158   5.1158   5.7070   5.7070   5.7087   5.7087
     6.5714   6.5714   6.5760   6.5760   6.6116   6.6116   6.6133   6.6134
     7.4500   7.4500   7.4521   7.4521   7.4855   7.4856   7.4982   7.4982
     7.5880   7.5880   7.5893   7.5893   7.7742   7.7742   7.7810   7.7810
    11.5724  11.5724  11.5734  11.5734  11.6323  11.6323  11.6400  11.6400
    11.9369  11.9369  11.9375  11.9375  12.1385  12.1385  12.1390  12.1390
    12.9668  12.9668  12.9679  12.9679  13.1349  13.1349  13.1368  13.1368
    15.2540  15.2540  15.2541  15.2541  16.7999  16.7999  16.8059  16.8059
    17.6535  17.6536  17.6595  17.6595  17.8618

          k =-0.4992 0.3158-0.4992 ( 62304 PWs)   bands (ev):

   -66.1925 -66.1925 -66.1925 -66.1925 -66.1923 -66.1923 -66.1923 -66.1922
   -30.5671 -30.5671 -30.5671 -30.5671 -30.5381 -30.5381 -30.5380 -30.5380
   -30.4873 -30.4873 -30.4872 -30.4872 -30.4863 -30.4863 -30.4853 -30.4853
   -30.4836 -30.4836 -30.4824 -30.4824 -30.4820 -30.4820 -30.4812 -30.4812
   -20.3546 -20.3546 -20.3546 -20.3546 -20.3546 -20.3546 -20.3546 -20.3546
   -20.3342 -20.3342 -20.3342 -20.3342 -20.3317 -20.3317 -20.3317 -20.3317
   -20.3313 -20.3313 -20.3312 -20.3312 -20.3311 -20.3311 -20.3309 -20.3309
   -20.3301 -20.3301 -20.3301 -20.3301 -20.3297 -20.3297 -20.3296 -20.3296
   -20.3205 -20.3205 -20.3204 -20.3204 -20.3204 -20.3204 -20.3204 -20.3204
   -20.3180 -20.3180 -20.3178 -20.3178 -20.3177 -20.3177 -20.3175 -20.3175
   -20.3162 -20.3162 -20.3161 -20.3161 -20.3160 -20.3160 -20.3159 -20.3159
    -9.1232  -9.1231  -9.1222  -9.1222  -8.8430  -8.8430  -8.8412  -8.8412
    -8.5263  -8.5263  -8.5240  -8.5240  -8.4241  -8.4241  -8.4218  -8.4217
    -8.4041  -8.4041  -8.4013  -8.4013  -8.1296  -8.1296  -8.1295  -8.1295
     2.3630   2.3630   2.3631   2.3631   2.9671   2.9671   2.9787   2.9787
     3.0618   3.0618   3.0704   3.0704   3.2086   3.2086   3.2321   3.2321
     3.2700   3.2700   3.2802   3.2802   3.9362   3.9362   3.9499   3.9499
     3.9649   3.9649   3.9875   3.9875   4.0615   4.0615   4.0729   4.0729
     4.2823   4.2823   4.2911   4.2911   4.3197   4.3197   4.3339   4.3339
     4.7003   4.7003   4.7048   4.7048   5.0118   5.0118   5.0140   5.0140
     6.9017   6.9017   6.9078   6.9078   6.9982   6.9982   7.0013   7.0013
     7.3893   7.3893   7.3934   7.3934   7.4511   7.4511   7.4619   7.4619
     7.5650   7.5650   7.5683   7.5683   7.6813   7.6813   7.6856   7.6856
    11.6964  11.6964  11.6986  11.6986  11.7634  11.7634  11.7717  11.7717
    11.9936  11.9936  11.9962  11.9962  12.2332  12.2332  12.2372  12.2372
    12.6466  12.6466  12.6496  12.6496  12.8332  12.8332  12.8357  12.8357
    16.1987  16.1987  16.1998  16.1998  16.9814  16.9814  16.9826  16.9826
    17.4650  17.4650  17.4802  17.4802  17.8814

          k =-0.4992-0.4737-0.4992 ( 62304 PWs)   bands (ev):

   -66.1924 -66.1924 -66.1924 -66.1924 -66.1924 -66.1924 -66.1923 -66.1923
   -30.5528 -30.5528 -30.5525 -30.5525 -30.5524 -30.5524 -30.5523 -30.5522
   -30.4872 -30.4872 -30.4872 -30.4872 -30.4857 -30.4857 -30.4857 -30.4857
   -30.4835 -30.4834 -30.4830 -30.4830 -30.4818 -30.4818 -30.4818 -30.4818
   -20.3546 -20.3546 -20.3546 -20.3546 -20.3546 -20.3546 -20.3546 -20.3546
   -20.3329 -20.3329 -20.3329 -20.3329 -20.3329 -20.3329 -20.3329 -20.3329
   -20.3312 -20.3312 -20.3312 -20.3312 -20.3311 -20.3311 -20.3311 -20.3311
   -20.3300 -20.3299 -20.3299 -20.3299 -20.3299 -20.3299 -20.3299 -20.3299
   -20.3205 -20.3205 -20.3204 -20.3204 -20.3204 -20.3204 -20.3204 -20.3204
   -20.3178 -20.3178 -20.3178 -20.3178 -20.3177 -20.3177 -20.3177 -20.3176
   -20.3161 -20.3161 -20.3161 -20.3161 -20.3160 -20.3160 -20.3160 -20.3160
    -8.9551  -8.9550  -8.9479  -8.9479  -8.9479  -8.9479  -8.9437  -8.9436
    -8.4373  -8.4373  -8.4333  -8.4333  -8.4333  -8.4333  -8.4282  -8.4281
    -8.3664  -8.3664  -8.3570  -8.3570  -8.3570  -8.3570  -8.3457  -8.3457
     2.9697   2.9697   2.9697   2.9697   2.9799   2.9799   2.9929   2.9929
     3.1194   3.1194   3.1269   3.1269   3.1415   3.1415   3.1416   3.1416
     3.3801   3.3801   3.4335   3.4335   3.4335   3.4336   3.4765   3.4765
     4.1207   4.1207   4.1370   4.1370   4.1370   4.1370   4.1567   4.1567
     4.3470   4.3470   4.3532   4.3532   4.3532   4.3532   4.3544   4.3544
     4.4273   4.4274   4.4435   4.4435   4.4435   4.4435   4.4623   4.4623
     7.1360   7.1361   7.1887   7.1887   7.1887   7.1887   7.2556   7.2556
     7.3141   7.3142   7.3277   7.3277   7.3277   7.3277   7.3367   7.3367
     7.5759   7.5759   7.5865   7.5866   7.5866   7.5866   7.6068   7.6068
    11.7874  11.7874  11.7909  11.7909  11.7910  11.7910  11.7910  11.7910
    12.2096  12.2096  12.2489  12.2489  12.2489  12.2489  12.2893  12.2893
    12.4753  12.4753  12.4974  12.4974  12.4974  12.4974  12.5172  12.5172
    17.1301  17.1303  17.1666  17.1666  17.1666  17.1666  17.1779  17.1780
    17.3705  17.3705  17.3705  17.3705  17.3892

     the Fermi energy is     9.1199 ev

!    total energy              =   -6261.10975159 Ry
     Harris-Foulkes estimate   =   -6261.10975159 Ry
     estimated scf accuracy    <          1.0E-10 Ry

     The total energy is the sum of the following terms:

     one-electron contribution =   -4725.11497585 Ry
     hartree contribution      =    2599.03229203 Ry
     xc contribution           =    -965.66912592 Ry
     ewald contribution        =   -3169.35794185 Ry
     smearing contrib. (-TS)   =      -0.00000000 Ry

     convergence has been achieved in  14 iterations

     Forces acting on atoms (cartesian axes, Ry/au):

     atom    1 type  1   force =     0.00139801    0.00169234    0.00091723
     atom    2 type  1   force =    -0.00091723   -0.00169234    0.00139801
     atom    3 type  1   force =    -0.00139801   -0.00169234    0.00091723
     atom    4 type  1   force =     0.00091723    0.00169234    0.00139801
     atom    5 type  1   force =    -0.00139801    0.00169234   -0.00091723
     atom    6 type  1   force =     0.00091723   -0.00169234   -0.00139801
     atom    7 type  1   force =     0.00139801   -0.00169234   -0.00091723
     atom    8 type  1   force =    -0.00091723    0.00169234   -0.00139801
     atom    9 type  2   force =     0.00001138   -0.00084660    0.00030999
     atom   10 type  2   force =    -0.00030999    0.00084660    0.00001138
     atom   11 type  2   force =    -0.00001138    0.00084660    0.00030999
     atom   12 type  2   force =     0.00030999   -0.00084660    0.00001138
     atom   13 type  2   force =    -0.00001138   -0.00084660   -0.00030999
     atom   14 type  2   force =     0.00030999    0.00084660   -0.00001138
     atom   15 type  2   force =     0.00001138    0.00084660   -0.00030999
     atom   16 type  2   force =    -0.00030999   -0.00084660   -0.00001138
     atom   17 type  2   force =     0.00066538    0.00022688   -0.00003311
     atom   18 type  2   force =    -0.00047392    0.00020379    0.00042834
     atom   19 type  2   force =    -0.00066538   -0.00022688   -0.00003311
     atom   20 type  2   force =     0.00047392   -0.00020379    0.00042834
     atom   21 type  2   force =    -0.00066538    0.00022688    0.00003311
     atom   22 type  2   force =     0.00047392    0.00020379   -0.00042834
     atom   23 type  2   force =     0.00066538   -0.00022688    0.00003311
     atom   24 type  2   force =    -0.00047392   -0.00020379   -0.00042834
     atom   25 type  2   force =    -0.00042834    0.00020379    0.00047392
     atom   26 type  2   force =     0.00003311   -0.00022688    0.00066538
     atom   27 type  2   force =     0.00042834   -0.00020379    0.00047392
     atom   28 type  2   force =    -0.00003311    0.00022688    0.00066538
     atom   29 type  2   force =     0.00042834    0.00020379   -0.00047392
     atom   30 type  2   force =    -0.00003311   -0.00022688   -0.00066538
     atom   31 type  2   force =    -0.00042834   -0.00020379   -0.00047392
     atom   32 type  2   force =     0.00003311    0.00022688   -0.00066538

     Total force =     0.000000     Total SCF correction =     0.000000


     Computing stress (Cartesian axis) and pressure

          total   stress  (Ry/bohr**3)                   (kbar)     P=    0.01
   0.00000030   0.00000000   0.00000000          0.04      0.00      0.00
   0.00000000  -0.00000041   0.00000000          0.00     -0.06      0.00
   0.00000000   0.00000000   0.00000030          0.00      0.00      0.04


     Writing output data file Landau_7.save
 
     init_run     :     62.15s CPU     63.92s WALL (       2 calls)
     electrons    :   6162.74s CPU   6262.60s WALL (       6 calls)
     update_pot   :    116.09s CPU    116.24s WALL (       4 calls)
     forces       :    152.43s CPU    154.48s WALL (       6 calls)
     stress       :   1009.45s CPU   1020.23s WALL (       6 calls)

     Called by init_run:
     wfcinit      :     38.18s CPU     39.69s WALL (       2 calls)
     potinit      :     10.10s CPU     10.18s WALL (       2 calls)

     Called by electrons:
     c_bands      :   5382.87s CPU   5474.36s WALL (      82 calls)
     sum_band     :    721.26s CPU    724.75s WALL (      82 calls)
     v_of_rho     :     10.98s CPU     11.11s WALL (      86 calls)
     mix_rho      :     18.51s CPU     21.62s WALL (      82 calls)

     Called by c_bands:
     init_us_2    :     39.19s CPU     41.41s WALL (     166 calls)
     cegterg      :   3814.53s CPU   3905.00s WALL (      82 calls)

     Called by sum_band:

     Called by *egterg:
     h_psi        :   2879.85s CPU   2890.52s WALL (     302 calls)
     g_psi        :     12.91s CPU     12.94s WALL (     218 calls)
     cdiaghg      :     40.59s CPU     40.67s WALL (     294 calls)

     Called by h_psi:
     h_psi:pot    :   2859.18s CPU   2869.51s WALL (     302 calls)
     h_psi:calbec :    366.20s CPU    373.61s WALL (     302 calls)
     vloc_psi     :   2111.54s CPU   2113.41s WALL (     302 calls)
     add_vuspsi   :    381.43s CPU    382.49s WALL (     302 calls)

     General routines
     calbec       :    421.61s CPU    429.73s WALL (     332 calls)
     fft          :      7.76s CPU      7.77s WALL (     394 calls)
     fftw         :   2157.38s CPU   2158.57s WALL (  105218 calls)
 
     Parallel routines
 
     PWSCF        :     2h 5m CPU        2h 7m WALL

 
   This run was terminated on:  22:46:34   6Mar2020            

=------------------------------------------------------------------------------=
   JOB DONE.
=------------------------------------------------------------------------------=
