
     Program PWSCF v.6.4.1 starts on 21Nov2019 at 23:25:51 

     This program is part of the open-source Quantum ESPRESSO suite
     for quantum simulation of materials; please cite
         "P. Giannozzi et al., J. Phys.:Condens. Matter 21 395502 (2009);
         "P. Giannozzi et al., J. Phys.:Condens. Matter 29 465901 (2017);
          URL http://www.quantum-espresso.org", 
     in publications or presentations arising from this work. More details at
     http://www.quantum-espresso.org/quote

     Parallel version (MPI), running on    40 processors

     MPI processes distributed on     5 nodes
     K-points division:     npool     =      40
     Reading input from scf.in

     Current dimensions of program PWSCF are:
     Max number of different atomic species (ntypx) = 10
     Max number of k-points (npk) =  40000
     Max angular momentum in pseudopotentials (lmaxx) =  3

     Subspace diagonalization in iterative solution of the eigenvalue problem:
     a serial algorithm will be used

     Message from routine setup:
     using ibrav=0 with symmetry is DISCOURAGED, use correct ibrav instead
 
     G-vector sticks info
     --------------------
     sticks:   dense  smooth     PW     G-vecs:    dense   smooth      PW
     Sum        7661    7661   2049               499033   499033   69187
 


     bravais-lattice index     =            0
     lattice parameter (alat)  =      14.1017  a.u.
     unit-cell volume          =    2809.0007 (a.u.)^3
     number of atoms/cell      =           32
     number of atomic types    =            2
     number of electrons       =       368.05
     number of Kohn-Sham states=          221
     kinetic-energy cutoff     =     120.0000  Ry
     charge density cutoff     =     480.0000  Ry
     convergence threshold     =      1.0E-08
     mixing beta               =       0.7000
     number of iterations used =            8  plain     mixing
     Exchange-correlation      = SLA PW NOGX NOGC ( 1  4  0  0 0 0)

     celldm(1)=  14.101661  celldm(2)=   0.000000  celldm(3)=   0.000000
     celldm(4)=   0.000000  celldm(5)=   0.000000  celldm(6)=   0.000000

     crystal axes: (cart. coord. in units of alat)
               a(1) = (   1.000000   0.000000   0.000000 )  
               a(2) = (   0.000000   1.007718   0.000000 )  
               a(3) = (   0.000000   0.000000   0.994035 )  

     reciprocal axes: (cart. coord. in units 2 pi/alat)
               b(1) = (  1.000000  0.000000  0.000000 )  
               b(2) = (  0.000000  0.992341  0.000000 )  
               b(3) = (  0.000000  0.000000  1.006000 )  


     PseudoPot. # 1 for W  read from file:
     /cluster/scratch/mnoe/QE/pps/W_ONCV_LDA-4.0.upf
     MD5 check sum: ba0307d5d4cd419d6f1d13dc49d7c13a
     Pseudo is Norm-conserving + core correction, Zval = 28.0
     Generated using ONCVPSP code by D. R. Hamann
     Using radial grid of 1380 points,  8 beta functions with: 
                l(1) =   0
                l(2) =   0
                l(3) =   1
                l(4) =   1
                l(5) =   2
                l(6) =   2
                l(7) =   3
                l(8) =   3

     PseudoPot. # 2 for O  read from file:
     /cluster/scratch/mnoe/QE/pps/O_ONCV_LDA-3.0.upf
     MD5 check sum: b55cdb4f45ae2203d24ad12cf8d61a31
     Pseudo is Norm-conserving + core correction, Zval =  6.0
     Generated using ONCVPSP code by D. R. Hamann
     Using radial grid of  926 points,  5 beta functions with: 
                l(1) =   0
                l(2) =   0
                l(3) =   1
                l(4) =   1
                l(5) =   2

     atomic species   valence    mass     pseudopotential
        W             28.00   183.84000     W ( 1.00)
        O              6.00    15.99940     O ( 1.00)

      8 Sym. Ops., with inversion, found ( 6 have fractional translation)



   Cartesian axes

     site n.     atom                  positions (alat units)
         1           W   tau(   1) = (   0.2333500   0.2963554   0.0156262  )
         2           W   tau(   2) = (   0.7666500   0.7113629   0.9784091  )
         3           W   tau(   3) = (   0.2666500   0.2075037   0.5126439  )
         4           W   tau(   4) = (   0.7333500   0.8002146   0.4813915  )
         5           W   tau(   5) = (   0.7666500   0.2963554   0.4813915  )
         6           W   tau(   6) = (   0.2333500   0.7113629   0.5126439  )
         7           W   tau(   7) = (   0.7333500   0.2075037   0.9784091  )
         8           W   tau(   8) = (   0.2666500   0.8002146   0.0156262  )
         9           O   tau(   9) = (   0.2192900   0.0316964   0.0048608  )
        10           O   tau(  10) = (   0.7807100   0.9760220   0.9891745  )
        11           O   tau(  11) = (   0.2807100   0.4721628   0.5018786  )
        12           O   tau(  12) = (   0.7192900   0.5355556   0.4921569  )
        13           O   tau(  13) = (   0.7807100   0.0316964   0.4921569  )
        14           O   tau(  14) = (   0.2192900   0.9760220   0.5018786  )
        15           O   tau(  15) = (   0.7192900   0.4721628   0.9891745  )
        16           O   tau(  16) = (   0.2807100   0.5355556   0.0048608  )
        17           O   tau(  17) = (   0.5045500   0.2201764   0.5096726  )
        18           O   tau(  18) = (   0.4954500   0.7875420   0.4843628  )
        19           O   tau(  19) = (   0.9954500   0.2836828   1.0066903  )
        20           O   tau(  20) = (   0.0045500   0.7240356  -0.0126548  )
        21           O   tau(  21) = (   0.4954500   0.2201764  -0.0126548  )
        22           O   tau(  22) = (   0.5045500   0.7875420   1.0066903  )
        23           O   tau(  23) = (   0.0045500   0.2836828   0.4843628  )
        24           O   tau(  24) = (   0.9954500   0.7240356   0.5096726  )
        25           O   tau(  25) = (   0.7627309   0.2449965   0.7386677  )
        26           O   tau(  26) = (   0.2372692   0.7627219   0.2553677  )
        27           O   tau(  27) = (   0.7372692   0.2588627   0.2416499  )
        28           O   tau(  28) = (   0.2627309   0.7488557   0.7523854  )
        29           O   tau(  29) = (   0.2372692   0.2449965   0.7523854  )
        30           O   tau(  30) = (   0.7627309   0.7627219   0.2416499  )
        31           O   tau(  31) = (   0.2627309   0.2588627   0.2553677  )
        32           O   tau(  32) = (   0.7372692   0.7488557   0.7386677  )

     number of k points=    64  gaussian smearing, width (Ry)=  0.0007
                       cart. coord. in units 2pi/alat
        k(    1) = (   0.0000000   0.0000000   0.0000000), wk =   0.0092593
        k(    2) = (   0.0000000   0.0000000   0.1676667), wk =   0.0185185
        k(    3) = (   0.0000000   0.0000000   0.3353335), wk =   0.0185185
        k(    4) = (   0.0000000   0.0000000  -0.5030002), wk =   0.0092593
        k(    5) = (   0.0000000   0.1653901   0.0000000), wk =   0.0185185
        k(    6) = (   0.0000000   0.1653901   0.1676667), wk =   0.0370370
        k(    7) = (   0.0000000   0.1653901   0.3353335), wk =   0.0370370
        k(    8) = (   0.0000000   0.1653901  -0.5030002), wk =   0.0185185
        k(    9) = (   0.0000000   0.3307803   0.0000000), wk =   0.0185185
        k(   10) = (   0.0000000   0.3307803   0.1676667), wk =   0.0370370
        k(   11) = (   0.0000000   0.3307803   0.3353335), wk =   0.0370370
        k(   12) = (   0.0000000   0.3307803  -0.5030002), wk =   0.0185185
        k(   13) = (   0.0000000  -0.4961704   0.0000000), wk =   0.0092593
        k(   14) = (   0.0000000  -0.4961704   0.1676667), wk =   0.0185185
        k(   15) = (   0.0000000  -0.4961704   0.3353335), wk =   0.0185185
        k(   16) = (   0.0000000  -0.4961704  -0.5030002), wk =   0.0092593
        k(   17) = (   0.1666667   0.0000000   0.0000000), wk =   0.0185185
        k(   18) = (   0.1666667   0.0000000   0.1676667), wk =   0.0370370
        k(   19) = (   0.1666667   0.0000000   0.3353335), wk =   0.0370370
        k(   20) = (   0.1666667   0.0000000  -0.5030002), wk =   0.0185185
        k(   21) = (   0.1666667   0.1653901   0.0000000), wk =   0.0370370
        k(   22) = (   0.1666667   0.1653901   0.1676667), wk =   0.0740741
        k(   23) = (   0.1666667   0.1653901   0.3353335), wk =   0.0740741
        k(   24) = (   0.1666667   0.1653901  -0.5030002), wk =   0.0370370
        k(   25) = (   0.1666667   0.3307803   0.0000000), wk =   0.0370370
        k(   26) = (   0.1666667   0.3307803   0.1676667), wk =   0.0740741
        k(   27) = (   0.1666667   0.3307803   0.3353335), wk =   0.0740741
        k(   28) = (   0.1666667   0.3307803  -0.5030002), wk =   0.0370370
        k(   29) = (   0.1666667  -0.4961704   0.0000000), wk =   0.0185185
        k(   30) = (   0.1666667  -0.4961704   0.1676667), wk =   0.0370370
        k(   31) = (   0.1666667  -0.4961704   0.3353335), wk =   0.0370370
        k(   32) = (   0.1666667  -0.4961704  -0.5030002), wk =   0.0185185
        k(   33) = (   0.3333333   0.0000000   0.0000000), wk =   0.0185185
        k(   34) = (   0.3333333   0.0000000   0.1676667), wk =   0.0370370
        k(   35) = (   0.3333333   0.0000000   0.3353335), wk =   0.0370370
        k(   36) = (   0.3333333   0.0000000  -0.5030002), wk =   0.0185185
        k(   37) = (   0.3333333   0.1653901   0.0000000), wk =   0.0370370
        k(   38) = (   0.3333333   0.1653901   0.1676667), wk =   0.0740741
        k(   39) = (   0.3333333   0.1653901   0.3353335), wk =   0.0740741
        k(   40) = (   0.3333333   0.1653901  -0.5030002), wk =   0.0370370
        k(   41) = (   0.3333333   0.3307803   0.0000000), wk =   0.0370370
        k(   42) = (   0.3333333   0.3307803   0.1676667), wk =   0.0740741
        k(   43) = (   0.3333333   0.3307803   0.3353335), wk =   0.0740741
        k(   44) = (   0.3333333   0.3307803  -0.5030002), wk =   0.0370370
        k(   45) = (   0.3333333  -0.4961704   0.0000000), wk =   0.0185185
        k(   46) = (   0.3333333  -0.4961704   0.1676667), wk =   0.0370370
        k(   47) = (   0.3333333  -0.4961704   0.3353335), wk =   0.0370370
        k(   48) = (   0.3333333  -0.4961704  -0.5030002), wk =   0.0185185
        k(   49) = (  -0.5000000   0.0000000   0.0000000), wk =   0.0092593
        k(   50) = (  -0.5000000   0.0000000   0.1676667), wk =   0.0185185
        k(   51) = (  -0.5000000   0.0000000   0.3353335), wk =   0.0185185
        k(   52) = (  -0.5000000   0.0000000  -0.5030002), wk =   0.0092593
        k(   53) = (  -0.5000000   0.1653901   0.0000000), wk =   0.0185185
        k(   54) = (  -0.5000000   0.1653901   0.1676667), wk =   0.0370370
        k(   55) = (  -0.5000000   0.1653901   0.3353335), wk =   0.0370370
        k(   56) = (  -0.5000000   0.1653901  -0.5030002), wk =   0.0185185
        k(   57) = (  -0.5000000   0.3307803   0.0000000), wk =   0.0185185
        k(   58) = (  -0.5000000   0.3307803   0.1676667), wk =   0.0370370
        k(   59) = (  -0.5000000   0.3307803   0.3353335), wk =   0.0370370
        k(   60) = (  -0.5000000   0.3307803  -0.5030002), wk =   0.0185185
        k(   61) = (  -0.5000000  -0.4961704   0.0000000), wk =   0.0092593
        k(   62) = (  -0.5000000  -0.4961704   0.1676667), wk =   0.0185185
        k(   63) = (  -0.5000000  -0.4961704   0.3353335), wk =   0.0185185
        k(   64) = (  -0.5000000  -0.4961704  -0.5030002), wk =   0.0092593

     Dense  grid:   499033 G-vectors     FFT dimensions: ( 100, 100, 100)

     Estimated max dynamical RAM per process >       3.13 GB

     Estimated total dynamical RAM >     125.06 GB

     Initial potential from superposition of free atoms

     starting charge  367.99656, renormalised to  368.05000
     Starting wfcs are  232 randomized atomic wfcs

     total cpu time spent up to now is       52.1 secs

     Self-consistent Calculation

     iteration #  1     ecut=   120.00 Ry     beta= 0.70
     Davidson diagonalization with overlap
     ethr =  1.00E-02,  avg # of iterations =  5.0

     total cpu time spent up to now is      224.2 secs

     total energy              =   -6253.59850718 Ry
     Harris-Foulkes estimate   =   -6264.48375990 Ry
     estimated scf accuracy    <      13.76460791 Ry

     iteration #  2     ecut=   120.00 Ry     beta= 0.70
     Davidson diagonalization with overlap
     ethr =  3.74E-03,  avg # of iterations =  3.4

     total cpu time spent up to now is      389.6 secs

     total energy              =   -6250.11638689 Ry
     Harris-Foulkes estimate   =   -6271.09332495 Ry
     estimated scf accuracy    <      56.91899635 Ry

     iteration #  3     ecut=   120.00 Ry     beta= 0.70
     Davidson diagonalization with overlap
     ethr =  3.74E-03,  avg # of iterations =  3.4

     total cpu time spent up to now is      546.4 secs

     total energy              =   -6260.91788814 Ry
     Harris-Foulkes estimate   =   -6261.20747523 Ry
     estimated scf accuracy    <       0.96544863 Ry

     iteration #  4     ecut=   120.00 Ry     beta= 0.70
     Davidson diagonalization with overlap
     ethr =  2.62E-04,  avg # of iterations =  2.8

     total cpu time spent up to now is      671.4 secs

     total energy              =   -6260.91082594 Ry
     Harris-Foulkes estimate   =   -6260.98691297 Ry
     estimated scf accuracy    <       0.24085821 Ry

     iteration #  5     ecut=   120.00 Ry     beta= 0.70
     Davidson diagonalization with overlap
     ethr =  6.54E-05,  avg # of iterations =  5.0

     total cpu time spent up to now is      804.8 secs

     total energy              =   -6260.91444551 Ry
     Harris-Foulkes estimate   =   -6260.94556420 Ry
     estimated scf accuracy    <       0.06788044 Ry

     iteration #  6     ecut=   120.00 Ry     beta= 0.70
     Davidson diagonalization with overlap
     ethr =  1.84E-05,  avg # of iterations =  5.6

     total cpu time spent up to now is      954.6 secs

     total energy              =   -6260.92972919 Ry
     Harris-Foulkes estimate   =   -6260.93223930 Ry
     estimated scf accuracy    <       0.00731563 Ry

     iteration #  7     ecut=   120.00 Ry     beta= 0.70
     Davidson diagonalization with overlap
     ethr =  1.99E-06,  avg # of iterations =  5.6

     total cpu time spent up to now is     1087.8 secs

     total energy              =   -6260.93037614 Ry
     Harris-Foulkes estimate   =   -6260.93062068 Ry
     estimated scf accuracy    <       0.00053904 Ry

     iteration #  8     ecut=   120.00 Ry     beta= 0.70
     Davidson diagonalization with overlap
     ethr =  1.46E-07,  avg # of iterations =  3.0

     total cpu time spent up to now is     1228.1 secs

     total energy              =   -6260.93050116 Ry
     Harris-Foulkes estimate   =   -6260.93051773 Ry
     estimated scf accuracy    <       0.00004534 Ry

     iteration #  9     ecut=   120.00 Ry     beta= 0.70
     Davidson diagonalization with overlap
     ethr =  1.23E-08,  avg # of iterations =  2.8

     total cpu time spent up to now is     1369.8 secs

     total energy              =   -6260.93050810 Ry
     Harris-Foulkes estimate   =   -6260.93051559 Ry
     estimated scf accuracy    <       0.00002891 Ry

     iteration # 10     ecut=   120.00 Ry     beta= 0.70
     Davidson diagonalization with overlap
     ethr =  7.85E-09,  avg # of iterations =  1.6

     total cpu time spent up to now is     1488.3 secs

     total energy              =   -6260.93050678 Ry
     Harris-Foulkes estimate   =   -6260.93051005 Ry
     estimated scf accuracy    <       0.00000741 Ry

     iteration # 11     ecut=   120.00 Ry     beta= 0.70
     Davidson diagonalization with overlap
     ethr =  2.01E-09,  avg # of iterations =  2.9

     total cpu time spent up to now is     1622.7 secs

     total energy              =   -6260.93050841 Ry
     Harris-Foulkes estimate   =   -6260.93050848 Ry
     estimated scf accuracy    <       0.00000016 Ry

     iteration # 12     ecut=   120.00 Ry     beta= 0.70
     Davidson diagonalization with overlap
     ethr =  4.38E-11,  avg # of iterations =  2.0

     total cpu time spent up to now is     1778.5 secs

     total energy              =   -6260.93050844 Ry
     Harris-Foulkes estimate   =   -6260.93050845 Ry
     estimated scf accuracy    <       0.00000003 Ry

     iteration # 13     ecut=   120.00 Ry     beta= 0.70
     Davidson diagonalization with overlap
     ethr =  6.93E-12,  avg # of iterations =  2.6

     total cpu time spent up to now is     1914.2 secs

     End of self-consistent calculation

          k = 0.0000 0.0000 0.0000 ( 62397 PWs)   bands (ev):

   -66.1578 -66.1572 -66.1571 -66.1571 -66.1565 -66.1565 -66.1564 -66.1559
   -30.5584 -30.5534 -30.5532 -30.5481 -30.5071 -30.5058 -30.5041 -30.5036
   -30.4916 -30.4890 -30.4785 -30.4773 -30.4725 -30.4677 -30.4635 -30.4562
   -30.4288 -30.4248 -30.4195 -30.4152 -30.3887 -30.3868 -30.3857 -30.3839
   -20.3346 -20.3346 -20.3340 -20.3339 -20.3332 -20.3331 -20.3325 -20.3325
   -20.3252 -20.3251 -20.3247 -20.3246 -20.3233 -20.3232 -20.3229 -20.3228
   -20.3038 -20.3035 -20.3029 -20.3025 -20.3025 -20.3023 -20.3014 -20.3012
   -20.2974 -20.2971 -20.2969 -20.2967 -20.2951 -20.2946 -20.2946 -20.2942
   -20.2792 -20.2791 -20.2788 -20.2787 -20.2775 -20.2774 -20.2753 -20.2752
   -20.2744 -20.2743 -20.2725 -20.2724 -20.2694 -20.2693 -20.2691 -20.2690
   -20.2628 -20.2626 -20.2626 -20.2625 -20.2617 -20.2616 -20.2614 -20.2613
    -9.9844  -9.5895  -9.5870  -9.5517  -9.1943  -9.1528  -9.1394  -8.8797
    -8.8413  -8.7627  -8.7623  -8.7607  -7.9680  -7.8799  -7.8734  -7.8045
    -7.7905  -7.7853  -7.7603  -7.7481  -7.6042  -7.5728  -7.5457  -7.5207
     1.3004   1.3038   1.3107   1.3310   1.3590   1.3738   1.4252   1.4564
     1.5293   1.5829   1.6099   1.6973   2.4360   2.4721   2.4995   2.5592
     2.5602   2.6839   4.0092   4.1607   4.2121   4.4030   4.5886   4.6651
     4.6867   4.7117   4.7454   4.8229   4.9102   4.9820   5.2972   5.5354
     5.5505   5.5711   5.6885   5.6988   5.7334   5.8288   5.8465   5.8520
     5.8841   5.9408   5.9849   6.0604   6.0756   6.0784   6.1198   6.1308
     6.2818   6.4642   6.4828   6.4869   6.5024   6.7719   6.8045   6.8251
     6.8715   6.8981   6.9852   7.0119   7.0822   7.1008   7.1340   7.1488
     7.2341   7.2402   8.1490   8.2043   8.2646   8.2908   8.5120   8.5246
     9.5526   9.5714   9.7300   9.8964   9.9286  10.0888  12.3985  12.4051
    12.4180  12.6175  12.6384  12.7176  12.7703  12.8561  12.8941  12.9019
    12.9473  13.1220  13.2165  13.2938  13.7529  13.9333  14.0198  14.0972
    14.1190  14.2246  14.5344  14.7895  14.9491  14.9837  15.2889  15.4991
    15.8747  16.3124  16.8435  16.9722  17.2194

          k = 0.0000 0.0000 0.1677 ( 62393 PWs)   bands (ev):

   -66.1577 -66.1572 -66.1571 -66.1570 -66.1566 -66.1565 -66.1564 -66.1559
   -30.5580 -30.5535 -30.5530 -30.5484 -30.5028 -30.5006 -30.5005 -30.4995
   -30.4908 -30.4893 -30.4789 -30.4764 -30.4731 -30.4664 -30.4644 -30.4552
   -30.4341 -30.4300 -30.4241 -30.4197 -30.3885 -30.3866 -30.3858 -30.3840
   -20.3346 -20.3345 -20.3339 -20.3339 -20.3333 -20.3332 -20.3326 -20.3326
   -20.3252 -20.3251 -20.3247 -20.3246 -20.3232 -20.3232 -20.3229 -20.3228
   -20.3038 -20.3034 -20.3029 -20.3026 -20.3024 -20.3022 -20.3014 -20.3012
   -20.2974 -20.2971 -20.2969 -20.2967 -20.2950 -20.2946 -20.2946 -20.2942
   -20.2792 -20.2791 -20.2788 -20.2787 -20.2774 -20.2773 -20.2755 -20.2753
   -20.2743 -20.2742 -20.2727 -20.2725 -20.2694 -20.2693 -20.2691 -20.2690
   -20.2627 -20.2626 -20.2625 -20.2624 -20.2618 -20.2616 -20.2614 -20.2613
    -9.9445  -9.6047  -9.5345  -9.5015  -9.1631  -9.1512  -9.1143  -8.8490
    -8.8096  -8.7648  -8.7496  -8.7318  -7.9922  -7.9206  -7.8835  -7.8776
    -7.8632  -7.8524  -7.8304  -7.8079  -7.6100  -7.5764  -7.5541  -7.5241
     1.2998   1.3517   1.3657   1.4197   1.4255   1.4351   1.5252   1.5777
     1.6070   1.6531   1.7443   1.8210   2.4403   2.4982   2.5540   2.6245
     2.6610   2.7612   3.9868   4.1276   4.1982   4.3426   4.3813   4.4573
     4.6105   4.6895   4.6974   4.7189   4.7492   4.8321   5.2978   5.4561
     5.5080   5.5629   5.5990   5.6067   5.6597   5.7166   5.8106   5.8171
     5.8252   5.8654   5.9491   5.9910   6.0560   6.1340   6.1619   6.1891
     6.2687   6.4752   6.6105   6.6764   6.7180   6.7523   6.8017   6.8484
     6.8553   6.9026   6.9148   6.9158   6.9595   6.9954   7.0435   7.1325
     7.1359   7.1502   8.1548   8.1970   8.2057   8.2344   8.4403   8.4661
     9.8566   9.8799   9.9432  10.0586  10.0810  10.1749  12.4514  12.4525
    12.4589  12.6277  12.6398  12.7014  12.7040  12.7630  12.7750  12.8560
    12.8886  12.9962  13.1213  13.2948  13.6674  13.8065  13.9559  14.0089
    14.3311  14.4918  14.6786  14.8561  14.9469  15.0374  15.4778  15.6924
    15.8436  16.4984  16.7539  16.9718  17.3054

          k = 0.0000 0.0000 0.3353 ( 62367 PWs)   bands (ev):

   -66.1576 -66.1573 -66.1570 -66.1569 -66.1567 -66.1566 -66.1563 -66.1560
   -30.5570 -30.5544 -30.5519 -30.5493 -30.4942 -30.4921 -30.4902 -30.4888
   -30.4868 -30.4865 -30.4803 -30.4754 -30.4726 -30.4680 -30.4616 -30.4517
   -30.4485 -30.4437 -30.4363 -30.4312 -30.3878 -30.3862 -30.3859 -30.3844
   -20.3343 -20.3343 -20.3337 -20.3336 -20.3336 -20.3335 -20.3330 -20.3329
   -20.3250 -20.3249 -20.3248 -20.3247 -20.3231 -20.3230 -20.3229 -20.3229
   -20.3036 -20.3032 -20.3031 -20.3027 -20.3022 -20.3020 -20.3016 -20.3014
   -20.2973 -20.2970 -20.2970 -20.2968 -20.2950 -20.2947 -20.2945 -20.2943
   -20.2792 -20.2791 -20.2789 -20.2788 -20.2770 -20.2769 -20.2759 -20.2758
   -20.2739 -20.2739 -20.2730 -20.2729 -20.2693 -20.2692 -20.2692 -20.2691
   -20.2625 -20.2623 -20.2623 -20.2622 -20.2619 -20.2618 -20.2617 -20.2616
    -9.8457  -9.6525  -9.4062  -9.3826  -9.1976  -9.1916  -8.8875  -8.7993
    -8.7707  -8.6959  -8.6622  -8.6287  -8.2049  -8.1607  -8.1539  -8.1238
    -7.9098  -7.8931  -7.8397  -7.8171  -7.6089  -7.5861  -7.5542  -7.5332
     1.3065   1.3353   1.3827   1.4072   1.4887   1.5158   1.5267   1.5661
     2.2158   2.2556   2.3394   2.3707   2.4468   2.5198   2.7658   2.8214
     2.9175   2.9802   3.7685   3.7837   3.9599   4.0190   4.0566   4.1223
     4.2657   4.3275   4.5877   4.7125   4.7618   4.8013   4.9231   5.1278
     5.2441   5.3077   5.4276   5.4345   5.4556   5.6455   5.7343   5.7885
     5.7932   5.9075   5.9337   6.0718   6.0809   6.1851   6.1951   6.2662
     6.3211   6.3317   6.4506   6.4740   6.6257   6.6412   6.6722   6.6768
     6.8924   6.8962   6.9027   6.9416   7.1355   7.1368   7.2336   7.2470
     7.3552   7.4260   8.0145   8.0469   8.1655   8.1856   8.2263   8.2714
     9.9789  10.0577  10.5494  10.5793  10.7869  10.8414  12.0917  12.1288
    12.3378  12.4279  12.5480  12.5509  12.6233  12.7442  12.8554  12.8616
    12.8899  12.9480  13.0577  13.3022  13.3794  13.5278  13.6144  13.6792
    14.8778  14.9396  15.0140  15.0373  15.1796  15.3330  15.4081  15.7354
    16.2620  16.6906  16.9957  17.1086  17.4090

          k = 0.0000 0.0000-0.5030 ( 62380 PWs)   bands (ev):

   -66.1575 -66.1574 -66.1568 -66.1568 -66.1568 -66.1568 -66.1562 -66.1562
   -30.5557 -30.5557 -30.5506 -30.5506 -30.4916 -30.4916 -30.4836 -30.4836
   -30.4800 -30.4800 -30.4757 -30.4757 -30.4678 -30.4678 -30.4608 -30.4608
   -30.4509 -30.4509 -30.4438 -30.4438 -30.3870 -30.3870 -30.3851 -30.3851
   -20.3340 -20.3340 -20.3339 -20.3339 -20.3334 -20.3333 -20.3333 -20.3333
   -20.3249 -20.3249 -20.3248 -20.3248 -20.3230 -20.3230 -20.3229 -20.3229
   -20.3033 -20.3033 -20.3030 -20.3030 -20.3019 -20.3019 -20.3017 -20.3017
   -20.2972 -20.2972 -20.2969 -20.2969 -20.2948 -20.2948 -20.2944 -20.2944
   -20.2791 -20.2791 -20.2790 -20.2789 -20.2765 -20.2765 -20.2764 -20.2764
   -20.2735 -20.2735 -20.2734 -20.2734 -20.2692 -20.2692 -20.2691 -20.2691
   -20.2622 -20.2622 -20.2620 -20.2620 -20.2620 -20.2620 -20.2619 -20.2619
    -9.7359  -9.7359  -9.2751  -9.2751  -9.2679  -9.2679  -8.7804  -8.7804
    -8.5558  -8.5558  -8.4678  -8.4678  -8.4459  -8.4459  -8.4179  -8.4179
    -7.9049  -7.9049  -7.8292  -7.8291  -7.5987  -7.5987  -7.5448  -7.5448
     1.3188   1.3188   1.3942   1.3942   1.5049   1.5049   1.5519   1.5519
     2.4483   2.4483   2.8461   2.8461   2.9217   2.9217   3.0388   3.0388
     3.1523   3.1523   3.3042   3.3043   3.6033   3.6034   3.9580   3.9581
     3.9742   3.9743   4.2866   4.2866   4.7244   4.7244   5.1164   5.1164
     5.2805   5.2805   5.3483   5.3483   5.3796   5.3796   5.7646   5.7646
     5.9099   5.9099   6.0472   6.0472   6.0942   6.0942   6.2293   6.2293
     6.2648   6.2648   6.4055   6.4056   6.5625   6.5625   6.5735   6.5735
     6.8702   6.8702   6.8961   6.8961   7.1359   7.1359   7.6782   7.6783
     7.7091   7.7091   7.8572   7.8572   7.9197   7.9197   8.1752   8.1752
    10.0213  10.0213  11.3512  11.3512  11.3881  11.3881  11.6027  11.6027
    11.6600  11.6600  12.5713  12.5713  12.8550  12.8550  12.8737  12.8737
    13.0222  13.0222  13.2106  13.2106  13.2781  13.2781  13.3447  13.3447
    14.9235  14.9235  15.2683  15.2683  15.4973  15.4973  15.7180  15.7180
    16.1798  16.1798  17.5309  17.5309  17.9320

          k = 0.0000 0.1654 0.0000 ( 62357 PWs)   bands (ev):

   -66.1577 -66.1571 -66.1571 -66.1571 -66.1565 -66.1565 -66.1565 -66.1559
   -30.5581 -30.5538 -30.5528 -30.5484 -30.5069 -30.5055 -30.5039 -30.5039
   -30.4893 -30.4872 -30.4788 -30.4777 -30.4674 -30.4628 -30.4600 -30.4529
   -30.4290 -30.4252 -30.4195 -30.4152 -30.3942 -30.3921 -30.3907 -30.3887
   -20.3346 -20.3346 -20.3340 -20.3340 -20.3332 -20.3331 -20.3325 -20.3325
   -20.3252 -20.3251 -20.3247 -20.3246 -20.3233 -20.3232 -20.3229 -20.3228
   -20.3038 -20.3035 -20.3028 -20.3025 -20.3025 -20.3023 -20.3013 -20.3012
   -20.2974 -20.2971 -20.2969 -20.2967 -20.2950 -20.2947 -20.2945 -20.2942
   -20.2790 -20.2789 -20.2784 -20.2783 -20.2775 -20.2774 -20.2754 -20.2753
   -20.2742 -20.2742 -20.2724 -20.2723 -20.2699 -20.2698 -20.2695 -20.2694
   -20.2628 -20.2627 -20.2626 -20.2625 -20.2617 -20.2616 -20.2614 -20.2613
    -9.9424  -9.5696  -9.5430  -9.5350  -9.2059  -9.1661  -9.0547  -8.8770
    -8.8440  -8.7264  -8.7198  -8.7160  -7.9835  -7.8870  -7.8755  -7.8093
    -7.8078  -7.7932  -7.7842  -7.7459  -7.6847  -7.6817  -7.6471  -7.6335
     1.3017   1.3095   1.3655   1.3742   1.4665   1.4730   1.5274   1.6077
     1.6474   1.6678   1.7373   1.8234   2.5058   2.5223   2.5736   2.6060
     2.6440   2.6845   3.8487   3.9775   3.9989   4.1508   4.5849   4.6532
     4.6570   4.6741   4.7332   4.8543   4.9778   5.0316   5.1779   5.3102
     5.4623   5.5866   5.6370   5.6635   5.6704   5.6947   5.7402   5.7644
     5.8353   5.9458   5.9536   5.9675   6.0066   6.0470   6.2289   6.3100
     6.3765   6.4198   6.4932   6.5210   6.7126   6.7267   6.7507   6.7839
     6.8806   6.9069   6.9811   6.9850   6.9938   6.9999   7.0961   7.1243
     7.2188   7.2222   8.1232   8.1716   8.2661   8.2878   8.4197   8.4450
     9.5792   9.5908   9.9381  10.0565  10.1831  10.3192  12.3326  12.4193
    12.4461  12.4682  12.5457  12.6488  12.6828  12.7131  12.8891  12.8945
    12.9759  13.1696  13.2221  13.3374  13.7310  13.9264  14.0179  14.0290
    14.1407  14.4022  14.5266  14.8975  14.9868  15.0591  15.2696  15.4728
    16.0933  16.2697  17.0470  17.2013  17.3455

          k = 0.0000 0.1654 0.1677 ( 62367 PWs)   bands (ev):

   -66.1577 -66.1571 -66.1571 -66.1571 -66.1565 -66.1565 -66.1565 -66.1559
   -30.5577 -30.5533 -30.5532 -30.5488 -30.5026 -30.5004 -30.5002 -30.4995
   -30.4885 -30.4875 -30.4792 -30.4768 -30.4682 -30.4618 -30.4611 -30.4520
   -30.4343 -30.4303 -30.4240 -30.4195 -30.3940 -30.3919 -30.3909 -30.3889
   -20.3346 -20.3345 -20.3339 -20.3339 -20.3333 -20.3332 -20.3326 -20.3326
   -20.3252 -20.3251 -20.3247 -20.3246 -20.3232 -20.3232 -20.3229 -20.3228
   -20.3037 -20.3034 -20.3029 -20.3026 -20.3024 -20.3022 -20.3014 -20.3012
   -20.2974 -20.2971 -20.2969 -20.2967 -20.2950 -20.2946 -20.2946 -20.2942
   -20.2789 -20.2789 -20.2785 -20.2784 -20.2774 -20.2773 -20.2755 -20.2754
   -20.2741 -20.2741 -20.2726 -20.2724 -20.2698 -20.2697 -20.2695 -20.2694
   -20.2627 -20.2626 -20.2625 -20.2624 -20.2617 -20.2616 -20.2615 -20.2614
    -9.9012  -9.5542  -9.5196  -9.4828  -9.1771  -9.1257  -9.0667  -8.8457
    -8.8122  -8.7275  -8.7053  -8.6959  -8.0113  -7.9189  -7.9003  -7.8810
    -7.8618  -7.8593  -7.8319  -7.8111  -7.7059  -7.6829  -7.6633  -7.6437
     1.3924   1.4232   1.4628   1.5230   1.5352   1.5435   1.6074   1.6533
     1.7174   1.7429   1.7457   1.8981   2.5139   2.5722   2.6019   2.6899
     2.7266   2.7577   3.8481   3.9850   3.9901   4.1222   4.3863   4.4526
     4.6223   4.6449   4.7080   4.7175   4.7474   4.8556   5.1788   5.2767
     5.4140   5.4630   5.5355   5.6038   5.6053   5.6273   5.6494   5.7229
     5.7549   5.8993   5.9143   5.9491   6.0057   6.0080   6.2763   6.3025
     6.3603   6.5572   6.6167   6.6601   6.7067   6.7300   6.7519   6.8480
     6.8629   6.8733   6.8918   6.9704   6.9751   6.9970   7.0134   7.0522
     7.1462   7.1860   8.1303   8.1643   8.2085   8.2344   8.3635   8.3904
     9.8811   9.8838  10.1977  10.2159  10.3059  10.3121  12.3984  12.4731
    12.4940  12.5148  12.5947  12.6054  12.6793  12.7007  12.7068  12.7282
    12.9009  13.0185  13.1451  13.3369  13.6402  13.7998  13.8593  13.9212
    14.4517  14.6653  14.6755  14.9124  15.0090  15.1643  15.4461  15.6771
    16.2381  16.2634  16.9528  17.1445  17.4039

          k = 0.0000 0.1654 0.3353 ( 62335 PWs)   bands (ev):

   -66.1576 -66.1572 -66.1570 -66.1570 -66.1567 -66.1566 -66.1564 -66.1561
   -30.5566 -30.5541 -30.5523 -30.5497 -30.4931 -30.4920 -30.4886 -30.4880
   -30.4867 -30.4841 -30.4806 -30.4729 -30.4708 -30.4651 -30.4579 -30.4490
   -30.4485 -30.4439 -30.4357 -30.4306 -30.3932 -30.3914 -30.3912 -30.3895
   -20.3343 -20.3343 -20.3337 -20.3336 -20.3336 -20.3335 -20.3330 -20.3329
   -20.3250 -20.3249 -20.3248 -20.3247 -20.3231 -20.3231 -20.3229 -20.3229
   -20.3035 -20.3032 -20.3031 -20.3028 -20.3022 -20.3020 -20.3016 -20.3014
   -20.2973 -20.2970 -20.2970 -20.2968 -20.2949 -20.2947 -20.2945 -20.2943
   -20.2789 -20.2788 -20.2786 -20.2785 -20.2770 -20.2769 -20.2760 -20.2759
   -20.2738 -20.2737 -20.2729 -20.2728 -20.2698 -20.2697 -20.2696 -20.2695
   -20.2625 -20.2623 -20.2623 -20.2622 -20.2619 -20.2618 -20.2617 -20.2616
    -9.7993  -9.6020  -9.4005  -9.3434  -9.2125  -9.1088  -8.8993  -8.7790
    -8.7342  -8.6988  -8.6378  -8.6043  -8.2197  -8.1631  -8.1568  -8.1197
    -7.9123  -7.8981  -7.8431  -7.8204  -7.7110  -7.6925  -7.6698  -7.6529
     1.4253   1.4518   1.4860   1.5134   1.6150   1.6233   1.6878   1.7190
     2.2205   2.2663   2.3381   2.3857   2.5221   2.5868   2.8112   2.8982
     2.9603   2.9735   3.7030   3.7776   3.9097   3.9535   4.0270   4.1025
     4.1701   4.2720   4.5639   4.6260   4.7732   4.7768   4.8718   5.0960
     5.0976   5.1205   5.2052   5.2342   5.4557   5.5115   5.6057   5.7490
     5.8145   5.9083   5.9184   5.9719   5.9853   6.0284   6.0400   6.1223
     6.4160   6.5221   6.5488   6.6200   6.6673   6.7081   6.7387   6.7589
     6.7773   6.8716   6.9821   7.0089   7.0299   7.0847   7.2396   7.2722
     7.3852   7.4272   8.0203   8.0387   8.1416   8.1638   8.1792   8.2150
    10.2168  10.2904  10.5614  10.5862  10.8774  10.9248  12.0997  12.1284
    12.3600  12.4484  12.5556  12.5923  12.6452  12.6997  12.7020  12.7316
    12.7351  12.8454  13.1027  13.3393  13.3479  13.4954  13.5249  13.5805
    14.9030  14.9367  15.0048  15.2217  15.3804  15.3908  15.5105  16.1260
    16.4302  16.6670  16.7946  17.0916  17.5167

          k = 0.0000 0.1654-0.5030 ( 62316 PWs)   bands (ev):

   -66.1574 -66.1574 -66.1568 -66.1568 -66.1568 -66.1568 -66.1562 -66.1562
   -30.5553 -30.5553 -30.5509 -30.5509 -30.4900 -30.4899 -30.4838 -30.4838
   -30.4767 -30.4767 -30.4738 -30.4738 -30.4677 -30.4677 -30.4609 -30.4609
   -30.4490 -30.4490 -30.4421 -30.4421 -30.3923 -30.3923 -30.3903 -30.3903
   -20.3340 -20.3340 -20.3339 -20.3339 -20.3334 -20.3333 -20.3333 -20.3333
   -20.3249 -20.3249 -20.3248 -20.3248 -20.3230 -20.3230 -20.3229 -20.3229
   -20.3033 -20.3033 -20.3030 -20.3030 -20.3019 -20.3019 -20.3017 -20.3017
   -20.2972 -20.2971 -20.2969 -20.2969 -20.2948 -20.2948 -20.2944 -20.2944
   -20.2787 -20.2787 -20.2786 -20.2786 -20.2765 -20.2765 -20.2764 -20.2764
   -20.2734 -20.2733 -20.2733 -20.2732 -20.2697 -20.2697 -20.2696 -20.2696
   -20.2622 -20.2622 -20.2620 -20.2620 -20.2620 -20.2620 -20.2619 -20.2619
    -9.6867  -9.6867  -9.2845  -9.2845  -9.1991  -9.1991  -8.7471  -8.7471
    -8.5685  -8.5685  -8.4726  -8.4726  -8.4373  -8.4373  -8.4071  -8.4071
    -7.9095  -7.9095  -7.8325  -7.8325  -7.7029  -7.7029  -7.6632  -7.6632
     1.4385   1.4385   1.5024   1.5024   1.6239   1.6239   1.7071   1.7071
     2.5207   2.5208   2.8741   2.8742   2.9562   2.9562   3.0284   3.0284
     3.1450   3.1451   3.3270   3.3270   3.5856   3.5856   3.9991   3.9991
     4.0157   4.0157   4.1126   4.1126   4.6273   4.6273   4.9531   4.9531
     5.1046   5.1046   5.2768   5.2768   5.2959   5.2959   5.7055   5.7055
     5.8689   5.8689   5.8737   5.8737   6.0134   6.0134   6.0371   6.0371
     6.3797   6.3797   6.5463   6.5463   6.6633   6.6633   6.7744   6.7744
     6.8226   6.8226   6.9708   6.9708   7.0201   7.0202   7.6906   7.6906
     7.7029   7.7029   7.8465   7.8465   7.8930   7.8931   8.1518   8.1518
    10.2568  10.2568  11.3549  11.3549  11.3890  11.3890  11.6543  11.6543
    11.7114  11.7114  12.6113  12.6113  12.7038  12.7038  12.9059  12.9059
    12.9834  12.9834  13.0647  13.0647  13.1705  13.1705  13.3656  13.3656
    14.9318  14.9318  15.2468  15.2469  15.8502  15.8502  15.8761  15.8762
    16.3098  16.3098  17.3366  17.3366  17.9297

          k = 0.0000 0.3308 0.0000 ( 62424 PWs)   bands (ev):

   -66.1576 -66.1572 -66.1570 -66.1570 -66.1566 -66.1566 -66.1564 -66.1560
   -30.5571 -30.5546 -30.5519 -30.5493 -30.5062 -30.5049 -30.5045 -30.5038
   -30.4847 -30.4839 -30.4798 -30.4789 -30.4539 -30.4494 -30.4488 -30.4423
   -30.4306 -30.4271 -30.4189 -30.4146 -30.4091 -30.4064 -30.4035 -30.4007
   -20.3346 -20.3346 -20.3340 -20.3340 -20.3332 -20.3331 -20.3325 -20.3325
   -20.3252 -20.3251 -20.3247 -20.3246 -20.3233 -20.3232 -20.3229 -20.3228
   -20.3037 -20.3036 -20.3028 -20.3026 -20.3025 -20.3024 -20.3013 -20.3012
   -20.2973 -20.2972 -20.2969 -20.2967 -20.2950 -20.2947 -20.2945 -20.2943
   -20.2784 -20.2783 -20.2776 -20.2775 -20.2775 -20.2774 -20.2757 -20.2756
   -20.2736 -20.2736 -20.2721 -20.2720 -20.2710 -20.2710 -20.2704 -20.2704
   -20.2628 -20.2627 -20.2625 -20.2625 -20.2616 -20.2615 -20.2615 -20.2614
    -9.8374  -9.6247  -9.4302  -9.4130  -9.2438  -9.2090  -8.8720  -8.8513
    -8.8131  -8.5972  -8.5843  -8.5688  -8.1319  -8.0356  -8.0095  -7.9687
    -7.8812  -7.8699  -7.8235  -7.8166  -7.7803  -7.7568  -7.7397  -7.7107
     1.3021   1.3067   1.3742   1.3749   1.5091   1.5230   1.5737   1.6023
     2.2531   2.3116   2.4020   2.4332   2.5831   2.6028   2.7835   2.7891
     2.8826   2.9183   3.4624   3.5077   3.6352   3.6846   4.1445   4.4587
     4.5185   4.5881   4.6443   4.6921   4.7511   4.8125   5.1629   5.1935
     5.1966   5.2027   5.5283   5.5760   5.5952   5.6698   5.6801   5.7723
     5.8397   5.8912   5.9204   5.9598   5.9934   6.0096   6.1648   6.1986
     6.2921   6.3756   6.4225   6.5723   6.6847   6.6868   6.7833   6.9097
     6.9115   6.9660   6.9821   6.9824   7.0962   7.1055   7.2186   7.2553
     7.2986   7.3034   7.9863   8.0154   8.1487   8.1944   8.2704   8.2820
     9.5965   9.6159  10.5019  10.5684  10.7969  10.8822  11.9059  11.9585
    12.2063  12.2227  12.4443  12.4838  12.5908  12.8341  12.8857  12.8933
    12.9484  13.2544  13.2675  13.3334  13.6252  13.7745  13.8865  13.9091
    14.3988  14.5194  14.7561  14.8649  15.1169  15.1968  15.3966  15.6222
    15.7271  17.0937  17.2307  17.5103  17.6725

          k = 0.0000 0.3308 0.1677 ( 62372 PWs)   bands (ev):

   -66.1575 -66.1572 -66.1570 -66.1569 -66.1567 -66.1566 -66.1564 -66.1561
   -30.5567 -30.5542 -30.5522 -30.5497 -30.5020 -30.5005 -30.4999 -30.4992
   -30.4843 -30.4838 -30.4802 -30.4780 -30.4551 -30.4509 -30.4482 -30.4417
   -30.4354 -30.4318 -30.4229 -30.4185 -30.4088 -30.4061 -30.4040 -30.4013
   -20.3345 -20.3345 -20.3339 -20.3339 -20.3333 -20.3332 -20.3326 -20.3326
   -20.3251 -20.3251 -20.3247 -20.3246 -20.3232 -20.3232 -20.3229 -20.3228
   -20.3037 -20.3035 -20.3028 -20.3026 -20.3024 -20.3023 -20.3014 -20.3013
   -20.2973 -20.2972 -20.2969 -20.2968 -20.2949 -20.2947 -20.2945 -20.2943
   -20.2783 -20.2783 -20.2775 -20.2775 -20.2775 -20.2774 -20.2758 -20.2758
   -20.2735 -20.2735 -20.2722 -20.2721 -20.2710 -20.2709 -20.2705 -20.2704
   -20.2627 -20.2626 -20.2625 -20.2624 -20.2617 -20.2616 -20.2615 -20.2614
    -9.7930  -9.5754  -9.4321  -9.3598  -9.2221  -9.1634  -8.8427  -8.8232
    -8.8192  -8.5996  -8.5703  -8.5621  -8.1537  -8.0549  -8.0125  -7.9732
    -7.9137  -7.8673  -7.8591  -7.8526  -7.8338  -7.8203  -7.8195  -7.7970
     1.4076   1.4181   1.5039   1.5182   1.5995   1.6077   1.7045   1.7388
     2.2599   2.3121   2.4013   2.4447   2.6554   2.6637   2.7798   2.8087
     2.9610   2.9906   3.4928   3.5483   3.6306   3.6796   4.1316   4.3970
     4.4011   4.5064   4.5233   4.6226   4.6781   4.8298   4.9012   4.9219
     5.1920   5.2163   5.4279   5.4392   5.4705   5.5371   5.6328   5.6347
     5.7257   5.8664   5.8740   5.8883   5.8970   5.9599   5.9916   6.0417
     6.4569   6.5569   6.6228   6.6293   6.7147   6.8006   6.8280   6.8454
     6.9032   6.9279   6.9545   7.0185   7.0489   7.0666   7.2113   7.2852
     7.3054   7.3287   7.9921   8.0088   8.1209   8.1552   8.2169   8.2293
     9.8928   9.9059  10.6844  10.7431  10.8056  10.8767  11.9924  12.0381
    12.2032  12.2286  12.4978  12.5294  12.6178  12.6731  12.7188  12.8382
    12.9446  13.1073  13.1680  13.2806  13.5026  13.6109  13.7663  13.7934
    14.6721  14.6749  14.8959  14.9909  15.2316  15.3518  15.6170  15.7804
    15.8270  17.1841  17.1929  17.4280  17.5526

          k = 0.0000 0.3308 0.3353 ( 62363 PWs)   bands (ev):

   -66.1574 -66.1571 -66.1571 -66.1568 -66.1568 -66.1565 -66.1565 -66.1562
   -30.5557 -30.5532 -30.5531 -30.5506 -30.4919 -30.4918 -30.4870 -30.4863
   -30.4852 -30.4814 -30.4794 -30.4738 -30.4598 -30.4568 -30.4490 -30.4460
   -30.4447 -30.4397 -30.4324 -30.4276 -30.4079 -30.4053 -30.4051 -30.4026
   -20.3343 -20.3343 -20.3337 -20.3337 -20.3336 -20.3336 -20.3329 -20.3329
   -20.3250 -20.3249 -20.3247 -20.3247 -20.3231 -20.3231 -20.3229 -20.3229
   -20.3035 -20.3033 -20.3030 -20.3028 -20.3022 -20.3021 -20.3016 -20.3015
   -20.2972 -20.2971 -20.2970 -20.2969 -20.2949 -20.2946 -20.2946 -20.2944
   -20.2782 -20.2781 -20.2777 -20.2777 -20.2772 -20.2771 -20.2762 -20.2761
   -20.2733 -20.2732 -20.2725 -20.2724 -20.2709 -20.2708 -20.2706 -20.2705
   -20.2625 -20.2624 -20.2623 -20.2622 -20.2619 -20.2618 -20.2617 -20.2616
    -9.6837  -9.4789  -9.4565  -9.2604  -9.1880  -8.9405  -8.8770  -8.7435
    -8.7073  -8.6118  -8.5303  -8.5120  -8.3005  -8.2101  -8.1432  -8.1055
    -8.0209  -7.9933  -7.9575  -7.9238  -7.8569  -7.8521  -7.8314  -7.8291
     1.4636   1.4799   1.4926   1.5082   2.1063   2.1788   2.2227   2.2681
     2.3307   2.3740   2.4368   2.5541   2.7260   2.7872   2.8727   2.9621
     3.1417   3.1680   3.4957   3.5999   3.6001   3.6800   3.9172   3.9207
     4.1153   4.3400   4.3799   4.4396   4.4574   4.6177   4.6193   4.8317
     4.8919   5.0005   5.0892   5.1167   5.2193   5.2502   5.4112   5.4128
     5.4573   5.5778   5.7749   5.8599   5.9157   5.9737   6.0010   6.0124
     6.5485   6.5641   6.5878   6.5967   6.6362   6.6678   6.7812   6.8044
     6.9819   7.1492   7.1842   7.1855   7.2268   7.2989   7.3396   7.3599
     7.4145   7.4456   7.9641   8.0023   8.0032   8.0155   8.0580   8.0802
    10.5611  10.5768  10.8401  10.8595  11.1795  11.2222  12.0897  12.1119
    12.1918  12.2637  12.2658  12.2984  12.5498  12.5992  12.6753  12.6938
    12.7213  12.8680  13.1109  13.1485  13.2038  13.2757  13.4649  13.4771
    14.9164  14.9789  15.0278  15.2986  15.4608  15.9687  16.1513  16.2976
    16.5848  16.8193  17.0721  17.4683  17.5823

          k = 0.0000 0.3308-0.5030 ( 62370 PWs)   bands (ev):

   -66.1573 -66.1573 -66.1569 -66.1569 -66.1567 -66.1567 -66.1563 -66.1563
   -30.5544 -30.5544 -30.5518 -30.5518 -30.4872 -30.4872 -30.4843 -30.4843
   -30.4712 -30.4712 -30.4680 -30.4680 -30.4677 -30.4677 -30.4615 -30.4615
   -30.4412 -30.4412 -30.4354 -30.4354 -30.4066 -30.4066 -30.4040 -30.4040
   -20.3340 -20.3340 -20.3340 -20.3339 -20.3333 -20.3333 -20.3333 -20.3333
   -20.3248 -20.3248 -20.3248 -20.3248 -20.3230 -20.3230 -20.3230 -20.3229
   -20.3032 -20.3032 -20.3031 -20.3031 -20.3019 -20.3019 -20.3018 -20.3018
   -20.2971 -20.2971 -20.2970 -20.2970 -20.2947 -20.2947 -20.2945 -20.2945
   -20.2780 -20.2779 -20.2779 -20.2779 -20.2767 -20.2767 -20.2766 -20.2766
   -20.2729 -20.2729 -20.2728 -20.2728 -20.2708 -20.2707 -20.2707 -20.2707
   -20.2622 -20.2622 -20.2621 -20.2621 -20.2620 -20.2620 -20.2619 -20.2619
    -9.5651  -9.5651  -9.3373  -9.3373  -8.9954  -8.9953  -8.6471  -8.6471
    -8.6188  -8.6188  -8.4897  -8.4896  -8.4000  -8.4000  -8.3641  -8.3641
    -8.0189  -8.0189  -7.9562  -7.9561  -7.8446  -7.8446  -7.8414  -7.8414
     1.4800   1.4800   1.4966   1.4966   2.2411   2.2412   2.3594   2.3594
     2.7125   2.7125   2.9583   2.9583   2.9944   2.9945   3.0564   3.0564
     3.1301   3.1301   3.3792   3.3792   3.5231   3.5232   3.7105   3.7105
     4.1316   4.1316   4.1692   4.1692   4.1935   4.1935   4.3978   4.3979
     4.9677   4.9677   5.1181   5.1181   5.2324   5.2324   5.2339   5.2339
     5.3664   5.3664   5.8212   5.8212   5.9664   5.9664   6.0074   6.0074
     6.4699   6.4700   6.5278   6.5278   6.6281   6.6281   6.7951   6.7951
     7.1407   7.1407   7.2463   7.2463   7.2940   7.2940   7.6782   7.6782
     7.7048   7.7048   7.7759   7.7760   7.8066   7.8066   8.0186   8.0186
    10.8297  10.8297  11.3611  11.3611  11.3948  11.3948  11.8255  11.8255
    11.8997  11.8997  12.2840  12.2840  12.6387  12.6387  12.6918  12.6918
    12.7968  12.7968  12.9400  12.9400  13.0908  13.0908  13.2973  13.2973
    14.9877  14.9878  15.1833  15.1833  16.2008  16.2008  16.6888  16.6888
    16.8051  16.8051  16.9455  16.9455  17.8089

          k = 0.0000-0.4962 0.0000 ( 62438 PWs)   bands (ev):

   -66.1574 -66.1574 -66.1568 -66.1568 -66.1568 -66.1568 -66.1562 -66.1562
   -30.5558 -30.5558 -30.5506 -30.5506 -30.5053 -30.5053 -30.5042 -30.5042
   -30.4814 -30.4814 -30.4811 -30.4811 -30.4383 -30.4383 -30.4352 -30.4352
   -30.4292 -30.4292 -30.4252 -30.4252 -30.4152 -30.4152 -30.4112 -30.4112
   -20.3346 -20.3346 -20.3340 -20.3340 -20.3331 -20.3331 -20.3325 -20.3325
   -20.3252 -20.3252 -20.3247 -20.3247 -20.3233 -20.3232 -20.3229 -20.3229
   -20.3036 -20.3036 -20.3027 -20.3027 -20.3024 -20.3024 -20.3012 -20.3012
   -20.2973 -20.2973 -20.2968 -20.2968 -20.2949 -20.2949 -20.2944 -20.2944
   -20.2778 -20.2778 -20.2778 -20.2778 -20.2764 -20.2764 -20.2764 -20.2764
   -20.2725 -20.2725 -20.2724 -20.2724 -20.2714 -20.2714 -20.2714 -20.2714
   -20.2627 -20.2627 -20.2625 -20.2625 -20.2616 -20.2615 -20.2614 -20.2614
    -9.7182  -9.7182  -9.3176  -9.3176  -9.2905  -9.2905  -8.8611  -8.8611
    -8.4703  -8.4703  -8.3506  -8.3506  -8.3323  -8.3322  -8.3100  -8.3099
    -7.8863  -7.8863  -7.8268  -7.8268  -7.7726  -7.7726  -7.7295  -7.7295
     1.3039   1.3039   1.3753   1.3753   1.5176   1.5176   1.5937   1.5937
     2.5851   2.5851   2.9391   2.9391   2.9704   2.9704   3.0377   3.0377
     3.1163   3.1163   3.3194   3.3194   3.5620   3.5620   3.5862   3.5862
     3.7499   3.7499   4.6040   4.6041   4.7149   4.7149   5.3510   5.3511
     5.3976   5.3976   5.4340   5.4340   5.4517   5.4518   5.7424   5.7424
     5.8971   5.8971   5.9078   5.9078   5.9908   5.9908   6.0268   6.0268
     6.3725   6.3725   6.4265   6.4265   6.6380   6.6380   6.7850   6.7850
     6.9718   6.9718   6.9793   6.9793   7.1018   7.1018   7.6747   7.6747
     7.6791   7.6792   7.7295   7.7295   7.7922   7.7922   8.2760   8.2760
     9.6121   9.6121  11.2202  11.2202  11.2478  11.2478  11.5381  11.5381
    11.6016  11.6016  12.4651  12.4651  12.7861  12.7861  12.8890  12.8890
    13.0515  13.0515  13.4280  13.4280  13.5117  13.5117  13.8674  13.8674
    14.5125  14.5125  15.0360  15.0360  15.1347  15.1347  15.2749  15.2749
    16.5137  16.5137  17.8133  17.8134  18.0428

          k = 0.0000-0.4962 0.1677 ( 62392 PWs)   bands (ev):

   -66.1574 -66.1574 -66.1568 -66.1568 -66.1568 -66.1568 -66.1562 -66.1562
   -30.5554 -30.5554 -30.5509 -30.5509 -30.5012 -30.5012 -30.4993 -30.4993
   -30.4818 -30.4818 -30.4802 -30.4801 -30.4412 -30.4412 -30.4383 -30.4383
   -30.4288 -30.4288 -30.4248 -30.4247 -30.4175 -30.4175 -30.4136 -30.4136
   -20.3345 -20.3345 -20.3339 -20.3339 -20.3333 -20.3333 -20.3326 -20.3326
   -20.3251 -20.3251 -20.3247 -20.3247 -20.3232 -20.3232 -20.3229 -20.3229
   -20.3036 -20.3036 -20.3027 -20.3027 -20.3023 -20.3023 -20.3013 -20.3013
   -20.2972 -20.2972 -20.2968 -20.2968 -20.2948 -20.2948 -20.2944 -20.2944
   -20.2778 -20.2778 -20.2777 -20.2777 -20.2765 -20.2765 -20.2765 -20.2765
   -20.2724 -20.2724 -20.2724 -20.2724 -20.2715 -20.2715 -20.2715 -20.2715
   -20.2627 -20.2626 -20.2625 -20.2625 -20.2616 -20.2616 -20.2615 -20.2615
    -9.6706  -9.6706  -9.3069  -9.3069  -9.2393  -9.2393  -8.8288  -8.8288
    -8.4852  -8.4852  -8.3577  -8.3577  -8.3270  -8.3269  -8.3079  -8.3079
    -7.9032  -7.9032  -7.8578  -7.8578  -7.8315  -7.8315  -7.8253  -7.8253
     1.4128   1.4128   1.5126   1.5126   1.6063   1.6063   1.7302   1.7303
     2.6642   2.6642   2.9398   2.9399   2.9826   2.9826   3.0485   3.0485
     3.1690   3.1690   3.3102   3.3103   3.5633   3.5633   3.6131   3.6131
     3.7672   3.7672   4.4272   4.4272   4.6436   4.6436   5.1788   5.1788
     5.1938   5.1938   5.3694   5.3694   5.4620   5.4621   5.6076   5.6076
     5.6963   5.6963   5.7368   5.7368   5.9284   5.9284   5.9831   5.9831
     6.5136   6.5136   6.6119   6.6119   6.6582   6.6582   6.8370   6.8370
     6.9367   6.9367   7.0105   7.0105   7.1043   7.1043   7.6632   7.6632
     7.6859   7.6859   7.7369   7.7369   7.7775   7.7775   8.2225   8.2225
     9.9043   9.9043  11.3146  11.3147  11.3637  11.3637  11.5434  11.5434
    11.6214  11.6214  12.5168  12.5168  12.6756  12.6756  12.8452  12.8452
    13.0527  13.0527  13.2726  13.2726  13.3364  13.3364  13.7537  13.7537
    14.6876  14.6876  15.1954  15.1954  15.2737  15.2737  15.4804  15.4804
    16.6141  16.6141  17.7423  17.7424  17.8548

          k = 0.0000-0.4962 0.3353 ( 62390 PWs)   bands (ev):

   -66.1573 -66.1573 -66.1570 -66.1569 -66.1567 -66.1567 -66.1564 -66.1563
   -30.5544 -30.5544 -30.5518 -30.5518 -30.4916 -30.4916 -30.4862 -30.4862
   -30.4829 -30.4829 -30.4758 -30.4758 -30.4515 -30.4515 -30.4482 -30.4482
   -30.4275 -30.4275 -30.4235 -30.4235 -30.4218 -30.4218 -30.4181 -30.4181
   -20.3343 -20.3343 -20.3337 -20.3337 -20.3336 -20.3336 -20.3329 -20.3329
   -20.3250 -20.3250 -20.3247 -20.3247 -20.3231 -20.3231 -20.3229 -20.3229
   -20.3034 -20.3034 -20.3029 -20.3029 -20.3021 -20.3021 -20.3015 -20.3015
   -20.2972 -20.2972 -20.2969 -20.2969 -20.2947 -20.2947 -20.2945 -20.2945
   -20.2775 -20.2775 -20.2775 -20.2775 -20.2768 -20.2768 -20.2768 -20.2767
   -20.2722 -20.2722 -20.2722 -20.2722 -20.2717 -20.2717 -20.2717 -20.2717
   -20.2624 -20.2624 -20.2623 -20.2622 -20.2618 -20.2618 -20.2617 -20.2617
    -9.5546  -9.5546  -9.3498  -9.3498  -9.0320  -9.0320  -8.7213  -8.7213
    -8.5562  -8.5562  -8.3946  -8.3945  -8.3070  -8.3069  -8.2968  -8.2968
    -8.1068  -8.1068  -8.0675  -8.0675  -7.8628  -7.8628  -7.8389  -7.8389
     1.4729   1.4729   1.5019   1.5019   2.2108   2.2108   2.3087   2.3087
     2.8576   2.8576   2.9320   2.9321   3.0395   3.0395   3.0815   3.0815
     3.2636   3.2636   3.3099   3.3099   3.5300   3.5300   3.6686   3.6686
     3.8021   3.8021   3.9307   3.9307   4.5619   4.5619   4.7165   4.7165
     4.8631   4.8631   4.9995   4.9995   5.1242   5.1242   5.3322   5.3322
     5.5001   5.5001   5.6404   5.6404   5.9566   5.9566   6.0142   6.0142
     6.5682   6.5682   6.5910   6.5910   6.6498   6.6498   6.6722   6.6722
     7.1625   7.1625   7.3451   7.3451   7.3732   7.3732   7.6377   7.6377
     7.6966   7.6966   7.7203   7.7203   7.7243   7.7243   8.0512   8.0512
    10.5779  10.5779  11.4841  11.4841  11.5384  11.5384  11.7159  11.7159
    11.7867  11.7867  12.1473  12.1473  12.6742  12.6742  12.7753  12.7753
    12.8550  12.8550  12.9936  12.9936  13.0606  13.0606  13.4436  13.4436
    14.9431  14.9431  15.1713  15.1713  15.8286  15.8286  16.3893  16.3893
    16.9334  16.9334  17.2108  17.2108  17.9060

          k = 0.0000-0.4962-0.5030 ( 62388 PWs)   bands (ev):

   -66.1571 -66.1571 -66.1571 -66.1571 -66.1565 -66.1565 -66.1565 -66.1565
   -30.5531 -30.5531 -30.5531 -30.5531 -30.4854 -30.4854 -30.4854 -30.4854
   -30.4684 -30.4684 -30.4684 -30.4684 -30.4633 -30.4633 -30.4633 -30.4633
   -30.4253 -30.4252 -30.4252 -30.4252 -30.4214 -30.4214 -30.4214 -30.4214
   -20.3340 -20.3340 -20.3340 -20.3339 -20.3333 -20.3333 -20.3333 -20.3333
   -20.3248 -20.3248 -20.3248 -20.3248 -20.3230 -20.3230 -20.3230 -20.3230
   -20.3031 -20.3031 -20.3031 -20.3031 -20.3018 -20.3018 -20.3018 -20.3018
   -20.2970 -20.2970 -20.2970 -20.2970 -20.2946 -20.2946 -20.2946 -20.2946
   -20.2772 -20.2772 -20.2772 -20.2772 -20.2771 -20.2771 -20.2771 -20.2771
   -20.2720 -20.2720 -20.2720 -20.2720 -20.2719 -20.2719 -20.2719 -20.2719
   -20.2621 -20.2621 -20.2621 -20.2621 -20.2620 -20.2620 -20.2620 -20.2620
    -9.4330  -9.4330  -9.4330  -9.4330  -8.7574  -8.7574  -8.7574  -8.7574
    -8.5360  -8.5360  -8.5360  -8.5360  -8.2658  -8.2658  -8.2658  -8.2658
    -8.2358  -8.2358  -8.2358  -8.2358  -7.8516  -7.8516  -7.8516  -7.8516
     1.4898   1.4898   1.4898   1.4898   2.8015   2.8015   2.8015   2.8015
     2.9062   2.9062   2.9062   2.9062   3.1989   3.1989   3.1989   3.1989
     3.2686   3.2686   3.2686   3.2686   3.4841   3.4841   3.4841   3.4841
     3.6873   3.6873   3.6873   3.6873   4.4899   4.4899   4.4899   4.4899
     4.5333   4.5333   4.5333   4.5333   5.2099   5.2099   5.2099   5.2099
     5.5456   5.5456   5.5456   5.5456   6.0004   6.0004   6.0004   6.0004
     6.5047   6.5047   6.5047   6.5047   6.6502   6.6502   6.6502   6.6502
     7.5477   7.5477   7.5477   7.5477   7.5769   7.5769   7.5769   7.5769
     7.5917   7.5917   7.5917   7.5917   7.8126   7.8126   7.8126   7.8127
    11.3393  11.3393  11.3393  11.3393  11.5725  11.5725  11.5725  11.5725
    12.2424  12.2424  12.2425  12.2425  12.2742  12.2742  12.2742  12.2742
    12.9095  12.9095  12.9095  12.9095  13.1372  13.1372  13.1372  13.1372
    15.0863  15.0863  15.0863  15.0863  16.5531  16.5531  16.5531  16.5531
    17.4507  17.4508  17.4508  17.4508  17.5557

          k = 0.1667 0.0000 0.0000 ( 62375 PWs)   bands (ev):

   -66.1577 -66.1572 -66.1571 -66.1570 -66.1566 -66.1565 -66.1564 -66.1559
   -30.5539 -30.5491 -30.5486 -30.5436 -30.5081 -30.5053 -30.5050 -30.5038
   -30.4941 -30.4927 -30.4834 -30.4816 -30.4721 -30.4672 -30.4646 -30.4575
   -30.4285 -30.4251 -30.4193 -30.4156 -30.3886 -30.3869 -30.3856 -30.3840
   -20.3346 -20.3346 -20.3340 -20.3340 -20.3331 -20.3331 -20.3326 -20.3325
   -20.3251 -20.3250 -20.3246 -20.3245 -20.3234 -20.3233 -20.3230 -20.3229
   -20.3037 -20.3034 -20.3028 -20.3026 -20.3024 -20.3024 -20.3015 -20.3012
   -20.2973 -20.2969 -20.2968 -20.2965 -20.2952 -20.2948 -20.2948 -20.2944
   -20.2792 -20.2791 -20.2788 -20.2787 -20.2775 -20.2774 -20.2753 -20.2752
   -20.2744 -20.2744 -20.2725 -20.2724 -20.2694 -20.2693 -20.2691 -20.2690
   -20.2628 -20.2626 -20.2626 -20.2625 -20.2617 -20.2616 -20.2614 -20.2613
    -9.9461  -9.6033  -9.5414  -9.5069  -9.2047  -9.1528  -9.0785  -8.8524
    -8.8096  -8.7635  -8.7494  -8.7347  -8.0421  -7.9698  -7.9629  -7.9184
    -7.7949  -7.7904  -7.7639  -7.7516  -7.6016  -7.5733  -7.5501  -7.5252
     1.3030   1.3266   1.3467   1.3717   1.3731   1.3844   1.4209   1.4536
     1.7382   1.7637   1.8227   1.8742   2.4821   2.5209   2.5558   2.5807
     2.6300   2.7631   3.9873   4.0853   4.2306   4.2786   4.3808   4.4239
     4.4746   4.4890   4.7348   4.7903   4.9447   5.0027   5.2346   5.3485
     5.4695   5.6143   5.6186   5.6730   5.7386   5.7554   5.7637   5.8366
     5.9422   5.9603   5.9759   6.0274   6.0817   6.1106   6.1418   6.2067
     6.2554   6.4586   6.4869   6.4982   6.5507   6.7231   6.7809   6.8097
     6.8223   6.8409   6.9345   6.9751   6.9822   7.0863   7.0942   7.1587
     7.2344   7.2597   8.1168   8.1668   8.1938   8.2239   8.5132   8.5263
     9.6831   9.7354   9.8334  10.0100  10.1905  10.3257  12.2793  12.2813
    12.4012  12.5407  12.6368  12.6616  12.8128  12.9035  12.9334  12.9430
    13.1078  13.1787  13.2219  13.3873  13.7068  13.8340  14.0566  14.0799
    14.1164  14.2206  14.5854  14.8584  14.9796  15.0463  15.2676  15.7799
    15.8407  16.4730  16.6161  17.0954  17.3937

          k = 0.1667 0.0000 0.1677 ( 62366 PWs)   bands (ev):

   -66.1577 -66.1572 -66.1571 -66.1570 -66.1566 -66.1565 -66.1564 -66.1559
   -30.5535 -30.5490 -30.5486 -30.5439 -30.5039 -30.5019 -30.5003 -30.4996
   -30.4929 -30.4928 -30.4838 -30.4805 -30.4728 -30.4659 -30.4655 -30.4565
   -30.4339 -30.4303 -30.4239 -30.4201 -30.3883 -30.3866 -30.3856 -30.3841
   -20.3345 -20.3345 -20.3340 -20.3339 -20.3333 -20.3332 -20.3327 -20.3326
   -20.3250 -20.3249 -20.3246 -20.3245 -20.3234 -20.3233 -20.3230 -20.3229
   -20.3037 -20.3033 -20.3028 -20.3025 -20.3025 -20.3023 -20.3015 -20.3013
   -20.2972 -20.2969 -20.2968 -20.2966 -20.2952 -20.2948 -20.2948 -20.2944
   -20.2792 -20.2791 -20.2788 -20.2787 -20.2774 -20.2773 -20.2755 -20.2753
   -20.2743 -20.2742 -20.2727 -20.2725 -20.2694 -20.2693 -20.2691 -20.2690
   -20.2627 -20.2625 -20.2625 -20.2624 -20.2617 -20.2616 -20.2614 -20.2613
    -9.9048  -9.5560  -9.5511  -9.4538  -9.1656  -9.1243  -9.0888  -8.8189
    -8.7821  -8.7410  -8.7362  -8.7345  -8.0527  -7.9792  -7.9658  -7.9336
    -7.8866  -7.8863  -7.8536  -7.8522  -7.6085  -7.5769  -7.5585  -7.5286
     1.3232   1.3612   1.3767   1.4147   1.5382   1.5403   1.6074   1.6513
     1.7413   1.7655   1.8685   1.9312   2.5246   2.5542   2.5897   2.6307
     2.7223   2.8412   3.9670   4.0534   4.2113   4.2304   4.4368   4.4446
     4.4738   4.4867   4.5054   4.5588   4.6662   4.7215   5.2236   5.3206
     5.4172   5.4649   5.5466   5.5645   5.6146   5.7293   5.8003   5.8138
     5.8411   5.8514   5.9218   5.9569   6.0388   6.1206   6.1423   6.2441
     6.2605   6.5025   6.6327   6.6902   6.7239   6.7250   6.7383   6.7490
     6.8003   6.8124   6.9028   6.9410   6.9833   7.0273   7.1048   7.1215
     7.1545   7.1820   8.1220   8.1443   8.1601   8.1736   8.4450   8.4660
     9.9731  10.0558  10.0851  10.2041  10.2593  10.3189  12.3402  12.3405
    12.4246  12.5445  12.6754  12.6986  12.7284  12.7389  12.8144  12.9040
    12.9446  13.0332  13.2316  13.3904  13.5990  13.7048  13.9521  13.9962
    14.3672  14.4852  14.7756  14.9166  14.9824  15.1214  15.6678  15.7598
    15.8127  16.6258  16.7299  16.8701  17.4369

          k = 0.1667 0.0000 0.3353 ( 62369 PWs)   bands (ev):

   -66.1576 -66.1573 -66.1570 -66.1569 -66.1567 -66.1566 -66.1564 -66.1561
   -30.5524 -30.5499 -30.5475 -30.5448 -30.4973 -30.4948 -30.4934 -30.4893
   -30.4871 -30.4865 -30.4845 -30.4756 -30.4750 -30.4687 -30.4612 -30.4529
   -30.4482 -30.4441 -30.4360 -30.4316 -30.3877 -30.3860 -30.3860 -30.3845
   -20.3343 -20.3342 -20.3337 -20.3337 -20.3336 -20.3335 -20.3330 -20.3329
   -20.3249 -20.3248 -20.3246 -20.3245 -20.3233 -20.3232 -20.3231 -20.3230
   -20.3035 -20.3031 -20.3030 -20.3027 -20.3023 -20.3021 -20.3017 -20.3015
   -20.2972 -20.2969 -20.2969 -20.2966 -20.2951 -20.2949 -20.2947 -20.2945
   -20.2791 -20.2791 -20.2789 -20.2788 -20.2770 -20.2769 -20.2759 -20.2758
   -20.2739 -20.2739 -20.2730 -20.2729 -20.2693 -20.2692 -20.2691 -20.2691
   -20.2625 -20.2623 -20.2623 -20.2622 -20.2619 -20.2618 -20.2617 -20.2616
    -9.8027  -9.6041  -9.4232  -9.3243  -9.2066  -9.1241  -8.8983  -8.7667
    -8.7440  -8.6770  -8.6595  -8.6313  -8.2201  -8.1602  -8.1551  -8.1309
    -7.9901  -7.9755  -7.9364  -7.9125  -7.6084  -7.5864  -7.5587  -7.5377
     1.3325   1.3608   1.3770   1.4020   1.7098   1.7101   1.7433   1.7573
     2.2262   2.2584   2.3423   2.3750   2.5291   2.5886   2.7831   2.8232
     2.9846   3.0605   3.7560   3.7965   4.0269   4.0354   4.0818   4.1168
     4.1818   4.3064   4.4761   4.5194   4.5547   4.6999   4.7676   4.8963
     5.1639   5.2569   5.2642   5.3520   5.4002   5.4722   5.6477   5.7885
     5.8713   5.8833   5.8843   5.9298   5.9396   6.0232   6.1803   6.2469
     6.3673   6.4139   6.4958   6.5758   6.6356   6.6871   6.6930   6.7942
     6.8242   6.8902   6.9899   7.0171   7.0576   7.1200   7.2532   7.2659
     7.4019   7.4268   7.9774   8.0021   8.1335   8.1463   8.2358   8.2722
    10.2262  10.2975  10.6423  10.7037  10.7899  10.8793  12.1437  12.1739
    12.3545  12.4341  12.4922  12.5018  12.5267  12.6005  12.8860  12.8956
    12.9033  12.9465  13.1514  13.2784  13.3944  13.4680  13.6158  13.6638
    14.8718  14.9564  15.0360  15.2186  15.2666  15.4247  15.7017  15.7083
    16.3626  16.6632  17.0796  17.0934  17.1706

          k = 0.1667 0.0000-0.5030 ( 62296 PWs)   bands (ev):

   -66.1574 -66.1574 -66.1569 -66.1569 -66.1567 -66.1567 -66.1562 -66.1562
   -30.5511 -30.5511 -30.5461 -30.5461 -30.4952 -30.4952 -30.4879 -30.4879
   -30.4798 -30.4798 -30.4762 -30.4762 -30.4675 -30.4675 -30.4618 -30.4618
   -30.4506 -30.4506 -30.4446 -30.4446 -30.3868 -30.3868 -30.3852 -30.3852
   -20.3340 -20.3339 -20.3339 -20.3339 -20.3334 -20.3334 -20.3333 -20.3333
   -20.3247 -20.3247 -20.3247 -20.3246 -20.3231 -20.3231 -20.3231 -20.3230
   -20.3032 -20.3032 -20.3029 -20.3029 -20.3020 -20.3020 -20.3018 -20.3018
   -20.2970 -20.2970 -20.2968 -20.2967 -20.2950 -20.2950 -20.2946 -20.2946
   -20.2790 -20.2790 -20.2790 -20.2789 -20.2765 -20.2765 -20.2764 -20.2764
   -20.2735 -20.2735 -20.2734 -20.2734 -20.2692 -20.2692 -20.2691 -20.2691
   -20.2622 -20.2622 -20.2620 -20.2620 -20.2620 -20.2620 -20.2619 -20.2619
    -9.6894  -9.6894  -9.2915  -9.2915  -9.1987  -9.1987  -8.7520  -8.7520
    -8.5678  -8.5678  -8.4612  -8.4612  -8.4429  -8.4429  -8.4209  -8.4208
    -7.9880  -7.9880  -7.9278  -7.9278  -7.5987  -7.5987  -7.5493  -7.5493
     1.3448   1.3448   1.3886   1.3886   1.7264   1.7265   1.7511   1.7511
     2.5263   2.5263   2.8492   2.8492   2.9055   2.9055   3.0573   3.0574
     3.1404   3.1404   3.3921   3.3921   3.6717   3.6717   3.9462   3.9462
     3.9844   3.9845   4.2391   4.2391   4.4808   4.4808   4.9366   4.9366
     5.1369   5.1369   5.1732   5.1733   5.2947   5.2947   5.6769   5.6769
     5.8555   5.8555   5.9162   5.9162   6.0056   6.0057   6.2274   6.2274
     6.3124   6.3124   6.5218   6.5218   6.5797   6.5797   6.7432   6.7432
     6.8394   6.8394   6.9685   6.9685   7.1067   7.1067   7.6734   7.6734
     7.6896   7.6896   7.8740   7.8740   7.9118   7.9118   8.1444   8.1444
    10.2643  10.2644  11.4171  11.4171  11.4637  11.4637  11.6097  11.6097
    11.6760  11.6760  12.5138  12.5139  12.8280  12.8280  12.8887  12.8887
    12.9105  12.9105  13.2137  13.2137  13.2627  13.2627  13.4007  13.4007
    14.9387  14.9387  15.4810  15.4810  15.5149  15.5149  15.8214  15.8215
    16.2776  16.2776  17.4543  17.4543  17.8293

          k = 0.1667 0.1654 0.0000 ( 62378 PWs)   bands (ev):

   -66.1577 -66.1572 -66.1571 -66.1570 -66.1566 -66.1565 -66.1565 -66.1559
   -30.5535 -30.5494 -30.5483 -30.5439 -30.5078 -30.5051 -30.5050 -30.5035
   -30.4921 -30.4912 -30.4837 -30.4819 -30.4670 -30.4624 -30.4608 -30.4540
   -30.4288 -30.4254 -30.4192 -30.4155 -30.3940 -30.3922 -30.3906 -30.3888
   -20.3346 -20.3346 -20.3340 -20.3340 -20.3331 -20.3331 -20.3326 -20.3325
   -20.3251 -20.3250 -20.3246 -20.3245 -20.3234 -20.3233 -20.3230 -20.3229
   -20.3037 -20.3034 -20.3027 -20.3026 -20.3024 -20.3024 -20.3014 -20.3013
   -20.2973 -20.2970 -20.2968 -20.2965 -20.2952 -20.2948 -20.2947 -20.2944
   -20.2789 -20.2789 -20.2784 -20.2783 -20.2775 -20.2774 -20.2754 -20.2753
   -20.2742 -20.2742 -20.2724 -20.2723 -20.2698 -20.2698 -20.2695 -20.2694
   -20.2627 -20.2626 -20.2626 -20.2625 -20.2617 -20.2616 -20.2614 -20.2613
    -9.9031  -9.5559  -9.5263  -9.4851  -9.2163  -9.0931  -9.0674  -8.8485
    -8.8122  -8.7247  -8.7055  -8.7002  -8.0493  -7.9707  -7.9685  -7.9282
    -7.8183  -7.7972  -7.7877  -7.7494  -7.6867  -7.6814  -7.6490  -7.6366
     1.3397   1.3457   1.3650   1.3738   1.5421   1.5941   1.6591   1.6611
     1.7482   1.8062   1.8337   1.9262   2.5592   2.5893   2.6406   2.6452
     2.6592   2.7654   3.8403   3.9175   4.0337   4.1596   4.2891   4.3847
     4.4857   4.5405   4.7400   4.7895   5.0130   5.0322   5.0538   5.2636
     5.3792   5.3975   5.4392   5.5915   5.5964   5.6981   5.7286   5.7769
     5.8190   5.9479   5.9672   6.0144   6.0253   6.0715   6.2685   6.3246
     6.3469   6.4036   6.4884   6.5221   6.6446   6.7074   6.7180   6.7977
     6.8299   6.9418   6.9485   6.9614   6.9897   7.0029   7.1057   7.1142
     7.2234   7.2527   8.0952   8.1388   8.1959   8.2196   8.4229   8.4446
     9.7859   9.8339   9.9470  10.1059  10.3997  10.5196  12.2455  12.2876
    12.4424  12.4610  12.5067  12.5859  12.6983  12.7407  12.9275  12.9325
    13.1264  13.2158  13.2298  13.3933  13.6924  13.8211  14.0035  14.0171
    14.1806  14.4056  14.5812  14.9630  15.0592  15.1411  15.2510  15.7507
    16.2308  16.2443  16.8164  17.2982  17.4006

          k = 0.1667 0.1654 0.1677 ( 62385 PWs)   bands (ev):

   -66.1576 -66.1571 -66.1571 -66.1570 -66.1566 -66.1565 -66.1565 -66.1560
   -30.5531 -30.5489 -30.5486 -30.5442 -30.5037 -30.5018 -30.5001 -30.4993
   -30.4915 -30.4908 -30.4841 -30.4808 -30.4678 -30.4619 -30.4613 -30.4531
   -30.4340 -30.4306 -30.4237 -30.4199 -30.3938 -30.3919 -30.3907 -30.3890
   -20.3345 -20.3345 -20.3340 -20.3339 -20.3332 -20.3332 -20.3327 -20.3326
   -20.3250 -20.3249 -20.3246 -20.3245 -20.3234 -20.3233 -20.3230 -20.3230
   -20.3036 -20.3034 -20.3028 -20.3025 -20.3025 -20.3023 -20.3015 -20.3013
   -20.2972 -20.2969 -20.2968 -20.2966 -20.2952 -20.2948 -20.2948 -20.2944
   -20.2789 -20.2789 -20.2785 -20.2784 -20.2774 -20.2773 -20.2755 -20.2754
   -20.2741 -20.2741 -20.2726 -20.2725 -20.2698 -20.2697 -20.2695 -20.2694
   -20.2627 -20.2626 -20.2625 -20.2624 -20.2617 -20.2616 -20.2615 -20.2614
    -9.8603  -9.5055  -9.4968  -9.4709  -9.1370  -9.1035  -9.0796  -8.8163
    -8.7842  -8.7045  -8.6976  -8.6967  -8.0639  -7.9800  -7.9705  -7.9436
    -7.8982  -7.8855  -7.8621  -7.8514  -7.7060  -7.6862  -7.6661  -7.6464
     1.5076   1.5242   1.5380   1.5606   1.5967   1.6133   1.6542   1.7268
     1.7466   1.8174   1.8693   1.9780   2.5982   2.6326   2.6584   2.7096
     2.7488   2.8387   3.8396   3.9104   4.0357   4.1057   4.3877   4.4191
     4.4589   4.4858   4.5275   4.5614   4.7195   4.7644   5.0443   5.2315
     5.3373   5.3771   5.3908   5.4386   5.5804   5.5912   5.6042   5.6495
     5.6637   5.8312   5.9712   5.9877   6.0113   6.0343   6.2672   6.2913
     6.3685   6.5078   6.5740   6.6047   6.6649   6.7258   6.7449   6.8034
     6.8527   6.8963   6.9250   6.9755   7.0202   7.0279   7.0788   7.1336
     7.1736   7.2159   8.1010   8.1309   8.1468   8.1729   8.3666   8.3899
    10.0420  10.0829  10.2181  10.3414  10.4181  10.5134  12.3112  12.3465
    12.4724  12.5182  12.5626  12.5921  12.6575  12.7272  12.7426  12.7567
    12.9577  13.0335  13.2540  13.4005  13.5825  13.6927  13.8553  13.8993
    14.4953  14.6765  14.7795  14.9879  15.0731  15.2448  15.6461  15.7355
    16.2016  16.3850  16.9077  17.0414  17.4328

          k = 0.1667 0.1654 0.3353 ( 62354 PWs)   bands (ev):

   -66.1575 -66.1572 -66.1570 -66.1569 -66.1567 -66.1566 -66.1564 -66.1561
   -30.5521 -30.5495 -30.5478 -30.5451 -30.4964 -30.4945 -30.4923 -30.4884
   -30.4864 -30.4856 -30.4842 -30.4757 -30.4705 -30.4656 -30.4575 -30.4501
   -30.4482 -30.4442 -30.4354 -30.4311 -30.3931 -30.3913 -30.3912 -30.3895
   -20.3343 -20.3342 -20.3337 -20.3337 -20.3335 -20.3335 -20.3330 -20.3329
   -20.3249 -20.3248 -20.3246 -20.3245 -20.3232 -20.3232 -20.3230 -20.3230
   -20.3035 -20.3032 -20.3030 -20.3027 -20.3023 -20.3021 -20.3017 -20.3015
   -20.2971 -20.2969 -20.2969 -20.2967 -20.2951 -20.2949 -20.2947 -20.2945
   -20.2788 -20.2788 -20.2786 -20.2785 -20.2770 -20.2769 -20.2760 -20.2759
   -20.2738 -20.2737 -20.2729 -20.2728 -20.2697 -20.2697 -20.2695 -20.2695
   -20.2625 -20.2623 -20.2623 -20.2622 -20.2619 -20.2618 -20.2617 -20.2616
    -9.7545  -9.5506  -9.3612  -9.3417  -9.1407  -9.1227  -8.9105  -8.7479
    -8.7114  -8.6790  -8.6354  -8.6068  -8.2364  -8.1640  -8.1559  -8.1267
    -7.9889  -7.9760  -7.9415  -7.9173  -7.7134  -7.6954  -7.6734  -7.6556
     1.5438   1.5680   1.6143   1.6409   1.7131   1.7347   1.7601   1.8057
     2.2286   2.2690   2.3403   2.3890   2.6047   2.6601   2.8461   2.8985
     3.0095   3.0543   3.6976   3.7603   3.9698   4.0142   4.0316   4.0883
     4.1731   4.2674   4.4734   4.4981   4.5590   4.6662   4.7774   4.8751
     4.9937   5.0672   5.1485   5.1708   5.2309   5.3288   5.5668   5.5949
     5.6414   5.8033   5.8279   5.8914   5.9314   6.0092   6.0553   6.0931
     6.4120   6.5222   6.6019   6.6304   6.7056   6.7592   6.7732   6.8433
     6.8662   6.9301   7.0373   7.0554   7.0657   7.1361   7.2465   7.2851
     7.4078   7.4296   7.9807   7.9947   8.1126   8.1256   8.1847   8.2174
    10.4197  10.4914  10.6672  10.7126  10.8820  10.9487  12.1492  12.1757
    12.3758  12.4543  12.4962  12.5364  12.5533  12.6164  12.7240  12.7533
    12.7558  12.8042  13.1770  13.2646  13.4044  13.4582  13.4958  13.5536
    14.9621  15.0083  15.2095  15.2812  15.4043  15.5678  15.6796  16.0966
    16.5117  16.6420  16.8494  17.1461  17.2590

          k = 0.1667 0.1654-0.5030 ( 62316 PWs)   bands (ev):

   -66.1574 -66.1574 -66.1568 -66.1568 -66.1568 -66.1568 -66.1563 -66.1562
   -30.5508 -30.5507 -30.5464 -30.5464 -30.4938 -30.4938 -30.4881 -30.4881
   -30.4766 -30.4765 -30.4740 -30.4740 -30.4674 -30.4674 -30.4619 -30.4618
   -30.4487 -30.4487 -30.4429 -30.4429 -30.3921 -30.3921 -30.3904 -30.3904
   -20.3340 -20.3339 -20.3339 -20.3339 -20.3334 -20.3334 -20.3333 -20.3333
   -20.3247 -20.3247 -20.3247 -20.3246 -20.3231 -20.3231 -20.3231 -20.3231
   -20.3032 -20.3032 -20.3029 -20.3029 -20.3020 -20.3020 -20.3018 -20.3018
   -20.2970 -20.2970 -20.2968 -20.2968 -20.2950 -20.2950 -20.2946 -20.2946
   -20.2787 -20.2787 -20.2786 -20.2786 -20.2765 -20.2765 -20.2764 -20.2764
   -20.2734 -20.2733 -20.2733 -20.2733 -20.2697 -20.2696 -20.2696 -20.2696
   -20.2622 -20.2622 -20.2620 -20.2620 -20.2620 -20.2620 -20.2619 -20.2619
    -9.6377  -9.6377  -9.2206  -9.2206  -9.2109  -9.2109  -8.7210  -8.7210
    -8.5811  -8.5810  -8.4656  -8.4656  -8.4343  -8.4343  -8.4101  -8.4101
    -7.9879  -7.9879  -7.9334  -7.9334  -7.7060  -7.7060  -7.6662  -7.6662
     1.5553   1.5553   1.6287   1.6287   1.7317   1.7318   1.7946   1.7946
     2.5980   2.5980   2.8775   2.8776   2.9371   2.9371   3.0496   3.0496
     3.1365   3.1365   3.4120   3.4120   3.6551   3.6551   3.9910   3.9910
     4.0168   4.0169   4.1055   4.1055   4.4827   4.4827   4.8530   4.8530
     4.9635   4.9635   5.0610   5.0610   5.1148   5.1148   5.6239   5.6239
     5.6855   5.6855   5.7327   5.7327   5.9364   5.9364   6.0249   6.0249
     6.5259   6.5259   6.5882   6.5882   6.7577   6.7577   6.8000   6.8000
     6.8523   6.8523   7.0321   7.0321   7.0857   7.0857   7.6800   7.6801
     7.6835   7.6835   7.8552   7.8552   7.8859   7.8859   8.1242   8.1242
    10.4600  10.4600  11.4224  11.4224  11.4645  11.4646  11.6608  11.6608
    11.7255  11.7255  12.5585  12.5586  12.7517  12.7518  12.8367  12.8367
    12.8869  12.8869  13.0689  13.0689  13.1332  13.1332  13.4081  13.4081
    15.0038  15.0038  15.4959  15.4959  15.8422  15.8422  15.9609  15.9609
    16.3841  16.3841  17.3346  17.3346  17.7513

          k = 0.1667 0.3308 0.0000 ( 62340 PWs)   bands (ev):

   -66.1575 -66.1572 -66.1570 -66.1569 -66.1567 -66.1566 -66.1564 -66.1561
   -30.5526 -30.5502 -30.5473 -30.5448 -30.5072 -30.5056 -30.5045 -30.5034
   -30.4884 -30.4881 -30.4846 -30.4830 -30.4536 -30.4497 -30.4485 -30.4430
   -30.4303 -30.4273 -30.4186 -30.4149 -30.4089 -30.4065 -30.4033 -30.4009
   -20.3346 -20.3346 -20.3340 -20.3340 -20.3331 -20.3331 -20.3325 -20.3325
   -20.3251 -20.3250 -20.3246 -20.3245 -20.3234 -20.3234 -20.3230 -20.3230
   -20.3036 -20.3035 -20.3027 -20.3025 -20.3025 -20.3024 -20.3014 -20.3013
   -20.2972 -20.2970 -20.2967 -20.2966 -20.2951 -20.2949 -20.2947 -20.2945
   -20.2783 -20.2783 -20.2776 -20.2775 -20.2774 -20.2774 -20.2757 -20.2756
   -20.2736 -20.2736 -20.2721 -20.2720 -20.2710 -20.2710 -20.2704 -20.2704
   -20.2627 -20.2627 -20.2626 -20.2625 -20.2616 -20.2615 -20.2615 -20.2614
    -9.7958  -9.5809  -9.4423  -9.3545  -9.2548  -9.1362  -8.8468  -8.8224
    -8.8197  -8.5935  -8.5780  -8.5630  -8.1554  -8.0456  -8.0424  -8.0058
    -7.9471  -7.9343  -7.8986  -7.8862  -7.7822  -7.7543  -7.7431  -7.7138
     1.3420   1.3446   1.3735   1.3744   1.7114   1.7217   1.7760   1.8093
     2.2644   2.3114   2.3870   2.4253   2.6530   2.6807   2.8632   2.8801
     2.8878   2.9181   3.4615   3.4900   3.6776   3.7252   4.1259   4.3006
     4.3262   4.4333   4.5340   4.7252   4.7962   4.8267   4.9260   4.9299
     5.1807   5.2052   5.3371   5.3879   5.4406   5.5802   5.5851   5.7037
     5.7311   5.7501   5.7506   5.9884   6.0593   6.0608   6.1711   6.2234
     6.3387   6.4157   6.4675   6.5905   6.7672   6.7845   6.8582   6.8731
     6.9296   6.9732   6.9750   6.9929   6.9983   7.0633   7.2578   7.2938
     7.3064   7.3491   7.9707   7.9963   8.1565   8.1741   8.2018   8.2298
     9.8500   9.8579  10.5052  10.5731  10.9363  11.0167  11.8968  11.9564
    12.2610  12.2814  12.3124  12.3537  12.6020  12.7456  12.9228  12.9301
    13.0886  13.2567  13.2571  13.3251  13.6103  13.7544  13.8083  13.8557
    14.4305  14.5738  14.7676  14.9969  15.1864  15.2761  15.6576  15.7744
    15.8007  17.1605  17.1778  17.3666  17.5675

          k = 0.1667 0.3308 0.1677 ( 62387 PWs)   bands (ev):

   -66.1575 -66.1572 -66.1570 -66.1570 -66.1566 -66.1566 -66.1564 -66.1561
   -30.5522 -30.5497 -30.5476 -30.5451 -30.5032 -30.5020 -30.4995 -30.4988
   -30.4887 -30.4869 -30.4850 -30.4818 -30.4549 -30.4512 -30.4479 -30.4423
   -30.4352 -30.4321 -30.4227 -30.4189 -30.4086 -30.4062 -30.4038 -30.4015
   -20.3345 -20.3345 -20.3339 -20.3339 -20.3332 -20.3332 -20.3327 -20.3326
   -20.3250 -20.3250 -20.3246 -20.3245 -20.3233 -20.3233 -20.3230 -20.3230
   -20.3036 -20.3034 -20.3027 -20.3026 -20.3025 -20.3024 -20.3015 -20.3014
   -20.2972 -20.2970 -20.2968 -20.2966 -20.2951 -20.2949 -20.2947 -20.2945
   -20.2783 -20.2783 -20.2775 -20.2775 -20.2774 -20.2774 -20.2758 -20.2758
   -20.2735 -20.2735 -20.2722 -20.2722 -20.2710 -20.2709 -20.2705 -20.2704
   -20.2627 -20.2626 -20.2625 -20.2624 -20.2617 -20.2616 -20.2615 -20.2614
    -9.7493  -9.5282  -9.3804  -9.3658  -9.1769  -9.1472  -8.8450  -8.8071
    -8.7910  -8.5867  -8.5725  -8.5568  -8.1780  -8.0633  -8.0421  -8.0091
    -7.9582  -7.9322  -7.9072  -7.8908  -7.8778  -7.8454  -7.8360  -7.8010
     1.5287   1.5347   1.5982   1.6065   1.7132   1.7293   1.8117   1.8578
     2.2701   2.3133   2.3851   2.4317   2.7295   2.7455   2.8637   2.8971
     2.9639   2.9893   3.4930   3.5223   3.6798   3.7153   4.1144   4.3451
     4.3765   4.4199   4.4728   4.5192   4.5478   4.8110   4.8596   4.9375
     4.9492   4.9694   5.2939   5.3472   5.3989   5.4628   5.4823   5.4913
     5.6152   5.6363   5.7250   5.7636   5.9005   5.9118   6.0420   6.0735
     6.5207   6.6019   6.6603   6.7034   6.7384   6.7626   6.8624   6.9261
     6.9449   6.9549   7.0129   7.0476   7.0753   7.1038   7.2526   7.3037
     7.3234   7.3584   7.9754   7.9895   8.1253   8.1322   8.1542   8.1876
    10.0914  10.1002  10.6851  10.7475  10.9471  11.0114  11.9836  12.0354
    12.2608  12.2875  12.3677  12.4086  12.6216  12.7071  12.7464  12.7601
    13.0322  13.1104  13.1908  13.2748  13.4822  13.6039  13.6640  13.7315
    14.7263  14.7837  15.0111  15.1033  15.3073  15.5578  15.6642  15.8891
    15.9052  17.1468  17.2426  17.4016  17.4819

          k = 0.1667 0.3308 0.3353 ( 62378 PWs)   bands (ev):

   -66.1574 -66.1571 -66.1570 -66.1569 -66.1567 -66.1566 -66.1565 -66.1562
   -30.5511 -30.5487 -30.5485 -30.5460 -30.4951 -30.4943 -30.4898 -30.4870
   -30.4861 -30.4855 -30.4807 -30.4763 -30.4596 -30.4570 -30.4488 -30.4457
   -30.4451 -30.4402 -30.4322 -30.4280 -30.4077 -30.4054 -30.4050 -30.4028
   -20.3343 -20.3343 -20.3337 -20.3337 -20.3335 -20.3335 -20.3330 -20.3330
   -20.3249 -20.3248 -20.3246 -20.3246 -20.3232 -20.3232 -20.3230 -20.3230
   -20.3034 -20.3032 -20.3029 -20.3027 -20.3023 -20.3021 -20.3017 -20.3016
   -20.2971 -20.2969 -20.2968 -20.2967 -20.2950 -20.2948 -20.2948 -20.2946
   -20.2782 -20.2781 -20.2777 -20.2777 -20.2772 -20.2771 -20.2762 -20.2761
   -20.2733 -20.2732 -20.2725 -20.2724 -20.2709 -20.2708 -20.2706 -20.2705
   -20.2624 -20.2624 -20.2623 -20.2622 -20.2619 -20.2618 -20.2618 -20.2616
    -9.6343  -9.4200  -9.3988  -9.2052  -9.1881  -8.9535  -8.8933  -8.7184
    -8.6888  -8.5957  -8.5271  -8.5150  -8.3208  -8.2089  -8.1421  -8.1121
    -8.0403  -8.0163  -7.9847  -7.9558  -7.9238  -7.9085  -7.8966  -7.8936
     1.6793   1.6947   1.7081   1.7248   2.1131   2.1732   2.2269   2.2754
     2.3317   2.3606   2.4326   2.5398   2.8109   2.8712   2.9462   3.0441
     3.1402   3.1753   3.4992   3.5444   3.6758   3.7113   3.9884   3.9929
     4.1042   4.3220   4.3468   4.4048   4.4568   4.5287   4.5671   4.7899
     4.8214   4.8547   4.9282   4.9589   5.0514   5.1187   5.2187   5.2317
     5.4268   5.4944   5.5151   5.6270   5.6916   5.7719   5.8385   5.8525
     6.5987   6.6636   6.6978   6.7351   6.8196   6.8713   6.9252   6.9448
     7.0316   7.1542   7.1865   7.2201   7.2576   7.2951   7.3572   7.3708
     7.4249   7.4528   7.9375   7.9783   7.9840   8.0130   8.0202   8.0669
    10.6789  10.7004  10.9718  10.9928  11.1874  11.2300  12.1365  12.1549
    12.2288  12.2738  12.3006  12.3269  12.5331  12.5650  12.5975  12.6446
    12.7018  12.7605  13.1215  13.1645  13.2031  13.2731  13.3569  13.3864
    15.0820  15.1742  15.2225  15.4809  15.6189  15.9617  16.1850  16.3666
    16.5609  16.8861  17.0394  17.4893  17.5044

          k = 0.1667 0.3308-0.5030 ( 62348 PWs)   bands (ev):

   -66.1572 -66.1572 -66.1569 -66.1569 -66.1567 -66.1567 -66.1564 -66.1564
   -30.5498 -30.5498 -30.5473 -30.5473 -30.4915 -30.4915 -30.4887 -30.4886
   -30.4710 -30.4710 -30.4682 -30.4682 -30.4674 -30.4674 -30.4623 -30.4623
   -30.4409 -30.4409 -30.4360 -30.4360 -30.4064 -30.4064 -30.4042 -30.4041
   -20.3339 -20.3339 -20.3339 -20.3339 -20.3334 -20.3334 -20.3334 -20.3333
   -20.3247 -20.3247 -20.3247 -20.3247 -20.3231 -20.3231 -20.3231 -20.3231
   -20.3031 -20.3031 -20.3030 -20.3030 -20.3020 -20.3020 -20.3019 -20.3018
   -20.2970 -20.2970 -20.2968 -20.2968 -20.2949 -20.2949 -20.2947 -20.2947
   -20.2780 -20.2779 -20.2779 -20.2779 -20.2767 -20.2767 -20.2766 -20.2766
   -20.2729 -20.2729 -20.2728 -20.2728 -20.2707 -20.2707 -20.2707 -20.2707
   -20.2622 -20.2621 -20.2621 -20.2621 -20.2620 -20.2620 -20.2619 -20.2619
    -9.5092  -9.5092  -9.2700  -9.2700  -9.0131  -9.0131  -8.6379  -8.6378
    -8.6233  -8.6233  -8.4813  -8.4813  -8.3975  -8.3975  -8.3669  -8.3668
    -8.0352  -8.0352  -7.9902  -7.9902  -7.9128  -7.9128  -7.9047  -7.9047
     1.6977   1.6977   1.7175   1.7175   2.2492   2.2492   2.3405   2.3405
     2.7810   2.7810   2.9602   2.9602   2.9934   2.9934   3.0619   3.0619
     3.1382   3.1382   3.4513   3.4513   3.5951   3.5951   3.7451   3.7451
     4.1166   4.1166   4.1711   4.1711   4.1899   4.1899   4.3996   4.3996
     4.8024   4.8024   4.9783   4.9783   5.0265   5.0265   5.1185   5.1185
     5.2149   5.2149   5.5722   5.5722   5.6845   5.6845   5.7787   5.7787
     6.6730   6.6730   6.7300   6.7300   6.7728   6.7729   6.9447   6.9447
     7.1754   7.1754   7.2497   7.2497   7.3168   7.3168   7.6593   7.6593
     7.6941   7.6941   7.7779   7.7779   7.7987   7.7987   8.0024   8.0024
    10.9608  10.9608  11.4323  11.4323  11.4722  11.4722  11.8353  11.8353
    11.9089  11.9089  12.3351  12.3351  12.6345  12.6345  12.6901  12.6901
    12.7458  12.7458  12.8733  12.8733  12.9682  12.9683  13.2805  13.2805
    15.1653  15.1653  15.4343  15.4343  16.2921  16.2921  16.6757  16.6757
    16.8261  16.8261  16.9951  16.9951  17.7123

          k = 0.1667-0.4962 0.0000 ( 62450 PWs)   bands (ev):

   -66.1574 -66.1574 -66.1569 -66.1569 -66.1568 -66.1567 -66.1562 -66.1562
   -30.5514 -30.5514 -30.5460 -30.5460 -30.5064 -30.5064 -30.5038 -30.5038
   -30.4862 -30.4862 -30.4849 -30.4849 -30.4381 -30.4381 -30.4354 -30.4353
   -30.4290 -30.4290 -30.4254 -30.4254 -30.4150 -30.4150 -30.4115 -30.4115
   -20.3346 -20.3346 -20.3340 -20.3340 -20.3331 -20.3331 -20.3325 -20.3325
   -20.3250 -20.3250 -20.3245 -20.3245 -20.3234 -20.3234 -20.3230 -20.3230
   -20.3036 -20.3036 -20.3026 -20.3026 -20.3025 -20.3025 -20.3013 -20.3013
   -20.2971 -20.2971 -20.2967 -20.2967 -20.2950 -20.2950 -20.2946 -20.2946
   -20.2778 -20.2778 -20.2778 -20.2778 -20.2764 -20.2764 -20.2764 -20.2764
   -20.2725 -20.2725 -20.2724 -20.2724 -20.2714 -20.2714 -20.2714 -20.2714
   -20.2627 -20.2627 -20.2625 -20.2625 -20.2615 -20.2615 -20.2614 -20.2614
    -9.6748  -9.6748  -9.3293  -9.3293  -9.2221  -9.2221  -8.8303  -8.8303
    -8.4857  -8.4857  -8.3503  -8.3503  -8.3376  -8.3376  -8.3084  -8.3084
    -7.9691  -7.9691  -7.9168  -7.9168  -7.7723  -7.7723  -7.7328  -7.7328
     1.3432   1.3432   1.3747   1.3747   1.7211   1.7211   1.8017   1.8017
     2.6596   2.6596   2.9325   2.9325   2.9941   2.9942   3.0245   3.0245
     3.1813   3.1813   3.3239   3.3239   3.5673   3.5673   3.6087   3.6087
     3.7629   3.7629   4.3223   4.3223   4.7672   4.7672   5.0956   5.0956
     5.1781   5.1781   5.4053   5.4053   5.4693   5.4693   5.4923   5.4923
     5.6235   5.6235   5.8710   5.8710   6.0314   6.0314   6.1014   6.1014
     6.4489   6.4489   6.5247   6.5247   6.7274   6.7274   6.8866   6.8866
     6.9257   6.9257   6.9929   6.9929   7.0632   7.0632   7.6770   7.6770
     7.6856   7.6856   7.7426   7.7426   7.7890   7.7890   8.2094   8.2094
     9.8619   9.8619  11.2215  11.2215  11.2528  11.2528  11.6158  11.6158
    11.6893  11.6893  12.3251  12.3251  12.8385  12.8385  12.9253  12.9253
    13.0042  13.0042  13.4193  13.4193  13.5094  13.5094  13.7928  13.7928
    14.5524  14.5525  15.0401  15.0401  15.2870  15.2871  15.5055  15.5055
    16.5883  16.5883  17.7041  17.7042  17.9247

          k = 0.1667-0.4962 0.1677 ( 62398 PWs)   bands (ev):

   -66.1573 -66.1573 -66.1568 -66.1568 -66.1568 -66.1568 -66.1563 -66.1563
   -30.5509 -30.5509 -30.5464 -30.5463 -30.5025 -30.5025 -30.4990 -30.4989
   -30.4865 -30.4865 -30.4837 -30.4837 -30.4411 -30.4409 -30.4385 -30.4383
   -30.4286 -30.4285 -30.4250 -30.4250 -30.4173 -30.4172 -30.4140 -30.4139
   -20.3345 -20.3345 -20.3339 -20.3339 -20.3332 -20.3332 -20.3327 -20.3327
   -20.3250 -20.3250 -20.3245 -20.3245 -20.3233 -20.3233 -20.3230 -20.3230
   -20.3035 -20.3035 -20.3026 -20.3026 -20.3024 -20.3024 -20.3014 -20.3014
   -20.2971 -20.2971 -20.2967 -20.2967 -20.2950 -20.2950 -20.2946 -20.2946
   -20.2777 -20.2777 -20.2777 -20.2777 -20.2765 -20.2765 -20.2765 -20.2765
   -20.2724 -20.2724 -20.2724 -20.2724 -20.2715 -20.2715 -20.2715 -20.2715
   -20.2626 -20.2626 -20.2625 -20.2625 -20.2616 -20.2616 -20.2615 -20.2615
    -9.6244  -9.6243  -9.2575  -9.2558  -9.2344  -9.2327  -8.8009  -8.8006
    -8.5018  -8.5017  -8.3544  -8.3531  -8.3355  -8.3352  -8.3063  -8.3056
    -7.9700  -7.9692  -7.9227  -7.9220  -7.8700  -7.8668  -7.8348  -7.8305
     1.5314   1.5321   1.6051   1.6053   1.7241   1.7257   1.8471   1.8489
     2.7314   2.7425   2.9279   2.9662   2.9831   3.0135   3.0405   3.0443
     3.2143   3.2301   3.3029   3.3322   3.5892   3.5976   3.6077   3.6137
     3.7691   3.7825   4.3664   4.3893   4.4934   4.4982   5.0525   5.0942
     5.1526   5.1609   5.1770   5.2291   5.2521   5.2722   5.4440   5.4563
[...]
    12.0664  12.0664  12.0664  12.0664  12.1773  12.1773  12.1773  12.1773
    13.0617  13.0617  13.0617  13.0617  13.1906  13.1906  13.1906  13.1906
    15.6298  15.6298  15.6298  15.6298  16.6193  16.6193  16.6193  16.6193
    17.2000  17.2000  17.2000  17.2000  17.2869

          k =-0.5000 0.3308 0.0000 ( 62344 PWs)   bands (ev):

   -66.1573 -66.1573 -66.1569 -66.1569 -66.1567 -66.1567 -66.1563 -66.1563
   -30.5244 -30.5244 -30.5228 -30.5228 -30.5178 -30.5178 -30.5151 -30.5151
   -30.5002 -30.5002 -30.4997 -30.4997 -30.4518 -30.4518 -30.4461 -30.4461
   -30.4288 -30.4288 -30.4169 -30.4169 -30.4076 -30.4076 -30.4020 -30.4020
   -20.3343 -20.3343 -20.3343 -20.3343 -20.3328 -20.3328 -20.3328 -20.3328
   -20.3242 -20.3242 -20.3242 -20.3242 -20.3238 -20.3238 -20.3237 -20.3237
   -20.3031 -20.3031 -20.3029 -20.3029 -20.3020 -20.3020 -20.3019 -20.3019
   -20.2962 -20.2962 -20.2960 -20.2960 -20.2958 -20.2958 -20.2956 -20.2956
   -20.2783 -20.2783 -20.2776 -20.2776 -20.2774 -20.2774 -20.2756 -20.2756
   -20.2736 -20.2736 -20.2721 -20.2721 -20.2710 -20.2710 -20.2704 -20.2704
   -20.2626 -20.2626 -20.2626 -20.2626 -20.2616 -20.2616 -20.2614 -20.2614
    -9.5772  -9.5772  -9.3655  -9.3655  -9.0079  -9.0079  -8.6646  -8.6646
    -8.6084  -8.6084  -8.5057  -8.5057  -8.4324  -8.4323  -8.3946  -8.3946
    -8.0203  -8.0203  -7.9580  -7.9580  -7.7645  -7.7645  -7.7343  -7.7343
     1.3680   1.3680   1.3731   1.3731   2.2527   2.2527   2.3412   2.3412
     2.8620   2.8620   2.9421   2.9421   3.0055   3.0055   3.1219   3.1219
     3.1419   3.1419   3.3738   3.3738   3.4533   3.4533   3.5451   3.5451
     4.0509   4.0509   4.0866   4.0866   4.2984   4.2984   4.5063   4.5063
     4.9575   4.9575   5.0784   5.0784   5.1392   5.1392   5.2772   5.2772
     5.4099   5.4099   5.9028   5.9028   6.0657   6.0657   6.2122   6.2122
     6.5015   6.5015   6.5671   6.5671   6.6268   6.6268   6.8585   6.8585
     7.0889   7.0889   7.1671   7.1671   7.2587   7.2587   7.6345   7.6345
     7.6665   7.6665   7.7510   7.7510   7.7560   7.7561   8.1836   8.1836
    10.4954  10.4954  11.1684  11.1684  11.2324  11.2324  11.8328  11.8328
    11.9035  11.9035  12.0090  12.0090  12.7552  12.7552  12.8210  12.8210
    13.1725  13.1725  13.2872  13.2872  13.3725  13.3725  13.7686  13.7686
    14.6583  14.6583  14.9937  14.9937  16.2336  16.2336  16.4970  16.4970
    16.5876  16.5876  16.9846  16.9846  17.5952

          k =-0.5000 0.3308 0.1677 ( 62362 PWs)   bands (ev):

   -66.1572 -66.1572 -66.1569 -66.1569 -66.1567 -66.1567 -66.1564 -66.1564
   -30.5236 -30.5236 -30.5218 -30.5218 -30.5180 -30.5180 -30.5154 -30.5154
   -30.4960 -30.4960 -30.4956 -30.4956 -30.4531 -30.4531 -30.4455 -30.4455
   -30.4336 -30.4336 -30.4209 -30.4209 -30.4073 -30.4073 -30.4026 -30.4026
   -20.3342 -20.3342 -20.3342 -20.3342 -20.3330 -20.3330 -20.3329 -20.3329
   -20.3242 -20.3242 -20.3241 -20.3241 -20.3238 -20.3238 -20.3237 -20.3237
   -20.3030 -20.3030 -20.3029 -20.3029 -20.3021 -20.3021 -20.3020 -20.3019
   -20.2962 -20.2962 -20.2960 -20.2960 -20.2958 -20.2958 -20.2956 -20.2956
   -20.2782 -20.2782 -20.2775 -20.2775 -20.2774 -20.2774 -20.2758 -20.2758
   -20.2735 -20.2735 -20.2722 -20.2722 -20.2709 -20.2709 -20.2704 -20.2704
   -20.2626 -20.2626 -20.2625 -20.2625 -20.2616 -20.2616 -20.2615 -20.2615
    -9.5181  -9.5181  -9.2934  -9.2934  -9.0241  -9.0241  -8.6561  -8.6561
    -8.6094  -8.6094  -8.4964  -8.4964  -8.4301  -8.4301  -8.3967  -8.3967
    -8.0357  -8.0356  -7.9614  -7.9614  -7.8670  -7.8670  -7.8206  -7.8206
     1.5975   1.5975   1.6091   1.6091   2.2596   2.2596   2.3363   2.3363
     2.9053   2.9053   2.9551   2.9551   3.0028   3.0028   3.1249   3.1249
     3.1482   3.1482   3.4420   3.4420   3.5234   3.5234   3.5982   3.5982
     4.0465   4.0465   4.0920   4.0920   4.2870   4.2870   4.5081   4.5081
     4.8750   4.8750   4.9264   4.9264   5.0177   5.0177   5.0935   5.0935
     5.1753   5.1753   5.6140   5.6140   5.7254   5.7254   5.9542   5.9543
     6.7115   6.7115   6.8169   6.8169   6.8443   6.8443   6.9683   6.9683
     7.0961   7.0961   7.1811   7.1811   7.2797   7.2798   7.6229   7.6230
     7.6569   7.6569   7.7532   7.7532   7.7554   7.7554   8.1481   8.1481
    10.6728  10.6728  11.2688  11.2688  11.3329  11.3329  11.8440  11.8440
    11.9193  11.9193  12.0737  12.0737  12.7425  12.7425  12.8197  12.8197
    13.0129  13.0129  13.1136  13.1136  13.2008  13.2008  13.6187  13.6187
    15.0046  15.0046  15.3638  15.3638  16.3242  16.3242  16.5109  16.5109
    16.5989  16.5989  17.0296  17.0296  17.5510

          k =-0.5000 0.3308 0.3353 ( 62340 PWs)   bands (ev):

   -66.1571 -66.1571 -66.1568 -66.1568 -66.1568 -66.1568 -66.1565 -66.1565
   -30.5219 -30.5219 -30.5199 -30.5199 -30.5188 -30.5188 -30.5164 -30.5164
   -30.4844 -30.4844 -30.4833 -30.4833 -30.4582 -30.4582 -30.4471 -30.4471
   -30.4432 -30.4432 -30.4304 -30.4304 -30.4064 -30.4064 -30.4038 -30.4038
   -20.3340 -20.3340 -20.3340 -20.3340 -20.3333 -20.3333 -20.3332 -20.3332
   -20.3241 -20.3241 -20.3240 -20.3240 -20.3238 -20.3238 -20.3238 -20.3238
   -20.3028 -20.3028 -20.3027 -20.3027 -20.3023 -20.3023 -20.3021 -20.3021
   -20.2961 -20.2961 -20.2960 -20.2959 -20.2959 -20.2959 -20.2957 -20.2957
   -20.2781 -20.2781 -20.2777 -20.2777 -20.2771 -20.2771 -20.2762 -20.2762
   -20.2732 -20.2732 -20.2725 -20.2725 -20.2708 -20.2708 -20.2705 -20.2705
   -20.2624 -20.2624 -20.2623 -20.2623 -20.2618 -20.2618 -20.2617 -20.2617
    -9.3667  -9.3667  -9.1022  -9.1022  -9.0756  -9.0756  -8.6987  -8.6987
    -8.5471  -8.5471  -8.4627  -8.4627  -8.4242  -8.4242  -8.4011  -8.4011
    -8.1657  -8.1657  -8.1138  -8.1138  -7.9656  -7.9656  -7.9322  -7.9322
     2.1129   2.1129   2.2254   2.2254   2.2760   2.2760   2.4147   2.4147
     2.9277   2.9277   2.9571   2.9571   3.0724   3.0724   3.1303   3.1303
     3.2023   3.2023   3.5095   3.5095   3.7219   3.7219   3.7786   3.7786
     4.0202   4.0202   4.1179   4.1179   4.2428   4.2428   4.3794   4.3794
     4.4780   4.4780   4.5783   4.5784   4.7281   4.7281   4.9319   4.9319
     4.9509   4.9509   5.0023   5.0023   5.1765   5.1765   5.4939   5.4939
     6.9691   6.9691   7.0569   7.0569   7.0724   7.0724   7.1393   7.1394
     7.2288   7.2288   7.2934   7.2934   7.4070   7.4070   7.5801   7.5801
     7.6251   7.6251   7.7452   7.7452   7.7689   7.7689   8.0320   8.0320
    11.1536  11.1536  11.5611  11.5611  11.6384  11.6384  11.8571  11.8571
    11.9435  11.9435  12.3039  12.3039  12.4627  12.4627  12.6655  12.6655
    12.7130  12.7130  12.8378  12.8378  12.8505  12.8505  13.2235  13.2235
    15.8176  15.8177  16.2485  16.2485  16.5244  16.5244  16.5749  16.5749
    16.6910  16.6910  17.1368  17.1368  17.3630

          k =-0.5000 0.3308-0.5030 ( 62312 PWs)   bands (ev):

   -66.1570 -66.1570 -66.1570 -66.1570 -66.1566 -66.1566 -66.1566 -66.1566
   -30.5204 -30.5204 -30.5204 -30.5203 -30.5178 -30.5178 -30.5178 -30.5177
   -30.4696 -30.4696 -30.4696 -30.4696 -30.4653 -30.4653 -30.4653 -30.4653
   -30.4388 -30.4388 -30.4388 -30.4388 -30.4052 -30.4052 -30.4052 -30.4052
   -20.3337 -20.3337 -20.3337 -20.3337 -20.3336 -20.3336 -20.3336 -20.3335
   -20.3240 -20.3240 -20.3240 -20.3240 -20.3238 -20.3238 -20.3238 -20.3238
   -20.3026 -20.3026 -20.3025 -20.3025 -20.3024 -20.3024 -20.3024 -20.3024
   -20.2960 -20.2960 -20.2960 -20.2960 -20.2958 -20.2958 -20.2958 -20.2958
   -20.2779 -20.2779 -20.2779 -20.2779 -20.2767 -20.2767 -20.2766 -20.2766
   -20.2729 -20.2729 -20.2729 -20.2728 -20.2707 -20.2707 -20.2707 -20.2707
   -20.2621 -20.2621 -20.2621 -20.2621 -20.2620 -20.2620 -20.2620 -20.2620
    -9.1974  -9.1974  -9.1974  -9.1974  -8.8542  -8.8542  -8.8542  -8.8542
    -8.4233  -8.4233  -8.4233  -8.4233  -8.3824  -8.3824  -8.3824  -8.3824
    -8.3476  -8.3476  -8.3476  -8.3476  -7.9584  -7.9584  -7.9584  -7.9584
     2.2515   2.2516   2.2516   2.2516   2.8280   2.8280   2.8280   2.8280
     2.9474   2.9474   2.9474   2.9474   3.0789   3.0789   3.0789   3.0789
     3.2732   3.2732   3.2732   3.2732   3.9409   3.9409   3.9409   3.9409
     4.0513   4.0513   4.0513   4.0513   4.1927   4.1927   4.1927   4.1927
     4.3098   4.3098   4.3098   4.3098   4.4904   4.4904   4.4904   4.4904
     4.8399   4.8399   4.8399   4.8399   5.2260   5.2260   5.2260   5.2260
     7.0581   7.0581   7.0581   7.0581   7.1525   7.1525   7.1525   7.1525
     7.3840   7.3840   7.3840   7.3840   7.5444   7.5444   7.5444   7.5444
     7.6958   7.6958   7.6958   7.6958   7.8411   7.8411   7.8412   7.8412
    11.7390  11.7390  11.7390  11.7390  11.9035  11.9035  11.9035  11.9035
    12.0971  12.0971  12.0971  12.0971  12.1996  12.1996  12.1996  12.1996
    12.7108  12.7108  12.7108  12.7108  12.8537  12.8537  12.8537  12.8537
    16.3896  16.3896  16.3896  16.3896  16.8292  16.8293  16.8293  16.8293
    17.2125  17.2131  17.2132  17.2132  17.2848

          k =-0.5000-0.4962 0.0000 ( 62344 PWs)   bands (ev):

   -66.1571 -66.1571 -66.1571 -66.1571 -66.1565 -66.1565 -66.1565 -66.1565
   -30.5237 -30.5237 -30.5233 -30.5233 -30.5167 -30.5167 -30.5160 -30.5160
   -30.5000 -30.5000 -30.4995 -30.4995 -30.4369 -30.4369 -30.4364 -30.4364
   -30.4279 -30.4279 -30.4264 -30.4264 -30.4136 -30.4136 -30.4130 -30.4130
   -20.3343 -20.3343 -20.3343 -20.3343 -20.3328 -20.3328 -20.3328 -20.3328
   -20.3242 -20.3242 -20.3242 -20.3242 -20.3238 -20.3238 -20.3237 -20.3237
   -20.3030 -20.3030 -20.3030 -20.3030 -20.3019 -20.3019 -20.3019 -20.3019
   -20.2962 -20.2962 -20.2961 -20.2961 -20.2957 -20.2957 -20.2957 -20.2957
   -20.2778 -20.2778 -20.2778 -20.2778 -20.2764 -20.2764 -20.2763 -20.2763
   -20.2725 -20.2725 -20.2724 -20.2724 -20.2714 -20.2714 -20.2714 -20.2714
   -20.2626 -20.2626 -20.2626 -20.2626 -20.2615 -20.2615 -20.2615 -20.2615
    -9.4621  -9.4621  -9.4448  -9.4447  -8.8030  -8.8030  -8.7280  -8.7280
    -8.5752  -8.5751  -8.5199  -8.5199  -8.3274  -8.3274  -8.2942  -8.2942
    -8.2378  -8.2377  -8.2144  -8.2144  -7.7544  -7.7544  -7.7532  -7.7532
     1.3689   1.3689   1.3734   1.3734   2.8613   2.8613   2.8991   2.8991
     2.9079   2.9079   2.9515   2.9515   3.0930   3.0930   3.2369   3.2370
     3.2586   3.2586   3.3523   3.3523   3.3922   3.3922   3.4949   3.4949
     3.5250   3.5250   3.8064   3.8064   4.3566   4.3566   4.4528   4.4528
     4.4835   4.4835   4.5303   4.5303   5.2180   5.2180   5.2629   5.2629
     5.5240   5.5240   5.7234   5.7234   6.0835   6.0835   6.1098   6.1098
     6.5619   6.5619   6.6033   6.6033   6.6880   6.6880   6.7245   6.7245
     7.2892   7.2892   7.3253   7.3253   7.5643   7.5643   7.5654   7.5654
     7.7022   7.7022   7.7219   7.7219   7.8024   7.8024   7.8504   7.8505
    11.0295  11.0295  11.1318  11.1318  11.2937  11.2937  11.4288  11.4288
    12.1268  12.1268  12.2918  12.2918  12.3873  12.3873  12.4595  12.4595
    13.1873  13.1873  13.2932  13.2932  13.4957  13.4957  13.5516  13.5516
    14.8620  14.8620  14.8964  14.8964  16.4245  16.4245  16.6729  16.6730
    17.1733  17.1733  17.1905  17.1905  17.3545

          k =-0.5000-0.4962 0.1677 ( 62364 PWs)   bands (ev):

   -66.1571 -66.1571 -66.1571 -66.1571 -66.1565 -66.1565 -66.1565 -66.1565
   -30.5228 -30.5228 -30.5223 -30.5223 -30.5170 -30.5170 -30.5163 -30.5163
   -30.4958 -30.4958 -30.4953 -30.4953 -30.4399 -30.4399 -30.4394 -30.4394
   -30.4275 -30.4275 -30.4260 -30.4260 -30.4161 -30.4161 -30.4153 -30.4153
   -20.3342 -20.3342 -20.3342 -20.3342 -20.3329 -20.3329 -20.3329 -20.3329
   -20.3242 -20.3242 -20.3242 -20.3241 -20.3238 -20.3238 -20.3237 -20.3237
   -20.3029 -20.3029 -20.3029 -20.3029 -20.3020 -20.3020 -20.3020 -20.3020
   -20.2962 -20.2962 -20.2961 -20.2961 -20.2958 -20.2958 -20.2957 -20.2957
   -20.2777 -20.2777 -20.2777 -20.2777 -20.2765 -20.2765 -20.2764 -20.2764
   -20.2724 -20.2724 -20.2723 -20.2723 -20.2715 -20.2715 -20.2715 -20.2715
   -20.2626 -20.2626 -20.2625 -20.2625 -20.2616 -20.2616 -20.2616 -20.2616
    -9.3958  -9.3958  -9.3762  -9.3762  -8.8192  -8.8192  -8.7464  -8.7464
    -8.5602  -8.5602  -8.5076  -8.5076  -8.3266  -8.3266  -8.2959  -8.2959
    -8.2370  -8.2370  -8.2171  -8.2171  -7.8547  -7.8547  -7.8531  -7.8531
     1.6031   1.6031   1.6085   1.6085   2.8620   2.8620   2.9078   2.9078
     2.9130   2.9130   2.9542   2.9542   3.1046   3.1046   3.2188   3.2189
     3.3006   3.3006   3.4152   3.4152   3.4315   3.4315   3.5124   3.5124
     3.5823   3.5823   3.8424   3.8424   4.3593   4.3593   4.4467   4.4467
     4.4894   4.4894   4.5173   4.5173   4.9812   4.9812   5.0232   5.0232
     5.2475   5.2475   5.4297   5.4297   5.7552   5.7552   5.7729   5.7729
     6.7783   6.7783   6.8048   6.8048   6.8952   6.8952   6.9754   6.9754
     7.2877   7.2877   7.3387   7.3387   7.5496   7.5496   7.5663   7.5663
     7.7010   7.7010   7.7237   7.7238   7.7861   7.7862   7.8389   7.8389
    11.1388  11.1388  11.2444  11.2444  11.3931  11.3931  11.5340  11.5340
    12.1409  12.1409  12.2899  12.2899  12.3935  12.3935  12.4547  12.4547
    13.0230  13.0230  13.1183  13.1183  13.3226  13.3226  13.3891  13.3891
    15.2405  15.2405  15.2520  15.2520  16.4953  16.4953  16.7359  16.7359
    17.1590  17.1590  17.1966  17.1966  17.3677

          k =-0.5000-0.4962 0.3353 ( 62312 PWs)   bands (ev):

   -66.1570 -66.1570 -66.1570 -66.1570 -66.1567 -66.1567 -66.1566 -66.1566
   -30.5210 -30.5210 -30.5204 -30.5204 -30.5179 -30.5179 -30.5172 -30.5172
   -30.4835 -30.4835 -30.4832 -30.4832 -30.4500 -30.4500 -30.4497 -30.4497
   -30.4262 -30.4262 -30.4248 -30.4248 -30.4206 -30.4206 -30.4195 -30.4195
   -20.3340 -20.3340 -20.3340 -20.3340 -20.3333 -20.3333 -20.3332 -20.3332
   -20.3241 -20.3241 -20.3240 -20.3240 -20.3238 -20.3238 -20.3238 -20.3238
   -20.3027 -20.3027 -20.3027 -20.3027 -20.3022 -20.3022 -20.3022 -20.3022
   -20.2961 -20.2961 -20.2960 -20.2960 -20.2959 -20.2959 -20.2958 -20.2958
   -20.2775 -20.2775 -20.2774 -20.2774 -20.2768 -20.2767 -20.2767 -20.2767
   -20.2722 -20.2722 -20.2722 -20.2722 -20.2717 -20.2717 -20.2716 -20.2716
   -20.2623 -20.2623 -20.2623 -20.2623 -20.2618 -20.2618 -20.2618 -20.2618
    -9.2206  -9.2206  -9.1928  -9.1928  -8.8792  -8.8792  -8.8150  -8.8150
    -8.5059  -8.5059  -8.4638  -8.4638  -8.3298  -8.3298  -8.2970  -8.2970
    -8.2501  -8.2501  -8.2192  -8.2192  -8.0828  -8.0828  -8.0799  -8.0799
     2.2056   2.2056   2.2191   2.2191   2.8495   2.8495   2.9063   2.9064
     2.9464   2.9464   2.9692   2.9692   3.1432   3.1432   3.2097   3.2097
     3.3460   3.3460   3.4549   3.4549   3.5316   3.5316   3.5559   3.5559
     3.8002   3.8002   3.9794   3.9794   4.3588   4.3588   4.4239   4.4239
     4.4450   4.4450   4.4974   4.4974   4.5846   4.5846   4.6087   4.6087
     4.7612   4.7612   4.9445   4.9445   5.0425   5.0425   5.0758   5.0758
     7.1067   7.1067   7.1133   7.1133   7.1636   7.1636   7.2589   7.2589
     7.3407   7.3407   7.4019   7.4019   7.5054   7.5054   7.5735   7.5735
     7.6881   7.6881   7.7156   7.7156   7.7527   7.7527   7.8019   7.8019
    11.4578  11.4578  11.5645  11.5645  11.7053  11.7053  11.8479  11.8479
    12.1438  12.1438  12.2839  12.2839  12.3859  12.3859  12.4361  12.4361
    12.6374  12.6374  12.6913  12.6913  12.8667  12.8667  12.9487  12.9487
    16.1136  16.1136  16.1743  16.1743  16.6857  16.6857  16.8867  16.8868
    17.1218  17.1218  17.1682  17.1682  17.4275

          k =-0.5000-0.4962-0.5030 ( 62304 PWs)   bands (ev):

   -66.1568 -66.1568 -66.1568 -66.1568 -66.1568 -66.1568 -66.1568 -66.1568
   -30.5195 -30.5195 -30.5194 -30.5194 -30.5185 -30.5184 -30.5184 -30.5184
   -30.4667 -30.4667 -30.4667 -30.4666 -30.4658 -30.4658 -30.4658 -30.4658
   -30.4240 -30.4240 -30.4240 -30.4240 -30.4227 -30.4227 -30.4227 -30.4227
   -20.3337 -20.3337 -20.3337 -20.3337 -20.3336 -20.3336 -20.3336 -20.3335
   -20.3240 -20.3240 -20.3240 -20.3240 -20.3238 -20.3238 -20.3238 -20.3238
   -20.3025 -20.3025 -20.3025 -20.3025 -20.3025 -20.3025 -20.3025 -20.3024
   -20.2960 -20.2960 -20.2960 -20.2960 -20.2959 -20.2959 -20.2959 -20.2959
   -20.2772 -20.2772 -20.2772 -20.2772 -20.2771 -20.2771 -20.2770 -20.2770
   -20.2720 -20.2720 -20.2720 -20.2720 -20.2719 -20.2719 -20.2719 -20.2719
   -20.2621 -20.2621 -20.2621 -20.2620 -20.2620 -20.2620 -20.2620 -20.2620
    -9.0169  -9.0169  -9.0169  -9.0169  -8.9691  -8.9690  -8.9690  -8.9690
    -8.3914  -8.3914  -8.3914  -8.3914  -8.3668  -8.3668  -8.3668  -8.3668
    -8.2610  -8.2610  -8.2610  -8.2610  -8.1985  -8.1985  -8.1985  -8.1985
     2.7249   2.7249   2.7249   2.7249   2.8311   2.8311   2.8311   2.8311
     3.0381   3.0381   3.0381   3.0381   3.2091   3.2091   3.2091   3.2091
     3.3217   3.3217   3.3217   3.3217   3.4828   3.4828   3.4828   3.4828
     4.1737   4.1737   4.1737   4.1737   4.2799   4.2799   4.2799   4.2799
     4.3737   4.3737   4.3737   4.3737   4.4385   4.4385   4.4385   4.4385
     4.5809   4.5809   4.5809   4.5809   4.6868   4.6868   4.6868   4.6868
     7.2300   7.2300   7.2300   7.2300   7.2927   7.2927   7.2927   7.2927
     7.4374   7.4374   7.4375   7.4375   7.5651   7.5651   7.5651   7.5651
     7.6608   7.6608   7.6608   7.6608   7.7599   7.7599   7.7599   7.7599
    11.8835  11.8835  11.8835  11.8835  12.0279  12.0279  12.0279  12.0279
    12.2246  12.2246  12.2246  12.2246  12.3002  12.3002  12.3002  12.3002
    12.4309  12.4309  12.4309  12.4309  12.5016  12.5016  12.5016  12.5016
    16.7739  16.7739  16.7739  16.7739  17.0078  17.0078  17.0078  17.0078
    17.2706  17.2707  17.2707  17.2708  17.3306

     the Fermi energy is     9.5912 ev

!    total energy              =   -6260.93050844 Ry
     Harris-Foulkes estimate   =   -6260.93050844 Ry
     estimated scf accuracy    <          1.9E-09 Ry

     The total energy is the sum of the following terms:

     one-electron contribution =   -4722.29058730 Ry
     hartree contribution      =    2598.25592143 Ry
     xc contribution           =    -965.75239025 Ry
     ewald contribution        =   -3171.14344460 Ry
     smearing contrib. (-TS)   =      -0.00000773 Ry

     convergence has been achieved in  13 iterations

     Writing output data file Landau_36.save/
 
     init_run     :     45.61s CPU     47.90s WALL (       1 calls)
     electrons    :   1826.25s CPU   1862.25s WALL (       1 calls)

     Called by init_run:
     wfcinit      :     42.79s CPU     44.91s WALL (       1 calls)
     potinit      :      1.08s CPU      1.12s WALL (       1 calls)
     hinit0       :      1.51s CPU      1.57s WALL (       1 calls)

     Called by electrons:
     c_bands      :   1637.27s CPU   1670.56s WALL (      13 calls)
     sum_band     :    183.79s CPU    185.54s WALL (      13 calls)
     v_of_rho     :      1.41s CPU      1.49s WALL (      14 calls)
     mix_rho      :      2.32s CPU      3.02s WALL (      13 calls)

     Called by c_bands:
     init_us_2    :      7.95s CPU      9.04s WALL (      54 calls)
     cegterg      :   1399.10s CPU   1429.42s WALL (      26 calls)

     Called by sum_band:

     Called by *egterg:
     h_psi        :   1018.24s CPU   1033.76s WALL (     129 calls)
     g_psi        :      1.52s CPU      1.53s WALL (     101 calls)
     cdiaghg      :     20.99s CPU     21.14s WALL (     127 calls)

     Called by h_psi:
     h_psi:pot    :   1015.52s CPU   1024.64s WALL (     129 calls)
     h_psi:calbec :    169.75s CPU    174.00s WALL (     129 calls)
     vloc_psi     :    671.07s CPU    674.17s WALL (     129 calls)
     add_vuspsi   :    174.69s CPU    176.46s WALL (     129 calls)

     General routines
     calbec       :    169.75s CPU    174.00s WALL (     129 calls)
     fft          :      0.89s CPU      0.90s WALL (      42 calls)
     ffts         :      0.29s CPU      0.29s WALL (      13 calls)
     fftw         :    724.61s CPU    727.18s WALL (   33514 calls)
 
     Parallel routines
 
     PWSCF        :  31m18.18s CPU  32m 0.29s WALL

 
   This run was terminated on:  23:57:52  21Nov2019            

=------------------------------------------------------------------------------=
   JOB DONE.
=------------------------------------------------------------------------------=
