
     Program PWSCF v.6.4.1 starts on  3Dec2019 at 16: 7:48 

     This program is part of the open-source Quantum ESPRESSO suite
     for quantum simulation of materials; please cite
         "P. Giannozzi et al., J. Phys.:Condens. Matter 21 395502 (2009);
         "P. Giannozzi et al., J. Phys.:Condens. Matter 29 465901 (2017);
          URL http://www.quantum-espresso.org", 
     in publications or presentations arising from this work. More details at
     http://www.quantum-espresso.org/quote

     Parallel version (MPI), running on    40 processors

     MPI processes distributed on     7 nodes
     K-points division:     npool     =      40
     Reading input from scf.in

     Current dimensions of program PWSCF are:
     Max number of different atomic species (ntypx) = 10
     Max number of k-points (npk) =  40000
     Max angular momentum in pseudopotentials (lmaxx) =  3

     Subspace diagonalization in iterative solution of the eigenvalue problem:
     a serial algorithm will be used

     Message from routine setup:
     using ibrav=0 with symmetry is DISCOURAGED, use correct ibrav instead
 
     G-vector sticks info
     --------------------
     sticks:   dense  smooth     PW     G-vecs:    dense   smooth      PW
     Sum        3657    3657    989               248967   248967   35169
 


     bravais-lattice index     =            0
     lattice parameter (alat)  =       9.7849  a.u.
     unit-cell volume          =    1402.1515 (a.u.)^3
     number of atoms/cell      =           16
     number of atomic types    =            2
     number of electrons       =       184.00
     number of Kohn-Sham states=          110
     kinetic-energy cutoff     =     120.0000  Ry
     charge density cutoff     =     480.0000  Ry
     convergence threshold     =      1.0E-08
     mixing beta               =       0.7000
     number of iterations used =            8  plain     mixing
     Exchange-correlation      = SLA PW NOGX NOGC ( 1  4  0  0 0 0)

     celldm(1)=   9.784926  celldm(2)=   0.000000  celldm(3)=   0.000000
     celldm(4)=   0.000000  celldm(5)=   0.000000  celldm(6)=   0.000000

     crystal axes: (cart. coord. in units of alat)
               a(1) = (   1.000000   0.000000   0.000000 )  
               a(2) = (   0.000000   1.000000   0.000000 )  
               a(3) = (   0.000000   0.000000   1.496657 )  

     reciprocal axes: (cart. coord. in units 2 pi/alat)
               b(1) = (  1.000000  0.000000  0.000000 )  
               b(2) = (  0.000000  1.000000  0.000000 )  
               b(3) = (  0.000000  0.000000  0.668156 )  


     PseudoPot. # 1 for W  read from file:
     /cluster/scratch/mnoe/QE/pps/W_ONCV_LDA-4.0.upf
     MD5 check sum: ba0307d5d4cd419d6f1d13dc49d7c13a
     Pseudo is Norm-conserving + core correction, Zval = 28.0
     Generated using ONCVPSP code by D. R. Hamann
     Using radial grid of 1380 points,  8 beta functions with: 
                l(1) =   0
                l(2) =   0
                l(3) =   1
                l(4) =   1
                l(5) =   2
                l(6) =   2
                l(7) =   3
                l(8) =   3

     PseudoPot. # 2 for O  read from file:
     /cluster/scratch/mnoe/QE/pps/O_ONCV_LDA-3.0.upf
     MD5 check sum: b55cdb4f45ae2203d24ad12cf8d61a31
     Pseudo is Norm-conserving + core correction, Zval =  6.0
     Generated using ONCVPSP code by D. R. Hamann
     Using radial grid of  926 points,  5 beta functions with: 
                l(1) =   0
                l(2) =   0
                l(3) =   1
                l(4) =   1
                l(5) =   2

     atomic species   valence    mass     pseudopotential
        W             28.00   183.84000     W ( 1.00)
        O              6.00    15.99940     O ( 1.00)

     16 Sym. Ops., with inversion, found (14 have fractional translation)



   Cartesian axes

     site n.     atom                  positions (alat units)
         1           W   tau(   1) = (   0.2500000   0.2500000   0.3264508  )
         2           W   tau(   2) = (   0.7500000   0.7500000   1.1702062  )
         3           W   tau(   3) = (   0.7500000   0.7500000   0.4218777  )
         4           W   tau(   4) = (   0.2500000   0.2500000   1.0747793  )
         5           O   tau(   5) = (   0.2500000   0.2500000   0.7358614  )
         6           O   tau(   6) = (   0.7500000   0.7500000   0.7607956  )
         7           O   tau(   7) = (   0.7500000   0.7500000   0.0124671  )
         8           O   tau(   8) = (   0.2500000   0.2500000   1.4841899  )
         9           O   tau(   9) = (   0.4494100   0.5505900   0.3741643  )
        10           O   tau(  10) = (   0.5505900   0.4494100   1.1224928  )
        11           O   tau(  11) = (   0.0505900   0.9494100   0.3741643  )
        12           O   tau(  12) = (   0.9494099   0.0505900   1.1224928  )
        13           O   tau(  13) = (   0.9494100   0.4494100   0.3741643  )
        14           O   tau(  14) = (   0.0505900   0.5505900   1.1224928  )
        15           O   tau(  15) = (   0.5505900   0.0505900   0.3741643  )
        16           O   tau(  16) = (   0.4494100   0.9494099   1.1224928  )

     number of k points=    60  gaussian smearing, width (Ry)=  0.0007
                       cart. coord. in units 2pi/alat
        k(    1) = (   0.0000000   0.0000000   0.0000000), wk =   0.0041152
        k(    2) = (   0.0000000   0.0000000   0.1113593), wk =   0.0082305
        k(    3) = (   0.0000000   0.0000000   0.2227186), wk =   0.0082305
        k(    4) = (   0.0000000   0.0000000  -0.3340779), wk =   0.0041152
        k(    5) = (   0.0000000   0.1111111   0.0000000), wk =   0.0164609
        k(    6) = (   0.0000000   0.1111111   0.1113593), wk =   0.0329218
        k(    7) = (   0.0000000   0.1111111   0.2227186), wk =   0.0329218
        k(    8) = (   0.0000000   0.1111111  -0.3340779), wk =   0.0164609
        k(    9) = (   0.0000000   0.2222222   0.0000000), wk =   0.0164609
        k(   10) = (   0.0000000   0.2222222   0.1113593), wk =   0.0329218
        k(   11) = (   0.0000000   0.2222222   0.2227186), wk =   0.0329218
        k(   12) = (   0.0000000   0.2222222  -0.3340779), wk =   0.0164609
        k(   13) = (   0.0000000   0.3333333   0.0000000), wk =   0.0164609
        k(   14) = (   0.0000000   0.3333333   0.1113593), wk =   0.0329218
        k(   15) = (   0.0000000   0.3333333   0.2227186), wk =   0.0329218
        k(   16) = (   0.0000000   0.3333333  -0.3340779), wk =   0.0164609
        k(   17) = (   0.0000000   0.4444444   0.0000000), wk =   0.0164609
        k(   18) = (   0.0000000   0.4444444   0.1113593), wk =   0.0329218
        k(   19) = (   0.0000000   0.4444444   0.2227186), wk =   0.0329218
        k(   20) = (   0.0000000   0.4444444  -0.3340779), wk =   0.0164609
        k(   21) = (   0.1111111   0.1111111   0.0000000), wk =   0.0164609
        k(   22) = (   0.1111111   0.1111111   0.1113593), wk =   0.0329218
        k(   23) = (   0.1111111   0.1111111   0.2227186), wk =   0.0329218
        k(   24) = (   0.1111111   0.1111111  -0.3340779), wk =   0.0164609
        k(   25) = (   0.1111111   0.2222222   0.0000000), wk =   0.0329218
        k(   26) = (   0.1111111   0.2222222   0.1113593), wk =   0.0658436
        k(   27) = (   0.1111111   0.2222222   0.2227186), wk =   0.0658436
        k(   28) = (   0.1111111   0.2222222  -0.3340779), wk =   0.0329218
        k(   29) = (   0.1111111   0.3333333   0.0000000), wk =   0.0329218
        k(   30) = (   0.1111111   0.3333333   0.1113593), wk =   0.0658436
        k(   31) = (   0.1111111   0.3333333   0.2227186), wk =   0.0658436
        k(   32) = (   0.1111111   0.3333333  -0.3340779), wk =   0.0329218
        k(   33) = (   0.1111111   0.4444444   0.0000000), wk =   0.0329218
        k(   34) = (   0.1111111   0.4444444   0.1113593), wk =   0.0658436
        k(   35) = (   0.1111111   0.4444444   0.2227186), wk =   0.0658436
        k(   36) = (   0.1111111   0.4444444  -0.3340779), wk =   0.0329218
        k(   37) = (   0.2222222   0.2222222   0.0000000), wk =   0.0164609
        k(   38) = (   0.2222222   0.2222222   0.1113593), wk =   0.0329218
        k(   39) = (   0.2222222   0.2222222   0.2227186), wk =   0.0329218
        k(   40) = (   0.2222222   0.2222222  -0.3340779), wk =   0.0164609
        k(   41) = (   0.2222222   0.3333333   0.0000000), wk =   0.0329218
        k(   42) = (   0.2222222   0.3333333   0.1113593), wk =   0.0658436
        k(   43) = (   0.2222222   0.3333333   0.2227186), wk =   0.0658436
        k(   44) = (   0.2222222   0.3333333  -0.3340779), wk =   0.0329218
        k(   45) = (   0.2222222   0.4444444   0.0000000), wk =   0.0329218
        k(   46) = (   0.2222222   0.4444444   0.1113593), wk =   0.0658436
        k(   47) = (   0.2222222   0.4444444   0.2227186), wk =   0.0658436
        k(   48) = (   0.2222222   0.4444444  -0.3340779), wk =   0.0329218
        k(   49) = (   0.3333333   0.3333333   0.0000000), wk =   0.0164609
        k(   50) = (   0.3333333   0.3333333   0.1113593), wk =   0.0329218
        k(   51) = (   0.3333333   0.3333333   0.2227186), wk =   0.0329218
        k(   52) = (   0.3333333   0.3333333  -0.3340779), wk =   0.0164609
        k(   53) = (   0.3333333   0.4444444   0.0000000), wk =   0.0329218
        k(   54) = (   0.3333333   0.4444444   0.1113593), wk =   0.0658436
        k(   55) = (   0.3333333   0.4444444   0.2227186), wk =   0.0658436
        k(   56) = (   0.3333333   0.4444444  -0.3340779), wk =   0.0329218
        k(   57) = (   0.4444444   0.4444444   0.0000000), wk =   0.0164609
        k(   58) = (   0.4444444   0.4444444   0.1113593), wk =   0.0329218
        k(   59) = (   0.4444444   0.4444444   0.2227186), wk =   0.0329218
        k(   60) = (   0.4444444   0.4444444  -0.3340779), wk =   0.0164609

     Dense  grid:   248967 G-vectors     FFT dimensions: (  72,  72, 108)

     Estimated max dynamical RAM per process >     881.58 MB

     Estimated total dynamical RAM >      34.44 GB

     Initial potential from superposition of free atoms

     starting charge  183.99828, renormalised to  184.00000
     Starting wfcs are  116 randomized atomic wfcs

     total cpu time spent up to now is        9.6 secs

     Self-consistent Calculation

     iteration #  1     ecut=   120.00 Ry     beta= 0.70
     Davidson diagonalization with overlap
     ethr =  1.00E-02,  avg # of iterations =  4.1

     total cpu time spent up to now is       41.9 secs

     total energy              =   -3126.98204987 Ry
     Harris-Foulkes estimate   =   -3132.29273616 Ry
     estimated scf accuracy    <       6.72414566 Ry

     iteration #  2     ecut=   120.00 Ry     beta= 0.70
     Davidson diagonalization with overlap
     ethr =  3.65E-03,  avg # of iterations =  3.2

     total cpu time spent up to now is       72.9 secs

     total energy              =   -3125.38692207 Ry
     Harris-Foulkes estimate   =   -3135.43332226 Ry
     estimated scf accuracy    <      27.04905424 Ry

     iteration #  3     ecut=   120.00 Ry     beta= 0.70
     Davidson diagonalization with overlap
     ethr =  3.65E-03,  avg # of iterations =  3.1

     total cpu time spent up to now is      102.6 secs

     total energy              =   -3130.54316207 Ry
     Harris-Foulkes estimate   =   -3130.69111731 Ry
     estimated scf accuracy    <       0.48311947 Ry

     iteration #  4     ecut=   120.00 Ry     beta= 0.70
     Davidson diagonalization with overlap
     ethr =  2.63E-04,  avg # of iterations =  2.4

     total cpu time spent up to now is      126.9 secs

     total energy              =   -3130.54807247 Ry
     Harris-Foulkes estimate   =   -3130.58348374 Ry
     estimated scf accuracy    <       0.11980984 Ry

     iteration #  5     ecut=   120.00 Ry     beta= 0.70
     Davidson diagonalization with overlap
     ethr =  6.51E-05,  avg # of iterations =  4.3

     total cpu time spent up to now is      153.8 secs

     total energy              =   -3130.54592457 Ry
     Harris-Foulkes estimate   =   -3130.56317615 Ry
     estimated scf accuracy    <       0.03790678 Ry

     iteration #  6     ecut=   120.00 Ry     beta= 0.70
     Davidson diagonalization with overlap
     ethr =  2.06E-05,  avg # of iterations =  3.9

     total cpu time spent up to now is      181.1 secs

     total energy              =   -3130.55429270 Ry
     Harris-Foulkes estimate   =   -3130.55534911 Ry
     estimated scf accuracy    <       0.00283931 Ry

     iteration #  7     ecut=   120.00 Ry     beta= 0.70
     Davidson diagonalization with overlap
     ethr =  1.54E-06,  avg # of iterations =  3.1

     total cpu time spent up to now is      205.7 secs

     total energy              =   -3130.55465733 Ry
     Harris-Foulkes estimate   =   -3130.55469598 Ry
     estimated scf accuracy    <       0.00007816 Ry

     iteration #  8     ecut=   120.00 Ry     beta= 0.70
     Davidson diagonalization with overlap
     ethr =  4.25E-08,  avg # of iterations =  3.0

     total cpu time spent up to now is      237.3 secs

     total energy              =   -3130.55468646 Ry
     Harris-Foulkes estimate   =   -3130.55468870 Ry
     estimated scf accuracy    <       0.00001019 Ry

     iteration #  9     ecut=   120.00 Ry     beta= 0.70
     Davidson diagonalization with overlap
     ethr =  5.54E-09,  avg # of iterations =  2.0

     total cpu time spent up to now is      261.7 secs

     total energy              =   -3130.55468509 Ry
     Harris-Foulkes estimate   =   -3130.55468726 Ry
     estimated scf accuracy    <       0.00000557 Ry

     iteration # 10     ecut=   120.00 Ry     beta= 0.70
     Davidson diagonalization with overlap
     ethr =  3.03E-09,  avg # of iterations =  2.0

     total cpu time spent up to now is      285.5 secs

     total energy              =   -3130.55468598 Ry
     Harris-Foulkes estimate   =   -3130.55468602 Ry
     estimated scf accuracy    <       0.00000008 Ry

     iteration # 11     ecut=   120.00 Ry     beta= 0.70
     Davidson diagonalization with overlap
     ethr =  4.45E-11,  avg # of iterations =  2.8

     total cpu time spent up to now is      315.9 secs

     total energy              =   -3130.55468600 Ry
     Harris-Foulkes estimate   =   -3130.55468601 Ry
     estimated scf accuracy    <       0.00000002 Ry

     iteration # 12     ecut=   120.00 Ry     beta= 0.70
     Davidson diagonalization with overlap
     ethr =  1.14E-11,  avg # of iterations =  2.0

     total cpu time spent up to now is      342.6 secs

     End of self-consistent calculation

          k = 0.0000 0.0000 0.0000 ( 31095 PWs)   bands (ev):

   -66.1717 -66.1713 -66.1697 -66.1693 -30.5657 -30.5593 -30.5110 -30.5110
   -30.5078 -30.5078 -30.5065 -30.5014 -30.4155 -30.4155 -30.4129 -30.4129
   -20.3319 -20.3318 -20.3317 -20.3316 -20.3143 -20.3138 -20.3087 -20.3086
   -20.3086 -20.3082 -20.3080 -20.3080 -20.3075 -20.3075 -20.3068 -20.3068
   -20.2994 -20.2994 -20.2988 -20.2988 -20.2984 -20.2983 -20.2977 -20.2976
   -20.2918 -20.2918 -20.2912 -20.2912  -9.9482  -9.6730  -9.0692  -9.0525
    -9.0406  -8.8730  -7.8509  -7.7404  -7.6230  -7.6230  -7.6022  -7.6022
     1.1867   1.1872   1.3706   1.6395   1.6407   1.8596   2.3886   2.4614
     2.7311   2.7311   4.1347   4.1347   5.0381   5.0381   5.0690   5.5206
     5.5206   5.5288   5.5288   5.8124   5.8124   5.9456   5.9641   6.8066
     6.8066   6.8870   7.0236   7.0243   7.3959   7.3959   7.4409   7.4409
     7.7799   7.7935   8.0788   8.0788   9.2285   9.2359  10.0310  10.0310
    12.2842  12.2842  12.8503  12.8530  13.4072  13.4072  13.7719  14.1561
    14.1561  14.9191  15.4091  15.4203  15.4591  16.8111

          k = 0.0000 0.0000 0.1114 ( 31063 PWs)   bands (ev):

   -66.1717 -66.1713 -66.1697 -66.1693 -30.5617 -30.5554 -30.5108 -30.5108
   -30.5105 -30.5080 -30.5080 -30.5053 -30.4153 -30.4153 -30.4130 -30.4130
   -20.3319 -20.3318 -20.3317 -20.3316 -20.3139 -20.3134 -20.3091 -20.3086
   -20.3086 -20.3086 -20.3080 -20.3080 -20.3074 -20.3074 -20.3069 -20.3069
   -20.2994 -20.2994 -20.2989 -20.2989 -20.2984 -20.2983 -20.2977 -20.2976
   -20.2918 -20.2918 -20.2913 -20.2913  -9.9202  -9.6842  -9.0517  -9.0414
    -8.9957  -8.8260  -7.9462  -7.8468  -7.6217  -7.6217  -7.6036  -7.6036
     1.1867   1.1872   1.4963   1.6400   1.8150   2.0398   2.3933   2.4563
     2.7982   2.7982   4.0046   4.0046   4.8263   4.9892   4.9892   5.4560
     5.4560   5.6142   5.6142   5.6227   5.8758   5.8758   5.9842   6.8416
     6.8442   6.8442   6.8967   7.0151   7.4044   7.4044   7.4404   7.4404
     7.7850   7.7929   8.0379   8.0379   9.2288   9.2353  10.2000  10.2000
    12.1590  12.1590  12.8505  12.8529  13.4143  13.4143  14.0664  14.0664
    14.1045  15.0829  15.4095  15.4190  15.8616  16.5159

          k = 0.0000 0.0000 0.2227 ( 31059 PWs)   bands (ev):

   -66.1716 -66.1714 -66.1696 -66.1694 -30.5510 -30.5449 -30.5214 -30.5159
   -30.5102 -30.5102 -30.5086 -30.5086 -30.4149 -30.4149 -30.4135 -30.4135
   -20.3318 -20.3318 -20.3317 -20.3316 -20.3129 -20.3124 -20.3102 -20.3096
   -20.3084 -20.3084 -20.3081 -20.3081 -20.3073 -20.3073 -20.3070 -20.3070
   -20.2993 -20.2993 -20.2990 -20.2990 -20.2984 -20.2983 -20.2976 -20.2976
   -20.2917 -20.2917 -20.2914 -20.2914  -9.8520  -9.7186  -9.0495  -9.0435
    -8.7882  -8.6805  -8.1880  -8.1171  -7.6179  -7.6179  -7.6074  -7.6074
     1.1868   1.1871   1.6023   1.6369   2.3777   2.4063   2.4426   2.6955
     2.9942   2.9942   3.6724   3.6724   4.1469   4.7468   5.0430   5.0430
     5.3687   5.3687   5.6659   5.6659   5.8409   5.8409   6.0970   6.5308
     6.9229   6.9913   7.1096   7.1096   7.4150   7.4150   7.4422   7.4422
     7.7884   7.7915   7.8644   7.8644   9.2298   9.2336  10.6513  10.6513
    11.7870  11.7870  12.8510  12.8523  13.4752  13.4752  13.8536  13.8536
    14.7555  15.4108  15.4160  15.6701  15.9591  16.8576

          k = 0.0000 0.0000-0.3341 ( 31108 PWs)   bands (ev):

   -66.1715 -66.1715 -66.1695 -66.1695 -30.5363 -30.5362 -30.5304 -30.5304
   -30.5094 -30.5094 -30.5094 -30.5094 -30.4142 -30.4142 -30.4142 -30.4142
   -20.3318 -20.3318 -20.3317 -20.3317 -20.3115 -20.3115 -20.3110 -20.3110
   -20.3083 -20.3083 -20.3083 -20.3083 -20.3071 -20.3071 -20.3071 -20.3071
   -20.2991 -20.2991 -20.2991 -20.2991 -20.2984 -20.2984 -20.2976 -20.2976
   -20.2915 -20.2915 -20.2915 -20.2915  -9.7768  -9.7768  -9.0465  -9.0465
    -8.4916  -8.4916  -8.4343  -8.4343  -7.6127  -7.6127  -7.6127  -7.6127
     1.1869   1.1869   1.6286   1.6286   2.4243   2.4243   3.2392   3.2392
     3.3004   3.3004   3.3004   3.3004   3.6739   3.6739   5.2096   5.2096
     5.2096   5.2096   5.7327   5.7327   5.7327   5.7327   6.2790   6.2790
     6.9576   6.9576   7.4014   7.4014   7.4014   7.4014   7.5518   7.5518
     7.5518   7.5518   7.7899   7.7899   9.2316   9.2316  11.2368  11.2368
    11.2368  11.2368  12.8517  12.8517  13.6293  13.6293  13.6293  13.6293
    15.3625  15.3625  15.4130  15.4130  16.5473  16.5473

          k = 0.0000 0.1111 0.0000 ( 31068 PWs)   bands (ev):

   -66.1717 -66.1713 -66.1697 -66.1694 -30.5657 -30.5595 -30.5109 -30.5082
   -30.5050 -30.5048 -30.5038 -30.5016 -30.4184 -30.4184 -30.4158 -30.4157
   -20.3319 -20.3318 -20.3317 -20.3316 -20.3143 -20.3138 -20.3088 -20.3086
   -20.3086 -20.3082 -20.3079 -20.3079 -20.3075 -20.3075 -20.3069 -20.3069
   -20.2996 -20.2992 -20.2992 -20.2986 -20.2979 -20.2978 -20.2978 -20.2977
   -20.2921 -20.2920 -20.2915 -20.2914  -9.9046  -9.6226  -9.0768  -9.0173
    -9.0052  -8.8641  -7.8506  -7.7435  -7.6968  -7.6788  -7.6769  -7.6565
     1.3042   1.3047   1.4054   1.6320   1.7588   1.9442   2.4670   2.5439
     2.7604   2.7741   4.1088   4.1173   4.8781   4.9324   5.0525   5.3982
     5.4121   5.4400   5.4531   5.7663   5.7966   5.9760   6.1555   6.7217
     6.7518   6.8969   6.9581   6.9790   7.0983   7.0999   7.3449   7.3992
     7.7976   7.8019   8.0549   8.0842   9.5357   9.5719  10.1385  10.1801
    12.2932  12.3140  12.8993  12.9175  13.3011  13.3776  13.8898  14.0792
    14.1137  15.0216  15.4287  15.4441  15.4566  16.9532

          k = 0.0000 0.1111 0.1114 ( 31085 PWs)   bands (ev):

   -66.1716 -66.1713 -66.1697 -66.1694 -30.5618 -30.5557 -30.5128 -30.5080
   -30.5056 -30.5056 -30.5052 -30.5050 -30.4183 -30.4182 -30.4159 -30.4159
   -20.3318 -20.3318 -20.3317 -20.3316 -20.3139 -20.3134 -20.3092 -20.3086
   -20.3085 -20.3085 -20.3080 -20.3080 -20.3075 -20.3074 -20.3069 -20.3069
   -20.2995 -20.2992 -20.2991 -20.2986 -20.2979 -20.2978 -20.2978 -20.2977
   -20.2920 -20.2919 -20.2915 -20.2914  -9.8756  -9.6338  -9.0165  -9.0069
    -9.0025  -8.8182  -7.9454  -7.8527  -7.6954  -7.6777  -7.6756  -7.6579
     1.3042   1.3047   1.5612   1.7579   1.8202   2.0793   2.4726   2.5387
     2.8294   2.8398   3.9934   4.0087   4.8115   4.8324   4.8864   5.3376
     5.3504   5.4816   5.4987   5.6282   5.8164   5.8602   6.1871   6.7447
     6.7752   6.8331   6.9629   6.9893   7.1003   7.1009   7.3526   7.3963
     7.8007   7.8017   8.0088   8.0357   9.5422   9.5701  10.2962  10.3326
    12.1764  12.1971  12.8945  12.9159  13.3142  13.3837  13.9871  14.0239
    14.2203  15.1732  15.4446  15.4556  15.8321  16.6478

          k = 0.0000 0.1111 0.2227 ( 31085 PWs)   bands (ev):

   -66.1716 -66.1714 -66.1696 -66.1694 -30.5511 -30.5451 -30.5221 -30.5162
   -30.5074 -30.5066 -30.5058 -30.5056 -30.4178 -30.4177 -30.4164 -30.4164
   -20.3318 -20.3318 -20.3317 -20.3316 -20.3129 -20.3124 -20.3102 -20.3097
   -20.3084 -20.3084 -20.3081 -20.3081 -20.3073 -20.3073 -20.3070 -20.3070
   -20.2995 -20.2993 -20.2990 -20.2987 -20.2979 -20.2979 -20.2978 -20.2977
   -20.2919 -20.2918 -20.2916 -20.2915  -9.8049  -9.6684  -9.0143  -9.0083
    -8.7954  -8.6754  -8.1879  -8.1225  -7.6915  -7.6810  -7.6719  -7.6616
     1.3043   1.3045   1.7105   1.7544   2.3792   2.4868   2.5235   2.6810
     3.0329   3.0389   3.6758   3.6986   4.1405   4.7493   4.8919   4.9402
     5.2474   5.2638   5.5142   5.5416   5.7331   5.7421   6.2759   6.5931
     6.9633   6.9645   7.0642   7.0940   7.1194   7.1300   7.3711   7.3940
     7.7957   7.8006   7.8389   7.8580   9.5525   9.5660  10.7222  10.7515
    11.8186  11.8406  12.8932  12.9104  13.3785  13.4413  13.7684  13.8121
    14.8885  15.4465  15.4528  15.7321  16.0915  16.8253

          k = 0.0000 0.1111-0.3341 ( 31082 PWs)   bands (ev):

   -66.1715 -66.1714 -66.1696 -66.1695 -30.5365 -30.5365 -30.5307 -30.5307
   -30.5066 -30.5066 -30.5063 -30.5062 -30.4171 -30.4171 -30.4171 -30.4171
   -20.3318 -20.3318 -20.3317 -20.3317 -20.3116 -20.3115 -20.3111 -20.3111
   -20.3083 -20.3083 -20.3082 -20.3082 -20.3072 -20.3072 -20.3072 -20.3072
   -20.2994 -20.2994 -20.2989 -20.2989 -20.2979 -20.2979 -20.2977 -20.2977
   -20.2918 -20.2918 -20.2917 -20.2917  -9.7276  -9.7276  -9.0113  -9.0113
    -8.4964  -8.4964  -8.4338  -8.4338  -7.6863  -7.6862  -7.6668  -7.6668
     1.3044   1.3044   1.7444   1.7444   2.5055   2.5055   3.2384   3.2384
     3.2968   3.2968   3.3349   3.3349   3.6959   3.6959   5.0701   5.0701
     5.1121   5.1121   5.5832   5.5832   5.6073   5.6073   6.4175   6.4175
     6.9940   6.9940   7.0940   7.0940   7.3393   7.3393   7.5072   7.5072
     7.5491   7.5491   7.8035   7.8035   9.5603   9.5603  11.2845  11.2845
    11.3097  11.3097  12.9014  12.9014  13.5372  13.5372  13.5907  13.5907
    15.4492  15.4492  15.4999  15.4999  16.6003  16.6003

          k = 0.0000 0.2222 0.0000 ( 31120 PWs)   bands (ev):

   -66.1715 -66.1711 -66.1699 -66.1695 -30.5656 -30.5603 -30.5101 -30.5025
   -30.5000 -30.4968 -30.4964 -30.4961 -30.4268 -30.4265 -30.4241 -30.4240
   -20.3318 -20.3318 -20.3317 -20.3316 -20.3143 -20.3139 -20.3088 -20.3085
   -20.3085 -20.3083 -20.3078 -20.3077 -20.3076 -20.3076 -20.3070 -20.3069
   -20.2997 -20.2995 -20.2985 -20.2981 -20.2981 -20.2979 -20.2971 -20.2968
   -20.2927 -20.2924 -20.2921 -20.2918  -9.7805  -9.4745  -9.1019  -8.9144
    -8.9017  -8.8344  -7.9226  -7.8966  -7.8268  -7.8169  -7.8072  -7.7521
     1.4622   1.6121   1.6408   1.6422   2.0791   2.2118   2.7038   2.8004
     2.8450   2.9074   4.0091   4.0188   4.6066   4.6768   4.9995   5.0045
     5.0972   5.1485   5.2758   5.7054   5.8109   5.9929   6.3261   6.3470
     6.5096   6.5761   6.6584   6.7514   6.7980   7.2435   7.2913   7.3686
     7.7888   7.7954   8.0091   8.0770  10.1163  10.2273  10.4381  10.5950
    12.3019  12.3737  12.8677  12.9364  13.0783  13.2913  13.8673  13.9800
    14.1466  15.3315  15.3374  15.6894  15.7086  17.3335

          k = 0.0000 0.2222 0.1114 ( 31095 PWs)   bands (ev):

   -66.1714 -66.1711 -66.1699 -66.1696 -30.5617 -30.5565 -30.5131 -30.5064
   -30.4998 -30.4970 -30.4968 -30.4966 -30.4266 -30.4263 -30.4243 -30.4242
   -20.3318 -20.3318 -20.3317 -20.3316 -20.3139 -20.3135 -20.3092 -20.3087
   -20.3084 -20.3084 -20.3079 -20.3078 -20.3076 -20.3075 -20.3070 -20.3070
   -20.2997 -20.2995 -20.2985 -20.2981 -20.2981 -20.2980 -20.2971 -20.2969
   -20.2927 -20.2924 -20.2922 -20.2919  -9.7478  -9.4858  -9.0288  -8.9136
    -8.9024  -8.7922  -7.9753  -7.8949  -7.8949  -7.8271  -7.8228  -7.8085
     1.6408   1.6420   1.6699   1.8241   2.0783   2.2648   2.7145   2.7953
     2.9181   2.9655   3.9388   3.9775   4.5560   4.6425   4.7692   4.9908
     5.0257   5.1367   5.1935   5.6346   5.6805   5.8327   6.3303   6.3345
     6.5260   6.6192   6.7180   6.7906   6.9010   7.2358   7.2978   7.3689
     7.7896   7.7941   7.9522   8.0204  10.1421  10.2221  10.5704  10.7037
    12.2196  12.2936  12.8399  12.9290  13.0686  13.2949  13.7691  13.8905
    14.4941  15.4473  15.6897  15.7075  15.7487  16.9968

          k = 0.0000 0.2222 0.2227 ( 31114 PWs)   bands (ev):

   -66.1714 -66.1712 -66.1698 -66.1696 -30.5511 -30.5460 -30.5226 -30.5170
   -30.4992 -30.4976 -30.4976 -30.4970 -30.4261 -30.4259 -30.4248 -30.4246
   -20.3318 -20.3318 -20.3317 -20.3317 -20.3129 -20.3125 -20.3102 -20.3098
   -20.3083 -20.3083 -20.3080 -20.3079 -20.3074 -20.3074 -20.3071 -20.3071
   -20.2997 -20.2995 -20.2984 -20.2981 -20.2981 -20.2980 -20.2970 -20.2969
   -20.2926 -20.2923 -20.2923 -20.2920  -9.6688  -9.5214  -8.9113  -8.9057
    -8.8202  -8.6584  -8.2020  -8.1375  -7.8901  -7.8698  -7.8218  -7.8121
     1.6409   1.6416   1.9904   2.0742   2.3835   2.6488   2.7346   2.7990
     3.1448   3.1466   3.6779   3.7576   4.1220   4.5946   4.6474   4.7844
     4.9433   4.9504   5.1483   5.1698   5.4613   5.5141   6.3325   6.3437
     6.6067   6.7270   6.9808   7.0164   7.0794   7.2184   7.3263   7.3769
     7.7710   7.7806   7.7920   7.8498  10.1793  10.2135  10.9339  11.0377
    11.9173  11.9965  12.8261  12.9038  13.1149  13.3394  13.5355  13.6815
    15.2355  15.6934  15.7040  15.9227  16.4494  16.7273

          k = 0.0000 0.2222-0.3341 ( 31108 PWs)   bands (ev):

   -66.1713 -66.1713 -66.1697 -66.1697 -30.5367 -30.5367 -30.5315 -30.5315
   -30.4984 -30.4984 -30.4975 -30.4975 -30.4254 -30.4254 -30.4253 -30.4253
   -20.3318 -20.3318 -20.3317 -20.3317 -20.3116 -20.3116 -20.3112 -20.3111
   -20.3082 -20.3082 -20.3081 -20.3081 -20.3073 -20.3073 -20.3072 -20.3072
   -20.2996 -20.2996 -20.2983 -20.2982 -20.2980 -20.2980 -20.2970 -20.2970
   -20.2924 -20.2924 -20.2921 -20.2921  -9.5842  -9.5841  -8.9083  -8.9083
    -8.5197  -8.5197  -8.4286  -8.4286  -7.8824  -7.8824  -7.8170  -7.8170
     1.6412   1.6412   2.0590   2.0590   2.7535   2.7535   3.2343   3.2343
     3.2946   3.2946   3.4296   3.4296   3.7516   3.7516   4.7593   4.7593
     4.8593   4.8593   5.2194   5.2194   5.2634   5.2634   6.3408   6.3408
     6.6840   6.6840   7.1461   7.1461   7.2546   7.2546   7.4641   7.4641
     7.5487   7.5487   7.7961   7.7961  10.2011  10.2011  11.4329  11.4329
    11.5228  11.5229  12.8627  12.8627  13.2815  13.2815  13.4733  13.4733
    15.6984  15.6984  15.8743  15.8743  16.7525  16.7525

          k = 0.0000 0.3333 0.0000 ( 31158 PWs)   bands (ev):

   -66.1712 -66.1708 -66.1702 -66.1698 -30.5651 -30.5615 -30.5088 -30.5038
   -30.4874 -30.4843 -30.4842 -30.4837 -30.4396 -30.4389 -30.4368 -30.4366
   -20.3318 -20.3317 -20.3317 -20.3317 -20.3142 -20.3140 -20.3089 -20.3085
   -20.3083 -20.3083 -20.3078 -20.3077 -20.3077 -20.3076 -20.3071 -20.3070
   -20.2997 -20.2995 -20.2985 -20.2985 -20.2975 -20.2970 -20.2961 -20.2957
   -20.2937 -20.2932 -20.2931 -20.2926  -9.5980  -9.2393  -9.1525  -8.7731
    -8.7526  -8.7383  -8.2220  -8.1667  -8.0419  -8.0236  -7.8151  -7.7656
     1.5018   1.5858   2.1491   2.1583   2.5074   2.6103   2.9726   3.0201
     3.2208   3.2490   3.7945   3.8011   4.2311   4.3228   4.4692   4.5138
     4.9042   4.9570   5.1724   5.5085   5.5143   5.6250   5.8698   6.0341
     6.4565   6.4583   6.5309   6.6243   6.9991   7.3325   7.4218   7.5054
     7.7192   7.7281   7.9023   8.0250  10.7125  10.8735  10.9284  11.1855
    12.1769  12.2826  12.6890  12.7805  12.9656  13.0300  13.5700  13.7363
    14.4416  15.1860  15.8329  16.2962  16.3435  17.7801

          k = 0.0000 0.3333 0.1114 ( 31139 PWs)   bands (ev):

   -66.1712 -66.1708 -66.1702 -66.1698 -30.5612 -30.5577 -30.5123 -30.5077
   -30.4871 -30.4845 -30.4845 -30.4838 -30.4394 -30.4387 -30.4370 -30.4367
   -20.3318 -20.3317 -20.3317 -20.3317 -20.3139 -20.3136 -20.3092 -20.3089
   -20.3083 -20.3082 -20.3077 -20.3077 -20.3077 -20.3076 -20.3072 -20.3071
   -20.2996 -20.2995 -20.2985 -20.2985 -20.2975 -20.2970 -20.2960 -20.2958
   -20.2937 -20.2932 -20.2931 -20.2926  -9.5578  -9.2509  -9.0810  -8.7518
    -8.7391  -8.7382  -8.2394  -8.1635  -8.0409  -8.0248  -7.9077  -7.8579
     1.7290   1.8112   2.1496   2.1577   2.5092   2.6226   3.0466   3.0645
     3.2356   3.2462   3.7757   3.8125   4.2298   4.3322   4.4783   4.5191
     4.7171   4.7443   4.9733   5.4454   5.5013   5.5534   5.6593   5.8003
     6.5478   6.5695   6.7082   6.7655   7.0128   7.3227   7.4224   7.4935
     7.7188   7.7241   7.8494   7.9708  10.7584  10.9038  10.9952  11.2471
    12.1782  12.3022  12.6811  12.7034  12.8681  13.0149  13.4637  13.6409
    14.8103  15.5703  15.9433  16.3003  16.3403  17.4323

          k = 0.0000 0.3333 0.2227 ( 31107 PWs)   bands (ev):

   -66.1711 -66.1709 -66.1701 -66.1699 -30.5507 -30.5471 -30.5222 -30.5183
   -30.4866 -30.4850 -30.4849 -30.4843 -30.4389 -30.4384 -30.4375 -30.4372
   -20.3318 -20.3318 -20.3317 -20.3317 -20.3129 -20.3126 -20.3102 -20.3099
   -20.3082 -20.3081 -20.3079 -20.3078 -20.3076 -20.3075 -20.3073 -20.3072
   -20.2996 -20.2995 -20.2985 -20.2985 -20.2974 -20.2971 -20.2960 -20.2958
   -20.2936 -20.2933 -20.2930 -20.2927  -9.4605  -9.2886  -8.8815  -8.7499
    -8.7392  -8.6232  -8.3368  -8.1525  -8.1409  -8.0414  -8.0357  -8.0281
     2.1512   2.1559   2.2793   2.3910   2.5082   2.7427   3.1452   3.2419
     3.2760   3.3232   3.6362   3.7486   4.0972   4.2871   4.3441   4.4809
     4.5177   4.6053   4.7247   4.8828   5.1302   5.2595   5.5302   5.5329
     6.8257   6.8868   6.9613   7.0464   7.0924   7.2991   7.4300   7.4535
     7.6702   7.7057   7.7358   7.8176  10.8361  10.9001  11.2763  11.4728
    12.0646  12.2182  12.5646  12.6379  12.7645  13.0420  13.2123  13.4160
    15.6623  16.2550  16.3156  16.3310  16.5654  16.9348

          k = 0.0000 0.3333-0.3341 ( 31132 PWs)   bands (ev):

   -66.1710 -66.1710 -66.1700 -66.1700 -30.5364 -30.5363 -30.5327 -30.5327
   -30.4858 -30.4858 -30.4847 -30.4847 -30.4382 -30.4382 -30.4378 -30.4378
   -20.3318 -20.3318 -20.3317 -20.3317 -20.3116 -20.3116 -20.3113 -20.3113
   -20.3080 -20.3080 -20.3079 -20.3079 -20.3074 -20.3074 -20.3074 -20.3074
   -20.2996 -20.2996 -20.2985 -20.2985 -20.2972 -20.2972 -20.2959 -20.2959
   -20.2935 -20.2935 -20.2928 -20.2928  -9.3591  -9.3591  -8.7487  -8.7487
    -8.5906  -8.5906  -8.4125  -8.4125  -8.1260  -8.1260  -8.0326  -8.0326
     2.1536   2.1536   2.4844   2.4844   3.1303   3.1303   3.2311   3.2311
     3.3462   3.3462   3.5360   3.5360   3.7873   3.7873   4.4148   4.4148
     4.5208   4.5208   4.7540   4.7540   4.8648   4.8648   5.5258   5.5258
     6.9359   6.9359   7.2328   7.2328   7.2710   7.2710   7.4133   7.4133
     7.5534   7.5534   7.7365   7.7365  10.8809  10.8809  11.6861  11.6861
    11.8577  11.8577  12.5816  12.5816  12.9139  12.9139  13.1947  13.1947
    16.3142  16.3142  16.4012  16.4012  16.9825  16.9825

          k = 0.0000 0.4444 0.0000 ( 31158 PWs)   bands (ev):

   -66.1709 -66.1705 -66.1705 -66.1701 -30.5641 -30.5629 -30.5072 -30.5055
   -30.4718 -30.4696 -30.4688 -30.4683 -30.4552 -30.4539 -30.4523 -30.4519
   -20.3318 -20.3318 -20.3317 -20.3317 -20.3142 -20.3141 -20.3088 -20.3087
   -20.3082 -20.3081 -20.3080 -20.3079 -20.3075 -20.3074 -20.3073 -20.3072
   -20.2994 -20.2993 -20.2990 -20.2989 -20.2963 -20.2957 -20.2950 -20.2950
   -20.2946 -20.2944 -20.2940 -20.2935  -9.4014  -9.2462  -8.9361  -8.6569
    -8.6205  -8.5473  -8.4948  -8.4156  -8.2853  -8.2672  -7.7997  -7.7822
     1.5310   1.5581   2.7269   2.7892   2.9032   2.9980   3.0975   3.2369
     3.4121   3.4811   3.7889   3.8132   3.9479   3.9555   3.9678   3.9702
     4.5595   4.6916   4.9133   4.9519   5.2717   5.4560   5.9464   6.0112
     6.3989   6.4140   6.4239   6.4889   7.3502   7.4522   7.5449   7.5851
     7.5984   7.7269   7.7404   7.9137  11.2821  11.3760  11.5881  11.7972
    11.8338  11.9055  12.2174  12.4440  12.9965  13.1371  13.2541  13.4287
    14.7260  14.9790  16.4512  16.9023  17.2430  17.5875

          k = 0.0000 0.4444 0.1114 ( 31149 PWs)   bands (ev):

   -66.1708 -66.1705 -66.1705 -66.1702 -30.5603 -30.5590 -30.5109 -30.5093
   -30.4716 -30.4697 -30.4690 -30.4684 -30.4550 -30.4538 -30.4525 -30.4521
   -20.3318 -20.3318 -20.3317 -20.3317 -20.3138 -20.3137 -20.3091 -20.3090
   -20.3081 -20.3080 -20.3079 -20.3078 -20.3075 -20.3074 -20.3073 -20.3072
   -20.2994 -20.2993 -20.2990 -20.2989 -20.2962 -20.2958 -20.2950 -20.2949
   -20.2946 -20.2945 -20.2939 -20.2936  -9.3487  -9.1809  -8.9482  -8.6348
    -8.6297  -8.5450  -8.4981  -8.4092  -8.2844  -8.2682  -7.8938  -7.8764
     1.7617   1.7881   2.7328   2.7870   2.9185   3.0057   3.1569   3.2540
     3.4143   3.4739   3.8131   3.8142   3.9557   3.9769   4.0146   4.0159
     4.4935   4.6743   4.6898   4.8027   5.0347   5.2421   5.6909   5.7422
     6.5587   6.5951   6.6224   6.6648   7.3416   7.4429   7.5338   7.5824
     7.5880   7.6955   7.7151   7.8706  11.3324  11.4434  11.5958  11.8385
    11.8688  11.9640  12.2164  12.4631  12.8690  13.0148  13.1358  13.3196
    15.1073  15.3662  16.5310  16.9377  17.2281  17.6077

          k = 0.0000 0.4444 0.2227 ( 31132 PWs)   bands (ev):

   -66.1708 -66.1706 -66.1704 -66.1702 -30.5498 -30.5485 -30.5212 -30.5197
   -30.4711 -30.4696 -30.4696 -30.4688 -30.4545 -30.4536 -30.4531 -30.4525
   -20.3318 -20.3317 -20.3317 -20.3317 -20.3129 -20.3128 -20.3101 -20.3100
   -20.3080 -20.3079 -20.3078 -20.3077 -20.3077 -20.3076 -20.3075 -20.3074
   -20.2994 -20.2993 -20.2990 -20.2989 -20.2961 -20.2959 -20.2949 -20.2948
   -20.2947 -20.2946 -20.2939 -20.2936  -9.2168  -9.0053  -8.9900  -8.6711
    -8.5544  -8.5374  -8.5085  -8.3823  -8.2828  -8.2709  -8.1242  -8.0986
     2.3792   2.3951   2.7475   2.7798   2.9413   3.0414   3.3022   3.3131
     3.4086   3.4231   3.7964   3.8564   4.0298   4.0681   4.0718   4.1607
     4.1910   4.1979   4.6270   4.6690   4.6947   4.8553   4.9722   5.1093
     6.8940   6.9376   6.9890   7.0316   7.2985   7.4115   7.4845   7.5353
     7.5533   7.6432   7.6537   7.7482  11.4398  11.5348  11.7131  11.9383
    12.0043  12.1043  12.2386  12.4943  12.5914  12.7039  12.8454  13.0515
    16.0324  16.3248  16.7625  17.0258  17.1803  17.4080

          k = 0.0000 0.4444-0.3341 ( 31098 PWs)   bands (ev):

   -66.1707 -66.1707 -66.1703 -66.1703 -30.5354 -30.5354 -30.5341 -30.5341
   -30.4703 -30.4703 -30.4693 -30.4693 -30.4538 -30.4538 -30.4531 -30.4531
   -20.3318 -20.3317 -20.3317 -20.3317 -20.3115 -20.3115 -20.3114 -20.3114
   -20.3078 -20.3078 -20.3077 -20.3077 -20.3076 -20.3076 -20.3075 -20.3075
   -20.2993 -20.2993 -20.2989 -20.2989 -20.2960 -20.2960 -20.2948 -20.2948
   -20.2947 -20.2947 -20.2938 -20.2938  -9.0782  -9.0781  -8.7960  -8.7960
    -8.5242  -8.5242  -8.3835  -8.3835  -8.2971  -8.2971  -8.2727  -8.2727
     2.7638   2.7638   2.8989   2.8989   3.1511   3.1511   3.2990   3.2990
     3.4044   3.4044   3.5794   3.5794   3.8869   3.8869   4.2410   4.2410
     4.3322   4.3323   4.4336   4.4336   4.5360   4.5360   4.7309   4.7310
     7.1368   7.1368   7.2589   7.2589   7.3105   7.3105   7.3621   7.3621
     7.5794   7.5794   7.6479   7.6480  11.5161  11.5161  11.9604  11.9604
    12.1859  12.1859  12.2960  12.2960  12.5041  12.5041  12.7665  12.7666
    16.9426  16.9426  17.1277  17.1277  17.2350  17.2350

          k = 0.1111 0.1111 0.0000 ( 31114 PWs)   bands (ev):

   -66.1716 -66.1712 -66.1698 -66.1694 -30.5656 -30.5598 -30.5117 -30.5085
   -30.5084 -30.5019 -30.4972 -30.4960 -30.4272 -30.4245 -30.4150 -30.4124
   -20.3318 -20.3318 -20.3317 -20.3316 -20.3143 -20.3138 -20.3088 -20.3087
   -20.3084 -20.3083 -20.3080 -20.3077 -20.3076 -20.3074 -20.3070 -20.3068
   -20.2995 -20.2993 -20.2991 -20.2989 -20.2979 -20.2978 -20.2974 -20.2972
   -20.2926 -20.2920 -20.2918 -20.2912  -9.8677  -9.5818  -9.0849  -8.9847
    -8.9632  -8.8490  -7.8719  -7.8459  -7.8109  -7.7463  -7.6405  -7.6193
     1.2834   1.3096   1.4873   1.6262   1.9743   2.1042   2.5431   2.6235
     2.7168   2.8846   4.0193   4.1159   4.6717   4.9865   5.0343   5.0758
     5.2539   5.4956   5.5157   5.7421   5.7969   5.9862   6.2179   6.5840
     6.7528   6.7555   6.9837   6.9995   7.0633   7.0968   7.1350   7.1836
     7.7983   7.8033   8.0057   8.1077   9.8052   9.8537  10.0261  10.5030
    12.2154  12.4195  12.8227  12.9245  13.2249  13.4081  13.9333  13.9816
    14.1541  15.1082  15.3965  15.4767  15.5465  17.1185

          k = 0.1111 0.1111 0.1114 ( 31089 PWs)   bands (ev):

   -66.1716 -66.1712 -66.1698 -66.1694 -30.5617 -30.5559 -30.5119 -30.5115
   -30.5086 -30.5058 -30.4976 -30.4962 -30.4270 -30.4247 -30.4148 -30.4125
   -20.3318 -20.3318 -20.3317 -20.3316 -20.3139 -20.3135 -20.3092 -20.3087
   -20.3086 -20.3084 -20.3081 -20.3078 -20.3076 -20.3074 -20.3071 -20.3068
   -20.2994 -20.2993 -20.2991 -20.2989 -20.2979 -20.2978 -20.2974 -20.2972
   -20.2926 -20.2921 -20.2917 -20.2912  -9.8378  -9.5929  -9.0115  -8.9814
    -8.9642  -8.8064  -7.9514  -7.8721  -7.8445  -7.8086  -7.6391  -7.6208
     1.2992   1.3095   1.6668   1.8330   1.9734   2.1799   2.5495   2.6175
     2.7849   2.9509   3.9444   4.0167   4.5857   4.7944   4.9926   5.0896
     5.1234   5.4614   5.5551   5.6361   5.7687   5.8450   6.2500   6.6667
     6.7660   6.7810   6.9254   7.0011   7.0457   7.1041   7.1542   7.1887
     7.7984   7.8049   7.9685   8.0455   9.8124   9.8505  10.2015  10.6249
    12.1197  12.3041  12.8192  12.9199  13.2265  13.4113  13.8416  14.0630
    14.3106  15.2495  15.4744  15.5509  15.8006  16.8001

          k = 0.1111 0.1111 0.2227 ( 31112 PWs)   bands (ev):

   -66.1715 -66.1713 -66.1697 -66.1695 -30.5510 -30.5454 -30.5220 -30.5165
   -30.5109 -30.5092 -30.4978 -30.4967 -30.4265 -30.4252 -30.4143 -30.4130
   -20.3318 -20.3318 -20.3317 -20.3317 -20.3129 -20.3125 -20.3102 -20.3097
   -20.3085 -20.3083 -20.3082 -20.3079 -20.3075 -20.3073 -20.3072 -20.3069
   -20.2993 -20.2993 -20.2992 -20.2990 -20.2979 -20.2978 -20.2974 -20.2973
   -20.2925 -20.2922 -20.2916 -20.2913  -9.7655  -9.6274  -8.9759  -8.9669
    -8.8037  -8.6690  -8.1909  -8.1292  -7.8405  -7.8271  -7.6352  -7.6247
     1.3064   1.3092   1.9105   1.9694   2.3815   2.5632   2.6030   2.6860
     2.9818   3.1550   3.6557   3.7333   4.1333   4.6234   4.7457   4.9872
     5.0723   5.1109   5.4064   5.4760   5.6311   5.8127   6.3342   6.6223
     6.9348   6.9441   7.0104   7.0402   7.0629   7.1019   7.2230   7.2281
     7.7857   7.8011   7.8233   7.8497   9.8257   9.8449  10.6597  10.9743
    11.7838  11.9613  12.8333  12.9037  13.2700  13.4670  13.6261  13.8479
    14.9609  15.4617  15.5707  15.7954  16.2587  16.7890

          k = 0.1111 0.1111-0.3341 ( 31088 PWs)   bands (ev):

   -66.1714 -66.1714 -66.1696 -66.1696 -30.5365 -30.5365 -30.5310 -30.5310
   -30.5101 -30.5100 -30.4974 -30.4973 -30.4259 -30.4259 -30.4137 -30.4137
   -20.3318 -20.3318 -20.3317 -20.3317 -20.3116 -20.3116 -20.3111 -20.3111
   -20.3083 -20.3083 -20.3081 -20.3081 -20.3073 -20.3073 -20.3071 -20.3071
   -20.2992 -20.2992 -20.2992 -20.2992 -20.2978 -20.2978 -20.2974 -20.2973
   -20.2923 -20.2923 -20.2915 -20.2915  -9.6869  -9.6869  -8.9710  -8.9710
    -8.5035  -8.5035  -8.4326  -8.4326  -7.8346  -7.8346  -7.6300  -7.6300
     1.3084   1.3084   1.9574   1.9574   2.5838   2.5839   3.2368   3.2368
     3.2870   3.2870   3.3637   3.3637   3.7219   3.7219   4.8171   4.8171
     5.1352   5.1352   5.3358   5.3358   5.6881   5.6881   6.4623   6.4623
     6.9706   6.9707   7.0848   7.0848   7.1240   7.1240   7.4979   7.4979
     7.5237   7.5237   7.8044   7.8044   9.8369   9.8369  11.2456  11.2456
    11.4681  11.4681  12.8720  12.8720  13.4042  13.4042  13.6228  13.6228
    15.3830  15.3830  15.7554  15.7554  16.6585  16.6585

          k = 0.1111 0.2222 0.0000 ( 31131 PWs)   bands (ev):

   -66.1714 -66.1710 -66.1700 -66.1696 -30.5654 -30.5605 -30.5110 -30.5061
   -30.5060 -30.5028 -30.4847 -30.4829 -30.4402 -30.4377 -30.4174 -30.4148
   -20.3318 -20.3318 -20.3317 -20.3316 -20.3142 -20.3139 -20.3088 -20.3087
   -20.3084 -20.3082 -20.3080 -20.3078 -20.3075 -20.3074 -20.3072 -20.3068
   -20.2996 -20.2993 -20.2988 -20.2984 -20.2981 -20.2981 -20.2965 -20.2961
   -20.2935 -20.2929 -20.2919 -20.2913  -9.7617  -9.4619  -9.1118  -8.9098
    -8.8407  -8.7827  -8.1011  -8.0806  -7.8294  -7.7547  -7.7170  -7.6970
     1.3755   1.4506   1.5893   1.6100   2.4402   2.5212   2.7454   2.7821
     2.8738   3.0537   3.8421   3.9340   4.5038   4.5398   4.7332   4.9845
     5.1362   5.3403   5.3760   5.7021   5.7940   6.0027   6.2998   6.4085
     6.4142   6.5546   6.5916   6.7461   6.9536   7.0565   7.1380   7.3750
     7.7520   7.7705   7.9242   8.1162  10.1264  10.3822  10.4410  10.9848
    12.0877  12.5672  12.6988  12.8709  13.0681  13.3476  13.6812  14.0931
    14.1760  15.2992  15.3727  15.6726  15.9002  17.5424

          k = 0.1111 0.2222 0.1114 ( 31129 PWs)   bands (ev):

   -66.1714 -66.1711 -66.1699 -66.1696 -30.5615 -30.5567 -30.5128 -30.5076
   -30.5067 -30.5063 -30.4847 -30.4831 -30.4401 -30.4379 -30.4173 -30.4150
   -20.3318 -20.3318 -20.3317 -20.3317 -20.3139 -20.3135 -20.3092 -20.3088
   -20.3086 -20.3082 -20.3081 -20.3078 -20.3076 -20.3074 -20.3072 -20.3068
   -20.2996 -20.2993 -20.2988 -20.2985 -20.2981 -20.2981 -20.2965 -20.2962
   -20.2935 -20.2930 -20.2919 -20.2914  -9.7291  -9.4727  -9.0390  -8.8934
    -8.8421  -8.7560  -8.1166  -8.0786  -7.9200  -7.8518  -7.7158  -7.6976
     1.4237   1.4505   1.7538   1.8519   2.4418   2.5398   2.7843   2.8153
     2.8728   3.1128   3.8359   3.8895   4.3613   4.5572   4.7430   4.7613
     4.9511   5.3198   5.3597   5.6087   5.6709   5.8299   6.3375   6.4079
     6.4576   6.6298   6.7088   6.7616   6.9438   7.0517   7.1501   7.3685
     7.7542   7.7684   7.8838   8.0465  10.2735  10.4019  10.4471  11.0751
    12.0560  12.4755  12.6468  12.8596  13.0599  13.3466  13.5868  14.0010
    14.5010  15.4837  15.6638  15.7118  15.9171  17.1764

          k = 0.1111 0.2222 0.2227 ( 31117 PWs)   bands (ev):

   -66.1713 -66.1711 -66.1699 -66.1697 -30.5509 -30.5461 -30.5221 -30.5172
   -30.5082 -30.5068 -30.4846 -30.4835 -30.4396 -30.4383 -30.4168 -30.4154
   -20.3318 -20.3318 -20.3317 -20.3317 -20.3129 -20.3125 -20.3102 -20.3098
   -20.3085 -20.3082 -20.3081 -20.3077 -20.3077 -20.3073 -20.3073 -20.3069
   -20.2995 -20.2994 -20.2987 -20.2985 -20.2981 -20.2981 -20.2964 -20.2962
   -20.2934 -20.2931 -20.2918 -20.2915  -9.6506  -9.5069  -8.8686  -8.8488
    -8.8304  -8.6446  -8.2409  -8.1447  -8.0723  -8.0169  -7.7120  -7.7014
     1.4436   1.4498   2.2794   2.3929   2.4399   2.7224   2.8090   2.8676
     3.0191   3.2971   3.6435   3.7275   4.1158   4.3101   4.5660   4.6105
     4.8257   4.9531   5.1656   5.2616   5.4454   5.6933   6.3836   6.4115
     6.5419   6.7224   6.9393   6.9726   7.0270   7.1025   7.2178   7.3517
     7.7362   7.7549   7.7599   7.8449  10.3914  10.4236  10.7570  11.3456
    11.8140  12.1814  12.6225  12.8161  13.0753  13.3604  13.4080  13.7835
    15.1367  15.6287  15.9747  15.9981  16.6699  16.6784

          k = 0.1111 0.2222-0.3341 ( 31086 PWs)   bands (ev):

   -66.1712 -66.1712 -66.1698 -66.1698 -30.5364 -30.5364 -30.5317 -30.5317
   -30.5076 -30.5076 -30.4842 -30.4841 -30.4390 -30.4390 -30.4161 -30.4161
   -20.3318 -20.3318 -20.3317 -20.3317 -20.3116 -20.3116 -20.3112 -20.3112
   -20.3083 -20.3083 -20.3079 -20.3079 -20.3075 -20.3075 -20.3071 -20.3071
   -20.2995 -20.2995 -20.2986 -20.2986 -20.2981 -20.2981 -20.2963 -20.2963
   -20.2932 -20.2932 -20.2916 -20.2916  -9.5676  -9.5675  -8.8544  -8.8544
    -8.5369  -8.5362  -8.4254  -8.4246  -8.0595  -8.0591  -7.7068  -7.7066
     1.4478   1.4487   2.4203   2.4210   2.8227   2.8264   3.2263   3.2298
     3.2685   3.2969   3.4103   3.4492   3.7554   3.7660   4.4673   4.5019
     4.7621   4.7884   5.1069   5.1747   5.4751   5.5365   6.4043   6.4081
     6.6260   6.6474   7.0167   7.0369   7.2028   7.2059   7.4502   7.4775
     7.4916   7.5234   7.7659   7.7676  10.4112  10.4146  11.3076  11.3187
    11.7485  11.7590  12.7140  12.7291  13.1430  13.1952  13.5372  13.5729
    15.5015  15.5143  16.2189  16.2378  16.8301  16.8332

          k = 0.1111 0.3333 0.0000 ( 31118 PWs)   bands (ev):

   -66.1712 -66.1708 -66.1702 -66.1698 -30.5648 -30.5616 -30.5092 -30.5040
   -30.4990 -30.4981 -30.4693 -30.4671 -30.4559 -30.4535 -30.4253 -30.4227
   -20.3318 -20.3317 -20.3317 -20.3317 -20.3142 -20.3140 -20.3088 -20.3086
   -20.3085 -20.3080 -20.3080 -20.3079 -20.3075 -20.3074 -20.3073 -20.3068
   -20.2996 -20.2994 -20.2986 -20.2985 -20.2980 -20.2976 -20.2954 -20.2950
   -20.2946 -20.2941 -20.2924 -20.2918  -9.6026  -9.2702  -9.1667  -8.8366
    -8.6507  -8.6280  -8.3982  -8.3387  -7.8957  -7.8877  -7.8109  -7.7670
     1.4838   1.5865   1.7848   1.8440   2.7745   2.9571   2.9668   3.1598
     3.3079   3.3255   3.5000   3.6980   4.0074   4.3383   4.4527   4.8409
     4.9627   4.9767   5.2065   5.6132   5.6636   5.7027   5.8454   6.0052
     6.3840   6.4605   6.5835   6.7686   6.8555   7.1265   7.2177   7.6279
     7.6380   7.6638   7.7993   8.0779  10.4435  11.0131  11.0847  11.5347
    11.8030  12.5731  12.6475  12.6737  12.8855  13.2281  13.3644  13.9133
    14.3996  15.1380  15.8381  16.1576  16.5376  17.8476

          k = 0.1111 0.3333 0.1114 ( 31146 PWs)   bands (ev):

   -66.1711 -66.1708 -66.1702 -66.1699 -30.5610 -30.5578 -30.5122 -30.5079
   -30.4995 -30.4983 -30.4692 -30.4673 -30.4558 -30.4537 -30.4252 -30.4229
   -20.3318 -20.3317 -20.3317 -20.3317 -20.3139 -20.3136 -20.3092 -20.3089
   -20.3085 -20.3080 -20.3080 -20.3080 -20.3075 -20.3074 -20.3074 -20.3069
   -20.2996 -20.2994 -20.2986 -20.2985 -20.2979 -20.2976 -20.2953 -20.2950
   -20.2945 -20.2941 -20.2924 -20.2919  -9.5641  -9.2807  -9.0967  -8.8076
    -8.6526  -8.6201  -8.4087  -8.3343  -7.9241  -7.8958  -7.8863  -7.8466
     1.6608   1.7843   1.7947   1.9237   2.8260   2.9601   3.0027   3.1822
     3.3099   3.3311   3.4918   3.7242   4.0409   4.2438   4.4609   4.6718
     4.8377   4.8960   5.0404   5.4501   5.6326   5.6821   5.7131   5.8198
     6.5510   6.5948   6.6346   6.8538   6.8873   7.1167   7.2256   7.5983
     7.6420   7.6597   7.7616   8.0107  10.5780  11.0243  11.0856  11.6013
    11.8507  12.5565  12.5637  12.6380  12.8548  13.1771  13.2598  13.8172
    14.7408  15.5184  15.9507  16.1452  16.5562  17.5704

          k = 0.1111 0.3333 0.2227 ( 31104 PWs)   bands (ev):

   -66.1711 -66.1709 -66.1701 -66.1699 -30.5504 -30.5472 -30.5219 -30.5184
   -30.4999 -30.4988 -30.4689 -30.4678 -30.4554 -30.4542 -30.4247 -30.4234
   -20.3318 -20.3318 -20.3317 -20.3317 -20.3129 -20.3126 -20.3102 -20.3099
   -20.3084 -20.3081 -20.3079 -20.3079 -20.3076 -20.3075 -20.3073 -20.3070
   -20.2996 -20.2994 -20.2985 -20.2985 -20.2979 -20.2977 -20.2953 -20.2951
   -20.2945 -20.2942 -20.2923 -20.2920  -9.4722  -9.3145  -8.9030  -8.7317
    -8.6584  -8.5751  -8.4588  -8.3179  -8.1423  -8.1018  -7.8901  -7.8770
     1.7670   1.7831   2.3816   2.4671   2.9102   2.9866   3.1470   3.2327
     3.3172   3.3568   3.4591   3.6772   4.0948   4.1037   4.1660   4.3795
     4.6144   4.8247   4.9051   4.9356   5.0657   5.4163   5.7123   5.7299
     6.7832   6.8198   6.9344   6.9986   7.0515   7.1307   7.2746   7.5153
     7.6121   7.6454   7.6704   7.8177  10.9086  11.0452  11.1243  11.8058
    11.8737  12.3295  12.4500  12.5784  12.7736  13.0232  13.1832  13.5883
    15.4556  16.0864  16.3110  16.4945  16.6394  17.1610

          k = 0.1111 0.3333-0.3341 ( 31110 PWs)   bands (ev):

   -66.1710 -66.1710 -66.1700 -66.1700 -30.5361 -30.5361 -30.5328 -30.5328
   -30.4995 -30.4995 -30.4684 -30.4684 -30.4548 -30.4548 -30.4240 -30.4240
   -20.3318 -20.3318 -20.3317 -20.3317 -20.3115 -20.3115 -20.3113 -20.3113
   -20.3083 -20.3083 -20.3077 -20.3077 -20.3077 -20.3077 -20.3072 -20.3071
   -20.2995 -20.2995 -20.2985 -20.2985 -20.2978 -20.2978 -20.2952 -20.2952
   -20.2943 -20.2943 -20.2921 -20.2921  -9.3786  -9.3784  -8.6921  -8.6880
    -8.6325  -8.6266  -8.4044  -8.4013  -8.2676  -8.2655  -7.8847  -7.8841
     1.7786   1.7806   2.9031   2.9073   3.1337   3.1627   3.2008   3.2356
     3.3435   3.3564   3.4635   3.5183   3.6541   3.7005   4.2983   4.3442
     4.4225   4.4558   4.7406   4.9208   5.0276   5.1768   5.7128   5.7190
     6.8517   6.8703   7.0552   7.0832   7.2729   7.3019   7.3866   7.4327
     7.4646   7.5225   7.6685   7.6763  11.0333  11.0398  11.4838  11.5236
    12.1185  12.1400  12.4008  12.4454  12.7705  12.8793  13.3111  13.3749
    15.9032  15.9304  16.7784  16.8180  17.1279  17.1299

          k = 0.1111 0.4444 0.0000 ( 31139 PWs)   bands (ev):

   -66.1709 -66.1705 -66.1705 -66.1701 -30.5640 -30.5628 -30.5074 -30.5056
   -30.4872 -30.4857 -30.4723 -30.4702 -30.4530 -30.4506 -30.4377 -30.4351
   -20.3318 -20.3318 -20.3317 -20.3317 -20.3142 -20.3141 -20.3088 -20.3087
   -20.3084 -20.3082 -20.3078 -20.3078 -20.3076 -20.3076 -20.3071 -20.3069
   -20.2994 -20.2992 -20.2990 -20.2989 -20.2969 -20.2965 -20.2957 -20.2953
   -20.2942 -20.2938 -20.2932 -20.2927  -9.4223  -9.2673  -9.0189  -8.7449
    -8.7226  -8.5864  -8.3902  -8.3859  -8.1343  -8.1311  -7.7989  -7.7825
     1.5290   1.5593   2.2765   2.3064   2.8195   2.8533   2.9453   3.1033
     3.5253   3.7121   3.8654   3.9590   4.0079   4.1082   4.2838   4.2876
     4.6061   4.9011   4.9692   5.0815   5.3100   5.4723   5.8974   5.9608
     6.4275   6.4383   6.4744   6.5794   7.1932   7.2835   7.3760   7.4551
     7.4952   7.6067   7.8372   7.9868  10.8853  11.3640  11.6272  11.7040
    12.0808  12.1822  12.2518  12.5715  12.8196  13.0522  13.3593  13.6445
    14.6605  14.9190  16.4539  16.7919  17.3285  17.3614

          k = 0.1111 0.4444 0.1114 ( 31144 PWs)   bands (ev):

   -66.1708 -66.1705 -66.1705 -66.1702 -30.5601 -30.5590 -30.5109 -30.5094
   -30.4874 -30.4858 -30.4722 -30.4704 -30.4528 -30.4507 -30.4375 -30.4353
   -20.3318 -20.3318 -20.3317 -20.3317 -20.3138 -20.3137 -20.3091 -20.3090
   -20.3084 -20.3082 -20.3078 -20.3078 -20.3076 -20.3076 -20.3072 -20.3070
   -20.2994 -20.2993 -20.2990 -20.2989 -20.2969 -20.2965 -20.2957 -20.2953
   -20.2942 -20.2938 -20.2932 -20.2927  -9.3733  -9.2054  -9.0290  -8.7414
    -8.7117  -8.5743  -8.3931  -8.3835  -8.1365  -8.1327  -7.8926  -7.8761
     1.7549   1.7860   2.2756   2.3179   2.8280   2.8507   3.0124   3.1596
     3.5183   3.7084   3.8833   3.9531   4.0176   4.1419   4.2878   4.2967
     4.5009   4.6985   4.9470   4.9763   5.0985   5.2571   5.7110   5.7633
     6.5274   6.5365   6.6656   6.7570   7.1962   7.2740   7.3712   7.4528
     7.4906   7.5854   7.7953   7.9296  10.9924  11.4447  11.6372  11.7041
    12.1243  12.1941  12.2532  12.6055  12.6898  12.9298  13.2448  13.5391
    15.0235  15.2963  16.5342  16.7962  17.3312  17.3753

          k = 0.1111 0.4444 0.2227 ( 31131 PWs)   bands (ev):

   -66.1708 -66.1706 -66.1704 -66.1702 -30.5496 -30.5485 -30.5210 -30.5198
   -30.4873 -30.4863 -30.4720 -30.4708 -30.4525 -30.4512 -30.4371 -30.4358
   -20.3318 -20.3317 -20.3317 -20.3317 -20.3128 -20.3127 -20.3101 -20.3100
   -20.3083 -20.3081 -20.3080 -20.3078 -20.3076 -20.3075 -20.3073 -20.3071
   -20.2994 -20.2993 -20.2990 -20.2989 -20.2968 -20.2966 -20.2956 -20.2954
   -20.2941 -20.2939 -20.2931 -20.2928  -9.2544  -9.0639  -9.0441  -8.7756
    -8.6295  -8.5270  -8.4052  -8.3741  -8.1872  -8.1325  -8.1147  -8.0666
     2.1986   2.2718   2.3779   2.5187   2.8412   2.8636   3.2042   3.3131
     3.4854   3.6354   3.8148   3.9255   4.1160   4.1562   4.2012   4.2726
     4.3611   4.4112   4.5912   4.7739   4.9237   4.9741   5.0698   5.2838
     6.8542   6.8886   6.9895   7.0349   7.1952   7.2523   7.3695   7.4293
     7.4753   7.5354   7.6708   7.7616  11.2843  11.6274  11.6874  11.7152
    12.1680  12.2393  12.3180  12.3333  12.6340  12.7286  12.9707  13.2824
    15.8548  16.2081  16.7413  16.8039  17.3475  17.3881

          k = 0.1111 0.4444-0.3341 ( 31096 PWs)   bands (ev):

   -66.1707 -66.1707 -66.1703 -66.1703 -30.5352 -30.5352 -30.5341 -30.5341
   -30.4869 -30.4869 -30.4714 -30.4714 -30.4519 -30.4519 -30.4365 -30.4365
   -20.3318 -20.3317 -20.3317 -20.3317 -20.3115 -20.3115 -20.3114 -20.3114
   -20.3081 -20.3081 -20.3079 -20.3079 -20.3075 -20.3075 -20.3073 -20.3073
   -20.2993 -20.2993 -20.2990 -20.2990 -20.2967 -20.2967 -20.2955 -20.2955
   -20.2940 -20.2940 -20.2930 -20.2929  -9.1363  -9.1359  -8.8715  -8.8707
    -8.4873  -8.4834  -8.3913  -8.3899  -8.3182  -8.3182  -8.1172  -8.1159
     2.2610   2.2634   2.8015   2.8019   3.1990   3.2021   3.2517   3.2616
     3.4671   3.5010   3.6540   3.6624   3.9126   3.9374   4.2104   4.2851
     4.3577   4.4438   4.5701   4.5736   4.6467   4.7805   5.0102   5.0257
     7.0573   7.0879   7.1583   7.1632   7.2495   7.2887   7.3226   7.3941
     7.4593   7.5348   7.5416   7.5819  11.5576  11.6243  11.7712  11.8507
    12.0611  12.0884  12.2569  12.4153  12.5615  12.6206  12.9638  13.0319
    16.5005  16.5447  17.0424  17.1481  17.2539  17.3961

          k = 0.2222 0.2222 0.0000 ( 31144 PWs)   bands (ev):

   -66.1713 -66.1709 -66.1701 -66.1697 -30.5649 -30.5611 -30.5132 -30.5100
   -30.5068 -30.5035 -30.4688 -30.4666 -30.4564 -30.4541 -30.4137 -30.4111
   -20.3318 -20.3317 -20.3317 -20.3317 -20.3142 -20.3139 -20.3088 -20.3088
   -20.3085 -20.3082 -20.3081 -20.3080 -20.3075 -20.3073 -20.3073 -20.3067
   -20.2996 -20.2989 -20.2989 -20.2989 -20.2984 -20.2984 -20.2954 -20.2950
   -20.2945 -20.2941 -20.2916 -20.2910  -9.7031  -9.4123  -9.1454  -8.8945
    -8.6757  -8.6381  -8.3744  -8.3235  -7.8232  -7.7612  -7.6852  -7.6635
     1.2918   1.3356   1.5875   1.6021   2.6569   2.9459   3.0364   3.0762
     3.1125   3.2076   3.4970   3.6790   4.0191   4.4403   4.7480   4.9278
     5.2193   5.3804   5.3884   5.6915   5.7574   5.9792   6.2738   6.2753
     6.4309   6.4582   6.4978   6.6152   6.8231   6.8440   7.0689   7.5952
     7.6078   7.6425   7.7812   8.1446  10.0128  10.8472  10.9178  11.5080
    11.7530  12.5612  12.7238  12.8097  12.8644  13.4000  13.4367  14.1493
    14.2325  15.1843  15.5749  15.7196  16.3560  17.8049

          k = 0.2222 0.2222 0.1114 ( 31119 PWs)   bands (ev):

   -66.1713 -66.1709 -66.1701 -66.1697 -30.5610 -30.5572 -30.5130 -30.5106
   -30.5102 -30.5073 -30.4687 -30.4667 -30.4563 -30.4543 -30.4135 -30.4112
   -20.3318 -20.3317 -20.3317 -20.3317 -20.3139 -20.3136 -20.3091 -20.3088
   -20.3087 -20.3082 -20.3080 -20.3080 -20.3075 -20.3073 -20.3073 -20.3067
   -20.2995 -20.2990 -20.2989 -20.2989 -20.2984 -20.2984 -20.2953 -20.2950
   -20.2945 -20.2941 -20.2916 -20.2911  -9.6699  -9.4222  -9.0747  -8.8614
    -8.6784  -8.6285  -8.3843  -8.3194  -7.9170  -7.8599  -7.6838  -7.6650
     1.3157   1.3355   1.7710   1.8632   2.7225   2.9613   3.0560   3.0703
     3.1083   3.2359   3.4865   3.7031   4.0523   4.2524   4.6881   4.7223
     5.0585   5.3537   5.3617   5.5366   5.6884   5.8186   6.2795   6.4089
     6.4348   6.4753   6.5997   6.6559   6.8606   6.8943   6.9887   7.5757
     7.6100   7.6379   7.7540   8.0679  10.1981  10.8539  10.9155  11.5768
    11.7927  12.4552  12.7016  12.7357  12.8658  13.3015  13.4215  14.0568
    14.5297  15.5463  15.6997  15.7332  16.3900  17.5168

          k = 0.2222 0.2222 0.2227 ( 31142 PWs)   bands (ev):

   -66.1712 -66.1710 -66.1700 -66.1698 -30.5503 -30.5467 -30.5212 -30.5179
   -30.5124 -30.5108 -30.4684 -30.4672 -30.4560 -30.4547 -30.4131 -30.4117
   -20.3318 -20.3318 -20.3317 -20.3317 -20.3129 -20.3126 -20.3101 -20.3098
   -20.3086 -20.3083 -20.3079 -20.3078 -20.3076 -20.3075 -20.3072 -20.3068
   -20.2994 -20.2991 -20.2989 -20.2989 -20.2984 -20.2984 -20.2953 -20.2951
   -20.2944 -20.2942 -20.2915 -20.2912  -9.5914  -9.4535  -8.8780  -8.7750
    -8.6876  -8.5783  -8.4337  -8.3042  -8.1474  -8.0919  -7.6799  -7.6690
     1.3295   1.3349   2.3774   2.4955   2.9029   2.9948   3.0547   3.0997
     3.1237   3.3142   3.4470   3.6202   4.0926   4.1085   4.1737   4.3713
     4.8608   4.9243   5.1063   5.3164   5.4767   5.7408   6.3711   6.4292
     6.5389   6.5601   6.6117   6.7592   7.0528   7.0556   7.1208   7.4979
     7.6149   7.6232   7.6516   7.8464  10.6683  10.8698  10.9127  11.7361
    11.7856  12.2913  12.4770  12.6211  12.8868  13.0911  13.4583  13.8383
    15.0947  15.6271  16.1819  16.5060  16.5484  17.0837

          k = 0.2222 0.2222-0.3341 ( 31106 PWs)   bands (ev):

   -66.1711 -66.1711 -66.1699 -66.1699 -30.5358 -30.5358 -30.5323 -30.5323
   -30.5116 -30.5116 -30.4678 -30.4678 -30.4554 -30.4554 -30.4124 -30.4124
   -20.3318 -20.3318 -20.3317 -20.3317 -20.3115 -20.3115 -20.3112 -20.3112
   -20.3085 -20.3085 -20.3078 -20.3078 -20.3076 -20.3076 -20.3070 -20.3070
   -20.2993 -20.2993 -20.2989 -20.2989 -20.2984 -20.2984 -20.2952 -20.2952
   -20.2943 -20.2943 -20.2913 -20.2913  -9.5105  -9.5105  -8.7108  -8.7108
    -8.6136  -8.6136  -8.4087  -8.4086  -8.2574  -8.2574  -7.6745  -7.6745
     1.3335   1.3335   2.9767   2.9767   3.0241   3.0241   3.1835   3.1835
     3.2544   3.2544   3.4520   3.4520   3.6342   3.6342   4.3278   4.3278
     4.4440   4.4440   5.2346   5.2346   5.5505   5.5506   6.4169   6.4169
     6.6016   6.6016   6.6507   6.6507   7.2766   7.2766   7.4154   7.4154
     7.4853   7.4853   7.6488   7.6488  10.8846  10.8846  11.2730  11.2730
    12.1140  12.1140  12.4307  12.4307  12.9438  12.9438  13.6096  13.6096
    15.4562  15.4562  16.6960  16.6960  17.0987  17.0988

          k = 0.2222 0.3333 0.0000 ( 31140 PWs)   bands (ev):

   -66.1711 -66.1707 -66.1703 -66.1699 -30.5642 -30.5619 -30.5121 -30.5078
   -30.5049 -30.5047 -30.4732 -30.4712 -30.4520 -30.4495 -30.4159 -30.4133
   -20.3318 -20.3317 -20.3317 -20.3317 -20.3142 -20.3140 -20.3088 -20.3087
   -20.3086 -20.3084 -20.3082 -20.3078 -20.3077 -20.3073 -20.3070 -20.3066
   -20.2996 -20.2992 -20.2988 -20.2987 -20.2984 -20.2982 -20.2957 -20.2952
   -20.2942 -20.2937 -20.2917 -20.2912  -9.6027  -9.3084  -9.2139  -8.8645
    -8.6597  -8.5502  -8.4404  -8.4250  -7.8147  -7.7734  -7.7661  -7.7464
     1.3732   1.4419   1.5860   1.6325   2.6760   2.8013   2.8363   3.1039
     3.4189   3.4978   3.7823   3.9247   4.0095   4.4521   4.6640   4.8685
     5.1084   5.1130   5.2960   5.6254   5.7555   5.8680   5.9450   6.0249
     6.3333   6.4674   6.6256   6.6432   6.7377   6.8442   7.0011   7.3773
     7.4344   7.5978   7.8170   8.1323  10.1262  11.3342  11.3862  11.4457
    12.0368  12.5360  12.5437  12.6266  12.9925  13.0984  13.4680  14.0828
    14.3290  14.9963  15.9624  15.9711  16.9362  17.7869

          k = 0.2222 0.3333 0.1114 ( 31131 PWs)   bands (ev):

   -66.1711 -66.1707 -66.1703 -66.1699 -30.5604 -30.5580 -30.5129 -30.5084
   -30.5080 -30.5079 -30.4732 -30.4714 -30.4518 -30.4497 -30.4158 -30.4135
   -20.3318 -20.3317 -20.3317 -20.3317 -20.3138 -20.3136 -20.3091 -20.3089
   -20.3088 -20.3083 -20.3082 -20.3078 -20.3077 -20.3073 -20.3071 -20.3067
   -20.2996 -20.2992 -20.2987 -20.2987 -20.2984 -20.2983 -20.2956 -20.2953
   -20.2941 -20.2938 -20.2917 -20.2912  -9.5670  -9.3173  -9.1495  -8.8279
    -8.6681  -8.5401  -8.4441  -8.4215  -7.9083  -7.8715  -7.7668  -7.7476
     1.4133   1.4418   1.7822   1.8652   2.7426   2.8088   2.8350   3.1681
     3.4199   3.4959   3.7565   3.9523   3.9889   4.3092   4.6436   4.6899
     5.0202   5.0876   5.1558   5.4125   5.7117   5.7895   5.9087   6.0351
     6.3725   6.5718   6.6280   6.7281   6.7898   6.8798   6.9703   7.3828
     7.4276   7.5763   7.7741   8.0554  10.3025  11.3868  11.4183  11.4455
    12.0920  12.4136  12.5211  12.6147  12.9641  13.0078  13.4035  13.9881
    14.6282  15.3643  15.9355  16.0975  16.9768  17.6842

          k = 0.2222 0.3333 0.2227 ( 31134 PWs)   bands (ev):

   -66.1710 -66.1708 -66.1702 -66.1700 -30.5498 -30.5475 -30.5210 -30.5188
   -30.5098 -30.5086 -30.4730 -30.4719 -30.4514 -30.4502 -30.4153 -30.4140
   -20.3318 -20.3317 -20.3317 -20.3317 -20.3128 -20.3127 -20.3101 -20.3099
   -20.3087 -20.3084 -20.3082 -20.3079 -20.3076 -20.3072 -20.3072 -20.3068
   -20.2995 -20.2993 -20.2987 -20.2987 -20.2984 -20.2983 -20.2956 -20.2953
   -20.2941 -20.2938 -20.2916 -20.2913  -9.4838  -9.3464  -8.9801  -8.7147
    -8.6973  -8.5007  -8.4581  -8.4073  -8.1382  -8.1137  -7.7629  -7.7518
     1.4339   1.4411   2.3695   2.5122   2.8151   2.8441   2.9562   3.3411
     3.4152   3.4974   3.6293   3.7063   4.1315   4.1667   4.2585   4.4001
     4.7280   4.8578   5.0695   5.1322   5.2085   5.5936   6.0188   6.0413
     6.5271   6.6127   6.7183   6.8103   6.9938   7.0736   7.1049   7.4005
     7.4148   7.5008   7.6416   7.8320  10.7585  11.3985  11.4342  11.6105
    12.0626  12.2573  12.4003  12.6242  12.7722  12.8445  13.3771  13.7631
    15.2237  15.8428  16.2519  16.5204  17.1318  17.4148

          k = 0.2222 0.3333-0.3341 ( 31128 PWs)   bands (ev):

   -66.1709 -66.1709 -66.1701 -66.1701 -30.5353 -30.5353 -30.5331 -30.5331
   -30.5093 -30.5093 -30.4725 -30.4725 -30.4508 -30.4508 -30.4146 -30.4146
   -20.3318 -20.3318 -20.3317 -20.3317 -20.3115 -20.3115 -20.3113 -20.3113
   -20.3085 -20.3085 -20.3080 -20.3080 -20.3074 -20.3074 -20.3070 -20.3070
   -20.2994 -20.2994 -20.2987 -20.2987 -20.2984 -20.2984 -20.2955 -20.2954
   -20.2940 -20.2940 -20.2915 -20.2914  -9.4016  -9.4015  -8.7969  -8.7961
    -8.5415  -8.5390  -8.3728  -8.3677  -8.3439  -8.3403  -7.7575  -7.7572
     1.4388   1.4397   2.7780   2.7791   3.2081   3.2092   3.2265   3.2567
     3.4180   3.4188   3.4945   3.5350   3.7017   3.7163   4.3121   4.3155
     4.5203   4.5209   4.9988   5.1483   5.2402   5.3806   6.0374   6.0445
     6.5967   6.6101   6.7637   6.7781   7.2411   7.2902   7.3192   7.3407
     7.4313   7.4560   7.5148   7.5449  11.2925  11.3357  11.4100  11.4727
    12.0973  12.1090  12.5138  12.5206  12.6734  12.6951  13.5128  13.5381
    15.6310  15.6443  17.0273  17.0718  17.1940  17.2554

          k = 0.2222 0.4444 0.0000 ( 31138 PWs)   bands (ev):

   -66.1708 -66.1706 -66.1704 -66.1702 -30.5635 -30.5627 -30.5087 -30.5063
   -30.4998 -30.4995 -30.4884 -30.4871 -30.4363 -30.4338 -30.4238 -30.4212
   -20.3318 -20.3318 -20.3317 -20.3317 -20.3141 -20.3141 -20.3087 -20.3087
   -20.3087 -20.3086 -20.3081 -20.3079 -20.3076 -20.3074 -20.3068 -20.3067
   -20.2995 -20.2992 -20.2991 -20.2990 -20.2977 -20.2974 -20.2967 -20.2963
   -20.2931 -20.2926 -20.2922 -20.2917  -9.4688  -9.3270  -9.1436  -8.9231
    -8.8101  -8.7126  -8.1816  -8.1811  -7.9468  -7.9369  -7.7962  -7.7835
     1.5059   1.5589   1.7614   1.8379   2.2498   2.2843   2.7671   2.9224
     3.8375   3.9656   4.1692   4.2091   4.3221   4.4198   4.5260   4.6671
     4.8695   5.0470   5.3804   5.4650   5.4920   5.5075   5.7945   5.8499
     6.4914   6.4926   6.6029   6.6973   6.9183   6.9241   7.0263   7.1520
     7.1814   7.3437   7.9737   8.0767  10.4446  10.8771  11.8864  11.9209
    12.2897  12.2973  12.5184  12.6425  12.8275  12.8764  13.6483  13.8988
    14.5099  14.7549  16.4390  16.5221  17.1553  17.2619

          k = 0.2222 0.4444 0.1114 ( 31134 PWs)   bands (ev):

   -66.1708 -66.1705 -66.1705 -66.1702 -30.5597 -30.5589 -30.5113 -30.5098
   -30.5006 -30.5000 -30.4886 -30.4873 -30.4362 -30.4340 -30.4236 -30.4214
   -20.3318 -20.3318 -20.3317 -20.3317 -20.3138 -20.3137 -20.3091 -20.3090
   -20.3087 -20.3085 -20.3082 -20.3080 -20.3075 -20.3074 -20.3069 -20.3068
   -20.2995 -20.2992 -20.2991 -20.2990 -20.2976 -20.2974 -20.2967 -20.2964
   -20.2931 -20.2926 -20.2922 -20.2917  -9.4269  -9.2743  -9.1520  -8.9313
    -8.7779  -8.6908  -8.1875  -8.1793  -7.9530  -7.9454  -7.8873  -7.8701
     1.6567   1.7609   1.7721   1.9321   2.2485   2.2977   2.8393   2.9953
     3.8297   3.9521   4.0822   4.1815   4.2667   4.4191   4.5278   4.6172
     4.8737   4.9163   5.1508   5.2805   5.4228   5.4967   5.7550   5.7946
     6.4394   6.5299   6.7308   6.8412   6.9000   6.9559   7.0306   7.1524
     7.1754   7.3337   7.9143   8.0058  10.5909  10.9911  11.8868  11.9172
    12.2745  12.3015  12.4992  12.5686  12.7003  12.9207  13.5415  13.7982
    14.8334  15.1049  16.4097  16.6165  17.1174  17.3222

          k = 0.2222 0.4444 0.2227 ( 31138 PWs)   bands (ev):

   -66.1707 -66.1705 -66.1705 -66.1703 -30.5491 -30.5484 -30.5207 -30.5198
   -30.5014 -30.5005 -30.4887 -30.4878 -30.4357 -30.4345 -30.4232 -30.4219
   -20.3318 -20.3317 -20.3317 -20.3317 -20.3128 -20.3127 -20.3101 -20.3100
   -20.3086 -20.3084 -20.3083 -20.3081 -20.3074 -20.3072 -20.3070 -20.3069
   -20.2994 -20.2992 -20.2991 -20.2990 -20.2976 -20.2975 -20.2966 -20.2965
   -20.2930 -20.2927 -20.2921 -20.2918  -9.3295  -9.1804  -9.1466  -8.9604
    -8.6659  -8.6067  -8.2356  -8.1750  -8.1443  -8.0901  -7.9410  -7.9257
     1.7428   1.7595   2.1729   2.2441   2.4973   2.5206   3.0583   3.2155
     3.6756   3.7234   3.9320   4.0199   4.3824   4.4004   4.4292   4.4898
     4.5862   4.7446   4.8742   4.9135   5.2832   5.3151   5.5120   5.6214
     6.6634   6.7423   6.8747   6.9395   6.9875   7.0532   7.1102   7.1831
     7.2032   7.3044   7.7350   7.7962  10.9855  11.3058  11.8840  11.8916
    12.1292  12.1689  12.3040  12.4433  12.7141  13.0371  13.2902  13.5558
    15.5219  15.9039  16.3033  16.8693  17.0492  17.5121

          k = 0.2222 0.4444-0.3341 ( 31134 PWs)   bands (ev):

   -66.1706 -66.1706 -66.1704 -66.1704 -30.5348 -30.5348 -30.5340 -30.5340
   -30.5011 -30.5011 -30.4884 -30.4884 -30.4351 -30.4351 -30.4225 -30.4225
   -20.3318 -20.3317 -20.3317 -20.3317 -20.3114 -20.3114 -20.3114 -20.3114
   -20.3084 -20.3084 -20.3083 -20.3083 -20.3072 -20.3072 -20.3071 -20.3071
   -20.2993 -20.2993 -20.2991 -20.2991 -20.2975 -20.2975 -20.2966 -20.2965
   -20.2928 -20.2928 -20.2920 -20.2920  -9.2374  -9.2371  -9.0267  -9.0263
    -8.4571  -8.4551  -8.4171  -8.4168  -8.1600  -8.1591  -7.9351  -7.9344
     1.7550   1.7564   2.2331   2.2340   3.2279   3.2314   3.2352   3.2457
     3.5219   3.5657   3.6485   3.6647   3.9354   4.0235   4.4374   4.5226
     4.6669   4.6804   4.9114   4.9794   5.0490   5.0570   5.5258   5.5433
     6.7803   6.7880   6.9402   6.9562   7.0506   7.1329   7.1671   7.2094
     7.4309   7.4638   7.4706   7.4996  11.4913  11.5150  11.7506  11.7758
    11.9031  11.9725  12.3037  12.3756  12.9280  12.9648  13.2755  13.3121
    16.0382  16.0616  16.5908  16.6228  17.4551  17.5072

          k = 0.3333 0.3333 0.0000 ( 31140 PWs)   bands (ev):

   -66.1709 -66.1706 -66.1704 -66.1700 -30.5636 -30.5622 -30.5150 -30.5118
   -30.5059 -30.5051 -30.4888 -30.4877 -30.4358 -30.4333 -30.4122 -30.4096
   -20.3318 -20.3317 -20.3317 -20.3317 -20.3141 -20.3140 -20.3090 -20.3086
   -20.3086 -20.3086 -20.3084 -20.3080 -20.3075 -20.3073 -20.3068 -20.3066
   -20.2997 -20.2992 -20.2989 -20.2988 -20.2984 -20.2984 -20.2966 -20.2963
   -20.2930 -20.2925 -20.2914 -20.2909  -9.5747  -9.2993  -9.2987  -8.8944
    -8.8645  -8.7004  -8.2013  -8.1999  -7.8056  -7.7777  -7.7376  -7.7152
     1.2803   1.3109   1.5759   1.6111   2.2373   2.2717   2.6174   2.9120
     3.7547   3.8438   4.1914   4.2576   4.2914   4.8037   4.8092   4.9473
     5.1792   5.1883   5.3507   5.6347   5.6610   5.7551   5.9876   6.1566
     6.2535   6.2945   6.5320   6.5405   6.7094   6.8193   7.0143   7.0958
     7.1123   7.3308   7.9693   8.1511   9.9984  10.8630  11.7866  11.8289
    12.4284  12.4313  12.5072  12.5201  12.8534  13.1648  13.6851  14.1456
    14.3091  14.7808  15.9295  16.2717  17.1974  17.3774

          k = 0.3333 0.3333 0.1114 ( 31142 PWs)   bands (ev):

   -66.1709 -66.1706 -66.1704 -66.1701 -30.5597 -30.5583 -30.5148 -30.5120
   -30.5093 -30.5091 -30.4891 -30.4879 -30.4356 -30.4334 -30.4121 -30.4098
   -20.3318 -20.3317 -20.3317 -20.3317 -20.3138 -20.3136 -20.3090 -20.3090
   -20.3089 -20.3086 -20.3084 -20.3081 -20.3075 -20.3072 -20.3069 -20.3066
   -20.2996 -20.2992 -20.2989 -20.2989 -20.2984 -20.2984 -20.2966 -20.2963
   -20.2930 -20.2926 -20.2914 -20.2909  -9.5401  -9.3074  -9.2449  -8.9022
    -8.8251  -8.6794  -8.2073  -8.1979  -7.9003  -7.8761  -7.7363  -7.7168
     1.2958   1.3108   1.7743   1.8592   2.2358   2.2854   2.6877   2.9863
     3.7538   3.8388   4.0928   4.1242   4.2505   4.7777   4.8081   4.8608
     5.1332   5.1672   5.1722   5.3713   5.7328   5.7870   5.9652   6.1395
     6.2008   6.2523   6.5539   6.6704   6.8080   6.8281   7.0110   7.0549
     7.1004   7.3231   7.9095   8.0705  10.1943  10.9783  11.7885  11.8264
    12.3553  12.4001  12.4577  12.5584  12.7407  13.1858  13.5922  14.0506
    14.5909  15.1255  15.8985  16.4003  17.1537  17.4271

          k = 0.3333 0.3333 0.2227 ( 31138 PWs)   bands (ev):

   -66.1709 -66.1707 -66.1703 -66.1701 -30.5490 -30.5478 -30.5198 -30.5193
   -30.5142 -30.5126 -30.4893 -30.4884 -30.4352 -30.4339 -30.4116 -30.4103
   -20.3318 -20.3317 -20.3317 -20.3317 -20.3128 -20.3127 -20.3100 -20.3099
   -20.3088 -20.3085 -20.3085 -20.3082 -20.3074 -20.3071 -20.3070 -20.3067
   -20.2995 -20.2992 -20.2990 -20.2989 -20.2984 -20.2984 -20.2966 -20.2964
   -20.2929 -20.2927 -20.2913 -20.2910  -9.4607  -9.3338  -9.1150  -8.9299
    -8.6955  -8.5973  -8.2526  -8.1915  -8.1322  -8.0975  -7.7322  -7.7209
     1.3060   1.3104   2.1632   2.2313   2.5130   2.5291   2.8931   3.2114
     3.6136   3.7494   3.8294   3.8421   4.3887   4.4201   4.5008   4.7727
     4.7966   4.9883   5.1788   5.1980   5.3692   5.6433   6.1227   6.1777
     6.2214   6.2594   6.6160   6.8109   6.9008   6.9577   7.0619   7.1325
     7.1742   7.2905   7.7283   7.8362  10.6900  11.2880  11.7915  11.8192
    11.9505  12.2058  12.4807  12.5628  12.6996  13.1587  13.4655  13.8254
    15.1560  15.7940  15.9156  16.8194  16.9995  17.6083

          k = 0.3333 0.3333-0.3341 ( 31136 PWs)   bands (ev):

   -66.1708 -66.1707 -66.1702 -66.1702 -30.5344 -30.5344 -30.5335 -30.5335
   -30.5134 -30.5134 -30.4889 -30.4889 -30.4346 -30.4346 -30.4109 -30.4109
   -20.3318 -20.3318 -20.3317 -20.3317 -20.3114 -20.3114 -20.3113 -20.3113
   -20.3087 -20.3087 -20.3083 -20.3083 -20.3072 -20.3072 -20.3069 -20.3069
   -20.2994 -20.2994 -20.2990 -20.2990 -20.2984 -20.2984 -20.2965 -20.2965
   -20.2928 -20.2928 -20.2912 -20.2912  -9.3841  -9.3841  -8.9943  -8.9943
    -8.4712  -8.4712  -8.4070  -8.4070  -8.1770  -8.1770  -7.7266  -7.7266
     1.3092   1.3092   2.2207   2.2207   3.2148   3.2148   3.2381   3.2382
     3.4504   3.4505   3.6771   3.6771   3.8252   3.8252   4.6493   4.6494
     4.8416   4.8416   5.2071   5.2071   5.3742   5.3742   6.1756   6.1756
     6.2610   6.2610   6.7096   6.7096   6.9928   6.9928   7.1950   7.1950
     7.4322   7.4322   7.4943   7.4943  11.2960  11.2960  11.7851  11.7851
    11.8146  11.8146  12.5068  12.5068  12.9262  12.9262  13.5893  13.5893
    15.5739  15.5739  16.6319  16.6319  17.4049  17.4049

          k = 0.3333 0.4444 0.0000 ( 31139 PWs)   bands (ev):

   -66.1708 -66.1706 -66.1704 -66.1702 -30.5630 -30.5626 -30.5134 -30.5094
   -30.5087 -30.5037 -30.5010 -30.4996 -30.4228 -30.4202 -30.4146 -30.4120
   -20.3318 -20.3318 -20.3317 -20.3317 -20.3141 -20.3140 -20.3090 -20.3089
   -20.3086 -20.3086 -20.3084 -20.3082 -20.3074 -20.3073 -20.3067 -20.3066
   -20.2996 -20.2994 -20.2990 -20.2990 -20.2980 -20.2980 -20.2974 -20.2972
   -20.2921 -20.2916 -20.2915 -20.2910  -9.5074  -9.4072  -9.2264  -9.0888
    -8.8426  -8.7933  -7.9814  -7.9710  -7.8147  -7.8071  -7.7851  -7.7840
     1.3692   1.4152   1.5286   1.6438   1.7391   1.8220   2.6385   2.7410
     4.1731   4.2884   4.3364   4.3892   4.5275   4.6549   4.7769   4.8418
     5.4324   5.4442   5.4825   5.5398   5.6773   5.6988   5.8068   5.9277
     6.3387   6.3830   6.6003   6.6314   6.6619   6.7156   6.7696   6.9506
     7.0178   7.0566   8.0726   8.1316  10.1161  10.4340  12.0979  12.1305
    12.2933  12.3140  12.5371  12.6551  12.8884  13.1278  13.9069  14.0810
    14.3786  14.5489  16.1290  16.5622  16.7188  17.2443

          k = 0.3333 0.4444 0.1114 ( 31146 PWs)   bands (ev):

   -66.1708 -66.1706 -66.1704 -66.1702 -30.5591 -30.5587 -30.5137 -30.5109
   -30.5096 -30.5072 -30.5011 -30.5011 -30.4227 -30.4204 -30.4145 -30.4122
   -20.3318 -20.3318 -20.3317 -20.3317 -20.3137 -20.3137 -20.3090 -20.3090
   -20.3089 -20.3088 -20.3084 -20.3083 -20.3073 -20.3072 -20.3067 -20.3066
   -20.2996 -20.2994 -20.2991 -20.2990 -20.2980 -20.2980 -20.2974 -20.2972
   -20.2921 -20.2917 -20.2915 -20.2911  -9.4707  -9.3641  -9.2341  -9.0964
    -8.8047  -8.7617  -7.9828  -7.9799  -7.8951  -7.8785  -7.8131  -7.7924
     1.3941   1.4151   1.6538   1.7386   1.8649   1.9285   2.7101   2.8148
     4.0692   4.1266   4.2494   4.3064   4.5753   4.6764   4.7726   4.8605
     5.2184   5.2806   5.3992   5.4785   5.7309   5.7552   5.8027   5.9329
     6.2859   6.3210   6.5823   6.6167   6.7082   6.7992   6.8537   6.9490
     6.9984   7.0304   8.0004   8.0525  10.2986  10.5834  12.1020  12.1260
    12.2927  12.3049  12.3880  12.5276  12.9325  13.1666  13.8052  13.9832
    14.6689  14.8643  16.0956  16.5310  16.8297  17.3391

          k = 0.3333 0.4444 0.2227 ( 31149 PWs)   bands (ev):

   -66.1707 -66.1705 -66.1705 -66.1703 -30.5485 -30.5482 -30.5199 -30.5198
   -30.5112 -30.5101 -30.5024 -30.5016 -30.4222 -30.4209 -30.4140 -30.4127
   -20.3318 -20.3317 -20.3317 -20.3317 -20.3127 -20.3127 -20.3100 -20.3099
   -20.3088 -20.3087 -20.3086 -20.3084 -20.3072 -20.3071 -20.3068 -20.3067
   -20.2995 -20.2993 -20.2992 -20.2991 -20.2980 -20.2980 -20.2974 -20.2973
   -20.2920 -20.2917 -20.2914 -20.2912  -9.3871  -9.2652  -9.2593  -9.1219
    -8.6770  -8.6488  -8.1595  -8.1402  -7.9753  -7.9581  -7.8091  -7.7976
     1.4087   1.4145   1.7222   1.7371   2.4940   2.5154   2.9247   3.0408
     3.6513   3.7036   4.2457   4.2803   4.4659   4.4871   4.6976   4.7474
     4.7969   5.0022   5.2664   5.4738   5.5534   5.6333   5.9304   5.9526
     6.2954   6.3362   6.5897   6.6453   6.7615   6.8936   6.9680   7.0191
     7.0919   7.1135   7.7863   7.8211  10.7699  10.9843  11.9494  12.0468
    12.1104  12.1438  12.3223  12.3704  13.0609  13.2797  13.5631  13.7496
    15.2698  15.5478  15.9819  16.4045  17.2117  17.6635

          k = 0.3333 0.4444-0.3341 ( 31140 PWs)   bands (ev):

   -66.1706 -66.1706 -66.1704 -66.1704 -30.5340 -30.5340 -30.5338 -30.5338
   -30.5108 -30.5108 -30.5022 -30.5022 -30.4216 -30.4215 -30.4133 -30.4133
   -20.3317 -20.3317 -20.3317 -20.3317 -20.3114 -20.3113 -20.3113 -20.3113
   -20.3087 -20.3087 -20.3086 -20.3086 -20.3070 -20.3070 -20.3069 -20.3069
   -20.2994 -20.2993 -20.2992 -20.2992 -20.2980 -20.2980 -20.2973 -20.2973
   -20.2919 -20.2919 -20.2913 -20.2913  -9.3089  -9.3087  -9.1751  -9.1750
    -8.4463  -8.4458  -8.4282  -8.4280  -7.9688  -7.9685  -7.8036  -7.8034
     1.4128   1.4132   1.7334   1.7338   3.2120   3.2157   3.2231   3.2280
     3.4799   3.4872   3.5590   3.5642   4.2568   4.2929   4.7175   4.7748
     4.9852   5.0124   5.2086   5.2837   5.5139   5.5552   5.9413   5.9625
     6.3334   6.3469   6.6216   6.6422   6.8206   6.8367   7.0122   7.0222
     7.4445   7.4550   7.4677   7.4778  11.3641  11.3662  11.5336  11.5364
    12.1140  12.1326  12.3307  12.3507  13.2613  13.2736  13.4950  13.5070
    15.7320  15.7410  16.1075  16.1174  17.7474  17.7643

          k = 0.4444 0.4444 0.0000 ( 31174 PWs)   bands (ev):

   -66.1707 -66.1707 -66.1703 -66.1703 -30.5626 -30.5625 -30.5162 -30.5140
   -30.5129 -30.5100 -30.5041 -30.5033 -30.4141 -30.4116 -30.4112 -30.4086
   -20.3318 -20.3318 -20.3317 -20.3317 -20.3140 -20.3140 -20.3091 -20.3090
   -20.3086 -20.3086 -20.3085 -20.3084 -20.3073 -20.3072 -20.3065 -20.3065
   -20.2998 -20.2997 -20.2990 -20.2990 -20.2981 -20.2980 -20.2978 -20.2978
   -20.2915 -20.2913 -20.2910 -20.2908  -9.5130  -9.4770  -9.2468  -9.2000
    -8.8491  -8.8343  -7.8340  -7.8185  -7.7936  -7.7857  -7.7724  -7.7497
     1.2707   1.2900   1.3674   1.4035   1.6293   1.6518   2.5869   2.6226
     4.3487   4.3657   4.5651   4.6669   4.8013   4.8394   4.8805   4.8997
     5.4388   5.5144   5.5917   5.6017   5.7772   5.8682   5.9678   6.0642
     6.1050   6.2299   6.2616   6.3547   6.5757   6.7221   6.7635   6.8292
     7.0366   7.0993   8.1300   8.1492   9.9913  10.1119  12.2019  12.2475
    12.2577  12.3051  12.4971  12.5386  13.1418  13.2284  14.0869  14.1496
    14.3342  14.3921  16.0318  16.1827  16.9312  17.1355

          k = 0.4444 0.4444 0.1114 ( 31137 PWs)   bands (ev):

   -66.1707 -66.1706 -66.1704 -66.1703 -30.5587 -30.5586 -30.5160 -30.5141
   -30.5131 -30.5102 -30.5080 -30.5068 -30.4139 -30.4117 -30.4111 -30.4088
   -20.3318 -20.3318 -20.3317 -20.3317 -20.3137 -20.3137 -20.3091 -20.3090
   -20.3089 -20.3089 -20.3086 -20.3085 -20.3072 -20.3072 -20.3066 -20.3065
   -20.2997 -20.2996 -20.2991 -20.2991 -20.2981 -20.2980 -20.2978 -20.2978
   -20.2915 -20.2913 -20.2910 -20.2908  -9.4779  -9.4400  -9.2541  -9.2074
    -8.8094  -8.7966  -7.8964  -7.8910  -7.8324  -7.8109  -7.7711  -7.7514
     1.2796   1.2899   1.3859   1.4034   1.8634   1.8727   2.6580   2.6948
     4.0894   4.1099   4.5925   4.6636   4.8466   4.8788   4.8812   4.9098
     5.2653   5.2923   5.6626   5.7067   5.7205   5.8140   5.9498   6.0792
     6.1061   6.2091   6.2423   6.3365   6.5971   6.7366   6.8148   6.8715
     6.9893   7.0194   8.0504   8.0674  10.1905  10.2956  12.2139  12.2562
    12.2642  12.2878  12.3434  12.4028  13.1801  13.2641  13.9884  14.0526
    14.6119  14.6797  15.9981  16.1478  17.0607  17.2600

          k = 0.4444 0.4444 0.2227 ( 31129 PWs)   bands (ev):

   -66.1706 -66.1706 -66.1704 -66.1704 -30.5480 -30.5480 -30.5194 -30.5188
   -30.5154 -30.5137 -30.5117 -30.5107 -30.4135 -30.4122 -30.4106 -30.4093
   -20.3318 -20.3317 -20.3317 -20.3317 -20.3127 -20.3127 -20.3099 -20.3099
   -20.3089 -20.3089 -20.3087 -20.3086 -20.3071 -20.3070 -20.3067 -20.3067
   -20.2996 -20.2995 -20.2992 -20.2992 -20.2981 -20.2980 -20.2978 -20.2978
   -20.2914 -20.2912 -20.2911 -20.2909  -9.3988  -9.3564  -9.2782  -9.2315
    -8.6768  -8.6684  -8.1458  -8.1410  -7.8280  -7.8163  -7.7673  -7.7558
     1.2863   1.2896   1.3978   1.4028   2.5137   2.5269   2.8672   2.9118
     3.6314   3.6512   4.4551   4.4745   4.6250   4.6766   4.8800   4.9030
     4.9985   5.0742   5.5223   5.5937   5.8586   5.9371   5.9831   6.0976
     6.1066   6.1379   6.2535   6.2930   6.6580   6.7799   6.8665   6.9049
     7.0845   7.0921   7.8172   7.8289  10.6935  10.7691  11.9188  11.9516
    12.2330  12.2526  12.2892  12.3173  13.2965  13.3756  13.7529  13.8211
    15.1864  15.2839  15.8837  16.0282  17.4925  17.6936

          k = 0.4444 0.4444-0.3341 ( 31138 PWs)   bands (ev):

   -66.1705 -66.1705 -66.1705 -66.1705 -30.5335 -30.5335 -30.5334 -30.5334
   -30.5146 -30.5146 -30.5114 -30.5114 -30.4128 -30.4128 -30.4100 -30.4100
   -20.3317 -20.3317 -20.3317 -20.3317 -20.3113 -20.3113 -20.3113 -20.3113
   -20.3088 -20.3088 -20.3088 -20.3088 -20.3069 -20.3069 -20.3069 -20.3069
   -20.2994 -20.2994 -20.2994 -20.2994 -20.2981 -20.2981 -20.2978 -20.2978
   -20.2912 -20.2912 -20.2910 -20.2910  -9.3251  -9.3251  -9.2794  -9.2794
    -8.4400  -8.4400  -8.4346  -8.4346  -7.8222  -7.8222  -7.7617  -7.7617
     1.2887   1.2887   1.4015   1.4015   3.2005   3.2005   3.2069   3.2069
     3.4640   3.4640   3.4887   3.4887   4.6486   4.6486   4.8885   4.8885
     5.2408   5.2409   5.3245   5.3245   5.9234   5.9234   6.0865   6.0865
     6.1122   6.1122   6.2641   6.2641   6.7508   6.7508   6.8420   6.8420
     7.4602   7.4602   7.4705   7.4705  11.3200  11.3200  11.3779  11.3779
    12.2453  12.2453  12.3054  12.3054  13.4909  13.4909  13.5734  13.5734
    15.6398  15.6398  15.7690  15.7690  18.0892  18.0892

     the Fermi energy is     8.8888 ev

!    total energy              =   -3130.55468600 Ry
     Harris-Foulkes estimate   =   -3130.55468600 Ry
     estimated scf accuracy    <          1.1E-09 Ry

     The total energy is the sum of the following terms:

     one-electron contribution =   -2360.44513225 Ry
     hartree contribution      =    1298.59825696 Ry
     xc contribution           =    -482.83451919 Ry
     ewald contribution        =   -1585.87329152 Ry
     smearing contrib. (-TS)   =      -0.00000000 Ry

     convergence has been achieved in  12 iterations

     Writing output data file chempot_0.save/
 
     init_run     :      8.48s CPU      8.93s WALL (       1 calls)
     electrons    :    328.77s CPU    333.06s WALL (       1 calls)

     Called by init_run:
     wfcinit      :      7.58s CPU      7.93s WALL (       1 calls)
     potinit      :      0.32s CPU      0.35s WALL (       1 calls)
     hinit0       :      0.48s CPU      0.51s WALL (       1 calls)

     Called by electrons:
     c_bands      :    282.21s CPU    286.04s WALL (      12 calls)
     sum_band     :     41.72s CPU     41.92s WALL (      12 calls)
     v_of_rho     :      0.84s CPU      0.87s WALL (      13 calls)
     mix_rho      :      1.09s CPU      1.25s WALL (      12 calls)

     Called by c_bands:
     init_us_2    :      2.41s CPU      2.55s WALL (      50 calls)
     cegterg      :    207.92s CPU    211.61s WALL (      24 calls)

     Called by sum_band:

     Called by *egterg:
     h_psi        :    176.41s CPU    178.13s WALL (      92 calls)
     g_psi        :      0.88s CPU      0.88s WALL (      66 calls)
     cdiaghg      :      1.99s CPU      2.02s WALL (      90 calls)

     Called by h_psi:
     h_psi:pot    :    175.84s CPU    176.24s WALL (      92 calls)
     h_psi:calbec :     14.07s CPU     14.24s WALL (      92 calls)
     vloc_psi     :    146.03s CPU    146.23s WALL (      92 calls)
     add_vuspsi   :     15.74s CPU     15.77s WALL (      92 calls)

     General routines
     calbec       :     14.07s CPU     14.24s WALL (      92 calls)
     fft          :      0.36s CPU      0.36s WALL (      39 calls)
     ffts         :      0.11s CPU      0.11s WALL (      12 calls)
     fftw         :    150.05s CPU    150.14s WALL (   15640 calls)
 
     Parallel routines
 
     PWSCF        :   5m38.30s CPU   5m43.47s WALL

 
   This run was terminated on:  16:13:32   3Dec2019            

=------------------------------------------------------------------------------=
   JOB DONE.
=------------------------------------------------------------------------------=
