
     Program PWSCF v.6.2 (svn rev. 14038) starts on 25Mar2020 at 19:48:29 

     This program is part of the open-source Quantum ESPRESSO suite
     for quantum simulation of materials; please cite
         "P. Giannozzi et al., J. Phys.:Condens. Matter 21 395502 (2009);
         "P. Giannozzi et al., J. Phys.:Condens. Matter 29 465901 (2017);
          URL http://www.quantum-espresso.org", 
     in publications or presentations arising from this work. More details at
     http://www.quantum-espresso.org/quote

     Parallel version (MPI), running on    40 processors

     MPI processes distributed on    10 nodes
     K-points division:     npool     =      40
     Reading input from scf.in

     Current dimensions of program PWSCF are:
     Max number of different atomic species (ntypx) = 10
     Max number of k-points (npk) =  40000
     Max angular momentum in pseudopotentials (lmaxx) =  3

     Subspace diagonalization in iterative solution of the eigenvalue problem:
     a serial algorithm will be used

 
     G-vector sticks info
     --------------------
     sticks:   dense  smooth     PW     G-vecs:    dense   smooth      PW
     Sum        7721    7721   2071               499973   499973   69289
 


     bravais-lattice index     =            0
     lattice parameter (alat)  =      13.9257  a.u.
     unit-cell volume          =    2814.7226 (a.u.)^3
     number of atoms/cell      =           32
     number of atomic types    =            2
     number of electrons       =       368.60
     number of Kohn-Sham states=          221
     kinetic-energy cutoff     =     120.0000  Ry
     charge density cutoff     =     480.0000  Ry
     convergence threshold     =      1.0E-08
     mixing beta               =       0.7000
     number of iterations used =            8  plain     mixing
     Exchange-correlation      = SLA PW NOGX NOGC ( 1  4  0  0 0 0)

     celldm(1)=  13.925672  celldm(2)=   0.000000  celldm(3)=   0.000000
     celldm(4)=   0.000000  celldm(5)=   0.000000  celldm(6)=   0.000000

     crystal axes: (cart. coord. in units of alat)
               a(1) = (   1.000000   0.000000   0.000000 )  
               a(2) = (   0.000000   1.041412   0.000000 )  
               a(3) = (   0.000000   0.000000   1.000840 )  

     reciprocal axes: (cart. coord. in units 2 pi/alat)
               b(1) = (  1.000000  0.000000  0.000000 )  
               b(2) = (  0.000000  0.960235  0.000000 )  
               b(3) = (  0.000000  0.000000  0.999161 )  


     PseudoPot. # 1 for W  read from file:
     /cluster/scratch/mnoe/QE/pps/W_ONCV_LDA-4.0.upf
     MD5 check sum: ba0307d5d4cd419d6f1d13dc49d7c13a
     Pseudo is Norm-conserving + core correction, Zval = 28.0
     Generated using ONCVPSP code by D. R. Hamann
     Using radial grid of 1380 points,  8 beta functions with: 
                l(1) =   0
                l(2) =   0
                l(3) =   1
                l(4) =   1
                l(5) =   2
                l(6) =   2
                l(7) =   3
                l(8) =   3

     PseudoPot. # 2 for O  read from file:
     /cluster/scratch/mnoe/QE/pps/O_ONCV_LDA-3.0.upf
     MD5 check sum: a1bd6164e7280c17a38c229939bfbd54
     Pseudo is Norm-conserving + core correction, Zval =  6.0
     Generated using ONCVPSP code by D. R. Hamann
     Using radial grid of  926 points,  5 beta functions with: 
                l(1) =   0
                l(2) =   0
                l(3) =   1
                l(4) =   1
                l(5) =   2

     atomic species   valence    mass     pseudopotential
        W             28.00   183.84000     W ( 1.00)
        O              6.00    15.99940     O ( 1.00)

      4 Sym. Ops. (no inversion) found ( 3 have fractional translation)



   Cartesian axes

     site n.     atom                  positions (alat units)
         1           W   tau(   1) = (   0.2364399   0.2907701   0.0023197  )
         2           W   tau(   2) = (   0.7530899   0.7506415  -0.0134165  )
         3           W   tau(   3) = (   0.2635601   0.2299357   0.5027398  )
         4           W   tau(   4) = (   0.7469101   0.8114760   0.4870036  )
         5           W   tau(   5) = (   0.7635600   0.2907701   0.4981003  )
         6           W   tau(   6) = (   0.2469101   0.7506415   0.5138365  )
         7           W   tau(   7) = (   0.7364399   0.2299357  -0.0023197  )
         8           W   tau(   8) = (   0.2530899   0.8114760   0.0134165  )
         9           O   tau(   9) = (   0.2330143   0.0079121  -0.0077904  )
        10           O   tau(  10) = (   0.7637313  -0.0079120  -0.0126815  )
        11           O   tau(  11) = (   0.2669856   0.5127938   0.4926296  )
        12           O   tau(  12) = (   0.7362687   0.5286179   0.4877385  )
        13           O   tau(  13) = (   0.7669856   0.0079121   0.5082105  )
        14           O   tau(  14) = (   0.2362686  -0.0079120   0.5131016  )
        15           O   tau(  15) = (   0.7330143   0.5127938   0.0077904  )
        16           O   tau(  16) = (   0.2637313   0.5286179   0.0126815  )
        17           O   tau(  17) = (   0.5045754   0.2415618   0.4564085  )
        18           O   tau(  18) = (   0.5000214   0.7950815   0.5444316  )
        19           O   tau(  19) = (  -0.0045754   0.2791440   0.9568286  )
        20           O   tau(  20) = (  -0.0000214   0.7670361   0.0440115  )
        21           O   tau(  21) = (   0.4954246   0.2415618   0.0440115  )
        22           O   tau(  22) = (   0.4999786   0.7950815   0.9568286  )
        23           O   tau(  23) = (   0.0045754   0.2791440   0.5444316  )
        24           O   tau(  24) = (   0.0000214   0.7670361   0.4564085  )
        25           O   tau(  25) = (   0.7060254   0.2676981   0.7486932  )
        26           O   tau(  26) = (   0.2939746   0.7955647   0.2551820  )
        27           O   tau(  27) = (   0.7939746   0.2530077   0.2482732  )
        28           O   tau(  28) = (   0.2060254   0.7665528   0.7556020  )
        29           O   tau(  29) = (   0.2939746   0.2676981   0.7525669  )
        30           O   tau(  30) = (   0.7060254   0.7955647   0.2452381  )
        31           O   tau(  31) = (   0.2060254   0.2530077   0.2521469  )
        32           O   tau(  32) = (   0.7939746   0.7665528   0.7456581  )

     number of k points=    64  gaussian smearing, width (Ry)=  0.0007
                       cart. coord. in units 2pi/alat
        k(    1) = (   0.0000000   0.0000000   0.0000000), wk =   0.0092593
        k(    2) = (   0.0000000   0.0000000   0.1665268), wk =   0.0185185
        k(    3) = (   0.0000000   0.0000000   0.3330535), wk =   0.0185185
        k(    4) = (   0.0000000   0.0000000  -0.4995803), wk =   0.0092593
        k(    5) = (   0.0000000   0.1600392   0.0000000), wk =   0.0185185
        k(    6) = (   0.0000000   0.1600392   0.1665268), wk =   0.0370370
        k(    7) = (   0.0000000   0.1600392   0.3330535), wk =   0.0370370
        k(    8) = (   0.0000000   0.1600392  -0.4995803), wk =   0.0185185
        k(    9) = (   0.0000000   0.3200784   0.0000000), wk =   0.0185185
        k(   10) = (   0.0000000   0.3200784   0.1665268), wk =   0.0370370
        k(   11) = (   0.0000000   0.3200784   0.3330535), wk =   0.0370370
        k(   12) = (   0.0000000   0.3200784  -0.4995803), wk =   0.0185185
        k(   13) = (   0.0000000  -0.4801175   0.0000000), wk =   0.0092593
        k(   14) = (   0.0000000  -0.4801175   0.1665268), wk =   0.0185185
        k(   15) = (   0.0000000  -0.4801175   0.3330535), wk =   0.0185185
        k(   16) = (   0.0000000  -0.4801175  -0.4995803), wk =   0.0092593
        k(   17) = (   0.1666667   0.0000000   0.0000000), wk =   0.0185185
        k(   18) = (   0.1666667   0.0000000   0.1665268), wk =   0.0370370
        k(   19) = (   0.1666667   0.0000000   0.3330535), wk =   0.0370370
        k(   20) = (   0.1666667   0.0000000  -0.4995803), wk =   0.0185185
        k(   21) = (   0.1666667   0.1600392   0.0000000), wk =   0.0370370
        k(   22) = (   0.1666667   0.1600392   0.1665268), wk =   0.0740741
        k(   23) = (   0.1666667   0.1600392   0.3330535), wk =   0.0740741
        k(   24) = (   0.1666667   0.1600392  -0.4995803), wk =   0.0370370
        k(   25) = (   0.1666667   0.3200784   0.0000000), wk =   0.0370370
        k(   26) = (   0.1666667   0.3200784   0.1665268), wk =   0.0740741
        k(   27) = (   0.1666667   0.3200784   0.3330535), wk =   0.0740741
        k(   28) = (   0.1666667   0.3200784  -0.4995803), wk =   0.0370370
        k(   29) = (   0.1666667  -0.4801175   0.0000000), wk =   0.0185185
        k(   30) = (   0.1666667  -0.4801175   0.1665268), wk =   0.0370370
        k(   31) = (   0.1666667  -0.4801175   0.3330535), wk =   0.0370370
        k(   32) = (   0.1666667  -0.4801175  -0.4995803), wk =   0.0185185
        k(   33) = (   0.3333333   0.0000000   0.0000000), wk =   0.0185185
        k(   34) = (   0.3333333   0.0000000   0.1665268), wk =   0.0370370
        k(   35) = (   0.3333333   0.0000000   0.3330535), wk =   0.0370370
        k(   36) = (   0.3333333   0.0000000  -0.4995803), wk =   0.0185185
        k(   37) = (   0.3333333   0.1600392   0.0000000), wk =   0.0370370
        k(   38) = (   0.3333333   0.1600392   0.1665268), wk =   0.0740741
        k(   39) = (   0.3333333   0.1600392   0.3330535), wk =   0.0740741
        k(   40) = (   0.3333333   0.1600392  -0.4995803), wk =   0.0370370
        k(   41) = (   0.3333333   0.3200784   0.0000000), wk =   0.0370370
        k(   42) = (   0.3333333   0.3200784   0.1665268), wk =   0.0740741
        k(   43) = (   0.3333333   0.3200784   0.3330535), wk =   0.0740741
        k(   44) = (   0.3333333   0.3200784  -0.4995803), wk =   0.0370370
        k(   45) = (   0.3333333  -0.4801175   0.0000000), wk =   0.0185185
        k(   46) = (   0.3333333  -0.4801175   0.1665268), wk =   0.0370370
        k(   47) = (   0.3333333  -0.4801175   0.3330535), wk =   0.0370370
        k(   48) = (   0.3333333  -0.4801175  -0.4995803), wk =   0.0185185
        k(   49) = (  -0.5000000   0.0000000   0.0000000), wk =   0.0092593
        k(   50) = (  -0.5000000   0.0000000   0.1665268), wk =   0.0185185
        k(   51) = (  -0.5000000   0.0000000   0.3330535), wk =   0.0185185
        k(   52) = (  -0.5000000   0.0000000  -0.4995803), wk =   0.0092593
        k(   53) = (  -0.5000000   0.1600392   0.0000000), wk =   0.0185185
        k(   54) = (  -0.5000000   0.1600392   0.1665268), wk =   0.0370370
        k(   55) = (  -0.5000000   0.1600392   0.3330535), wk =   0.0370370
        k(   56) = (  -0.5000000   0.1600392  -0.4995803), wk =   0.0185185
        k(   57) = (  -0.5000000   0.3200784   0.0000000), wk =   0.0185185
        k(   58) = (  -0.5000000   0.3200784   0.1665268), wk =   0.0370370
        k(   59) = (  -0.5000000   0.3200784   0.3330535), wk =   0.0370370
        k(   60) = (  -0.5000000   0.3200784  -0.4995803), wk =   0.0185185
        k(   61) = (  -0.5000000  -0.4801175   0.0000000), wk =   0.0092593
        k(   62) = (  -0.5000000  -0.4801175   0.1665268), wk =   0.0185185
        k(   63) = (  -0.5000000  -0.4801175   0.3330535), wk =   0.0185185
        k(   64) = (  -0.5000000  -0.4801175  -0.4995803), wk =   0.0092593

     Dense  grid:   499973 G-vectors     FFT dimensions: ( 100, 108, 100)

     Estimated max dynamical RAM per process >       3.14 GB

     Estimated total dynamical RAM >     125.50 GB

     Initial potential from superposition of free atoms

     starting charge  367.99656, renormalised to  368.60000
     Starting wfc are  232 randomized atomic wfcs

     total cpu time spent up to now is       48.3 secs

     Self-consistent Calculation

     iteration #  1     ecut=   120.00 Ry     beta= 0.70
     Davidson diagonalization with overlap
     ethr =  1.00E-02,  avg # of iterations =  5.1

     total cpu time spent up to now is      216.8 secs

     total energy              =   -6253.44851387 Ry
     Harris-Foulkes estimate   =   -6264.26848895 Ry
     estimated scf accuracy    <      13.63112289 Ry

     iteration #  2     ecut=   120.00 Ry     beta= 0.70
     Davidson diagonalization with overlap
     ethr =  3.70E-03,  avg # of iterations =  3.6

     total cpu time spent up to now is      383.9 secs

     total energy              =   -6250.42852780 Ry
     Harris-Foulkes estimate   =   -6270.26902319 Ry
     estimated scf accuracy    <      52.74270406 Ry

     iteration #  3     ecut=   120.00 Ry     beta= 0.70
     Davidson diagonalization with overlap
     ethr =  3.70E-03,  avg # of iterations =  3.5

     total cpu time spent up to now is      534.1 secs

     total energy              =   -6260.67573286 Ry
     Harris-Foulkes estimate   =   -6260.94098956 Ry
     estimated scf accuracy    <       0.88822834 Ry

     iteration #  4     ecut=   120.00 Ry     beta= 0.70
     Davidson diagonalization with overlap
     ethr =  2.41E-04,  avg # of iterations =  3.0

     total cpu time spent up to now is      654.2 secs

     total energy              =   -6260.66018990 Ry
     Harris-Foulkes estimate   =   -6260.73722033 Ry
     estimated scf accuracy    <       0.21909524 Ry

     iteration #  5     ecut=   120.00 Ry     beta= 0.70
     Davidson diagonalization with overlap
     ethr =  5.94E-05,  avg # of iterations =  5.8

     total cpu time spent up to now is      793.3 secs

     total energy              =   -6260.67262585 Ry
     Harris-Foulkes estimate   =   -6260.69807261 Ry
     estimated scf accuracy    <       0.05890625 Ry

     iteration #  6     ecut=   120.00 Ry     beta= 0.70
     Davidson diagonalization with overlap
     ethr =  1.60E-05,  avg # of iterations =  6.1

     total cpu time spent up to now is      937.6 secs

     total energy              =   -6260.68462143 Ry
     Harris-Foulkes estimate   =   -6260.68744145 Ry
     estimated scf accuracy    <       0.00771398 Ry

     iteration #  7     ecut=   120.00 Ry     beta= 0.70
     Davidson diagonalization with overlap
     ethr =  2.09E-06,  avg # of iterations =  6.0

     total cpu time spent up to now is     1068.6 secs

     total energy              =   -6260.68543662 Ry
     Harris-Foulkes estimate   =   -6260.68565742 Ry
     estimated scf accuracy    <       0.00051757 Ry

     iteration #  8     ecut=   120.00 Ry     beta= 0.70
     Davidson diagonalization with overlap
     ethr =  1.40E-07,  avg # of iterations =  3.0

     total cpu time spent up to now is     1199.0 secs

     total energy              =   -6260.68556228 Ry
     Harris-Foulkes estimate   =   -6260.68559467 Ry
     estimated scf accuracy    <       0.00011666 Ry

     iteration #  9     ecut=   120.00 Ry     beta= 0.70
     Davidson diagonalization with overlap
     ethr =  3.17E-08,  avg # of iterations =  2.0

     total cpu time spent up to now is     1318.2 secs

     total energy              =   -6260.68557473 Ry
     Harris-Foulkes estimate   =   -6260.68558629 Ry
     estimated scf accuracy    <       0.00004701 Ry

     iteration # 10     ecut=   120.00 Ry     beta= 0.70
     Davidson diagonalization with overlap
     ethr =  1.28E-08,  avg # of iterations =  1.0

     total cpu time spent up to now is     1428.0 secs

     total energy              =   -6260.68557192 Ry
     Harris-Foulkes estimate   =   -6260.68557743 Ry
     estimated scf accuracy    <       0.00001281 Ry

     iteration # 11     ecut=   120.00 Ry     beta= 0.70
     Davidson diagonalization with overlap
     ethr =  3.48E-09,  avg # of iterations =  3.0

     total cpu time spent up to now is     1554.4 secs

     total energy              =   -6260.68557457 Ry
     Harris-Foulkes estimate   =   -6260.68557478 Ry
     estimated scf accuracy    <       0.00000057 Ry

     iteration # 12     ecut=   120.00 Ry     beta= 0.70
     Davidson diagonalization with overlap
     ethr =  1.54E-10,  avg # of iterations =  2.7

     total cpu time spent up to now is     1697.7 secs

     total energy              =   -6260.68557467 Ry
     Harris-Foulkes estimate   =   -6260.68557470 Ry
     estimated scf accuracy    <       0.00000010 Ry

     iteration # 13     ecut=   120.00 Ry     beta= 0.70
     Davidson diagonalization with overlap
     ethr =  2.76E-11,  avg # of iterations =  1.8

     total cpu time spent up to now is     1809.5 secs

     total energy              =   -6260.68557466 Ry
     Harris-Foulkes estimate   =   -6260.68557467 Ry
     estimated scf accuracy    <       0.00000002 Ry

     iteration # 14     ecut=   120.00 Ry     beta= 0.70
     Davidson diagonalization with overlap
     ethr =  5.60E-12,  avg # of iterations =  3.0

     total cpu time spent up to now is     1965.7 secs

     End of self-consistent calculation

          k = 0.0000 0.0000 0.0000 ( 62439 PWs)   bands (ev):

   -66.0944 -66.0935 -66.0934 -66.0929 -66.0925 -66.0919 -66.0919 -66.0910
   -30.5265 -30.5204 -30.5201 -30.5142 -30.4817 -30.4695 -30.4689 -30.4551
   -30.4514 -30.4366 -30.4363 -30.4332 -30.4212 -30.4188 -30.4164 -30.4120
   -30.3617 -30.3600 -30.3582 -30.3561 -30.3280 -30.3230 -30.3226 -30.3185
   -20.2438 -20.2436 -20.2435 -20.2434 -20.2428 -20.2427 -20.2423 -20.2422
   -20.2403 -20.2401 -20.2398 -20.2395 -20.2357 -20.2351 -20.2351 -20.2344
   -20.2323 -20.2318 -20.2315 -20.2315 -20.2308 -20.2300 -20.2299 -20.2295
   -20.2289 -20.2287 -20.2286 -20.2285 -20.2277 -20.2274 -20.2264 -20.2261
   -20.2196 -20.2192 -20.2181 -20.2180 -20.2177 -20.2170 -20.2170 -20.2161
   -20.1963 -20.1955 -20.1949 -20.1945 -20.1942 -20.1941 -20.1928 -20.1914
   -20.1903 -20.1901 -20.1897 -20.1896 -20.1889 -20.1879 -20.1873 -20.1858
    -9.9621  -9.6550  -9.5515  -9.5512  -9.2461  -9.2387  -9.1512  -9.0256
    -9.0155  -8.9277  -8.8983  -8.8961  -7.8971  -7.8189  -7.8137  -7.8075
    -7.7935  -7.7555  -7.7332  -7.7202  -7.6869  -7.6833  -7.6108  -7.6071
     1.2080   1.2160   1.2650   1.2741   1.3263   1.3270   1.3402   1.5277
     1.5657   1.5769   1.6092   1.8184   2.4221   2.5138   2.5172   2.5579
     2.6737   2.6841   4.1674   4.1848   4.3880   4.4203   4.6835   4.7432
     4.7543   4.7826   4.7912   4.7924   4.9691   4.9730   5.1337   5.4283
     5.4326   5.4482   5.4588   5.5442   5.5477   5.6063   5.6264   5.7922
     5.8035   5.8175   5.8321   5.8548   5.9528   6.0148   6.0191   6.0991
     6.1051   6.2872   6.3124   6.4541   6.4582   6.7453   6.8124   6.8377
     6.8607   6.8781   6.9541   7.0105   7.0243   7.0390   7.2128   7.2283
     7.3437   7.3618   7.8680   7.8846   8.0210   8.0506   8.0661   8.1312
     9.3963   9.4179   9.9131   9.9246   9.9338   9.9340  12.3068  12.3110
    12.3489  12.3606  12.5028  12.5160  12.5423  12.6176  12.7453  12.9261
    13.1729  13.2609  13.2808  13.3562  13.7432  13.9324  14.0218  14.1105
    14.3580  14.5232  14.5961  14.8057  15.3363  15.3436  15.5720  15.9995
    16.0211  16.8322  17.0199  17.0442  17.3051

          k = 0.0000 0.0000 0.1665 ( 62469 PWs)   bands (ev):

   -66.0943 -66.0935 -66.0934 -66.0928 -66.0926 -66.0920 -66.0919 -66.0911
   -30.5260 -30.5208 -30.5196 -30.5145 -30.4797 -30.4693 -30.4666 -30.4520
   -30.4520 -30.4368 -30.4334 -30.4313 -30.4171 -30.4148 -30.4123 -30.4119
   -30.3678 -30.3652 -30.3578 -30.3577 -30.3342 -30.3285 -30.3227 -30.3189
   -20.2437 -20.2436 -20.2435 -20.2434 -20.2428 -20.2426 -20.2423 -20.2422
   -20.2403 -20.2401 -20.2398 -20.2395 -20.2357 -20.2352 -20.2350 -20.2345
   -20.2323 -20.2317 -20.2315 -20.2313 -20.2307 -20.2301 -20.2298 -20.2295
   -20.2290 -20.2286 -20.2285 -20.2285 -20.2278 -20.2275 -20.2264 -20.2261
   -20.2196 -20.2192 -20.2181 -20.2179 -20.2177 -20.2171 -20.2169 -20.2161
   -20.1961 -20.1951 -20.1947 -20.1946 -20.1938 -20.1938 -20.1927 -20.1915
   -20.1905 -20.1902 -20.1902 -20.1897 -20.1892 -20.1882 -20.1872 -20.1859
    -9.9175  -9.6020  -9.5665  -9.4940  -9.2514  -9.1597  -9.1597  -8.9897
    -8.9785  -8.9102  -8.9001  -8.8637  -7.9506  -7.8750  -7.8582  -7.8362
    -7.8228  -7.7899  -7.7823  -7.7589  -7.7380  -7.7156  -7.6908  -7.6147
     1.2648   1.2742   1.3178   1.3436   1.3995   1.4200   1.5224   1.5666
     1.5734   1.6864   1.7798   1.9436   2.5063   2.5392   2.6027   2.6317
     2.6652   2.7710   4.0972   4.1678   4.3398   4.4064   4.4172   4.4341
     4.5443   4.7213   4.7399   4.8130   4.8218   4.9691   5.1169   5.2475
     5.3566   5.4086   5.4523   5.5305   5.5544   5.5735   5.6186   5.6317
     5.6938   5.7773   5.8430   5.8493   5.9757   6.0147   6.0642   6.1046
     6.2668   6.3545   6.4447   6.5113   6.6798   6.7079   6.7178   6.7623
     6.8339   6.8704   6.8872   6.9399   7.0205   7.0263   7.0710   7.0809
     7.1232   7.2150   7.8628   7.8710   8.0079   8.0410   8.0474   8.1082
     9.7098   9.7320   9.9228   9.9386  10.1819  10.2220  12.2310  12.2952
    12.3640  12.3972  12.4105  12.5427  12.5785  12.6766  12.7616  12.8765
    13.0380  13.2516  13.2655  13.3353  13.7963  13.9315  13.9438  14.0088
    14.3741  14.5916  14.6135  14.9149  15.3810  15.4037  15.5387  15.9926
    16.3165  16.7613  17.0014  17.2057  17.3924

          k = 0.0000 0.0000 0.3331 ( 62436 PWs)   bands (ev):

   -66.0941 -66.0937 -66.0932 -66.0928 -66.0926 -66.0922 -66.0917 -66.0913
   -30.5248 -30.5218 -30.5184 -30.5155 -30.4760 -30.4707 -30.4609 -30.4535
   -30.4453 -30.4381 -30.4233 -30.4221 -30.4154 -30.4133 -30.3990 -30.3950
   -30.3842 -30.3812 -30.3617 -30.3565 -30.3508 -30.3430 -30.3219 -30.3197
   -20.2437 -20.2436 -20.2436 -20.2435 -20.2427 -20.2425 -20.2424 -20.2423
   -20.2403 -20.2401 -20.2397 -20.2396 -20.2356 -20.2353 -20.2350 -20.2346
   -20.2321 -20.2317 -20.2314 -20.2308 -20.2305 -20.2303 -20.2298 -20.2295
   -20.2294 -20.2287 -20.2285 -20.2283 -20.2280 -20.2277 -20.2263 -20.2261
   -20.2195 -20.2193 -20.2180 -20.2178 -20.2177 -20.2172 -20.2167 -20.2163
   -20.1957 -20.1949 -20.1942 -20.1939 -20.1929 -20.1928 -20.1924 -20.1918
   -20.1914 -20.1913 -20.1903 -20.1903 -20.1899 -20.1888 -20.1869 -20.1862
    -9.8103  -9.6139  -9.4791  -9.3627  -9.2909  -9.1883  -8.9463  -8.9147
    -8.9109  -8.8438  -8.7850  -8.7316  -8.2415  -8.1600  -8.1549  -8.0776
    -7.8590  -7.8334  -7.7913  -7.7680  -7.7674  -7.7113  -7.6941  -7.6357
     1.2752   1.2787   1.3530   1.3656   1.4847   1.5108   1.5275   1.5668
     2.2489   2.3151   2.4241   2.5152   2.5640   2.6519   2.7541   2.8568
     2.8712   3.0075   3.7304   3.8181   3.8568   3.9825   4.0726   4.2878
     4.3706   4.5091   4.5227   4.6777   4.6903   4.7701   4.9238   5.0578
     5.0807   5.1205   5.2190   5.3202   5.4054   5.4669   5.6426   5.6806
     5.7293   5.7409   5.8199   5.8967   6.0040   6.1320   6.1495   6.2127
     6.3288   6.3446   6.4031   6.4317   6.5359   6.5372   6.5939   6.7577
     6.7698   6.8610   6.8655   6.9677   6.9884   7.0415   7.0555   7.1275
     7.2514   7.2970   7.7654   7.7830   7.8757   7.9229   8.0731   8.0934
     9.8944   9.9167  10.4037  10.4915  10.7982  10.8895  11.8498  11.9433
    12.1059  12.3798  12.5036  12.5772  12.6009  12.6793  12.7421  12.8376
    12.9044  13.1529  13.1972  13.2914  13.6271  13.6787  13.9304  13.9406
    14.4718  14.5770  14.9120  15.2000  15.4309  15.5603  15.8256  15.9004
    16.2158  17.1780  17.3316  17.5438  17.7704

          k = 0.0000 0.0000-0.4996 ( 62552 PWs)   bands (ev):

   -66.0939 -66.0939 -66.0930 -66.0930 -66.0924 -66.0924 -66.0915 -66.0915
   -30.5232 -30.5232 -30.5169 -30.5169 -30.4729 -30.4729 -30.4563 -30.4563
   -30.4406 -30.4406 -30.4147 -30.4147 -30.4054 -30.4054 -30.4024 -30.4024
   -30.3770 -30.3770 -30.3726 -30.3726 -30.3535 -30.3535 -30.3208 -30.3208
   -20.2436 -20.2436 -20.2435 -20.2435 -20.2426 -20.2425 -20.2424 -20.2424
   -20.2402 -20.2402 -20.2397 -20.2397 -20.2354 -20.2354 -20.2348 -20.2348
   -20.2319 -20.2319 -20.2309 -20.2309 -20.2302 -20.2302 -20.2299 -20.2299
   -20.2291 -20.2291 -20.2283 -20.2283 -20.2280 -20.2280 -20.2262 -20.2262
   -20.2194 -20.2194 -20.2179 -20.2179 -20.2175 -20.2175 -20.2165 -20.2165
   -20.1953 -20.1953 -20.1930 -20.1930 -20.1927 -20.1927 -20.1921 -20.1921
   -20.1916 -20.1916 -20.1915 -20.1915 -20.1894 -20.1894 -20.1865 -20.1865
    -9.6969  -9.6969  -9.3641  -9.3641  -9.2497  -9.2497  -8.9261  -8.9261
    -8.5879  -8.5879  -8.5498  -8.5498  -8.5108  -8.5108  -8.4524  -8.4524
    -7.8476  -7.8476  -7.7801  -7.7801  -7.7394  -7.7394  -7.6647  -7.6647
     1.2775   1.2775   1.3641   1.3641   1.4990   1.4990   1.5584   1.5584
     2.5955   2.5955   2.9954   2.9954   3.1025   3.1025   3.1434   3.1434
     3.2615   3.2615   3.3018   3.3018   3.4888   3.4889   3.7570   3.7571
     3.7999   3.7999   4.4663   4.4663   4.6329   4.6329   4.9444   4.9444
     5.1855   5.1855   5.2777   5.2778   5.3205   5.3205   5.6895   5.6895
     5.7636   5.7636   5.9393   5.9393   6.0524   6.0524   6.2063   6.2063
     6.2393   6.2393   6.3470   6.3470   6.4565   6.4565   6.5449   6.5449
     6.7825   6.7825   6.8610   6.8610   7.0203   7.0203   7.4796   7.4796
     7.5361   7.5361   7.6273   7.6273   7.6702   7.6702   8.0879   8.0879
     9.9073   9.9073  11.1771  11.1771  11.2766  11.2767  11.5154  11.5154
    11.6757  11.6757  12.6223  12.6223  12.7051  12.7051  12.8772  12.8772
    12.9281  12.9281  13.2596  13.2596  13.3955  13.3955  13.9336  13.9336
    14.5454  14.5454  15.2257  15.2257  15.6227  15.6227  15.7896  15.7896
    16.6072  16.6072  17.8143  17.8143  17.9931

          k = 0.0000 0.1600 0.0000 ( 62541 PWs)   bands (ev):

   -66.0944 -66.0935 -66.0934 -66.0929 -66.0925 -66.0920 -66.0919 -66.0910
   -30.5227 -30.5165 -30.5161 -30.5099 -30.4835 -30.4714 -30.4709 -30.4556
   -30.4544 -30.4386 -30.4380 -30.4357 -30.4212 -30.4188 -30.4168 -30.4122
   -30.3618 -30.3598 -30.3583 -30.3564 -30.3280 -30.3230 -30.3226 -30.3185
   -20.2437 -20.2436 -20.2435 -20.2434 -20.2428 -20.2426 -20.2422 -20.2421
   -20.2401 -20.2398 -20.2395 -20.2393 -20.2359 -20.2354 -20.2353 -20.2347
   -20.2324 -20.2318 -20.2315 -20.2314 -20.2308 -20.2300 -20.2300 -20.2294
   -20.2288 -20.2287 -20.2287 -20.2285 -20.2278 -20.2275 -20.2265 -20.2261
   -20.2196 -20.2192 -20.2182 -20.2180 -20.2177 -20.2170 -20.2170 -20.2161
   -20.1963 -20.1955 -20.1949 -20.1945 -20.1942 -20.1941 -20.1928 -20.1914
   -20.1903 -20.1901 -20.1897 -20.1896 -20.1889 -20.1879 -20.1873 -20.1858
    -9.9300  -9.6669  -9.5124  -9.5113  -9.2520  -9.2449  -9.0743  -9.0245
    -9.0140  -8.8837  -8.8609  -8.8593  -7.9827  -7.9206  -7.9161  -7.8682
    -7.8100  -7.8047  -7.7334  -7.7216  -7.6895  -7.6864  -7.6115  -7.6078
     1.2094   1.2155   1.2767   1.2891   1.3349   1.3491   1.4592   1.6087
     1.7276   1.7894   1.7982   1.9723   2.4286   2.5078   2.5904   2.6354
     2.7457   2.7575   4.0247   4.0461   4.1073   4.1340   4.6414   4.7353
     4.7508   4.7819   4.7892   4.8461   4.9204   4.9209   5.0073   5.2707
     5.2841   5.4310   5.4325   5.5643   5.6275   5.6313   5.6365   5.6775
     5.7350   5.7557   5.8585   5.9176   5.9298   6.0239   6.0348   6.0908
     6.1039   6.2800   6.2962   6.4830   6.4943   6.7120   6.8149   6.8328
     6.8563   6.8840   6.9071   6.9579   6.9580   6.9626   7.2150   7.2304
     7.3472   7.3651   7.8687   7.8830   7.9885   8.0084   8.0129   8.0539
     9.4037   9.4185  10.1135  10.1155  10.1291  10.1301  12.1943  12.2322
    12.3420  12.3578  12.3777  12.4439  12.4931  12.5101  12.7695  12.9381
    13.1924  13.2573  13.2748  13.3719  13.8624  13.9091  13.9668  14.0138
    14.4482  14.7410  14.7828  14.9769  15.3348  15.3395  15.9711  15.9759
    15.9904  16.5301  17.1623  17.1863  17.3695

          k = 0.0000 0.1600 0.1665 ( 62487 PWs)   bands (ev):

   -66.0943 -66.0935 -66.0934 -66.0928 -66.0926 -66.0920 -66.0919 -66.0911
   -30.5221 -30.5168 -30.5156 -30.5103 -30.4817 -30.4714 -30.4689 -30.4561
   -30.4514 -30.4384 -30.4351 -30.4335 -30.4172 -30.4149 -30.4125 -30.4121
   -30.3679 -30.3652 -30.3579 -30.3579 -30.3342 -30.3285 -30.3227 -30.3189
   -20.2437 -20.2436 -20.2435 -20.2434 -20.2427 -20.2426 -20.2423 -20.2422
   -20.2401 -20.2398 -20.2395 -20.2393 -20.2359 -20.2354 -20.2353 -20.2348
   -20.2323 -20.2317 -20.2315 -20.2312 -20.2307 -20.2301 -20.2299 -20.2295
   -20.2290 -20.2287 -20.2286 -20.2285 -20.2279 -20.2276 -20.2264 -20.2261
   -20.2196 -20.2192 -20.2181 -20.2179 -20.2177 -20.2171 -20.2169 -20.2161
   -20.1961 -20.1951 -20.1947 -20.1946 -20.1938 -20.1938 -20.1927 -20.1915
   -20.1905 -20.1902 -20.1902 -20.1897 -20.1892 -20.1882 -20.1872 -20.1859
    -9.8841  -9.6139  -9.5267  -9.4498  -9.2578  -9.1658  -9.0827  -8.9871
    -8.9754  -8.8708  -8.8632  -8.8313  -7.9925  -7.9375  -7.9194  -7.9115
    -7.8769  -7.8473  -7.8127  -7.7972  -7.7363  -7.7165  -7.6941  -7.6154
     1.2778   1.2911   1.3235   1.3533   1.5052   1.5544   1.5789   1.7337
     1.7785   1.7969   1.8260   2.0430   2.5148   2.5953   2.6129   2.7096
     2.7381   2.8438   4.0034   4.0373   4.1236   4.1525   4.3682   4.4292
     4.5602   4.6499   4.7231   4.8031   4.8148   4.9297   4.9855   5.1852
     5.2288   5.3239   5.3523   5.4360   5.4997   5.5651   5.6202   5.6826
     5.7299   5.7610   5.8161   5.8641   5.8922   6.0531   6.0560   6.1001
     6.2509   6.3065   6.4798   6.4882   6.6718   6.7303   6.7416   6.7899
     6.8091   6.8880   6.9074   6.9278   6.9649   6.9861   7.0717   7.0767
     7.1263   7.2207   7.8615   7.8705   7.9723   7.9910   7.9953   8.0362
     9.7245   9.7438  10.1156  10.1343  10.3449  10.3741  12.1938  12.2486
    12.2726  12.3826  12.3890  12.4176  12.4825  12.5755  12.7911  12.9001
    13.0370  13.2450  13.2591  13.3437  13.8211  13.8686  13.9088  13.9471
    14.5232  14.7755  14.8825  15.0683  15.3809  15.4027  15.9315  15.9737
    16.2864  16.6838  16.8919  17.3228  17.4534

          k = 0.0000 0.1600 0.3331 ( 62464 PWs)   bands (ev):

   -66.0941 -66.0937 -66.0932 -66.0927 -66.0926 -66.0922 -66.0917 -66.0913
   -30.5208 -30.5179 -30.5143 -30.5113 -30.4781 -30.4727 -30.4641 -30.4576
   -30.4456 -30.4396 -30.4247 -30.4230 -30.4156 -30.4135 -30.3990 -30.3950
   -30.3844 -30.3813 -30.3618 -30.3566 -30.3508 -30.3431 -30.3219 -30.3197
   -20.2437 -20.2436 -20.2435 -20.2434 -20.2426 -20.2425 -20.2424 -20.2422
   -20.2400 -20.2399 -20.2395 -20.2393 -20.2358 -20.2355 -20.2352 -20.2349
   -20.2321 -20.2317 -20.2314 -20.2307 -20.2305 -20.2303 -20.2297 -20.2296
   -20.2293 -20.2288 -20.2286 -20.2284 -20.2281 -20.2278 -20.2264 -20.2262
   -20.2195 -20.2193 -20.2180 -20.2178 -20.2177 -20.2172 -20.2167 -20.2163
   -20.1957 -20.1949 -20.1942 -20.1939 -20.1929 -20.1928 -20.1924 -20.1918
   -20.1914 -20.1913 -20.1903 -20.1903 -20.1899 -20.1888 -20.1869 -20.1862
    -9.7739  -9.5744  -9.4904  -9.3039  -9.2983  -9.1120  -8.9256  -8.9135
    -8.8740  -8.8420  -8.7735  -8.7141  -8.2438  -8.1649  -8.1604  -8.0842
    -7.9484  -7.9287  -7.8955  -7.8703  -7.7733  -7.7151  -7.6949  -7.6364
     1.2975   1.3088   1.3644   1.3802   1.6870   1.7011   1.7695   1.7913
     2.2497   2.3222   2.4265   2.5289   2.6385   2.7191   2.7647   2.8561
     2.9472   3.0739   3.7342   3.8296   3.8486   3.9263   4.1153   4.1558
     4.1666   4.3296   4.5212   4.6253   4.6456   4.7526   4.7965   4.9132
     4.9764   5.0802   5.1311   5.1846   5.3557   5.3712   5.4862   5.6252
     5.6882   5.7557   5.7971   5.8650   5.9064   6.0584   6.1443   6.2389
     6.2879   6.3940   6.4454   6.5328   6.5876   6.6294   6.7014   6.7582
     6.7974   6.8369   6.8810   6.9201   6.9622   6.9990   7.0897   7.1243
     7.2520   7.2959   7.7691   7.7787   7.8468   7.8780   8.0133   8.0278
    10.0987  10.1153  10.4153  10.4991  10.9116  10.9826  11.8499  11.9446
    12.0934  12.4153  12.4249  12.4784  12.5312  12.6378  12.6585  12.7980
    12.8607  13.1498  13.1879  13.2736  13.5227  13.5975  13.9079  13.9278
    14.6717  14.7624  15.2423  15.3286  15.5607  15.8085  15.8545  15.8969
    16.3394  17.1330  17.1474  17.3980  17.6871

          k = 0.0000 0.1600-0.4996 ( 62452 PWs)   bands (ev):

   -66.0939 -66.0939 -66.0930 -66.0930 -66.0924 -66.0924 -66.0915 -66.0915
   -30.5193 -30.5193 -30.5127 -30.5127 -30.4750 -30.4750 -30.4601 -30.4601
   -30.4418 -30.4418 -30.4149 -30.4149 -30.4058 -30.4058 -30.4027 -30.4027
   -30.3771 -30.3771 -30.3727 -30.3727 -30.3535 -30.3535 -30.3209 -30.3209
   -20.2436 -20.2436 -20.2435 -20.2435 -20.2425 -20.2425 -20.2424 -20.2424
   -20.2400 -20.2400 -20.2394 -20.2394 -20.2357 -20.2357 -20.2351 -20.2351
   -20.2319 -20.2319 -20.2309 -20.2309 -20.2302 -20.2302 -20.2298 -20.2298
   -20.2291 -20.2291 -20.2284 -20.2284 -20.2281 -20.2281 -20.2263 -20.2263
   -20.2194 -20.2194 -20.2179 -20.2179 -20.2175 -20.2175 -20.2165 -20.2165
   -20.1953 -20.1953 -20.1930 -20.1930 -20.1927 -20.1927 -20.1921 -20.1921
   -20.1916 -20.1916 -20.1915 -20.1915 -20.1894 -20.1894 -20.1865 -20.1865
    -9.6583  -9.6583  -9.3734  -9.3733  -9.1775  -9.1775  -8.8902  -8.8902
    -8.5890  -8.5890  -8.5554  -8.5554  -8.5097  -8.5097  -8.4491  -8.4491
    -7.9420  -7.9420  -7.8851  -7.8851  -7.7442  -7.7442  -7.6655  -7.6655
     1.3060   1.3060   1.3775   1.3775   1.7048   1.7048   1.7887   1.7887
     2.6669   2.6669   3.0109   3.0109   3.1171   3.1171   3.1626   3.1626
     3.2746   3.2746   3.2993   3.2993   3.4843   3.4843   3.7685   3.7685
     3.8497   3.8497   4.2408   4.2408   4.5537   4.5537   4.7550   4.7550
     5.0280   5.0280   5.2422   5.2422   5.3046   5.3046   5.4872   5.4872
     5.6989   5.6989   5.8374   5.8374   6.0624   6.0624   6.2205   6.2205
     6.3035   6.3035   6.3918   6.3918   6.5268   6.5268   6.6520   6.6520
     6.8369   6.8369   6.8515   6.8515   6.9475   6.9475   7.4903   7.4904
     7.5295   7.5295   7.6114   7.6114   7.6486   7.6486   8.0239   8.0239
    10.1127  10.1127  11.1838  11.1838  11.2781  11.2781  11.5840  11.5840
    11.7352  11.7352  12.4699  12.4699  12.6978  12.6978  12.8525  12.8525
    12.8994  12.8994  13.1507  13.1507  13.3480  13.3480  13.9119  13.9119
    14.7360  14.7360  15.5721  15.5721  15.7243  15.7243  15.8323  15.8323
    16.6567  16.6567  17.6072  17.6072  18.0089

          k = 0.0000 0.3201 0.0000 ( 62526 PWs)   bands (ev):

   -66.0943 -66.0934 -66.0934 -66.0929 -66.0925 -66.0920 -66.0920 -66.0911
   -30.5126 -30.5060 -30.5055 -30.4984 -30.4895 -30.4780 -30.4777 -30.4670
   -30.4521 -30.4425 -30.4416 -30.4412 -30.4211 -30.4189 -30.4173 -30.4126
   -30.3620 -30.3593 -30.3584 -30.3571 -30.3281 -30.3231 -30.3226 -30.3186
   -20.2437 -20.2436 -20.2434 -20.2433 -20.2427 -20.2425 -20.2422 -20.2421
   -20.2394 -20.2392 -20.2388 -20.2385 -20.2365 -20.2361 -20.2360 -20.2355
   -20.2324 -20.2318 -20.2315 -20.2312 -20.2308 -20.2303 -20.2300 -20.2293
   -20.2288 -20.2288 -20.2286 -20.2286 -20.2280 -20.2277 -20.2265 -20.2262
   -20.2196 -20.2192 -20.2182 -20.2180 -20.2177 -20.2170 -20.2170 -20.2161
   -20.1963 -20.1955 -20.1949 -20.1945 -20.1942 -20.1941 -20.1928 -20.1914
   -20.1903 -20.1901 -20.1897 -20.1896 -20.1889 -20.1879 -20.1873 -20.1858
    -9.8523  -9.7040  -9.4272  -9.4241  -9.2704  -9.2641  -9.0216  -9.0145
    -8.8567  -8.7396  -8.7313  -8.7303  -8.2298  -8.1827  -8.1791  -8.1538
    -7.8130  -7.8066  -7.7332  -7.7249  -7.6902  -7.6875  -7.6128  -7.6092
     1.2102   1.2142   1.2823   1.2963   1.3411   1.3560   1.5726   1.6067
     2.3057   2.4372   2.4451   2.4490   2.4907   2.5965   2.8050   2.8765
     2.9584   2.9796   3.6161   3.6489   3.6578   3.6848   4.1147   4.4410
     4.4606   4.7136   4.7382   4.7609   4.7804   4.7977   5.0074   5.0203
     5.0242   5.0466   5.3363   5.3476   5.5419   5.5511   5.6793   5.6905
     5.8552   5.8664   5.8868   5.8920   5.9483   6.0389   6.0729   6.1006
     6.1297   6.2306   6.2518   6.4831   6.5412   6.5518   6.8034   6.8132
     6.8521   6.9372   7.0781   7.0828   7.0848   7.0884   7.2207   7.2359
     7.3535   7.3712   7.7863   7.8134   7.8302   7.8429   7.8908   7.8922
     9.4124   9.4190  10.5972  10.6168  10.6426  10.6720  11.8149  11.8533
    11.9290  11.9862  12.3517  12.3693  12.4939  12.5124  12.8309  12.9449
    13.2781  13.3140  13.3314  13.4267  13.7256  13.7411  13.7541  13.7923
    14.8758  15.2433  15.2570  15.3295  15.3335  15.6215  15.8742  15.8875
    15.9778  16.9715  17.2187  17.6482  17.6694

          k = 0.0000 0.3201 0.1665 ( 62499 PWs)   bands (ev):

   -66.0943 -66.0935 -66.0933 -66.0928 -66.0926 -66.0920 -66.0919 -66.0911
   -30.5119 -30.5064 -30.5048 -30.4988 -30.4881 -30.4782 -30.4766 -30.4674
   -30.4496 -30.4416 -30.4391 -30.4379 -30.4172 -30.4152 -30.4129 -30.4123
   -30.3681 -30.3651 -30.3582 -30.3580 -30.3342 -30.3285 -30.3228 -30.3190
   -20.2437 -20.2435 -20.2435 -20.2433 -20.2426 -20.2425 -20.2422 -20.2421
   -20.2394 -20.2392 -20.2388 -20.2385 -20.2365 -20.2361 -20.2360 -20.2356
   -20.2323 -20.2317 -20.2316 -20.2310 -20.2306 -20.2302 -20.2301 -20.2293
   -20.2288 -20.2288 -20.2287 -20.2286 -20.2281 -20.2278 -20.2265 -20.2262
   -20.2196 -20.2192 -20.2181 -20.2179 -20.2177 -20.2171 -20.2169 -20.2161
   -20.1961 -20.1952 -20.1947 -20.1946 -20.1938 -20.1938 -20.1927 -20.1915
   -20.1905 -20.1902 -20.1902 -20.1897 -20.1892 -20.1882 -20.1872 -20.1859
    -9.8035  -9.6512  -9.4391  -9.3521  -9.2780  -9.1851  -8.9838  -8.9739
    -8.8650  -8.7351  -8.7323  -8.7137  -8.2304  -8.1900  -8.1764  -8.1602
    -7.9304  -7.8512  -7.8174  -7.8015  -7.7371  -7.7184  -7.6952  -7.6169
     1.2811   1.2988   1.3250   1.3607   1.5351   1.5945   1.7251   1.7833
     2.3100   2.4252   2.4472   2.5318   2.5784   2.5941   2.8307   2.9423
     2.9613   3.0679   3.6422   3.6548   3.6781   3.7170   4.0999   4.3847
     4.3905   4.4541   4.4841   4.7001   4.7148   4.7935   4.8245   4.8522
     5.0127   5.0520   5.1355   5.2931   5.3435   5.4348   5.5537   5.6406
     5.6769   5.7452   5.7937   5.8661   5.9862   6.0317   6.1067   6.1303
     6.2298   6.3152   6.4539   6.5258   6.5605   6.7696   6.7895   6.8976
     6.9110   6.9483   7.0125   7.0209   7.0587   7.0770   7.1035   7.1434
     7.1578   7.2411   7.7749   7.8040   7.8131   7.8235   7.8780   7.8861
     9.7343   9.7549  10.6205  10.6583  10.7725  10.8222  11.8491  11.9002
    11.9582  12.0372  12.2562  12.3814  12.4236  12.5584  12.8668  12.9409
    13.1207  13.2517  13.3122  13.3707  13.6028  13.6662  13.7234  13.7754
    14.9912  15.2446  15.3536  15.4122  15.4829  15.6864  15.8611  16.1348
    16.1843  16.9361  17.2647  17.3250  17.6269

          k = 0.0000 0.3201 0.3331 ( 62488 PWs)   bands (ev):

   -66.0941 -66.0937 -66.0932 -66.0927 -66.0927 -66.0922 -66.0917 -66.0913
   -30.5105 -30.5074 -30.5032 -30.4998 -30.4849 -30.4796 -30.4736 -30.4687
   -30.4461 -30.4426 -30.4274 -30.4244 -30.4159 -30.4139 -30.3991 -30.3952
   -30.3847 -30.3815 -30.3620 -30.3567 -30.3509 -30.3431 -30.3220 -30.3198
   -20.2436 -20.2435 -20.2435 -20.2434 -20.2425 -20.2424 -20.2423 -20.2422
   -20.2394 -20.2392 -20.2388 -20.2386 -20.2364 -20.2362 -20.2360 -20.2357
   -20.2322 -20.2317 -20.2314 -20.2306 -20.2305 -20.2302 -20.2298 -20.2296
   -20.2292 -20.2289 -20.2287 -20.2285 -20.2283 -20.2280 -20.2264 -20.2262
   -20.2195 -20.2193 -20.2180 -20.2178 -20.2177 -20.2172 -20.2167 -20.2163
   -20.1957 -20.1949 -20.1942 -20.1939 -20.1929 -20.1928 -20.1924 -20.1918
   -20.1914 -20.1913 -20.1903 -20.1903 -20.1899 -20.1888 -20.1869 -20.1862
    -9.6874  -9.5259  -9.4857  -9.3217  -9.1613  -8.9451  -8.8965  -8.8698
    -8.8361  -8.7476  -8.6933  -8.6410  -8.2893  -8.2622  -8.1963  -8.1814
    -8.1675  -8.1159  -8.1032  -8.0304  -7.7750  -7.7164  -7.6966  -7.6379
     1.3069   1.3191   1.3729   1.3890   2.1533   2.2379   2.2520   2.3394
     2.4166   2.4608   2.4762   2.6863   2.7886   2.8253   2.8618   2.9406
     3.1843   3.2760   3.6199   3.6429   3.7111   3.7842   3.8312   3.8558
     4.0695   4.2161   4.3395   4.3762   4.4114   4.5495   4.5783   4.7046
     4.7931   4.8177   4.9615   5.0287   5.1057   5.1842   5.2067   5.3015
     5.3612   5.5606   5.6157   5.8135   6.0935   6.1028   6.1516   6.2917
     6.3719   6.4199   6.5170   6.6193   6.6536   6.7141   6.7619   6.8219
     6.9005   6.9575   7.0118   7.0207   7.0514   7.1008   7.1463   7.2001
     7.2572   7.3013   7.6981   7.7179   7.7650   7.7840   7.8183   7.8454
    10.4154  10.4593  10.6318  10.6841  11.2296  11.2797  11.7958  11.8902
    11.9575  11.9957  12.1760  12.2567  12.5568  12.5931  12.6137  12.7149
    12.8980  13.0529  13.1798  13.2674  13.3157  13.4803  13.7199  13.7486
    15.1065  15.2181  15.4868  15.7782  15.8624  16.0010  16.0319  16.6207
    16.7551  16.8113  17.0113  17.5318  17.6089

          k = 0.0000 0.3201-0.4996 ( 62478 PWs)   bands (ev):

   -66.0939 -66.0939 -66.0930 -66.0929 -66.0924 -66.0924 -66.0915 -66.0915
   -30.5088 -30.5088 -30.5014 -30.5014 -30.4819 -30.4819 -30.4708 -30.4708
   -30.4441 -30.4441 -30.4154 -30.4154 -30.4066 -30.4066 -30.4033 -30.4033
   -30.3771 -30.3771 -30.3728 -30.3728 -30.3536 -30.3536 -30.3209 -30.3209
   -20.2436 -20.2436 -20.2435 -20.2435 -20.2424 -20.2424 -20.2423 -20.2423
   -20.2393 -20.2393 -20.2387 -20.2387 -20.2363 -20.2363 -20.2358 -20.2358
   -20.2319 -20.2319 -20.2309 -20.2309 -20.2300 -20.2300 -20.2297 -20.2297
   -20.2293 -20.2293 -20.2285 -20.2285 -20.2283 -20.2283 -20.2263 -20.2263
   -20.2194 -20.2194 -20.2179 -20.2179 -20.2175 -20.2175 -20.2165 -20.2165
   -20.1953 -20.1953 -20.1930 -20.1930 -20.1927 -20.1927 -20.1921 -20.1921
   -20.1916 -20.1916 -20.1915 -20.1915 -20.1894 -20.1894 -20.1865 -20.1865
    -9.5689  -9.5689  -9.4026  -9.4026  -8.9798  -8.9798  -8.7759  -8.7759
    -8.6032  -8.6032  -8.5786  -8.5786  -8.5008  -8.5008  -8.4331  -8.4331
    -8.1816  -8.1816  -8.1378  -8.1378  -7.7457  -7.7457  -7.6670  -7.6670
     1.3171   1.3171   1.3870   1.3870   2.3106   2.3106   2.4397   2.4397
     2.8725   2.8725   3.0527   3.0527   3.1044   3.1044   3.2211   3.2211
     3.2878   3.2878   3.3289   3.3289   3.4680   3.4680   3.6606   3.6606
     3.9789   3.9789   4.0166   4.0166   4.1195   4.1195   4.3153   4.3153
     4.8032   4.8032   4.9067   4.9067   5.0821   5.0821   5.2184   5.2184
     5.3862   5.3862   5.7121   5.7121   6.1907   6.1907   6.2398   6.2398
     6.4194   6.4194   6.4873   6.4873   6.5363   6.5363   6.7197   6.7197
     7.0238   7.0238   7.0360   7.0360   7.0753   7.0753   7.4903   7.4903
     7.5038   7.5038   7.5473   7.5473   7.5857   7.5857   7.8255   7.8255
    10.6310  10.6310  11.1967  11.1967  11.2817  11.2817  11.7192  11.7192
    11.9266  11.9266  12.1149  12.1149  12.5953  12.5953  12.6068  12.6068
    12.8870  12.8870  12.9732  12.9732  13.3457  13.3457  13.7250  13.7250
    15.1710  15.1710  15.6502  15.6502  16.2431  16.2431  16.5362  16.5362
    16.8520  16.8520  17.2161  17.2161  17.9426

          k = 0.0000-0.4801 0.0000 ( 62550 PWs)   bands (ev):

   -66.0943 -66.0934 -66.0934 -66.0929 -66.0925 -66.0920 -66.0920 -66.0911
   -30.5002 -30.4998 -30.4961 -30.4951 -30.4866 -30.4860 -30.4832 -30.4821
   -30.4479 -30.4478 -30.4442 -30.4427 -30.4210 -30.4190 -30.4176 -30.4127
   -30.3620 -30.3589 -30.3585 -30.3577 -30.3281 -30.3231 -30.3226 -30.3187
   -20.2437 -20.2435 -20.2434 -20.2433 -20.2426 -20.2425 -20.2421 -20.2420
   -20.2389 -20.2386 -20.2382 -20.2379 -20.2370 -20.2367 -20.2365 -20.2362
   -20.2324 -20.2318 -20.2315 -20.2310 -20.2308 -20.2305 -20.2300 -20.2292
   -20.2289 -20.2288 -20.2286 -20.2285 -20.2281 -20.2278 -20.2265 -20.2262
   -20.2196 -20.2192 -20.2182 -20.2180 -20.2177 -20.2170 -20.2170 -20.2161
   -20.1963 -20.1955 -20.1949 -20.1945 -20.1942 -20.1941 -20.1928 -20.1914
   -20.1903 -20.1901 -20.1897 -20.1896 -20.1889 -20.1879 -20.1873 -20.1858
    -9.7681  -9.7677  -9.3755  -9.3705  -9.2894  -9.2842  -9.0182  -9.0173
    -8.5463  -8.5452  -8.4941  -8.4910  -8.4875  -8.4866  -8.4859  -8.4839
    -7.8121  -7.8075  -7.7325  -7.7271  -7.6900  -7.6873  -7.6135  -7.6100
     1.2106   1.2134   1.2833   1.2975   1.3424   1.3576   1.5971   1.6015
     2.4674   2.4676   3.0179   3.0230   3.1072   3.1158   3.2016   3.2148
     3.2829   3.2911   3.2972   3.3157   3.4054   3.4441   3.5649   3.5801
     3.6553   3.6564   4.7447   4.7637   4.7680   4.7800   5.1508   5.1823
     5.1929   5.2190   5.2693   5.2714   5.2856   5.2879   5.7520   5.7597
     5.7652   5.7708   5.9045   5.9152   6.0493   6.0509   6.0907   6.1075
     6.1531   6.1903   6.2631   6.2747   6.5947   6.6041   6.7154   6.7269
     6.8953   6.8968   7.2154   7.2295   7.3378   7.3486   7.4210   7.4244
     7.4904   7.4925   7.4945   7.4955   7.5362   7.5434   7.8842   7.8858
     9.4161   9.4185  11.1792  11.2135  11.2558  11.2740  11.2842  11.3048
    11.3663  11.3920  12.3558  12.3738  12.4961  12.5152  12.9026  12.9068
    13.4428  13.4593  13.4804  13.4882  13.5017  13.5078  13.5883  13.6024
    15.2876  15.3105  15.4202  15.4434  15.5916  15.6023  15.7128  15.7202
    16.5177  16.5183  17.8670  17.8680  18.0784

          k = 0.0000-0.4801 0.1665 ( 62468 PWs)   bands (ev):

   -66.0943 -66.0935 -66.0933 -66.0928 -66.0926 -66.0920 -66.0919 -66.0911
   -30.5000 -30.4981 -30.4963 -30.4935 -30.4866 -30.4864 -30.4835 -30.4826
   -30.4474 -30.4432 -30.4428 -30.4393 -30.4172 -30.4154 -30.4131 -30.4123
   -30.3682 -30.3650 -30.3584 -30.3581 -30.3343 -30.3285 -30.3228 -30.3190
   -20.2437 -20.2435 -20.2434 -20.2433 -20.2426 -20.2425 -20.2421 -20.2421
   -20.2389 -20.2387 -20.2382 -20.2379 -20.2370 -20.2367 -20.2366 -20.2362
   -20.2323 -20.2317 -20.2316 -20.2308 -20.2306 -20.2304 -20.2301 -20.2292
   -20.2288 -20.2288 -20.2287 -20.2287 -20.2282 -20.2279 -20.2265 -20.2262
   -20.2196 -20.2192 -20.2181 -20.2179 -20.2178 -20.2171 -20.2169 -20.2161
   -20.1961 -20.1951 -20.1947 -20.1946 -20.1938 -20.1938 -20.1927 -20.1915
   -20.1905 -20.1902 -20.1902 -20.1897 -20.1892 -20.1882 -20.1872 -20.1859
    -9.7211  -9.7116  -9.3844  -9.2994  -9.2910  -9.2069  -8.9819  -8.9747
    -8.5523  -8.5511  -8.5001  -8.4923  -8.4876  -8.4848  -8.4827  -8.4763
    -7.9311  -7.8521  -7.8175  -7.8020  -7.7375  -7.7193  -7.6950  -7.6176
     1.2815   1.3002   1.3251   1.3623   1.5380   1.5975   1.7497   1.7860
     2.5545   2.5553   3.0230   3.0325   3.1222   3.1422   3.2045   3.2224
     3.2751   3.3002   3.3031   3.3460   3.4272   3.4949   3.5645   3.6082
     3.6838   3.6917   4.4040   4.4092   4.7600   4.8123   4.9127   4.9907
     5.0655   5.0694   5.1593   5.1789   5.2847   5.3028   5.4695   5.5044
     5.7301   5.7336   5.7539   5.7672   5.9936   6.0941   6.1059   6.1504
     6.3114   6.3314   6.3586   6.4741   6.5864   6.7068   6.7890   6.9043
     6.9470   6.9747   7.0475   7.0519   7.1157   7.1858   7.4127   7.4329
     7.4702   7.4820   7.4876   7.5013   7.5264   7.5324   7.8745   7.8762
     9.7370   9.7580  11.2160  11.2800  11.2931  11.3063  11.3691  11.3921
    11.4029  11.4814  12.2577  12.3817  12.4261  12.5600  12.9426  12.9442
    13.2866  13.3174  13.3432  13.3735  13.4783  13.4846  13.5743  13.6138
    15.2771  15.3644  15.5617  15.5860  15.6378  15.7097  15.8870  15.9891
    16.5816  16.5869  17.7808  17.8166  17.9077

          k = 0.0000-0.4801 0.3331 ( 62480 PWs)   bands (ev):

   -66.0941 -66.0937 -66.0932 -66.0927 -66.0927 -66.0922 -66.0918 -66.0913
   -30.4993 -30.4972 -30.4944 -30.4901 -30.4882 -30.4860 -30.4842 -30.4842
   -30.4465 -30.4440 -30.4287 -30.4251 -30.4160 -30.4141 -30.3991 -30.3953
   -30.3849 -30.3816 -30.3621 -30.3568 -30.3509 -30.3431 -30.3220 -30.3198
   -20.2436 -20.2435 -20.2435 -20.2434 -20.2425 -20.2424 -20.2422 -20.2421
   -20.2389 -20.2387 -20.2381 -20.2380 -20.2369 -20.2367 -20.2366 -20.2364
   -20.2322 -20.2317 -20.2314 -20.2305 -20.2304 -20.2302 -20.2300 -20.2295
   -20.2291 -20.2291 -20.2287 -20.2286 -20.2284 -20.2281 -20.2264 -20.2263
   -20.2195 -20.2193 -20.2180 -20.2178 -20.2177 -20.2172 -20.2168 -20.2163
   -20.1957 -20.1949 -20.1942 -20.1939 -20.1929 -20.1928 -20.1924 -20.1918
   -20.1914 -20.1913 -20.1903 -20.1903 -20.1899 -20.1888 -20.1869 -20.1862
    -9.6119  -9.5753  -9.4272  -9.3476  -9.0567  -8.9808  -8.8596  -8.8321
    -8.5890  -8.5820  -8.5214  -8.5145  -8.4776  -8.4750  -8.4603  -8.4467
    -8.2160  -8.1422  -8.1223  -8.0502  -7.7749  -7.7163  -7.6974  -7.6387
     1.3084   1.3205   1.3748   1.3906   2.2171   2.2708   2.3803   2.4296
     2.8059   2.8069   3.0230   3.0564   3.1424   3.1937   3.2110   3.2340
     3.2554   3.2916   3.3455   3.3789   3.4691   3.5385   3.6716   3.7145
     3.7582   3.7753   3.8160   3.8434   4.3978   4.4016   4.5543   4.5828
     4.7208   4.7783   4.8282   4.8742   5.1311   5.1875   5.1895   5.2056
     5.3288   5.3719   5.6351   5.6560   6.1191   6.1387   6.1569   6.3168
     6.4247   6.4491   6.5115   6.5933   6.6631   6.6921   6.7142   6.8590
     6.9997   7.0304   7.0970   7.1275   7.1810   7.1860   7.3820   7.4267
     7.4536   7.4688   7.4757   7.4932   7.5153   7.5234   7.7900   7.7934
    10.4286  10.4772  11.2254  11.2677  11.3181  11.3592  11.6720  11.7229
    11.7344  11.8099  11.8788  11.9705  12.5913  12.6958  12.7455  12.7483
    12.8223  12.8692  13.1207  13.1877  13.4777  13.4778  13.5287  13.5570
    15.3160  15.4348  15.5198  15.6399  16.1425  16.2294  16.6503  16.7184
    16.8115  16.8341  17.2963  17.3016  17.9191

          k = 0.0000-0.4801-0.4996 ( 62496 PWs)   bands (ev):

   -66.0939 -66.0939 -66.0929 -66.0929 -66.0924 -66.0924 -66.0915 -66.0915
   -30.4982 -30.4982 -30.4908 -30.4908 -30.4867 -30.4867 -30.4852 -30.4851
   -30.4452 -30.4452 -30.4157 -30.4157 -30.4070 -30.4070 -30.4036 -30.4036
   -30.3772 -30.3772 -30.3728 -30.3728 -30.3537 -30.3537 -30.3209 -30.3209
   -20.2436 -20.2436 -20.2434 -20.2434 -20.2424 -20.2424 -20.2423 -20.2423
   -20.2388 -20.2388 -20.2381 -20.2380 -20.2368 -20.2368 -20.2365 -20.2365
   -20.2320 -20.2319 -20.2309 -20.2309 -20.2299 -20.2299 -20.2296 -20.2296
   -20.2295 -20.2295 -20.2286 -20.2286 -20.2283 -20.2283 -20.2263 -20.2263
   -20.2194 -20.2194 -20.2179 -20.2179 -20.2175 -20.2175 -20.2165 -20.2165
   -20.1953 -20.1953 -20.1930 -20.1930 -20.1927 -20.1927 -20.1921 -20.1921
   -20.1916 -20.1916 -20.1915 -20.1915 -20.1894 -20.1894 -20.1865 -20.1865
    -9.5030  -9.5030  -9.4381  -9.4381  -8.7562  -8.7562  -8.7092  -8.7092
    -8.6407  -8.6407  -8.6134  -8.6134  -8.4410  -8.4410  -8.4075  -8.4075
    -8.3810  -8.3810  -8.3376  -8.3376  -7.7455  -7.7455  -7.6678  -7.6678
     1.3187   1.3187   1.3890   1.3890   2.9241   2.9241   3.0255   3.0255
     3.1049   3.1049   3.1260   3.1260   3.1427   3.1427   3.2026   3.2026
     3.2882   3.2882   3.3236   3.3236   3.4071   3.4071   3.4734   3.4734
     3.5649   3.5649   3.6877   3.6877   4.2416   4.2417   4.2900   4.2900
     4.3325   4.3326   4.3990   4.3990   5.1499   5.1499   5.1767   5.1767
     5.4549   5.4549   5.5175   5.5175   6.2331   6.2331   6.2376   6.2376
     6.4560   6.4560   6.5305   6.5305   6.5650   6.5650   6.6293   6.6293
     7.2411   7.2411   7.2744   7.2745   7.2941   7.2941   7.4054   7.4054
     7.4295   7.4295   7.4820   7.4820   7.5734   7.5734   7.6104   7.6104
    11.1356  11.1356  11.2126  11.2126  11.3313  11.3313  11.3882  11.3882
    12.1946  12.1946  12.2065  12.2065  12.2918  12.2918  12.3148  12.3148
    12.8657  12.8657  12.9494  12.9494  13.4838  13.4838  13.4970  13.4970
    15.4204  15.4204  15.5451  15.5451  16.7525  16.7525  16.8164  16.8165
    17.3690  17.3693  17.4133  17.4134  17.5260

          k = 0.1667 0.0000 0.0000 ( 62483 PWs)   bands (ev):

   -66.0943 -66.0935 -66.0934 -66.0928 -66.0926 -66.0920 -66.0919 -66.0911
   -30.5260 -30.5205 -30.5199 -30.5145 -30.4799 -30.4699 -30.4662 -30.4521
   -30.4520 -30.4370 -30.4330 -30.4316 -30.4200 -30.4192 -30.4106 -30.4057
   -30.3644 -30.3639 -30.3614 -30.3583 -30.3292 -30.3277 -30.3251 -30.3228
   -20.2437 -20.2436 -20.2435 -20.2434 -20.2428 -20.2427 -20.2423 -20.2422
   -20.2403 -20.2400 -20.2398 -20.2396 -20.2356 -20.2351 -20.2351 -20.2345
   -20.2323 -20.2318 -20.2315 -20.2313 -20.2309 -20.2301 -20.2299 -20.2294
   -20.2289 -20.2287 -20.2285 -20.2284 -20.2276 -20.2275 -20.2266 -20.2262
   -20.2195 -20.2191 -20.2182 -20.2179 -20.2178 -20.2170 -20.2169 -20.2161
   -20.1961 -20.1954 -20.1947 -20.1943 -20.1942 -20.1941 -20.1925 -20.1910
   -20.1907 -20.1900 -20.1899 -20.1896 -20.1890 -20.1881 -20.1876 -20.1862
    -9.9178  -9.6031  -9.5670  -9.4942  -9.2588  -9.1600  -9.1525  -8.9916
    -8.9774  -8.9079  -8.9024  -8.8609  -7.9500  -7.8719  -7.8500  -7.8396
    -7.8177  -7.7947  -7.7808  -7.7591  -7.7338  -7.7203  -7.6945  -7.6185
     1.2579   1.2655   1.3104   1.3298   1.3979   1.4216   1.5225   1.5621
     1.5798   1.7006   1.7889   1.9500   2.5046   2.5449   2.6018   2.6272
     2.6751   2.7626   4.0885   4.1809   4.3322   4.3828   4.4351   4.4433
     4.5363   4.7221   4.7535   4.7996   4.8157   4.9618   5.1068   5.2793
     5.3766   5.3928   5.4608   5.5255   5.5536   5.5849   5.6043   5.6352
     5.6958   5.7993   5.8283   5.8439   5.9899   6.0036   6.0725   6.0973
     6.2961   6.3292   6.4389   6.5007   6.7026   6.7027   6.7293   6.7478
     6.8413   6.8526   6.8836   6.9456   7.0057   7.0165   7.0748   7.0799
     7.1420   7.2028   7.8640   7.8711   7.9828   8.0333   8.0699   8.1246
     9.7152   9.7395   9.9303   9.9325  10.1769  10.2183  12.2550  12.2552
    12.3673  12.4096  12.4110  12.5373  12.5631  12.6865  12.7298  12.9233
    13.0447  13.2520  13.2840  13.3160  13.7705  13.8834  14.0205  14.0624
    14.3431  14.5188  14.6547  14.9170  15.3805  15.3947  15.5372  15.9715
    16.3358  16.7439  16.9988  17.2307  17.3923

          k = 0.1667 0.0000 0.1665 ( 62501 PWs)   bands (ev):

   -66.0942 -66.0935 -66.0934 -66.0927 -66.0927 -66.0919 -66.0919 -66.0912
   -30.5255 -30.5203 -30.5200 -30.5149 -30.4777 -30.4671 -30.4666 -30.4525
   -30.4490 -30.4339 -30.4332 -30.4300 -30.4150 -30.4125 -30.4100 -30.4060
   -30.3675 -30.3666 -30.3638 -30.3624 -30.3339 -30.3292 -30.3290 -30.3250
   -20.2437 -20.2436 -20.2435 -20.2434 -20.2428 -20.2426 -20.2423 -20.2422
   -20.2403 -20.2401 -20.2398 -20.2396 -20.2356 -20.2351 -20.2351 -20.2345
   -20.2322 -20.2317 -20.2314 -20.2312 -20.2307 -20.2302 -20.2297 -20.2295
   -20.2291 -20.2286 -20.2285 -20.2284 -20.2277 -20.2276 -20.2265 -20.2262
   -20.2195 -20.2191 -20.2182 -20.2178 -20.2178 -20.2170 -20.2170 -20.2162
   -20.1959 -20.1951 -20.1946 -20.1942 -20.1939 -20.1939 -20.1924 -20.1912
   -20.1906 -20.1903 -20.1903 -20.1898 -20.1894 -20.1884 -20.1875 -20.1863
    -9.8713  -9.5452  -9.5098  -9.5090  -9.1728  -9.1687  -9.1651  -8.9504
    -8.9480  -8.8952  -8.8681  -8.8650  -7.9588  -7.9220  -7.8661  -7.8599
    -7.8457  -7.8382  -7.8291  -7.7901  -7.7872  -7.7625  -7.7447  -7.7309
     1.3761   1.4135   1.4152   1.4728   1.4751   1.5169   1.5706   1.5839
     1.6890   1.7030   1.8728   2.0273   2.5888   2.6132   2.6517   2.6952
     2.7440   2.7772   4.0830   4.1053   4.3319   4.3325   4.4482   4.4620
     4.4806   4.5045   4.5569   4.6138   4.7031   4.7655   5.0885   5.2084
     5.2420   5.3129   5.3239   5.4914   5.5136   5.5488   5.5709   5.6820
     5.6922   5.7134   5.7335   5.7718   5.8250   6.0088   6.2121   6.2813
     6.3095   6.5007   6.5529   6.6365   6.6523   6.6564   6.6909   6.7193
     6.7283   6.7818   6.8138   6.8443   6.8681   6.9411   6.9618   7.0539
     7.2072   7.2453   7.8543   7.8577   7.9955   8.0268   8.0399   8.0893
     9.9285   9.9732  10.1560  10.1684  10.2160  10.2931  12.2868  12.2989
    12.3125  12.3465  12.4456  12.4636  12.6224  12.6945  12.7471  12.8523
    13.0196  13.1073  13.2709  13.3267  13.7957  13.8614  13.9562  13.9624
    14.3640  14.6071  14.6484  15.0368  15.4700  15.4736  15.5067  16.2810
    16.3042  16.9037  16.9223  17.1471  17.4759

          k = 0.1667 0.0000 0.3331 ( 62475 PWs)   bands (ev):

   -66.0941 -66.0936 -66.0933 -66.0928 -66.0926 -66.0921 -66.0918 -66.0913
   -30.5242 -30.5213 -30.5188 -30.5159 -30.4736 -30.4680 -30.4613 -30.4540
   -30.4418 -30.4345 -30.4232 -30.4221 -30.4096 -30.4068 -30.3989 -30.3952
   -30.3837 -30.3816 -30.3663 -30.3623 -30.3507 -30.3445 -30.3282 -30.3260
   -20.2437 -20.2436 -20.2436 -20.2435 -20.2427 -20.2425 -20.2424 -20.2423
   -20.2402 -20.2401 -20.2398 -20.2396 -20.2355 -20.2352 -20.2350 -20.2347
   -20.2321 -20.2316 -20.2314 -20.2308 -20.2305 -20.2303 -20.2298 -20.2294
   -20.2294 -20.2287 -20.2284 -20.2283 -20.2279 -20.2278 -20.2265 -20.2263
   -20.2194 -20.2192 -20.2181 -20.2179 -20.2176 -20.2172 -20.2168 -20.2163
   -20.1954 -20.1946 -20.1942 -20.1938 -20.1930 -20.1929 -20.1922 -20.1915
   -20.1913 -20.1912 -20.1905 -20.1904 -20.1902 -20.1891 -20.1873 -20.1866
    -9.7591  -9.5570  -9.4091  -9.3771  -9.2056  -9.1982  -8.9293  -8.9093
    -8.8769  -8.8231  -8.7744  -8.7380  -8.2341  -8.1664  -8.1513  -8.0936
    -7.9104  -7.8646  -7.8339  -7.8205  -7.7952  -7.7936  -7.7716  -7.7569
     1.3889   1.4049   1.4775   1.5048   1.5938   1.6007   1.6801   1.7099
     2.2536   2.3212   2.4146   2.5096   2.6478   2.7296   2.8472   2.8778
     2.9658   3.0149   3.7614   3.8454   3.9203   3.9523   4.0666   4.3002
     4.3330   4.4471   4.4823   4.5016   4.5511   4.7040   4.7533   4.8591
     4.9980   5.0383   5.0698   5.1785   5.2279   5.3731   5.5715   5.5865
     5.7154   5.7273   5.7677   5.8311   5.8419   5.9812   6.0641   6.0940
     6.3628   6.4300   6.4777   6.5076   6.5251   6.6590   6.6752   6.6953
     6.7141   6.8384   6.8615   6.8658   7.0594   7.0812   7.1397   7.1886
     7.2662   7.3153   7.7693   7.7812   7.8895   7.9233   8.0390   8.0541
    10.1573  10.1600  10.5450  10.6291  10.8061  10.9170  11.9112  11.9950
    12.1381  12.3878  12.4376  12.4902  12.5928  12.6602  12.7704  12.7994
    12.8855  13.0859  13.1153  13.2411  13.6162  13.6385  13.8653  13.8872
    14.4864  14.6279  14.9012  15.3454  15.4031  15.7567  15.9088  16.1917
    16.3675  17.1377  17.3576  17.4362  17.5827

          k = 0.1667 0.0000-0.4996 ( 62454 PWs)   bands (ev):

   -66.0939 -66.0939 -66.0930 -66.0930 -66.0923 -66.0923 -66.0915 -66.0915
   -30.5227 -30.5227 -30.5173 -30.5173 -30.4703 -30.4703 -30.4568 -30.4568
   -30.4369 -30.4369 -30.4100 -30.4100 -30.4041 -30.4040 -30.4024 -30.4024
   -30.3780 -30.3780 -30.3729 -30.3729 -30.3583 -30.3583 -30.3271 -30.3271
   -20.2436 -20.2436 -20.2435 -20.2435 -20.2425 -20.2425 -20.2424 -20.2424
   -20.2402 -20.2402 -20.2397 -20.2397 -20.2354 -20.2354 -20.2348 -20.2348
   -20.2318 -20.2318 -20.2310 -20.2310 -20.2302 -20.2302 -20.2299 -20.2299
   -20.2290 -20.2290 -20.2282 -20.2282 -20.2281 -20.2281 -20.2264 -20.2264
   -20.2193 -20.2193 -20.2180 -20.2180 -20.2174 -20.2174 -20.2166 -20.2166
   -20.1950 -20.1950 -20.1929 -20.1929 -20.1926 -20.1926 -20.1917 -20.1917
   -20.1917 -20.1916 -20.1916 -20.1916 -20.1898 -20.1897 -20.1869 -20.1869
    -9.6415  -9.6415  -9.2826  -9.2826  -9.2616  -9.2616  -8.8926  -8.8926
    -8.5935  -8.5935  -8.5480  -8.5480  -8.5079  -8.5079  -8.4536  -8.4536
    -7.8885  -7.8884  -7.8214  -7.8214  -7.7852  -7.7852  -7.7817  -7.7817
     1.3953   1.3953   1.4924   1.4924   1.6063   1.6063   1.7135   1.7135
     2.6752   2.6752   3.0075   3.0075   3.0762   3.0762   3.1844   3.1844
     3.2656   3.2656   3.3810   3.3810   3.5404   3.5404   3.7763   3.7764
     3.7948   3.7948   4.4001   4.4001   4.4793   4.4793   4.8946   4.8946
     4.9815   4.9816   5.0297   5.0297   5.2160   5.2160   5.6440   5.6440
     5.7027   5.7027   5.7943   5.7943   5.8547   5.8547   5.9907   5.9907
     6.3053   6.3053   6.4218   6.4218   6.5968   6.5968   6.6969   6.6969
     6.8039   6.8039   6.9167   6.9167   6.9781   6.9781   7.5123   7.5123
     7.5535   7.5535   7.6398   7.6398   7.6741   7.6741   8.0489   8.0489
    10.1670  10.1670  11.2579  11.2579  11.3542  11.3542  11.5298  11.5298
    11.6933  11.6933  12.5991  12.5991  12.6872  12.6872  12.7848  12.7848
    12.9238  12.9238  13.2412  13.2412  13.3113  13.3113  13.8703  13.8703
    14.5829  14.5829  15.2061  15.2061  15.7807  15.7807  16.0445  16.0445
    16.7048  16.7048  17.7647  17.7648  17.8738

          k = 0.1667 0.1600 0.0000 ( 62491 PWs)   bands (ev):

   -66.0943 -66.0935 -66.0934 -66.0928 -66.0926 -66.0920 -66.0919 -66.0911
   -30.5221 -30.5165 -30.5159 -30.5103 -30.4818 -30.4718 -30.4686 -30.4561
   -30.4516 -30.4390 -30.4346 -30.4336 -30.4201 -30.4192 -30.4108 -30.4059
   -30.3645 -30.3639 -30.3614 -30.3585 -30.3293 -30.3277 -30.3250 -30.3229
   -20.2437 -20.2436 -20.2435 -20.2434 -20.2427 -20.2426 -20.2422 -20.2421
   -20.2400 -20.2398 -20.2396 -20.2393 -20.2359 -20.2354 -20.2353 -20.2348
   -20.2323 -20.2318 -20.2314 -20.2313 -20.2308 -20.2301 -20.2300 -20.2294
   -20.2289 -20.2288 -20.2286 -20.2284 -20.2277 -20.2276 -20.2266 -20.2262
   -20.2195 -20.2191 -20.2182 -20.2179 -20.2178 -20.2170 -20.2169 -20.2161
   -20.1961 -20.1954 -20.1947 -20.1943 -20.1942 -20.1941 -20.1925 -20.1910
   -20.1907 -20.1900 -20.1899 -20.1896 -20.1890 -20.1881 -20.1876 -20.1862
    -9.8845  -9.6150  -9.5279  -9.4494  -9.2650  -9.1588  -9.0830  -8.9879
    -8.9744  -8.8693  -8.8649  -8.8291  -7.9934  -7.9351  -7.9207  -7.9059
    -7.8771  -7.8432  -7.8094  -7.8007  -7.7324  -7.7211  -7.6972  -7.6192
     1.2685   1.2789   1.3163   1.3392   1.5123   1.5564   1.5912   1.7349
     1.7784   1.7980   1.8366   2.0466   2.5134   2.5954   2.6188   2.7041
     2.7494   2.8339   3.9865   4.0485   4.1112   4.1744   4.3633   4.4314
     4.5455   4.6423   4.7747   4.7789   4.8215   4.9238   4.9529   5.2178
     5.2355   5.3069   5.3597   5.4431   5.5030   5.5556   5.6128   5.6849
     5.7343   5.7694   5.8210   5.8608   5.9016   6.0251   6.0846   6.0967
     6.2499   6.3067   6.4714   6.4760   6.6707   6.7239   6.7466   6.7888
     6.8033   6.8866   6.9044   6.9334   6.9635   6.9910   7.0649   7.0843
     7.1442   7.2080   7.8622   7.8710   7.9519   7.9804   8.0185   8.0495
     9.7246   9.7499  10.1141  10.1260  10.3492  10.3746  12.1656  12.2581
    12.3024  12.3706  12.3952  12.4087  12.4810  12.5695  12.7636  12.9307
    13.0532  13.2495  13.2752  13.3257  13.7944  13.8301  13.9654  13.9854
    14.5099  14.7381  14.8973  15.0705  15.3821  15.3927  15.9143  15.9707
    16.3034  16.6809  16.8779  17.3430  17.4528

          k = 0.1667 0.1600 0.1665 ( 62496 PWs)   bands (ev):

   -66.0942 -66.0935 -66.0934 -66.0927 -66.0926 -66.0920 -66.0919 -66.0912
   -30.5216 -30.5163 -30.5160 -30.5107 -30.4799 -30.4694 -30.4691 -30.4566
   -30.4484 -30.4355 -30.4346 -30.4322 -30.4150 -30.4125 -30.4103 -30.4062
   -30.3676 -30.3664 -30.3639 -30.3628 -30.3339 -30.3292 -30.3290 -30.3251
   -20.2437 -20.2436 -20.2435 -20.2434 -20.2427 -20.2426 -20.2423 -20.2422
   -20.2400 -20.2398 -20.2395 -20.2393 -20.2358 -20.2354 -20.2353 -20.2348
   -20.2322 -20.2317 -20.2314 -20.2312 -20.2307 -20.2302 -20.2298 -20.2295
   -20.2290 -20.2287 -20.2286 -20.2284 -20.2278 -20.2276 -20.2266 -20.2262
   -20.2195 -20.2191 -20.2182 -20.2178 -20.2178 -20.2170 -20.2170 -20.2162
   -20.1959 -20.1951 -20.1946 -20.1942 -20.1939 -20.1939 -20.1924 -20.1912
   -20.1906 -20.1903 -20.1903 -20.1898 -20.1894 -20.1884 -20.1875 -20.1863
    -9.8363  -9.5573  -9.4657  -9.4645  -9.1790  -9.1718  -9.0919  -8.9489
    -8.9414  -8.8596  -8.8356  -8.8330  -8.0007  -7.9385  -7.9333  -7.9133
    -7.8975  -7.8868  -7.8442  -7.8343  -7.8252  -7.8097  -7.7432  -7.7324
     1.4626   1.4722   1.5073   1.5145   1.5733   1.5840   1.5972   1.7346
     1.8241   1.8352   1.8733   2.1028   2.6011   2.6842   2.6883   2.7320
     2.8198   2.8452   3.9990   4.0119   4.1369   4.1595   4.4046   4.4179
     4.4804   4.4983   4.5384   4.6281   4.6524   4.7072   4.9076   5.1318
     5.1727   5.2544   5.2799   5.3466   5.3682   5.4906   5.5011   5.5995
     5.7217   5.7339   5.7858   5.8208   5.8274   5.8925   6.2163   6.2469
     6.3224   6.4076   6.5222   6.6117   6.6576   6.6789   6.7116   6.7295
     6.7761   6.8079   6.8559   6.8705   6.9217   6.9367   6.9750   7.0562
     7.2102   7.2448   7.8515   7.8579   7.9510   7.9754   7.9923   8.0180
     9.9567   9.9870  10.3141  10.3321  10.3748  10.4347  12.2247  12.2629
    12.3002  12.3108  12.4090  12.4276  12.4882  12.5398  12.7813  12.8876
    12.9996  13.0867  13.2712  13.3227  13.7856  13.7963  13.8633  13.8943
    14.5923  14.8746  14.8951  15.1723  15.4671  15.4776  15.9082  16.2553
    16.2732  16.8046  17.0189  17.0313  17.5268

          k = 0.1667 0.1600 0.3331 ( 62466 PWs)   bands (ev):

   -66.0941 -66.0936 -66.0933 -66.0928 -66.0926 -66.0921 -66.0918 -66.0913
   -30.5203 -30.5173 -30.5147 -30.5117 -30.4760 -30.4705 -30.4646 -30.4580
   -30.4418 -30.4357 -30.4245 -30.4231 -30.4098 -30.4070 -30.3989 -30.3953
   -30.3839 -30.3817 -30.3665 -30.3624 -30.3507 -30.3446 -30.3282 -30.3260
   -20.2437 -20.2436 -20.2435 -20.2434 -20.2426 -20.2425 -20.2424 -20.2423
   -20.2400 -20.2399 -20.2395 -20.2394 -20.2358 -20.2355 -20.2353 -20.2349
   -20.2321 -20.2316 -20.2314 -20.2307 -20.2305 -20.2303 -20.2297 -20.2295
   -20.2294 -20.2287 -20.2285 -20.2284 -20.2280 -20.2279 -20.2265 -20.2263
   -20.2194 -20.2192 -20.2181 -20.2179 -20.2176 -20.2172 -20.2168 -20.2163
   -20.1955 -20.1946 -20.1942 -20.1938 -20.1930 -20.1929 -20.1922 -20.1915
   -20.1913 -20.1912 -20.1905 -20.1904 -20.1902 -20.1891 -20.1873 -20.1866
    -9.7202  -9.5130  -9.4207  -9.3188  -9.2131  -9.1223  -8.9353  -8.8816
    -8.8445  -8.8211  -8.7653  -8.7200  -8.2367  -8.1746  -8.1544  -8.0997
    -7.9530  -7.9334  -7.9050  -7.8808  -7.8764  -7.8299  -7.8122  -7.7571
     1.5164   1.5269   1.6052   1.6160   1.6979   1.7104   1.7863   1.8342
     2.2546   2.3281   2.4163   2.5219   2.7233   2.7983   2.8680   2.9488
     2.9670   3.0755   3.7664   3.8594   3.8981   3.9170   4.1141   4.1440
     4.2150   4.3429   4.4317   4.5176   4.5451   4.6301   4.7237   4.7863
     4.8569   4.8949   4.9495   5.0900   5.1750   5.2260   5.3311   5.5437
     5.6158   5.6403   5.7483   5.7873   5.8441   5.8615   6.0319   6.0857
     6.3340   6.4657   6.5201   6.5946   6.6368   6.6686   6.6870   6.7595
     6.7856   6.8444   6.8932   6.9342   7.0527   7.0888   7.1369   7.1921
     7.2667   7.3151   7.7703   7.7764   7.8513   7.8781   7.9839   7.9933
    10.3138  10.3298  10.5683  10.6411  10.9186  11.0034  11.9112  11.9962
    12.1344  12.4085  12.4267  12.4744  12.5056  12.5580  12.6834  12.7583
    12.8182  13.0422  13.1044  13.2383  13.5087  13.5420  13.8124  13.8305
    14.7589  14.8777  15.2388  15.4525  15.7521  15.8081  15.9240  16.1779
    16.4635  17.1083  17.1974  17.4177  17.4934

          k = 0.1667 0.1600-0.4996 ( 62460 PWs)   bands (ev):

   -66.0938 -66.0938 -66.0930 -66.0930 -66.0923 -66.0923 -66.0916 -66.0916
   -30.5187 -30.5187 -30.5131 -30.5131 -30.4727 -30.4727 -30.4606 -30.4606
   -30.4378 -30.4378 -30.4103 -30.4103 -30.4044 -30.4044 -30.4027 -30.4027
   -30.3781 -30.3781 -30.3729 -30.3729 -30.3583 -30.3583 -30.3271 -30.3271
   -20.2436 -20.2436 -20.2435 -20.2435 -20.2425 -20.2425 -20.2424 -20.2424
   -20.2399 -20.2399 -20.2395 -20.2394 -20.2356 -20.2356 -20.2351 -20.2351
   -20.2318 -20.2318 -20.2310 -20.2310 -20.2302 -20.2302 -20.2298 -20.2298
   -20.2291 -20.2291 -20.2282 -20.2282 -20.2282 -20.2282 -20.2264 -20.2264
   -20.2193 -20.2193 -20.2180 -20.2180 -20.2174 -20.2174 -20.2166 -20.2166
   -20.1950 -20.1950 -20.1929 -20.1929 -20.1926 -20.1926 -20.1917 -20.1917
   -20.1917 -20.1917 -20.1916 -20.1916 -20.1898 -20.1897 -20.1869 -20.1869
    -9.5992  -9.5992  -9.2921  -9.2921  -9.1899  -9.1899  -8.8601  -8.8601
    -8.5961  -8.5961  -8.5533  -8.5533  -8.5052  -8.5052  -8.4510  -8.4510
    -7.9464  -7.9464  -7.8937  -7.8937  -7.8561  -7.8561  -7.7849  -7.7849
     1.5226   1.5226   1.6190   1.6190   1.7114   1.7114   1.8300   1.8300
     2.7466   2.7466   3.0243   3.0243   3.0980   3.0980   3.1945   3.1945
     3.2691   3.2691   3.3911   3.3911   3.5367   3.5367   3.7897   3.7897
     3.8425   3.8425   4.2511   4.2511   4.4408   4.4408   4.6930   4.6930
     4.8808   4.8808   4.9971   4.9971   5.0592   5.0592   5.4404   5.4404
     5.6632   5.6632   5.6980   5.6980   5.8443   5.8443   5.8784   5.8784
     6.4324   6.4324   6.5787   6.5787   6.6155   6.6155   6.7079   6.7079
     6.8680   6.8680   6.8984   6.8984   7.0112   7.0112   7.5126   7.5126
     7.5470   7.5470   7.6207   7.6207   7.6522   7.6522   7.9899   7.9899
    10.3375  10.3375  11.2666  11.2666  11.3569  11.3569  11.5991  11.5991
    11.7508  11.7508  12.5242  12.5242  12.6168  12.6168  12.7639  12.7639
    12.9073  12.9073  13.1268  13.1268  13.2347  13.2347  13.8127  13.8127
    14.8427  14.8427  15.5758  15.5758  15.8884  15.8884  16.0401  16.0401
    16.7437  16.7437  17.6164  17.6164  17.8430

          k = 0.1667 0.3201 0.0000 ( 62502 PWs)   bands (ev):

   -66.0943 -66.0935 -66.0934 -66.0928 -66.0926 -66.0920 -66.0919 -66.0911
   -30.5119 -30.5059 -30.5052 -30.4988 -30.4881 -30.4784 -30.4764 -30.4674
   -30.4499 -30.4428 -30.4395 -30.4365 -30.4202 -30.4194 -30.4112 -30.4062
   -30.3646 -30.3637 -30.3616 -30.3591 -30.3293 -30.3277 -30.3249 -30.3230
   -20.2437 -20.2436 -20.2434 -20.2433 -20.2427 -20.2426 -20.2421 -20.2421
   -20.2394 -20.2391 -20.2389 -20.2386 -20.2365 -20.2361 -20.2360 -20.2356
   -20.2323 -20.2318 -20.2314 -20.2311 -20.2308 -20.2302 -20.2301 -20.2292
   -20.2289 -20.2287 -20.2286 -20.2285 -20.2279 -20.2278 -20.2266 -20.2263
   -20.2195 -20.2191 -20.2182 -20.2179 -20.2178 -20.2170 -20.2170 -20.2161
   -20.1961 -20.1954 -20.1947 -20.1943 -20.1942 -20.1941 -20.1925 -20.1910
   -20.1907 -20.1900 -20.1899 -20.1896 -20.1890 -20.1881 -20.1876 -20.1862
    -9.8040  -9.6521  -9.4423  -9.3495  -9.2844  -9.1790  -8.9840  -8.9726
    -8.8653  -8.7352  -8.7320  -8.7132  -8.2302  -8.1872  -8.1792  -8.1605
    -7.9256  -7.8467  -7.8145  -7.8046  -7.7331  -7.7230  -7.6980  -7.6206
     1.2712   1.2851   1.3177   1.3459   1.5464   1.6070   1.7312   1.7939
     2.3101   2.4246   2.4466   2.5320   2.5781   2.5901   2.8441   2.9374
     2.9769   3.0494   3.6162   3.6444   3.6928   3.7407   4.1004   4.3737
     4.3939   4.4700   4.4908   4.7014   4.7058   4.7721   4.8385   4.8524
     5.0063   5.0319   5.1523   5.2960   5.3449   5.4469   5.5537   5.6316
     5.6840   5.7483   5.7949   5.8628   5.9813   6.0393   6.1031   6.1567
     6.2153   6.2859   6.4482   6.5227   6.5677   6.7683   6.7984   6.8932
     6.9147   6.9459   7.0084   7.0243   7.0645   7.0751   7.1157   7.1341
     7.1744   7.2308   7.7684   7.8022   7.8135   7.8365   7.8798   7.8851
     9.7337   9.7594  10.6012  10.6425  10.7940  10.8283  11.8110  11.9241
    11.9580  12.0489  12.2679  12.3950  12.4082  12.5426  12.8485  12.9460
    13.1420  13.2617  13.3282  13.3656  13.5986  13.6419  13.7511  13.7737
    14.9997  15.2359  15.3433  15.3939  15.4951  15.6853  15.8482  16.1316
    16.1941  16.9355  17.2465  17.3360  17.6286

          k = 0.1667 0.3201 0.1665 ( 62494 PWs)   bands (ev):

   -66.0942 -66.0934 -66.0934 -66.0928 -66.0926 -66.0920 -66.0920 -66.0912
   -30.5112 -30.5056 -30.5052 -30.4992 -30.4867 -30.4771 -30.4769 -30.4679
   -30.4465 -30.4385 -30.4377 -30.4367 -30.4150 -30.4126 -30.4108 -30.4065
   -30.3678 -30.3659 -30.3641 -30.3636 -30.3340 -30.3291 -30.3290 -30.3252
   -20.2437 -20.2436 -20.2435 -20.2434 -20.2426 -20.2425 -20.2422 -20.2421
   -20.2394 -20.2392 -20.2388 -20.2386 -20.2365 -20.2361 -20.2360 -20.2356
   -20.2323 -20.2317 -20.2315 -20.2310 -20.2307 -20.2302 -20.2301 -20.2293
   -20.2289 -20.2288 -20.2286 -20.2285 -20.2279 -20.2278 -20.2266 -20.2263
   -20.2195 -20.2191 -20.2182 -20.2178 -20.2178 -20.2170 -20.2170 -20.2162
   -20.1959 -20.1951 -20.1946 -20.1942 -20.1939 -20.1939 -20.1924 -20.1912
   -20.1906 -20.1903 -20.1903 -20.1898 -20.1894 -20.1884 -20.1875 -20.1863
    -9.7519  -9.5951  -9.3676  -9.3646  -9.1994  -9.1930  -8.9459  -8.9394
    -8.8740  -8.7256  -8.7182  -8.7168  -8.2324  -8.1867  -8.1838  -8.1664
    -7.9237  -7.9184  -7.8447  -7.8372  -7.8309  -7.8223  -7.7426  -7.7354
     1.4666   1.4711   1.5386   1.5498   1.6001   1.6125   1.8080   1.8686
     2.3137   2.4243   2.4348   2.5783   2.6224   2.6763   2.9092   2.9753
     3.0436   3.0621   3.6505   3.6707   3.6992   3.7546   4.0875   4.3997
     4.4125   4.4343   4.4475   4.5130   4.5373   4.7037   4.7124   4.7915
     4.8215   4.8537   5.0802   5.1083   5.3331   5.3541   5.3631   5.4043
     5.6499   5.6608   5.7228   5.7338   5.8074   5.8283   6.2335   6.2585
     6.3665   6.4429   6.5120   6.6059   6.7073   6.7387   6.7593   6.7823
     6.8961   6.9086   6.9715   6.9823   7.0658   7.0784   7.1057   7.1151
     7.2411   7.2549   7.7652   7.7815   7.8026   7.8187   7.8652   7.8766
     9.9848   9.9956  10.7502  10.7812  10.8178  10.8659  11.8885  11.9389
    12.0073  12.0631  12.3145  12.3244  12.4332  12.4442  12.8726  12.9456
    13.0707  13.1272  13.2766  13.3223  13.5588  13.5839  13.6455  13.7008
    15.1524  15.3987  15.4429  15.4766  15.5289  15.7457  16.1523  16.1656
    16.2598  16.9025  17.3051  17.3759  17.4228

          k = 0.1667 0.3201 0.3331 ( 62476 PWs)   bands (ev):

   -66.0940 -66.0936 -66.0932 -66.0928 -66.0926 -66.0921 -66.0918 -66.0913
   -30.5097 -30.5066 -30.5035 -30.5002 -30.4835 -30.4783 -30.4741 -30.4692
   -30.4417 -30.4380 -30.4273 -30.4247 -30.4100 -30.4074 -30.3990 -30.3954
   -30.3843 -30.3818 -30.3668 -30.3626 -30.3507 -30.3446 -30.3283 -30.3261
   -20.2436 -20.2435 -20.2435 -20.2434 -20.2425 -20.2424 -20.2423 -20.2422
   -20.2394 -20.2392 -20.2388 -20.2387 -20.2364 -20.2362 -20.2360 -20.2357
   -20.2321 -20.2316 -20.2314 -20.2306 -20.2305 -20.2303 -20.2298 -20.2296
   -20.2292 -20.2289 -20.2286 -20.2285 -20.2281 -20.2280 -20.2265 -20.2264
   -20.2194 -20.2192 -20.2181 -20.2179 -20.2176 -20.2172 -20.2168 -20.2163
   -20.1955 -20.1946 -20.1942 -20.1938 -20.1930 -20.1929 -20.1922 -20.1915
   -20.1913 -20.1912 -20.1905 -20.1904 -20.1902 -20.1891 -20.1873 -20.1866
    -9.6271  -9.4580  -9.4127  -9.2379  -9.1771  -8.9596  -8.9071  -8.8379
    -8.8137  -8.7292  -8.6887  -8.6457  -8.2959  -8.2612  -8.1934  -8.1792
    -8.1720  -8.1195  -8.1037  -8.0380  -7.8931  -7.8354  -7.8161  -7.7589
     1.5592   1.5706   1.6224   1.6367   2.1571   2.2303   2.2576   2.3379
     2.4074   2.4464   2.4789   2.6649   2.8830   2.9340   2.9606   3.0326
     3.1905   3.2727   3.6468   3.6751   3.7114   3.7963   3.8784   3.9464
     4.0616   4.2238   4.3312   4.3739   4.3906   4.5138   4.5460   4.6190
     4.7161   4.7660   4.7863   4.8340   4.8840   4.9553   5.0814   5.1626
     5.3001   5.3201   5.3937   5.6101   5.7503   5.8236   6.0662   6.0852
     6.5079   6.5569   6.6133   6.6898   6.7473   6.7993   6.9002   6.9311
     6.9655   6.9877   7.0103   7.0491   7.0975   7.1408   7.1798   7.2223
     7.2776   7.3198   7.7003   7.7063   7.7594   7.7831   7.7988   7.8330
    10.5531  10.5893  10.8059  10.8440  11.2386  11.2927  11.8700  11.9397
    12.0014  12.0911  12.1786  12.2537  12.4941  12.5762  12.6015  12.6297
    12.8826  13.0087  13.0559  13.2320  13.2698  13.3531  13.5974  13.6285
    15.3199  15.4318  15.6988  15.9384  15.9910  16.0264  16.1169  16.6807
    16.7797  16.8111  17.0086  17.5323  17.6217

          k = 0.1667 0.3201-0.4996 ( 62466 PWs)   bands (ev):

   -66.0938 -66.0938 -66.0930 -66.0930 -66.0924 -66.0924 -66.0916 -66.0916
   -30.5081 -30.5080 -30.5018 -30.5018 -30.4805 -30.4805 -30.4713 -30.4713
   -30.4395 -30.4395 -30.4109 -30.4109 -30.4050 -30.4050 -30.4033 -30.4033
   -30.3782 -30.3782 -30.3730 -30.3730 -30.3585 -30.3585 -30.3272 -30.3272
   -20.2436 -20.2436 -20.2435 -20.2435 -20.2424 -20.2424 -20.2423 -20.2423
   -20.2393 -20.2393 -20.2387 -20.2387 -20.2363 -20.2363 -20.2359 -20.2359
   -20.2318 -20.2318 -20.2310 -20.2309 -20.2300 -20.2300 -20.2297 -20.2297
   -20.2293 -20.2293 -20.2284 -20.2284 -20.2283 -20.2283 -20.2264 -20.2264
   -20.2193 -20.2193 -20.2180 -20.2180 -20.2174 -20.2174 -20.2166 -20.2166
   -20.1950 -20.1950 -20.1929 -20.1929 -20.1926 -20.1926 -20.1917 -20.1917
   -20.1917 -20.1916 -20.1916 -20.1916 -20.1898 -20.1897 -20.1869 -20.1869
    -9.5001  -9.5001  -9.3233  -9.3233  -8.9937  -8.9937  -8.7542  -8.7542
    -8.6178  -8.6178  -8.5702  -8.5702  -8.4935  -8.4935  -8.4367  -8.4367
    -8.1787  -8.1787  -8.1431  -8.1431  -7.8651  -7.8651  -7.7873  -7.7873
     1.5714   1.5714   1.6394   1.6394   2.3141   2.3141   2.4254   2.4254
     2.9458   2.9458   3.0712   3.0712   3.1130   3.1130   3.2346   3.2346
     3.2781   3.2781   3.4218   3.4218   3.5204   3.5204   3.7065   3.7065
     3.9734   3.9734   4.0227   4.0228   4.1137   4.1137   4.3241   4.3241
     4.7018   4.7018   4.8064   4.8064   4.9606   4.9606   4.9827   4.9827
     5.1012   5.1012   5.4821   5.4821   5.8357   5.8357   5.8728   5.8728
     6.6046   6.6047   6.7278   6.7278   6.7894   6.7894   6.8239   6.8239
     7.0016   7.0016   7.0468   7.0468   7.1457   7.1457   7.4934   7.4934
     7.5142   7.5142   7.5592   7.5592   7.5954   7.5954   7.8061   7.8061
    10.7872  10.7872  11.2827  11.2827  11.3636  11.3636  11.7611  11.7611
    11.9393  11.9393  12.1566  12.1566  12.5662  12.5662  12.5966  12.5966
    12.8256  12.8256  12.9175  12.9175  13.1971  13.1971  13.5961  13.5961
    15.3923  15.3923  15.9188  15.9188  16.3154  16.3154  16.5236  16.5236
    16.9019  16.9019  17.2555  17.2555  17.8200

          k = 0.1667-0.4801 0.0000 ( 62470 PWs)   bands (ev):

   -66.0943 -66.0934 -66.0934 -66.0928 -66.0926 -66.0920 -66.0919 -66.0911
   -30.4995 -30.4986 -30.4954 -30.4945 -30.4871 -30.4858 -30.4838 -30.4824
   -30.4478 -30.4446 -30.4433 -30.4377 -30.4202 -30.4194 -30.4113 -30.4064
   -30.3646 -30.3636 -30.3617 -30.3593 -30.3293 -30.3278 -30.3249 -30.3231
   -20.2437 -20.2435 -20.2434 -20.2433 -20.2426 -20.2425 -20.2421 -20.2420
   -20.2389 -20.2386 -20.2382 -20.2379 -20.2370 -20.2367 -20.2365 -20.2362
   -20.2323 -20.2318 -20.2314 -20.2310 -20.2308 -20.2304 -20.2301 -20.2291
   -20.2290 -20.2286 -20.2286 -20.2286 -20.2280 -20.2279 -20.2267 -20.2263
   -20.2195 -20.2191 -20.2182 -20.2179 -20.2178 -20.2171 -20.2170 -20.2161
   -20.1961 -20.1954 -20.1947 -20.1943 -20.1942 -20.1941 -20.1925 -20.1910
   -20.1907 -20.1900 -20.1899 -20.1896 -20.1890 -20.1881 -20.1876 -20.1862
    -9.7223  -9.7119  -9.3894  -9.3047  -9.2863  -9.2020  -8.9822  -8.9731
    -8.5525  -8.5516  -8.4999  -8.4930  -8.4871  -8.4835  -8.4822  -8.4772
    -7.9264  -7.8479  -7.8144  -7.8050  -7.7335  -7.7241  -7.6978  -7.6212
     1.2715   1.2861   1.3178   1.3473   1.5498   1.6103   1.7554   1.7977
     2.5540   2.5551   3.0168   3.0309   3.1177   3.1496   3.2084   3.2158
     3.2726   3.2944   3.3047   3.3801   3.4108   3.4961   3.5632   3.6138
     3.6813   3.6892   4.4111   4.4189   4.7390   4.7625   4.9541   5.0009
     5.0732   5.0749   5.1518   5.1742   5.2787   5.2974   5.4809   5.5153
     5.7252   5.7275   5.7560   5.7683   5.9853   6.0933   6.1038   6.1847
     6.2679   6.3334   6.3603   6.4681   6.5918   6.7137   6.7888   6.9021
     6.9511   6.9762   7.0378   7.0634   7.1289   7.1758   7.4116   7.4341
     7.4670   7.4865   7.4894   7.5019   7.5241   7.5380   7.8756   7.8769
     9.7364   9.7622  11.1838  11.2476  11.2789  11.3057  11.3840  11.4046
    11.4210  11.5043  12.2707  12.3966  12.4103  12.5433  12.9330  12.9386
    13.2940  13.3143  13.3509  13.4288  13.4991  13.5025  13.5213  13.5976
    15.2922  15.3686  15.5559  15.5725  15.6197  15.7006  15.8918  15.9905
    16.5809  16.5871  17.7826  17.8172  17.9071

          k = 0.1667-0.4801 0.1665 ( 62510 PWs)   bands (ev):

   -66.0942 -66.0934 -66.0934 -66.0928 -66.0926 -66.0920 -66.0920 -66.0912
   -30.4983 -30.4978 -30.4948 -30.4938 -30.4870 -30.4864 -30.4840 -30.4829
   -30.4430 -30.4428 -30.4397 -30.4380 -30.4150 -30.4126 -30.4110 -30.4067
   -30.3679 -30.3654 -30.3644 -30.3640 -30.3340 -30.3291 -30.3291 -30.3252
   -20.2436 -20.2435 -20.2434 -20.2433 -20.2426 -20.2425 -20.2421 -20.2421
   -20.2389 -20.2386 -20.2382 -20.2379 -20.2370 -20.2367 -20.2366 -20.2363
   -20.2323 -20.2317 -20.2315 -20.2308 -20.2306 -20.2303 -20.2302 -20.2292
   -20.2289 -20.2287 -20.2287 -20.2286 -20.2280 -20.2280 -20.2266 -20.2263
   -20.2195 -20.2191 -20.2182 -20.2178 -20.2178 -20.2170 -20.2170 -20.2162
   -20.1959 -20.1951 -20.1946 -20.1942 -20.1939 -20.1939 -20.1924 -20.1912
   -20.1906 -20.1903 -20.1903 -20.1898 -20.1894 -20.1884 -20.1875 -20.1863
    -9.6619  -9.6614  -9.3052  -9.3004  -9.2225  -9.2176  -8.9426  -8.9416
    -8.5599  -8.5589  -8.4953  -8.4931  -8.4861  -8.4841  -8.4788  -8.4775
    -7.9243  -7.9193  -7.8446  -7.8384  -7.8293  -7.8258  -7.7414  -7.7377
     1.4674   1.4701   1.5416   1.5533   1.6032   1.6158   1.8550   1.8593
[...]
    11.5051  11.5051  11.5750  11.5750  11.6114  11.6114  11.6712  11.6712
    12.0390  12.0390  12.0570  12.0570  12.1894  12.1894  12.2010  12.2010
    12.9677  12.9677  13.0049  13.0049  13.1506  13.1506  13.1845  13.1845
    15.3788  15.3788  15.3789  15.3789  16.7020  16.7020  16.7622  16.7623
    17.6068  17.6068  17.6487  17.6489  17.8139

          k =-0.5000 0.3201 0.0000 ( 62494 PWs)   bands (ev):

   -66.0939 -66.0939 -66.0930 -66.0930 -66.0924 -66.0924 -66.0915 -66.0915
   -30.5085 -30.5085 -30.5015 -30.5015 -30.4821 -30.4821 -30.4708 -30.4708
   -30.4451 -30.4451 -30.4234 -30.4234 -30.4021 -30.4021 -30.4013 -30.4013
   -30.3720 -30.3720 -30.3665 -30.3664 -30.3579 -30.3579 -30.3257 -30.3257
   -20.2436 -20.2436 -20.2434 -20.2434 -20.2426 -20.2426 -20.2421 -20.2421
   -20.2391 -20.2391 -20.2389 -20.2389 -20.2363 -20.2363 -20.2358 -20.2358
   -20.2320 -20.2320 -20.2310 -20.2310 -20.2307 -20.2307 -20.2296 -20.2296
   -20.2290 -20.2290 -20.2282 -20.2282 -20.2275 -20.2275 -20.2271 -20.2271
   -20.2189 -20.2188 -20.2184 -20.2184 -20.2174 -20.2174 -20.2165 -20.2165
   -20.1951 -20.1951 -20.1949 -20.1948 -20.1930 -20.1930 -20.1921 -20.1921
   -20.1905 -20.1905 -20.1892 -20.1892 -20.1889 -20.1889 -20.1886 -20.1886
    -9.5719  -9.5719  -9.4082  -9.4082  -8.9810  -8.9810  -8.7780  -8.7780
    -8.5983  -8.5983  -8.5748  -8.5748  -8.4947  -8.4947  -8.4290  -8.4290
    -8.1786  -8.1786  -8.1381  -8.1381  -7.7490  -7.7490  -7.6712  -7.6712
     1.3035   1.3035   1.3724   1.3724   2.3086   2.3086   2.4368   2.4368
     2.8917   2.8917   3.0385   3.0385   3.0968   3.0968   3.2272   3.2272
     3.2777   3.2777   3.3526   3.3527   3.4782   3.4782   3.6551   3.6551
     3.9618   3.9618   4.0090   4.0090   4.1562   4.1563   4.3367   4.3367
     4.8004   4.8004   4.8799   4.8799   5.0806   5.0806   5.2228   5.2228
     5.3875   5.3875   5.7115   5.7115   6.1906   6.1906   6.2325   6.2325
     6.4230   6.4230   6.4854   6.4854   6.5416   6.5416   6.7242   6.7242
     7.0159   7.0159   7.0419   7.0419   7.0698   7.0698   7.4828   7.4828
     7.4989   7.4989   7.5617   7.5617   7.5951   7.5951   7.8337   7.8337
    10.6179  10.6179  11.1991  11.1991  11.2854  11.2854  11.6765  11.6765
    11.9332  11.9332  12.1216  12.1216  12.6000  12.6000  12.6360  12.6360
    12.8858  12.8858  12.9938  12.9938  13.3373  13.3373  13.7443  13.7443
    15.1634  15.1634  15.6346  15.6346  16.2413  16.2414  16.5311  16.5311
    16.8187  16.8187  17.2194  17.2194  17.9316

          k =-0.5000 0.3201 0.1665 ( 62464 PWs)   bands (ev):

   -66.0938 -66.0938 -66.0930 -66.0930 -66.0924 -66.0924 -66.0916 -66.0916
   -30.5078 -30.5078 -30.5019 -30.5019 -30.4806 -30.4806 -30.4713 -30.4713
   -30.4406 -30.4406 -30.4184 -30.4184 -30.4022 -30.4022 -30.4000 -30.4000
   -30.3732 -30.3732 -30.3672 -30.3672 -30.3621 -30.3621 -30.3319 -30.3318
   -20.2436 -20.2436 -20.2434 -20.2434 -20.2426 -20.2426 -20.2421 -20.2421
   -20.2391 -20.2391 -20.2389 -20.2389 -20.2363 -20.2363 -20.2359 -20.2358
   -20.2319 -20.2319 -20.2309 -20.2309 -20.2307 -20.2307 -20.2295 -20.2295
   -20.2291 -20.2291 -20.2283 -20.2283 -20.2275 -20.2275 -20.2271 -20.2271
   -20.2188 -20.2188 -20.2184 -20.2184 -20.2174 -20.2174 -20.2166 -20.2166
   -20.1948 -20.1948 -20.1945 -20.1945 -20.1928 -20.1928 -20.1922 -20.1922
   -20.1906 -20.1906 -20.1894 -20.1894 -20.1893 -20.1893 -20.1887 -20.1887
    -9.5026  -9.5026  -9.3285  -9.3285  -8.9946  -8.9946  -8.7568  -8.7568
    -8.6131  -8.6131  -8.5663  -8.5662  -8.4878  -8.4878  -8.4326  -8.4326
    -8.1759  -8.1759  -8.1431  -8.1431  -7.8689  -7.8689  -7.7920  -7.7920
     1.5593   1.5593   1.6262   1.6262   2.3128   2.3128   2.4235   2.4235
     2.9632   2.9632   3.0595   3.0595   3.1037   3.1037   3.2408   3.2408
     3.2816   3.2816   3.4332   3.4332   3.5272   3.5272   3.7018   3.7018
     3.9553   3.9553   4.0178   4.0178   4.1507   4.1507   4.3403   4.3403
     4.6925   4.6925   4.7930   4.7930   4.9609   4.9609   4.9840   4.9840
     5.1040   5.1040   5.4806   5.4806   5.8308   5.8308   5.8687   5.8687
     6.6051   6.6051   6.7356   6.7356   6.7945   6.7945   6.8250   6.8251
     6.9938   6.9938   7.0505   7.0505   7.1392   7.1392   7.4856   7.4856
     7.5087   7.5087   7.5713   7.5713   7.6030   7.6030   7.8120   7.8120
    10.7784  10.7784  11.2826  11.2826  11.3648  11.3648  11.7231  11.7231
    11.9467  11.9467  12.1613  12.1613  12.5825  12.5825  12.6152  12.6152
    12.8283  12.8283  12.9349  12.9349  13.1847  13.1847  13.6065  13.6065
    15.3921  15.3921  15.9062  15.9063  16.3127  16.3127  16.5216  16.5216
    16.8727  16.8727  17.2594  17.2595  17.8082

          k =-0.5000 0.3201 0.3331 ( 62466 PWs)   bands (ev):

   -66.0936 -66.0936 -66.0932 -66.0932 -66.0922 -66.0922 -66.0917 -66.0917
   -30.5062 -30.5062 -30.5029 -30.5029 -30.4776 -30.4776 -30.4726 -30.4726
   -30.4269 -30.4269 -30.4093 -30.4093 -30.4034 -30.4034 -30.3913 -30.3913
   -30.3847 -30.3846 -30.3683 -30.3682 -30.3661 -30.3660 -30.3487 -30.3487
   -20.2436 -20.2436 -20.2435 -20.2434 -20.2425 -20.2425 -20.2422 -20.2422
   -20.2391 -20.2391 -20.2390 -20.2389 -20.2362 -20.2362 -20.2360 -20.2360
   -20.2317 -20.2317 -20.2310 -20.2310 -20.2304 -20.2304 -20.2294 -20.2294
   -20.2293 -20.2293 -20.2285 -20.2285 -20.2275 -20.2275 -20.2272 -20.2272
   -20.2187 -20.2187 -20.2185 -20.2185 -20.2172 -20.2172 -20.2167 -20.2167
   -20.1941 -20.1941 -20.1936 -20.1936 -20.1927 -20.1927 -20.1922 -20.1922
   -20.1912 -20.1912 -20.1902 -20.1902 -20.1896 -20.1896 -20.1890 -20.1890
    -9.3276  -9.3276  -9.1104  -9.1104  -9.0414  -9.0414  -8.6876  -8.6876
    -8.6605  -8.6605  -8.5340  -8.5340  -8.4751  -8.4750  -8.4378  -8.4378
    -8.1958  -8.1958  -8.1640  -8.1640  -8.1326  -8.1326  -8.0674  -8.0674
     2.1789   2.1789   2.2795   2.2795   2.3349   2.3349   2.4683   2.4683
     3.0469   3.0469   3.1017   3.1017   3.1701   3.1701   3.2568   3.2568
     3.3308   3.3308   3.6162   3.6162   3.7045   3.7045   3.8070   3.8070
     3.9246   3.9246   4.0469   4.0469   4.1179   4.1179   4.2137   4.2137
     4.3103   4.3103   4.4715   4.4715   4.5787   4.5787   4.8124   4.8124
     4.9055   4.9055   4.9941   4.9941   5.0362   5.0362   5.2939   5.2939
     6.8107   6.8107   6.8851   6.8851   6.9448   6.9448   7.0030   7.0030
     7.1426   7.1426   7.2359   7.2359   7.3314   7.3314   7.4760   7.4760
     7.5141   7.5141   7.5856   7.5856   7.6092   7.6092   7.7489   7.7489
    11.2063  11.2063  11.5254  11.5254  11.6229  11.6229  11.8002  11.8002
    12.0020  12.0020  12.2975  12.2975  12.3687  12.3687  12.4494  12.4494
    12.6907  12.6907  12.7901  12.7901  12.8270  12.8270  13.2421  13.2421
    15.9493  15.9493  16.4179  16.4179  16.5369  16.5369  16.7106  16.7106
    17.0847  17.0847  17.3275  17.3275  17.5530

          k =-0.5000 0.3201-0.4996 ( 62476 PWs)   bands (ev):

   -66.0934 -66.0934 -66.0934 -66.0934 -66.0920 -66.0920 -66.0920 -66.0920
   -30.5045 -30.5045 -30.5044 -30.5044 -30.4748 -30.4748 -30.4746 -30.4746
   -30.4076 -30.4076 -30.4075 -30.4075 -30.4039 -30.4039 -30.4036 -30.4036
   -30.3713 -30.3713 -30.3710 -30.3710 -30.3676 -30.3676 -30.3673 -30.3673
   -20.2435 -20.2435 -20.2435 -20.2435 -20.2424 -20.2424 -20.2423 -20.2423
   -20.2390 -20.2390 -20.2390 -20.2390 -20.2361 -20.2361 -20.2361 -20.2361
   -20.2314 -20.2314 -20.2313 -20.2313 -20.2300 -20.2300 -20.2298 -20.2298
   -20.2289 -20.2289 -20.2289 -20.2289 -20.2274 -20.2274 -20.2272 -20.2272
   -20.2186 -20.2186 -20.2186 -20.2186 -20.2170 -20.2170 -20.2169 -20.2169
   -20.1934 -20.1933 -20.1932 -20.1932 -20.1924 -20.1924 -20.1924 -20.1924
   -20.1914 -20.1914 -20.1913 -20.1912 -20.1893 -20.1893 -20.1893 -20.1893
    -9.1504  -9.1504  -9.1442  -9.1442  -8.8455  -8.8455  -8.8276  -8.8276
    -8.5547  -8.5547  -8.5226  -8.5226  -8.4149  -8.4149  -8.4023  -8.4023
    -8.3962  -8.3962  -8.3659  -8.3659  -8.1479  -8.1479  -8.1451  -8.1451
     2.3220   2.3221   2.3241   2.3241   2.9814   2.9814   3.0053   3.0053
     3.0865   3.0865   3.0878   3.0878   3.2199   3.2199   3.2647   3.2647
     3.3257   3.3257   3.3323   3.3323   3.8384   3.8384   3.8777   3.8777
     3.9316   3.9316   3.9685   3.9685   4.0555   4.0555   4.0770   4.0770
     4.2665   4.2665   4.3221   4.3221   4.3605   4.3605   4.3617   4.3618
     4.6793   4.6793   4.6807   4.6808   5.0256   5.0256   5.0311   5.0311
     6.8697   6.8697   6.9052   6.9052   6.9702   6.9702   7.0013   7.0014
     7.3659   7.3659   7.3797   7.3797   7.4137   7.4137   7.4574   7.4574
     7.5376   7.5376   7.5395   7.5395   7.6461   7.6461   7.6711   7.6711
    11.7001  11.7001  11.7495  11.7495  11.7795  11.7795  11.8271  11.8271
    12.0539  12.0539  12.0669  12.0669  12.2516  12.2516  12.2596  12.2596
    12.6347  12.6347  12.6649  12.6649  12.8371  12.8371  12.8610  12.8610
    16.3115  16.3115  16.3132  16.3132  16.8830  16.8830  16.9281  16.9281
    17.3934  17.3934  17.4765  17.4765  17.8227

          k =-0.5000-0.4801 0.0000 ( 62508 PWs)   bands (ev):

   -66.0939 -66.0939 -66.0930 -66.0930 -66.0924 -66.0924 -66.0915 -66.0915
   -30.4974 -30.4974 -30.4914 -30.4914 -30.4879 -30.4879 -30.4842 -30.4842
   -30.4465 -30.4465 -30.4236 -30.4236 -30.4023 -30.4023 -30.4016 -30.4016
   -30.3721 -30.3721 -30.3665 -30.3665 -30.3580 -30.3580 -30.3257 -30.3257
   -20.2436 -20.2436 -20.2434 -20.2434 -20.2426 -20.2426 -20.2421 -20.2421
   -20.2386 -20.2386 -20.2383 -20.2383 -20.2369 -20.2369 -20.2364 -20.2364
   -20.2320 -20.2320 -20.2309 -20.2309 -20.2307 -20.2307 -20.2298 -20.2297
   -20.2289 -20.2289 -20.2283 -20.2283 -20.2276 -20.2276 -20.2271 -20.2271
   -20.2189 -20.2189 -20.2184 -20.2184 -20.2174 -20.2174 -20.2165 -20.2165
   -20.1951 -20.1951 -20.1949 -20.1948 -20.1930 -20.1930 -20.1921 -20.1921
   -20.1905 -20.1905 -20.1892 -20.1892 -20.1889 -20.1889 -20.1886 -20.1886
    -9.5075  -9.5075  -9.4425  -9.4425  -8.7557  -8.7557  -8.7082  -8.7081
    -8.6400  -8.6400  -8.6109  -8.6109  -8.4407  -8.4407  -8.3994  -8.3994
    -8.3811  -8.3811  -8.3321  -8.3321  -7.7488  -7.7488  -7.6720  -7.6720
     1.3048   1.3048   1.3741   1.3741   2.9135   2.9135   3.0286   3.0286
     3.0937   3.0937   3.1037   3.1037   3.1802   3.1802   3.1952   3.1952
     3.3079   3.3079   3.3476   3.3476   3.4046   3.4046   3.4570   3.4571
     3.5438   3.5438   3.7426   3.7426   4.2282   4.2282   4.2969   4.2969
     4.3127   4.3127   4.4055   4.4055   5.1430   5.1430   5.1799   5.1799
     5.4494   5.4494   5.5204   5.5204   6.2256   6.2256   6.2317   6.2317
     6.4686   6.4686   6.5320   6.5320   6.5681   6.5681   6.6309   6.6309
     7.2353   7.2354   7.2524   7.2524   7.2949   7.2949   7.4102   7.4102
     7.4438   7.4438   7.5058   7.5058   7.5728   7.5728   7.6102   7.6103
    11.1364  11.1364  11.2193  11.2193  11.3107  11.3107  11.3468  11.3468
    12.1893  12.1893  12.2138  12.2138  12.3178  12.3178  12.3329  12.3329
    12.8738  12.8738  12.9597  12.9597  13.4824  13.4824  13.5093  13.5093
    15.4132  15.4132  15.5400  15.5400  16.7336  16.7336  16.8159  16.8159
    17.3520  17.3521  17.4096  17.4096  17.5115

          k =-0.5000-0.4801 0.1665 ( 62472 PWs)   bands (ev):

   -66.0938 -66.0938 -66.0930 -66.0930 -66.0924 -66.0924 -66.0916 -66.0916
   -30.4958 -30.4958 -30.4912 -30.4912 -30.4882 -30.4881 -30.4847 -30.4847
   -30.4416 -30.4416 -30.4186 -30.4186 -30.4024 -30.4024 -30.4002 -30.4002
   -30.3733 -30.3733 -30.3673 -30.3673 -30.3622 -30.3622 -30.3319 -30.3319
   -20.2436 -20.2436 -20.2434 -20.2434 -20.2425 -20.2425 -20.2421 -20.2421
   -20.2386 -20.2386 -20.2383 -20.2383 -20.2369 -20.2369 -20.2364 -20.2364
   -20.2319 -20.2319 -20.2308 -20.2308 -20.2307 -20.2307 -20.2297 -20.2297
   -20.2290 -20.2290 -20.2284 -20.2284 -20.2275 -20.2275 -20.2272 -20.2272
   -20.2188 -20.2188 -20.2184 -20.2184 -20.2174 -20.2174 -20.2166 -20.2166
   -20.1948 -20.1948 -20.1945 -20.1945 -20.1928 -20.1928 -20.1922 -20.1922
   -20.1906 -20.1906 -20.1894 -20.1894 -20.1893 -20.1893 -20.1887 -20.1887
    -9.4285  -9.4285  -9.3680  -9.3680  -8.7723  -8.7723  -8.7257  -8.7257
    -8.6227  -8.6227  -8.5961  -8.5961  -8.4378  -8.4378  -8.3981  -8.3981
    -8.3825  -8.3825  -8.3344  -8.3344  -7.8691  -7.8691  -7.7928  -7.7928
     1.5629   1.5629   1.6297   1.6297   2.9255   2.9255   3.0333   3.0333
     3.0894   3.0894   3.1028   3.1028   3.1842   3.1842   3.2257   3.2257
     3.3252   3.3252   3.4243   3.4243   3.4296   3.4296   3.5315   3.5315
     3.5781   3.5781   3.7691   3.7691   4.2328   4.2328   4.2852   4.2852
     4.3145   4.3145   4.3968   4.3968   4.8386   4.8386   4.9795   4.9795
     5.1289   5.1289   5.2659   5.2659   5.8303   5.8303   5.8539   5.8539
     6.6635   6.6635   6.7687   6.7687   6.8003   6.8003   6.8671   6.8671
     7.2305   7.2305   7.2508   7.2508   7.3247   7.3247   7.4025   7.4025
     7.4392   7.4392   7.5078   7.5078   7.5776   7.5776   7.6220   7.6220
    11.2216  11.2216  11.3050  11.3050  11.3987  11.3987  11.4780  11.4780
    12.1923  12.1923  12.2199  12.2199  12.3156  12.3156  12.3389  12.3389
    12.7940  12.7940  12.8872  12.8873  13.3171  13.3171  13.3735  13.3735
    15.6941  15.6941  15.8067  15.8067  16.7946  16.7946  16.8718  16.8718
    17.3547  17.3547  17.4158  17.4159  17.5106

          k =-0.5000-0.4801 0.3331 ( 62456 PWs)   bands (ev):

   -66.0936 -66.0936 -66.0932 -66.0932 -66.0922 -66.0922 -66.0918 -66.0917
   -30.4923 -30.4923 -30.4907 -30.4907 -30.4889 -30.4889 -30.4863 -30.4863
   -30.4273 -30.4273 -30.4097 -30.4097 -30.4035 -30.4035 -30.3913 -30.3913
   -30.3849 -30.3849 -30.3683 -30.3683 -30.3661 -30.3661 -30.3487 -30.3487
   -20.2436 -20.2435 -20.2434 -20.2434 -20.2424 -20.2424 -20.2422 -20.2422
   -20.2385 -20.2385 -20.2384 -20.2384 -20.2368 -20.2368 -20.2366 -20.2366
   -20.2317 -20.2317 -20.2310 -20.2310 -20.2304 -20.2304 -20.2294 -20.2294
   -20.2293 -20.2293 -20.2287 -20.2286 -20.2275 -20.2275 -20.2272 -20.2272
   -20.2187 -20.2187 -20.2185 -20.2185 -20.2172 -20.2172 -20.2167 -20.2167
   -20.1941 -20.1941 -20.1936 -20.1936 -20.1927 -20.1927 -20.1922 -20.1922
   -20.1912 -20.1912 -20.1902 -20.1902 -20.1896 -20.1896 -20.1890 -20.1890
    -9.2149  -9.2149  -9.1722  -9.1722  -8.8280  -8.8280  -8.7896  -8.7896
    -8.5630  -8.5630  -8.5436  -8.5436  -8.4304  -8.4304  -8.3991  -8.3991
    -8.3824  -8.3824  -8.3399  -8.3399  -8.1532  -8.1532  -8.0838  -8.0838
     2.2446   2.2446   2.3029   2.3029   2.9502   2.9502   3.0163   3.0163
     3.0881   3.0881   3.1226   3.1226   3.2110   3.2110   3.2380   3.2380
     3.3949   3.3949   3.4376   3.4376   3.5866   3.5866   3.6762   3.6762
     3.7799   3.7799   3.8836   3.8836   4.1901   4.1901   4.2318   4.2318
     4.2970   4.2970   4.3460   4.3460   4.4376   4.4376   4.5226   4.5226
     4.6430   4.6430   4.7771   4.7771   5.0375   5.0375   5.0633   5.0633
     6.9353   6.9353   7.0469   7.0469   7.1257   7.1257   7.1455   7.1455
     7.2407   7.2407   7.2825   7.2825   7.3625   7.3625   7.3792   7.3792
     7.4522   7.4522   7.5290   7.5290   7.5811   7.5811   7.6284   7.6284
    11.4830  11.4830  11.5468  11.5468  11.7111  11.7111  11.8129  11.8129
    12.1726  12.1726  12.2393  12.2393  12.2781  12.2781  12.3484  12.3484
    12.4959  12.4959  12.6285  12.6285  12.9030  12.9030  12.9893  12.9893
    16.4580  16.4580  16.5510  16.5510  16.9730  16.9730  17.0299  17.0299
    17.3206  17.3206  17.4184  17.4185  17.5048

          k =-0.5000-0.4801-0.4996 ( 62392 PWs)   bands (ev):

   -66.0934 -66.0934 -66.0934 -66.0934 -66.0920 -66.0920 -66.0920 -66.0920
   -30.4900 -30.4900 -30.4898 -30.4898 -30.4888 -30.4888 -30.4887 -30.4887
   -30.4065 -30.4065 -30.4062 -30.4062 -30.4054 -30.4054 -30.4054 -30.4054
   -30.3713 -30.3713 -30.3710 -30.3709 -30.3677 -30.3677 -30.3673 -30.3673
   -20.2435 -20.2435 -20.2435 -20.2435 -20.2423 -20.2423 -20.2423 -20.2423
   -20.2385 -20.2385 -20.2385 -20.2384 -20.2367 -20.2367 -20.2367 -20.2367
   -20.2314 -20.2314 -20.2313 -20.2313 -20.2299 -20.2299 -20.2298 -20.2298
   -20.2291 -20.2291 -20.2290 -20.2290 -20.2275 -20.2275 -20.2273 -20.2273
   -20.2186 -20.2186 -20.2186 -20.2186 -20.2170 -20.2170 -20.2169 -20.2169
   -20.1934 -20.1933 -20.1932 -20.1932 -20.1924 -20.1924 -20.1924 -20.1924
   -20.1914 -20.1914 -20.1913 -20.1912 -20.1893 -20.1893 -20.1893 -20.1893
    -8.9725  -8.9725  -8.9511  -8.9511  -8.9488  -8.9488  -8.9469  -8.9469
    -8.4647  -8.4646  -8.4180  -8.4180  -8.4160  -8.4160  -8.4106  -8.4106
    -8.3894  -8.3894  -8.3784  -8.3784  -8.3508  -8.3508  -8.3360  -8.3360
     2.9372   2.9372   2.9450   2.9450   2.9663   2.9663   2.9755   2.9755
     3.1620   3.1620   3.1706   3.1706   3.1985   3.1985   3.2163   3.2163
     3.3027   3.3027   3.4160   3.4160   3.4597   3.4597   3.5035   3.5035
     4.1076   4.1076   4.1273   4.1273   4.1370   4.1370   4.1441   4.1441
     4.2973   4.2973   4.3150   4.3150   4.3334   4.3334   4.3573   4.3573
     4.4250   4.4250   4.4563   4.4563   4.4581   4.4581   4.4788   4.4788
     7.0565   7.0565   7.1330   7.1330   7.1681   7.1681   7.2731   7.2731
     7.3143   7.3143   7.3209   7.3209   7.3368   7.3368   7.3426   7.3426
     7.5394   7.5394   7.5521   7.5521   7.5688   7.5688   7.6049   7.6049
    11.8766  11.8766  11.8816  11.8816  11.8879  11.8879  11.8945  11.8945
    12.1406  12.1406  12.1966  12.1966  12.2378  12.2378  12.3507  12.3507
    12.4344  12.4344  12.4948  12.4948  12.5191  12.5191  12.5379  12.5379
    17.0758  17.0758  17.1004  17.1004  17.1286  17.1286  17.1787  17.1788
    17.4049  17.4049  17.4214  17.4214  17.4819

     the Fermi energy is     9.9090 ev

!    total energy              =   -6260.68557466 Ry
     Harris-Foulkes estimate   =   -6260.68557467 Ry
     estimated scf accuracy    <          4.4E-09 Ry

     The total energy is the sum of the following terms:

     one-electron contribution =   -4733.85887772 Ry
     hartree contribution      =    2604.66153946 Ry
     xc contribution           =    -966.32786747 Ry
     ewald contribution        =   -3165.16035485 Ry
     smearing contrib. (-TS)   =      -0.00001409 Ry

     convergence has been achieved in  14 iterations

     Writing output data file Landau_9.save
 
     init_run     :     41.40s CPU     43.42s WALL (       1 calls)
     electrons    :   1877.02s CPU   1917.48s WALL (       1 calls)

     Called by init_run:
     wfcinit      :     38.56s CPU     40.44s WALL (       1 calls)
     potinit      :      1.20s CPU      1.24s WALL (       1 calls)

     Called by electrons:
     c_bands      :   1693.93s CPU   1732.44s WALL (      14 calls)
     sum_band     :    174.21s CPU    175.27s WALL (      14 calls)
     v_of_rho     :      1.40s CPU      1.44s WALL (      15 calls)
     mix_rho      :      2.20s CPU      2.89s WALL (      14 calls)

     Called by c_bands:
     init_us_2    :      7.80s CPU      8.34s WALL (      58 calls)
     cegterg      :   1354.48s CPU   1389.44s WALL (      28 calls)

     Called by sum_band:

     Called by *egterg:
     h_psi        :    995.19s CPU   1003.13s WALL (     126 calls)
     g_psi        :      1.49s CPU      1.49s WALL (      96 calls)
     cdiaghg      :     18.79s CPU     18.85s WALL (     124 calls)

     Called by h_psi:
     h_psi:pot    :    991.06s CPU    998.71s WALL (     126 calls)
     h_psi:calbec :    161.26s CPU    165.33s WALL (     126 calls)
     vloc_psi     :    664.00s CPU    665.01s WALL (     126 calls)
     add_vuspsi   :    165.80s CPU    168.37s WALL (     126 calls)

     General routines
     calbec       :    161.26s CPU    165.33s WALL (     126 calls)
     fft          :      1.18s CPU      1.20s WALL (      60 calls)
     fftw         :    716.20s CPU    716.88s WALL (   35876 calls)
 
     Parallel routines
 
     PWSCF        : 32m 3.98s CPU    32m49.55s WALL

 
   This run was terminated on:  20:21:19  25Mar2020            

=------------------------------------------------------------------------------=
   JOB DONE.
=------------------------------------------------------------------------------=
