
     Program PWSCF v.6.4.1 starts on 17Dec2019 at 14:31:35 

     This program is part of the open-source Quantum ESPRESSO suite
     for quantum simulation of materials; please cite
         "P. Giannozzi et al., J. Phys.:Condens. Matter 21 395502 (2009);
         "P. Giannozzi et al., J. Phys.:Condens. Matter 29 465901 (2017);
          URL http://www.quantum-espresso.org", 
     in publications or presentations arising from this work. More details at
     http://www.quantum-espresso.org/quote

     Parallel version (MPI), running on    40 processors

     MPI processes distributed on     2 nodes
     K-points division:     npool     =      40
     Reading input from scf.in

     Current dimensions of program PWSCF are:
     Max number of different atomic species (ntypx) = 10
     Max number of k-points (npk) =  40000
     Max angular momentum in pseudopotentials (lmaxx) =  3

     Subspace diagonalization in iterative solution of the eigenvalue problem:
     a serial algorithm will be used

     Message from routine setup:
     using ibrav=0 with symmetry is DISCOURAGED, use correct ibrav instead
 
     G-vector sticks info
     --------------------
     sticks:   dense  smooth     PW     G-vecs:    dense   smooth      PW
     Sum        3761    3761   1005               251189   251189   35401
 


     bravais-lattice index     =            0
     lattice parameter (alat)  =       9.9102  a.u.
     unit-cell volume          =    1414.6031 (a.u.)^3
     number of atoms/cell      =           16
     number of atomic types    =            2
     number of electrons       =       184.20
     number of Kohn-Sham states=          111
     kinetic-energy cutoff     =     120.0000  Ry
     charge density cutoff     =     480.0000  Ry
     convergence threshold     =      1.0E-08
     mixing beta               =       0.7000
     number of iterations used =            8  plain     mixing
     Exchange-correlation      = SLA PW NOGX NOGC ( 1  4  0  0 0 0)

     celldm(1)=   9.910230  celldm(2)=   0.000000  celldm(3)=   0.000000
     celldm(4)=   0.000000  celldm(5)=   0.000000  celldm(6)=   0.000000

     crystal axes: (cart. coord. in units of alat)
               a(1) = (   1.000000   0.000000   0.000000 )  
               a(2) = (   0.000000   1.000000   0.000000 )  
               a(3) = (   0.000000   0.000000   1.453394 )  

     reciprocal axes: (cart. coord. in units 2 pi/alat)
               b(1) = (  1.000000  0.000000  0.000000 )  
               b(2) = (  0.000000  1.000000  0.000000 )  
               b(3) = (  0.000000  0.000000  0.688045 )  


     PseudoPot. # 1 for W  read from file:
     /cluster/scratch/mnoe/QE/pps/W_ONCV_LDA-4.0.upf
     MD5 check sum: ba0307d5d4cd419d6f1d13dc49d7c13a
     Pseudo is Norm-conserving + core correction, Zval = 28.0
     Generated using ONCVPSP code by D. R. Hamann
     Using radial grid of 1380 points,  8 beta functions with: 
                l(1) =   0
                l(2) =   0
                l(3) =   1
                l(4) =   1
                l(5) =   2
                l(6) =   2
                l(7) =   3
                l(8) =   3

     PseudoPot. # 2 for O  read from file:
     /cluster/scratch/mnoe/QE/pps/O_ONCV_LDA-3.0.upf
     MD5 check sum: b55cdb4f45ae2203d24ad12cf8d61a31
     Pseudo is Norm-conserving + core correction, Zval =  6.0
     Generated using ONCVPSP code by D. R. Hamann
     Using radial grid of  926 points,  5 beta functions with: 
                l(1) =   0
                l(2) =   0
                l(3) =   1
                l(4) =   1
                l(5) =   2

     atomic species   valence    mass     pseudopotential
        W             28.00   183.84000     W ( 1.00)
        O              6.00    15.99940     O ( 1.00)

     16 Sym. Ops., with inversion, found (14 have fractional translation)



   Cartesian axes

     site n.     atom                  positions (alat units)
         1           W   tau(   1) = (   0.2500000   0.2500000   0.3002380  )
         2           W   tau(   2) = (   0.7500000   0.7500000   1.1531563  )
         3           W   tau(   3) = (   0.7500000   0.7500000   0.4264592  )
         4           W   tau(   4) = (   0.2500000   0.2500000   1.0269351  )
         5           O   tau(   5) = (   0.2500000   0.2500000   0.6828427  )
         6           O   tau(   6) = (   0.7500000   0.7500000   0.7705517  )
         7           O   tau(   7) = (   0.7500000   0.7500000   0.0438545  )
         8           O   tau(   8) = (   0.2500000   0.2500000   1.4095398  )
         9           O   tau(   9) = (   0.5090940   0.4909059   0.3633486  )
        10           O   tau(  10) = (   0.4909060   0.5090941   1.0900457  )
        11           O   tau(  11) = (  -0.0090940   1.0090941   0.3633486  )
        12           O   tau(  12) = (   1.0090940  -0.0090940   1.0900457  )
        13           O   tau(  13) = (   1.0090941   0.5090940   0.3633486  )
        14           O   tau(  14) = (  -0.0090940   0.4909060   1.0900457  )
        15           O   tau(  15) = (   0.4909059  -0.0090940   0.3633486  )
        16           O   tau(  16) = (   0.5090941   1.0090940   1.0900457  )

     number of k points=    60  gaussian smearing, width (Ry)=  0.0007
                       cart. coord. in units 2pi/alat
        k(    1) = (   0.0000000   0.0000000   0.0000000), wk =   0.0041152
        k(    2) = (   0.0000000   0.0000000   0.1146741), wk =   0.0082305
        k(    3) = (   0.0000000   0.0000000   0.2293482), wk =   0.0082305
        k(    4) = (   0.0000000   0.0000000  -0.3440223), wk =   0.0041152
        k(    5) = (   0.0000000   0.1111111   0.0000000), wk =   0.0164609
        k(    6) = (   0.0000000   0.1111111   0.1146741), wk =   0.0329218
        k(    7) = (   0.0000000   0.1111111   0.2293482), wk =   0.0329218
        k(    8) = (   0.0000000   0.1111111  -0.3440223), wk =   0.0164609
        k(    9) = (   0.0000000   0.2222222   0.0000000), wk =   0.0164609
        k(   10) = (   0.0000000   0.2222222   0.1146741), wk =   0.0329218
        k(   11) = (   0.0000000   0.2222222   0.2293482), wk =   0.0329218
        k(   12) = (   0.0000000   0.2222222  -0.3440223), wk =   0.0164609
        k(   13) = (   0.0000000   0.3333333   0.0000000), wk =   0.0164609
        k(   14) = (   0.0000000   0.3333333   0.1146741), wk =   0.0329218
        k(   15) = (   0.0000000   0.3333333   0.2293482), wk =   0.0329218
        k(   16) = (   0.0000000   0.3333333  -0.3440223), wk =   0.0164609
        k(   17) = (   0.0000000   0.4444444   0.0000000), wk =   0.0164609
        k(   18) = (   0.0000000   0.4444444   0.1146741), wk =   0.0329218
        k(   19) = (   0.0000000   0.4444444   0.2293482), wk =   0.0329218
        k(   20) = (   0.0000000   0.4444444  -0.3440223), wk =   0.0164609
        k(   21) = (   0.1111111   0.1111111   0.0000000), wk =   0.0164609
        k(   22) = (   0.1111111   0.1111111   0.1146741), wk =   0.0329218
        k(   23) = (   0.1111111   0.1111111   0.2293482), wk =   0.0329218
        k(   24) = (   0.1111111   0.1111111  -0.3440223), wk =   0.0164609
        k(   25) = (   0.1111111   0.2222222   0.0000000), wk =   0.0329218
        k(   26) = (   0.1111111   0.2222222   0.1146741), wk =   0.0658436
        k(   27) = (   0.1111111   0.2222222   0.2293482), wk =   0.0658436
        k(   28) = (   0.1111111   0.2222222  -0.3440223), wk =   0.0329218
        k(   29) = (   0.1111111   0.3333333   0.0000000), wk =   0.0329218
        k(   30) = (   0.1111111   0.3333333   0.1146741), wk =   0.0658436
        k(   31) = (   0.1111111   0.3333333   0.2293482), wk =   0.0658436
        k(   32) = (   0.1111111   0.3333333  -0.3440223), wk =   0.0329218
        k(   33) = (   0.1111111   0.4444444   0.0000000), wk =   0.0329218
        k(   34) = (   0.1111111   0.4444444   0.1146741), wk =   0.0658436
        k(   35) = (   0.1111111   0.4444444   0.2293482), wk =   0.0658436
        k(   36) = (   0.1111111   0.4444444  -0.3440223), wk =   0.0329218
        k(   37) = (   0.2222222   0.2222222   0.0000000), wk =   0.0164609
        k(   38) = (   0.2222222   0.2222222   0.1146741), wk =   0.0329218
        k(   39) = (   0.2222222   0.2222222   0.2293482), wk =   0.0329218
        k(   40) = (   0.2222222   0.2222222  -0.3440223), wk =   0.0164609
        k(   41) = (   0.2222222   0.3333333   0.0000000), wk =   0.0329218
        k(   42) = (   0.2222222   0.3333333   0.1146741), wk =   0.0658436
        k(   43) = (   0.2222222   0.3333333   0.2293482), wk =   0.0658436
        k(   44) = (   0.2222222   0.3333333  -0.3440223), wk =   0.0329218
        k(   45) = (   0.2222222   0.4444444   0.0000000), wk =   0.0329218
        k(   46) = (   0.2222222   0.4444444   0.1146741), wk =   0.0658436
        k(   47) = (   0.2222222   0.4444444   0.2293482), wk =   0.0658436
        k(   48) = (   0.2222222   0.4444444  -0.3440223), wk =   0.0329218
        k(   49) = (   0.3333333   0.3333333   0.0000000), wk =   0.0164609
        k(   50) = (   0.3333333   0.3333333   0.1146741), wk =   0.0329218
        k(   51) = (   0.3333333   0.3333333   0.2293482), wk =   0.0329218
        k(   52) = (   0.3333333   0.3333333  -0.3440223), wk =   0.0164609
        k(   53) = (   0.3333333   0.4444444   0.0000000), wk =   0.0329218
        k(   54) = (   0.3333333   0.4444444   0.1146741), wk =   0.0658436
        k(   55) = (   0.3333333   0.4444444   0.2293482), wk =   0.0658436
        k(   56) = (   0.3333333   0.4444444  -0.3440223), wk =   0.0329218
        k(   57) = (   0.4444444   0.4444444   0.0000000), wk =   0.0164609
        k(   58) = (   0.4444444   0.4444444   0.1146741), wk =   0.0329218
        k(   59) = (   0.4444444   0.4444444   0.2293482), wk =   0.0329218
        k(   60) = (   0.4444444   0.4444444  -0.3440223), wk =   0.0164609

     Dense  grid:   251189 G-vectors     FFT dimensions: (  72,  72, 108)

     Estimated max dynamical RAM per process >     894.49 MB

     Estimated total dynamical RAM >      34.94 GB

     Initial potential from superposition of free atoms

     starting charge  183.99828, renormalised to  184.20000
     Starting wfcs are  116 randomized atomic wfcs

     total cpu time spent up to now is       11.1 secs

     Self-consistent Calculation

     iteration #  1     ecut=   120.00 Ry     beta= 0.70
     Davidson diagonalization with overlap
     ethr =  1.00E-02,  avg # of iterations =  4.8

     total cpu time spent up to now is       46.5 secs

     total energy              =   -3126.62436160 Ry
     Harris-Foulkes estimate   =   -3132.18656997 Ry
     estimated scf accuracy    <       7.00954097 Ry

     iteration #  2     ecut=   120.00 Ry     beta= 0.70
     Davidson diagonalization with overlap
     ethr =  3.81E-03,  avg # of iterations =  3.4

     total cpu time spent up to now is       80.4 secs

     total energy              =   -3124.99706408 Ry
     Harris-Foulkes estimate   =   -3135.50831823 Ry
     estimated scf accuracy    <      28.30520586 Ry

     iteration #  3     ecut=   120.00 Ry     beta= 0.70
     Davidson diagonalization with overlap
     ethr =  3.81E-03,  avg # of iterations =  3.2

     total cpu time spent up to now is      111.9 secs

     total energy              =   -3130.35122087 Ry
     Harris-Foulkes estimate   =   -3130.49066720 Ry
     estimated scf accuracy    <       0.47944699 Ry

     iteration #  4     ecut=   120.00 Ry     beta= 0.70
     Davidson diagonalization with overlap
     ethr =  2.60E-04,  avg # of iterations =  2.4

     total cpu time spent up to now is      137.4 secs

     total energy              =   -3130.33880890 Ry
     Harris-Foulkes estimate   =   -3130.38221970 Ry
     estimated scf accuracy    <       0.12172796 Ry

     iteration #  5     ecut=   120.00 Ry     beta= 0.70
     Davidson diagonalization with overlap
     ethr =  6.61E-05,  avg # of iterations =  4.2

     total cpu time spent up to now is      165.7 secs

     total energy              =   -3130.34751460 Ry
     Harris-Foulkes estimate   =   -3130.35967255 Ry
     estimated scf accuracy    <       0.02834029 Ry

     iteration #  6     ecut=   120.00 Ry     beta= 0.70
     Davidson diagonalization with overlap
     ethr =  1.54E-05,  avg # of iterations =  4.3

     total cpu time spent up to now is      195.3 secs

     total energy              =   -3130.35313134 Ry
     Harris-Foulkes estimate   =   -3130.35474380 Ry
     estimated scf accuracy    <       0.00431819 Ry

     iteration #  7     ecut=   120.00 Ry     beta= 0.70
     Davidson diagonalization with overlap
     ethr =  2.34E-06,  avg # of iterations =  3.9

     total cpu time spent up to now is      222.1 secs

     total energy              =   -3130.35368440 Ry
     Harris-Foulkes estimate   =   -3130.35373863 Ry
     estimated scf accuracy    <       0.00009024 Ry

     iteration #  8     ecut=   120.00 Ry     beta= 0.70
     Davidson diagonalization with overlap
     ethr =  4.90E-08,  avg # of iterations =  3.5

     total cpu time spent up to now is      256.4 secs

     total energy              =   -3130.35372800 Ry
     Harris-Foulkes estimate   =   -3130.35373604 Ry
     estimated scf accuracy    <       0.00004059 Ry

     iteration #  9     ecut=   120.00 Ry     beta= 0.70
     Davidson diagonalization with overlap
     ethr =  2.20E-08,  avg # of iterations =  1.1

     total cpu time spent up to now is      280.5 secs

     total energy              =   -3130.35372306 Ry
     Harris-Foulkes estimate   =   -3130.35372980 Ry
     estimated scf accuracy    <       0.00001759 Ry

     iteration # 10     ecut=   120.00 Ry     beta= 0.70
     Davidson diagonalization with overlap
     ethr =  9.55E-09,  avg # of iterations =  2.1

     total cpu time spent up to now is      306.0 secs

     total energy              =   -3130.35372596 Ry
     Harris-Foulkes estimate   =   -3130.35372603 Ry
     estimated scf accuracy    <       0.00000015 Ry

     iteration # 11     ecut=   120.00 Ry     beta= 0.70
     Davidson diagonalization with overlap
     ethr =  8.19E-11,  avg # of iterations =  2.9

     total cpu time spent up to now is      339.1 secs

     total energy              =   -3130.35372601 Ry
     Harris-Foulkes estimate   =   -3130.35372603 Ry
     estimated scf accuracy    <       0.00000003 Ry

     iteration # 12     ecut=   120.00 Ry     beta= 0.70
     Davidson diagonalization with overlap
     ethr =  1.49E-11,  avg # of iterations =  2.1

     total cpu time spent up to now is      369.4 secs

     End of self-consistent calculation

          k = 0.0000 0.0000 0.0000 ( 31463 PWs)   bands (ev):

   -66.2521 -66.2515 -66.2508 -66.2503 -30.6119 -30.6083 -30.5835 -30.5835
   -30.5792 -30.5792 -30.5374 -30.5352 -30.5049 -30.5049 -30.5015 -30.5015
   -20.4127 -20.4126 -20.4126 -20.4125 -20.3962 -20.3962 -20.3962 -20.3962
   -20.3948 -20.3947 -20.3945 -20.3943 -20.3943 -20.3940 -20.3936 -20.3936
   -20.3936 -20.3936 -20.3872 -20.3869 -20.3855 -20.3855 -20.3841 -20.3841
   -20.3832 -20.3832 -20.3817 -20.3817 -10.1092  -9.6823  -9.3196  -9.0274
    -9.0021  -8.9133  -7.8524  -7.8037  -7.8037  -7.7803  -7.7803  -7.7137
     1.0785   1.0900   1.0927   1.2723   1.4414   1.5060   2.3864   2.3864
     2.4678   2.5852   3.9443   3.9443   4.7724   4.7724   4.9663   5.5544
     5.5544   5.7894   5.7894   5.9090   5.9090   5.9394   6.0007   6.5547
     6.5547   6.8293   7.1206   7.1536   7.1536   7.1787   7.1787   7.2333
     8.3475   8.3475   8.3563   8.3659   8.9100   8.9119   9.4828   9.4828
    12.4383  12.4383  13.2811  13.2811  13.4683  13.6616  13.6764  14.1530
    14.1541  14.1726  14.1726  14.6776  15.5809  16.3418  17.1214

          k = 0.0000 0.0000 0.1147 ( 31418 PWs)   bands (ev):

   -66.2520 -66.2516 -66.2507 -66.2503 -30.6069 -30.6035 -30.5832 -30.5832
   -30.5794 -30.5794 -30.5424 -30.5401 -30.5047 -30.5047 -30.5017 -30.5017
   -20.4127 -20.4126 -20.4126 -20.4125 -20.3962 -20.3962 -20.3962 -20.3962
   -20.3948 -20.3947 -20.3945 -20.3943 -20.3938 -20.3936 -20.3936 -20.3936
   -20.3936 -20.3936 -20.3877 -20.3874 -20.3854 -20.3854 -20.3841 -20.3841
   -20.3831 -20.3831 -20.3818 -20.3818 -10.0668  -9.6991  -9.2352  -9.0257
    -9.0038  -8.8693  -7.9686  -7.8394  -7.8021  -7.8021  -7.7819  -7.7819
     1.0902   1.0926   1.2892   1.4404   1.4629   1.6458   2.4577   2.4577
     2.4755   2.5771   3.7734   3.7734   4.7209   4.8328   4.8328   5.5526
     5.5526   5.5996   5.5996   5.6043   5.9844   6.1559   6.1559   6.5473
     6.5473   6.8480   7.0286   7.1002   7.1532   7.1532   7.1706   7.1706
     8.2584   8.2584   8.3570   8.3654   8.9105   8.9121   9.7410   9.7410
    12.2637  12.2637  13.3120  13.3120  13.6626  13.6754  13.7351  14.0754
    14.0754  14.1534  14.1543  14.9208  16.0070  16.0404  17.1723

          k = 0.0000 0.0000 0.2293 ( 31458 PWs)   bands (ev):

   -66.2519 -66.2517 -66.2506 -66.2504 -30.5934 -30.5902 -30.5824 -30.5824
   -30.5802 -30.5802 -30.5562 -30.5536 -30.5041 -30.5041 -30.5024 -30.5024
   -20.4126 -20.4126 -20.4126 -20.4125 -20.3962 -20.3962 -20.3962 -20.3962
   -20.3947 -20.3947 -20.3945 -20.3944 -20.3936 -20.3936 -20.3936 -20.3936
   -20.3926 -20.3923 -20.3890 -20.3888 -20.3852 -20.3852 -20.3844 -20.3844
   -20.3829 -20.3829 -20.3821 -20.3821  -9.9612  -9.7516  -9.0211  -9.0085
    -8.9954  -8.7281  -8.2664  -8.1450  -7.7979  -7.7979  -7.7862  -7.7862
     1.0908   1.0921   1.4152   1.4374   2.0838   2.3725   2.4965   2.5552
     2.6658   2.6658   3.3935   3.3935   4.0150   4.6267   5.0089   5.0089
     5.4328   5.4328   5.6056   5.6056   5.9487   5.9487   6.1177   6.6516
     6.8997   6.9933   6.9933   7.0453   7.1528   7.1528   7.1671   7.1671
     7.9863   7.9863   8.3588   8.3637   8.9115   8.9124  10.3593  10.3593
    11.7808  11.7808  13.4139  13.4139  13.6654  13.6728  13.8445  13.8445
    14.1541  14.1547  14.2687  15.4651  15.6080  16.9939  17.0673

          k = 0.0000 0.0000-0.3440 ( 31370 PWs)   bands (ev):

   -66.2518 -66.2518 -66.2505 -66.2505 -30.5813 -30.5813 -30.5813 -30.5813
   -30.5749 -30.5749 -30.5719 -30.5719 -30.5032 -30.5032 -30.5032 -30.5032
   -20.4126 -20.4126 -20.4125 -20.4125 -20.3962 -20.3962 -20.3962 -20.3962
   -20.3947 -20.3947 -20.3944 -20.3944 -20.3936 -20.3936 -20.3936 -20.3936
   -20.3908 -20.3908 -20.3906 -20.3906 -20.3848 -20.3848 -20.3848 -20.3848
   -20.3825 -20.3825 -20.3825 -20.3825  -9.8426  -9.8426  -9.0148  -9.0148
    -8.6445  -8.6445  -8.4776  -8.4776  -7.7920  -7.7920  -7.7920  -7.7920
     1.0915   1.0915   1.4312   1.4312   2.5257   2.5257   2.9921   2.9921
     2.9921   2.9921   3.0393   3.0393   3.4501   3.4501   5.2475   5.2475
     5.2475   5.2475   5.7062   5.7062   5.7062   5.7062   6.3382   6.3382
     6.9717   6.9717   7.1523   7.1523   7.1523   7.1523   7.5484   7.5484
     7.5485   7.5485   8.3613   8.3613   8.9122   8.9122  11.0981  11.0981
    11.0981  11.0981  13.5977  13.5977  13.5977  13.5977  13.6692  13.6692
    14.1547  14.1547  14.8525  14.8525  16.4225  16.4225  17.5841

          k = 0.0000 0.1111 0.0000 ( 31407 PWs)   bands (ev):

   -66.2520 -66.2515 -66.2508 -66.2503 -30.6122 -30.6086 -30.5815 -30.5811
   -30.5768 -30.5764 -30.5370 -30.5358 -30.5073 -30.5069 -30.5039 -30.5038
   -20.4127 -20.4126 -20.4126 -20.4125 -20.3963 -20.3963 -20.3962 -20.3961
   -20.3950 -20.3949 -20.3944 -20.3943 -20.3942 -20.3939 -20.3937 -20.3935
   -20.3935 -20.3935 -20.3872 -20.3870 -20.3855 -20.3854 -20.3840 -20.3840
   -20.3832 -20.3832 -20.3818 -20.3818 -10.0729  -9.6363  -9.3290  -8.9971
    -8.9719  -8.9026  -7.8981  -7.8669  -7.8499  -7.8265  -7.8033  -7.7169
     1.0899   1.2008   1.2050   1.2640   1.5603   1.6150   2.4187   2.4224
     2.5443   2.6600   3.9260   3.9460   4.5908   4.6527   4.9607   5.4161
     5.4371   5.6866   5.7443   5.9176   5.9190   6.0206   6.1498   6.4921
     6.4966   6.8078   6.8304   6.9433   6.9642   7.1091   7.1447   7.1514
     8.2880   8.3078   8.3176   8.3304   9.2469   9.2598   9.6386   9.6860
    12.4643  12.4774  13.1481  13.1549  13.6129  13.6137  13.6165  14.0394
    14.0919  14.3677  14.4158  14.7660  15.5504  16.4949  17.1550

          k = 0.0000 0.1111 0.1147 ( 31426 PWs)   bands (ev):

   -66.2520 -66.2515 -66.2508 -66.2503 -30.6073 -30.6037 -30.5812 -30.5808
   -30.5771 -30.5767 -30.5420 -30.5406 -30.5071 -30.5067 -30.5041 -30.5040
   -20.4127 -20.4126 -20.4126 -20.4125 -20.3963 -20.3963 -20.3962 -20.3961
   -20.3950 -20.3949 -20.3943 -20.3942 -20.3941 -20.3937 -20.3935 -20.3935
   -20.3935 -20.3934 -20.3877 -20.3875 -20.3854 -20.3853 -20.3841 -20.3841
   -20.3832 -20.3832 -20.3819 -20.3819 -10.0292  -9.6532  -9.2447  -8.9954
    -8.9736  -8.8598  -7.9869  -7.8652  -7.8572  -7.8484  -7.8281  -7.8175
     1.2011   1.2048   1.3249   1.4843   1.5592   1.6986   2.4907   2.4923
     2.5526   2.6525   3.7653   3.7846   4.6542   4.7134   4.7143   5.4217
     5.4400   5.4869   5.5349   5.6209   6.1134   6.1343   6.1902   6.4879
     6.5056   6.8019   6.8098   6.9576   7.0042   7.0122   7.1147   7.1574
     8.2242   8.2399   8.2963   8.3101   9.2484   9.2574   9.8666   9.9079
    12.2910  12.3056  13.1787  13.1921  13.6086  13.6181  13.8804  13.9596
    13.9920  14.3683  14.4006  15.0012  15.9760  16.1767  17.0917

          k = 0.0000 0.1111 0.2293 ( 31429 PWs)   bands (ev):

   -66.2519 -66.2516 -66.2507 -66.2504 -30.5942 -30.5905 -30.5807 -30.5801
   -30.5779 -30.5770 -30.5555 -30.5540 -30.5064 -30.5062 -30.5047 -30.5046
   -20.4126 -20.4126 -20.4126 -20.4125 -20.3963 -20.3963 -20.3961 -20.3961
   -20.3949 -20.3949 -20.3943 -20.3942 -20.3938 -20.3937 -20.3935 -20.3935
   -20.3925 -20.3923 -20.3890 -20.3888 -20.3851 -20.3851 -20.3843 -20.3843
   -20.3829 -20.3829 -20.3822 -20.3822  -9.9205  -9.7061  -9.0052  -8.9908
    -8.9783  -8.7220  -8.2764  -8.1481  -7.8604  -7.8443  -7.8441  -7.8324
     1.2020   1.2041   1.5266   1.5556   2.0864   2.3522   2.5710   2.6280
     2.7010   2.7153   3.3977   3.4173   4.0116   4.6261   4.8426   4.8956
     5.3274   5.3530   5.4654   5.4842   5.8255   5.8369   6.3061   6.7005
     6.8089   6.8288   6.9727   6.9811   7.0038   7.0454   7.1168   7.1679
     7.9605   7.9752   8.2995   8.3072   9.2509   9.2550  10.4374  10.4691
    11.8136  11.8321  13.2788  13.2997  13.5833  13.6202  13.7584  13.7667
    14.3699  14.3817  14.4155  15.5994  15.6812  17.0326  17.0697

          k = 0.0000 0.1111-0.3440 ( 31404 PWs)   bands (ev):

   -66.2518 -66.2517 -66.2505 -66.2505 -30.5813 -30.5813 -30.5790 -30.5790
   -30.5725 -30.5725 -30.5722 -30.5722 -30.5056 -30.5056 -30.5054 -30.5054
   -20.4126 -20.4126 -20.4125 -20.4125 -20.3963 -20.3963 -20.3961 -20.3961
   -20.3949 -20.3949 -20.3942 -20.3942 -20.3937 -20.3937 -20.3935 -20.3935
   -20.3908 -20.3908 -20.3905 -20.3905 -20.3847 -20.3847 -20.3847 -20.3847
   -20.3826 -20.3826 -20.3826 -20.3826  -9.7988  -9.7988  -8.9846  -8.9846
    -8.6545  -8.6545  -8.4756  -8.4756  -7.8534  -7.8534  -7.8383  -7.8383
     1.2030   1.2030   1.5481   1.5481   2.5997   2.5997   2.9918   2.9918
     3.0231   3.0231   3.0420   3.0420   3.4659   3.4659   5.1099   5.1100
     5.1495   5.1495   5.5611   5.5611   5.5777   5.5777   6.4858   6.4858
     6.8100   6.8100   7.0342   7.0342   7.1204   7.1204   7.5306   7.5306
     7.5474   7.5474   8.3036   8.3036   9.2532   9.2532  11.1456  11.1456
    11.1698  11.1698  13.4453  13.4453  13.4910  13.4910  13.6560  13.6560
    14.3732  14.3732  14.9937  14.9937  16.4992  16.4992  17.6101

          k = 0.0000 0.2222 0.0000 ( 31445 PWs)   bands (ev):

   -66.2519 -66.2514 -66.2509 -66.2504 -30.6127 -30.6093 -30.5758 -30.5743
   -30.5701 -30.5690 -30.5376 -30.5359 -30.5142 -30.5122 -30.5107 -30.5102
   -20.4127 -20.4126 -20.4126 -20.4125 -20.3965 -20.3964 -20.3961 -20.3959
   -20.3954 -20.3953 -20.3948 -20.3940 -20.3939 -20.3938 -20.3938 -20.3933
   -20.3933 -20.3932 -20.3873 -20.3871 -20.3853 -20.3851 -20.3839 -20.3838
   -20.3834 -20.3833 -20.3820 -20.3820  -9.9701  -9.5013  -9.3594  -8.9083
    -8.8833  -8.8674  -8.0860  -8.0375  -7.9786  -7.9550  -7.8052  -7.7261
     1.1106   1.2420   1.5171   1.5277   1.8914   1.9266   2.5100   2.5261
     2.7747   2.8866   3.8523   3.9077   4.2524   4.3701   4.9456   5.0473
     5.0676   5.4230   5.5956   5.9451   5.9477   6.0364   6.1132   6.1153
     6.3478   6.4328   6.5748   6.5973   6.9225   7.0926   7.1549   7.2060
     8.1292   8.1446   8.2170   8.2734   9.9094   9.9410  10.0391  10.1685
    12.5415  12.5874  12.8430  12.8605  13.3031  13.3071  13.8619  13.8716
    13.9569  15.0301  15.0324  15.0507  15.4573  16.8984  17.2526

          k = 0.0000 0.2222 0.1147 ( 31420 PWs)   bands (ev):

   -66.2519 -66.2514 -66.2509 -66.2504 -30.6080 -30.6045 -30.5757 -30.5741
   -30.5704 -30.5691 -30.5422 -30.5407 -30.5139 -30.5123 -30.5109 -30.5105
   -20.4127 -20.4126 -20.4126 -20.4125 -20.3965 -20.3964 -20.3961 -20.3959
   -20.3954 -20.3953 -20.3945 -20.3940 -20.3939 -20.3938 -20.3934 -20.3933
   -20.3932 -20.3932 -20.3878 -20.3876 -20.3852 -20.3851 -20.3840 -20.3839
   -20.3833 -20.3833 -20.3822 -20.3821  -9.9224  -9.5184  -9.2758  -8.9066
    -8.8850  -8.8288  -8.1226  -8.0350  -7.9770  -7.9566  -7.8990  -7.8387
     1.3663   1.4945   1.5178   1.5270   1.8897   1.9525   2.5841   2.5944
     2.7820   2.8798   3.7249   3.7832   4.3180   4.4331   4.6925   5.0564
     5.0763   5.2207   5.3520   5.6370   5.9356   6.0236   6.1137   6.1330
     6.4058   6.4545   6.6034   6.8329   6.9050   7.0852   7.1724   7.2153
     8.1211   8.1321   8.1485   8.2043   9.9140   9.9313  10.2122  10.3278
    12.3762  12.4283  12.8751  12.8913  13.3032  13.3054  13.7633  13.7647
    14.2480  15.0328  15.0469  15.2372  15.8811  16.5315  17.2761

          k = 0.0000 0.2222 0.2293 ( 31397 PWs)   bands (ev):

   -66.2518 -66.2515 -66.2508 -66.2505 -30.5953 -30.5912 -30.5760 -30.5733
   -30.5712 -30.5691 -30.5552 -30.5533 -30.5133 -30.5122 -30.5115 -30.5110
   -20.4126 -20.4126 -20.4126 -20.4125 -20.3965 -20.3965 -20.3960 -20.3959
   -20.3954 -20.3953 -20.3941 -20.3940 -20.3939 -20.3938 -20.3933 -20.3932
   -20.3923 -20.3922 -20.3890 -20.3888 -20.3849 -20.3849 -20.3842 -20.3842
   -20.3831 -20.3831 -20.3824 -20.3824  -9.8035  -9.5730  -9.0386  -8.9021
    -8.8896  -8.7017  -8.3319  -8.1549  -8.0276  -7.9788  -7.9727  -7.9610
     1.5198   1.5252   1.8193   1.8840   2.0942   2.3306   2.7796   2.8131
     2.8148   2.8690   3.4022   3.4679   4.0027   4.5206   4.5964   4.6271
     5.0745   5.0802   5.1220   5.1411   5.5107   5.5884   6.0921   6.1088
     6.6742   6.8561   6.9250   6.9766   7.0314   7.0708   7.2331   7.2331
     7.8957   7.9361   8.1389   8.1533   9.9195   9.9266  10.6714  10.7707
    11.9182  11.9833  12.9873  13.0022  13.2943  13.2982  13.5173  13.5312
    14.8108  15.0341  15.0406  15.8846  15.9599  16.9244  17.2713

          k = 0.0000 0.2222-0.3440 ( 31364 PWs)   bands (ev):

   -66.2516 -66.2516 -66.2507 -66.2507 -30.5808 -30.5808 -30.5732 -30.5732
   -30.5722 -30.5722 -30.5661 -30.5661 -30.5124 -30.5124 -30.5117 -30.5117
   -20.4126 -20.4126 -20.4125 -20.4125 -20.3965 -20.3965 -20.3959 -20.3959
   -20.3953 -20.3953 -20.3940 -20.3940 -20.3938 -20.3938 -20.3933 -20.3933
   -20.3907 -20.3907 -20.3905 -20.3905 -20.3845 -20.3845 -20.3845 -20.3845
   -20.3828 -20.3828 -20.3828 -20.3827  -9.6713  -9.6713  -8.8958  -8.8958
    -8.6931  -8.6930  -8.4680  -8.4680  -8.0133  -8.0133  -7.9669  -7.9668
     1.5225   1.5225   1.8712   1.8712   2.8161   2.8161   2.9976   2.9976
     3.0517   3.0517   3.1043   3.1043   3.5047   3.5047   4.8174   4.8174
     4.8937   4.8937   5.2139   5.2139   5.2278   5.2278   6.1014   6.1014
     6.7732   6.7732   7.0432   7.0432   7.2254   7.2254   7.4975   7.4975
     7.5437   7.5437   8.1450   8.1450   9.9235   9.9235  11.2951  11.2951
    11.3768  11.3768  13.1547  13.1547  13.2187  13.2187  13.3752  13.3752
    15.0364  15.0364  15.3773  15.3773  16.7095  16.7095  17.6377

          k = 0.0000 0.3333 0.0000 ( 31390 PWs)   bands (ev):

   -66.2517 -66.2512 -66.2511 -66.2506 -30.6129 -30.6103 -30.5672 -30.5640
   -30.5599 -30.5582 -30.5413 -30.5339 -30.5247 -30.5210 -30.5202 -30.5194
   -20.4127 -20.4126 -20.4126 -20.4125 -20.3966 -20.3965 -20.3960 -20.3958
   -20.3958 -20.3955 -20.3951 -20.3942 -20.3935 -20.3935 -20.3935 -20.3932
   -20.3931 -20.3931 -20.3874 -20.3873 -20.3850 -20.3847 -20.3839 -20.3837
   -20.3835 -20.3834 -20.3824 -20.3823  -9.8202  -9.4180  -9.2867  -8.7983
    -8.7670  -8.7423  -8.3690  -8.2673  -8.1640  -8.1403  -7.7930  -7.7403
     1.1321   1.2131   1.9877   2.0209   2.3572   2.3615   2.6430   2.6722
     3.1684   3.2733   3.6702   3.7003   3.9449   4.0495   4.5033   4.5566
     4.9332   5.0742   5.3254   5.3594   5.4494   5.9752   5.9921   6.1235
     6.1998   6.2308   6.3319   6.6878   7.0282   7.1828   7.2554   7.5075
     7.9077   7.9078   8.0449   8.1680  10.5755  10.6313  10.6854  10.7730
    12.3546  12.4149  12.7083  12.7937  12.7992  12.8007  13.5659  13.6161
    14.3753  15.2978  15.4716  15.9645  15.9705  17.3084  17.3844

          k = 0.0000 0.3333 0.1147 ( 31417 PWs)   bands (ev):

   -66.2517 -66.2512 -66.2511 -66.2506 -30.6082 -30.6055 -30.5675 -30.5637
   -30.5601 -30.5583 -30.5452 -30.5383 -30.5244 -30.5213 -30.5204 -30.5203
   -20.4126 -20.4126 -20.4126 -20.4125 -20.3966 -20.3965 -20.3959 -20.3958
   -20.3958 -20.3955 -20.3949 -20.3943 -20.3935 -20.3935 -20.3932 -20.3931
   -20.3931 -20.3930 -20.3878 -20.3877 -20.3849 -20.3847 -20.3839 -20.3837
   -20.3835 -20.3834 -20.3825 -20.3824  -9.7652  -9.3368  -9.3042  -8.7671
    -8.7654  -8.7440  -8.3928  -8.2623  -8.1624  -8.1419  -7.8986  -7.8532
     1.3926   1.4734   1.9902   2.0190   2.3584   2.3674   2.7165   2.7344
     3.1734   3.2671   3.5970   3.6387   4.0120   4.1131   4.5183   4.5719
     4.6647   4.9010   5.1446   5.3026   5.3235   5.6473   5.6763   5.9443
     6.4093   6.4739   6.6739   6.7830   7.0375   7.1765   7.2694   7.4998
     7.9003   7.9077   7.9844   8.1070  10.6320  10.6447  10.7396  10.8759
    12.3931  12.4345  12.5804  12.6486  12.7898  12.7962  13.4469  13.5028
    14.7121  15.6258  15.7183  15.9650  15.9699  16.9581  17.4402

          k = 0.0000 0.3333 0.2293 ( 31396 PWs)   bands (ev):

   -66.2516 -66.2513 -66.2510 -66.2507 -30.5955 -30.5924 -30.5697 -30.5629
   -30.5609 -30.5583 -30.5571 -30.5490 -30.5238 -30.5219 -30.5212 -30.5208
   -20.4126 -20.4126 -20.4126 -20.4125 -20.3966 -20.3965 -20.3958 -20.3958
   -20.3957 -20.3956 -20.3946 -20.3943 -20.3935 -20.3935 -20.3931 -20.3931
   -20.3922 -20.3921 -20.3890 -20.3889 -20.3846 -20.3846 -20.3839 -20.3839
   -20.3834 -20.3834 -20.3828 -20.3827  -9.6264  -9.3621  -9.1087  -8.7609
    -8.7485  -8.6603  -8.5084  -8.2454  -8.1588  -8.1557  -8.1463  -8.0815
     1.9970   2.0135   2.0817   2.1135   2.3471   2.4569   2.9116   2.9469
     3.1796   3.2504   3.3790   3.4483   3.9955   4.2183   4.3004   4.4364
     4.5774   4.6302   4.8050   4.9083   5.1428   5.2958   5.3214   5.3446
     6.9181   6.9421   6.9799   7.0325   7.0565   7.1571   7.3298   7.4658
     7.7851   7.8305   7.9170   7.9673  10.6542  10.6543  11.0520  11.2026
    12.1033  12.2222  12.5357  12.6177  12.7915  12.8065  13.1642  13.2265
    15.3600  15.9659  15.9684  16.1828  16.4458  16.7312  17.4231

          k = 0.0000 0.3333-0.3440 ( 31370 PWs)   bands (ev):

   -66.2515 -66.2515 -66.2508 -66.2508 -30.5796 -30.5796 -30.5745 -30.5745
   -30.5619 -30.5619 -30.5567 -30.5567 -30.5229 -30.5229 -30.5213 -30.5213
   -20.4126 -20.4126 -20.4126 -20.4126 -20.3965 -20.3965 -20.3958 -20.3958
   -20.3956 -20.3956 -20.3944 -20.3944 -20.3935 -20.3935 -20.3931 -20.3931
   -20.3906 -20.3906 -20.3905 -20.3905 -20.3843 -20.3843 -20.3842 -20.3842
   -20.3831 -20.3831 -20.3831 -20.3831  -9.4722  -9.4722  -8.7894  -8.7894
    -8.7544  -8.7544  -8.4505  -8.4505  -8.2034  -8.2034  -8.1522  -8.1522
     2.0056   2.0056   2.3185   2.3185   2.9509   2.9509   3.0771   3.0771
     3.1688   3.1688   3.2427   3.2427   3.5252   3.5252   4.5180   4.5180
     4.5614   4.5614   4.7474   4.7474   4.8317   4.8317   5.3158   5.3158
     7.0321   7.0321   7.1111   7.1111   7.3644   7.3644   7.4471   7.4471
     7.5363   7.5363   7.9256   7.9256  10.6568  10.6568  11.5563  11.5563
    11.6955  11.6955  12.6900  12.6900  12.8559  12.8559  12.9509  12.9509
    15.9149  15.9149  15.9687  15.9687  16.9960  16.9960  17.5263

          k = 0.0000 0.4444 0.0000 ( 31388 PWs)   bands (ev):

   -66.2515 -66.2513 -66.2510 -66.2508 -30.6124 -30.6115 -30.5572 -30.5512
   -30.5479 -30.5472 -30.5456 -30.5375 -30.5337 -30.5324 -30.5309 -30.5262
   -20.4126 -20.4126 -20.4125 -20.4125 -20.3965 -20.3964 -20.3962 -20.3962
   -20.3958 -20.3955 -20.3951 -20.3947 -20.3934 -20.3933 -20.3932 -20.3932
   -20.3931 -20.3931 -20.3874 -20.3874 -20.3846 -20.3843 -20.3842 -20.3840
   -20.3832 -20.3831 -20.3828 -20.3827  -9.6562  -9.5157  -9.0086  -8.6916
    -8.6790  -8.5835  -8.5600  -8.4965  -8.3753  -8.3512  -7.7761  -7.7577
     1.1559   1.1832   2.4947   2.6219   2.7127   2.7416   2.7660   2.8842
     3.2343   3.3368   3.7337   3.8110   3.8229   3.8433   3.9671   4.0773
     4.4356   4.5398   4.9420   5.0243   5.5120   5.7673   6.0559   6.0914
     6.1211   6.1509   6.3456   6.4850   7.3789   7.4143   7.4646   7.6325
     7.6605   7.7884   7.7908   8.0070  11.1678  11.3104  11.4044  11.4449
    11.8197  11.9079  12.1375  12.1603  12.9477  13.0469  13.2393  13.3314
    14.7591  15.0669  16.0706  16.7405  17.0111  17.0418  17.4954

          k = 0.0000 0.4444 0.1147 ( 31388 PWs)   bands (ev):

   -66.2515 -66.2513 -66.2510 -66.2508 -30.6077 -30.6067 -30.5583 -30.5509
   -30.5504 -30.5475 -30.5457 -30.5373 -30.5345 -30.5340 -30.5326 -30.5284
   -20.4126 -20.4126 -20.4126 -20.4125 -20.3965 -20.3964 -20.3962 -20.3962
   -20.3957 -20.3953 -20.3951 -20.3947 -20.3932 -20.3932 -20.3931 -20.3931
   -20.3930 -20.3930 -20.3878 -20.3878 -20.3845 -20.3843 -20.3841 -20.3840
   -20.3833 -20.3832 -20.3829 -20.3828  -9.5910  -9.4405  -9.0269  -8.7116
    -8.6581  -8.5820  -8.5616  -8.4856  -8.3737  -8.3528  -7.8857  -7.8694
     1.4174   1.4448   2.5066   2.6161   2.7340   2.7807   2.8257   2.8777
     3.2140   3.3059   3.7375   3.8189   3.8824   3.8869   4.0018   4.1083
     4.4138   4.5381   4.6898   4.7724   5.1466   5.3528   5.7321   5.8223
     6.4674   6.5504   6.5564   6.6591   7.3719   7.4133   7.4588   7.6229
     7.6627   7.7524   7.7651   7.9625  11.2288  11.3531  11.4200  11.4849
    11.8674  11.9600  12.1434  12.1682  12.7997  12.9048  13.1052  13.2038
    15.1401  15.4726  16.1749  16.8003  17.0109  17.0449  17.2982

          k = 0.0000 0.4444 0.2293 ( 31385 PWs)   bands (ev):

   -66.2514 -66.2512 -66.2511 -66.2509 -30.5948 -30.5937 -30.5640 -30.5599
   -30.5502 -30.5482 -30.5458 -30.5417 -30.5366 -30.5347 -30.5329 -30.5317
   -20.4126 -20.4126 -20.4126 -20.4126 -20.3965 -20.3964 -20.3962 -20.3962
   -20.3954 -20.3952 -20.3950 -20.3947 -20.3932 -20.3932 -20.3931 -20.3931
   -20.3921 -20.3921 -20.3890 -20.3889 -20.3842 -20.3842 -20.3839 -20.3838
   -20.3836 -20.3835 -20.3832 -20.3831  -9.4211  -9.2356  -9.0913  -8.7901
    -8.5826  -8.5776  -8.5658  -8.4454  -8.3693  -8.3573  -8.1464  -8.1250
     2.1164   2.1314   2.5360   2.5985   2.8039   2.8239   2.9123   2.9962
     3.1499   3.1980   3.7417   3.8071   4.0095   4.0567   4.0634   4.1258
     4.1842   4.2215   4.4971   4.5367   4.6760   4.8379   4.9885   5.1179
     6.9706   6.9800   6.9877   7.0157   7.3455   7.3709   7.4758   7.5733
     7.6131   7.6820   7.6964   7.8325  11.3437  11.3828  11.5461  11.7016
    12.0056  12.0456  12.2095  12.2242  12.4326  12.5390  12.7754  12.8840
    15.9439  16.4113  16.5654  16.9307  16.9626  17.0155  17.0854

          k = 0.0000 0.4444-0.3440 ( 31370 PWs)   bands (ev):

   -66.2513 -66.2513 -66.2510 -66.2510 -30.5780 -30.5780 -30.5762 -30.5762
   -30.5492 -30.5492 -30.5452 -30.5452 -30.5356 -30.5356 -30.5329 -30.5329
   -20.4126 -20.4126 -20.4126 -20.4126 -20.3964 -20.3964 -20.3962 -20.3962
   -20.3952 -20.3952 -20.3948 -20.3948 -20.3932 -20.3932 -20.3931 -20.3931
   -20.3906 -20.3906 -20.3905 -20.3905 -20.3839 -20.3839 -20.3839 -20.3839
   -20.3835 -20.3835 -20.3834 -20.3834  -9.2259  -9.2259  -8.9765  -8.9764
    -8.5717  -8.5717  -8.4149  -8.4149  -8.3632  -8.3632  -8.3423  -8.3423
     2.5702   2.5702   2.7343   2.7343   2.9148   2.9148   3.0392   3.0392
     3.1687   3.1687   3.3903   3.3903   3.7982   3.7982   4.3033   4.3033
     4.3506   4.3506   4.4089   4.4089   4.5089   4.5089   4.5825   4.5825
     7.2294   7.2294   7.2608   7.2608   7.3649   7.3649   7.3893   7.3893
     7.5739   7.5739   7.7113   7.7113  11.3783  11.3783  11.8808  11.8808
    12.0855  12.0855  12.1419  12.1419  12.4072  12.4072  12.5161  12.5161
    16.5122  16.5122  16.9839  16.9839  17.0731  17.0731  17.4247

          k = 0.1111 0.1111 0.0000 ( 31419 PWs)   bands (ev):

   -66.2520 -66.2514 -66.2508 -66.2503 -30.6123 -30.6088 -30.5840 -30.5797
   -30.5745 -30.5690 -30.5366 -30.5365 -30.5136 -30.5109 -30.5044 -30.5010
   -20.4127 -20.4126 -20.4126 -20.4125 -20.3964 -20.3964 -20.3962 -20.3961
   -20.3952 -20.3951 -20.3944 -20.3943 -20.3940 -20.3938 -20.3937 -20.3934
   -20.3934 -20.3934 -20.3872 -20.3870 -20.3856 -20.3852 -20.3841 -20.3838
   -20.3834 -20.3832 -20.3820 -20.3817 -10.0418  -9.5992  -9.3391  -8.9774
    -8.9355  -8.8787  -8.0217  -8.0022  -7.8217  -7.8105  -7.7867  -7.7199
     1.0844   1.2007   1.2231   1.2573   1.7805   1.8113   2.3795   2.5225
     2.6197   2.7333   3.8821   3.9424   4.2993   4.7774   4.9549   5.0940
     5.5022   5.5484   5.7369   5.8941   5.9599   6.0384   6.1991   6.3321
     6.5506   6.7093   6.7333   6.7545   6.9254   7.0044   7.0839   7.2012
     8.2097   8.2437   8.2543   8.3436   9.5057   9.5312   9.5510  10.0917
    12.4327  12.5737  12.8240  13.2788  13.5124  13.5226  13.6803  13.8504
    14.1734  14.5411  14.6253  14.8571  15.5165  16.6832  17.1884

          k = 0.1111 0.1111 0.1147 ( 31429 PWs)   bands (ev):

   -66.2519 -66.2515 -66.2508 -66.2504 -30.6075 -30.6040 -30.5837 -30.5800
   -30.5744 -30.5692 -30.5415 -30.5412 -30.5136 -30.5112 -30.5042 -30.5012
   -20.4127 -20.4126 -20.4126 -20.4125 -20.3964 -20.3964 -20.3962 -20.3961
   -20.3952 -20.3951 -20.3942 -20.3941 -20.3940 -20.3937 -20.3935 -20.3934
   -20.3934 -20.3933 -20.3877 -20.3875 -20.3854 -20.3851 -20.3842 -20.3839
   -20.3833 -20.3831 -20.3821 -20.3818  -9.9972  -9.6159  -9.2550  -8.9706
    -8.9374  -8.8422  -8.0581  -8.0003  -7.9103  -7.8381  -7.8089  -7.7883
     1.1847   1.2004   1.3721   1.5121   1.7791   1.8458   2.4505   2.5901
     2.6306   2.7260   3.7534   3.7749   4.3608   4.7052   4.8392   5.1040
     5.3151   5.5124   5.5448   5.6283   5.9944   6.1518   6.2369   6.4327
     6.5163   6.7232   6.7345   6.7997   6.9230   7.0501   7.0676   7.0963
     8.1645   8.2258   8.2284   8.2681   9.5328   9.5427   9.7658  10.2559
    12.2621  12.4053  12.8645  13.3079  13.5147  13.5221  13.7577  13.9180
    14.0772  14.5325  14.6467  15.0889  15.9411  16.3380  17.3012

          k = 0.1111 0.1111 0.2293 ( 31429 PWs)   bands (ev):

   -66.2518 -66.2516 -66.2507 -66.2505 -30.5944 -30.5907 -30.5829 -30.5808
   -30.5742 -30.5696 -30.5547 -30.5544 -30.5132 -30.5118 -30.5036 -30.5019
   -20.4126 -20.4126 -20.4126 -20.4125 -20.3964 -20.3964 -20.3961 -20.3961
   -20.3952 -20.3951 -20.3941 -20.3940 -20.3938 -20.3937 -20.3934 -20.3934
   -20.3924 -20.3922 -20.3890 -20.3888 -20.3852 -20.3849 -20.3844 -20.3842
   -20.3831 -20.3829 -20.3824 -20.3821  -9.8861  -9.6688  -9.0164  -8.9595
    -8.9426  -8.7132  -8.2957  -8.1518  -7.9946  -7.9654  -7.8046  -7.7927
     1.1955   1.1995   1.7327   1.7743   2.0895   2.3507   2.6441   2.6502
     2.7140   2.8145   3.3942   3.4336   4.0082   4.5583   4.6153   5.0139
     5.1282   5.1404   5.4069   5.5312   5.5750   5.9344   6.3452   6.7137
     6.7161   6.7272   6.8709   6.9124   6.9839   7.0133   7.1261   7.1492
     7.9291   7.9690   8.2338   8.2460   9.5362   9.5421  10.3742  10.7096
    11.7840  11.9481  12.9863  13.3975  13.4382  13.5276  13.5948  13.8492
    14.3177  14.5132  14.7791  15.7648  15.7674  16.9910  17.1586

          k = 0.1111 0.1111-0.3440 ( 31402 PWs)   bands (ev):

   -66.2517 -66.2517 -66.2506 -66.2506 -30.5819 -30.5819 -30.5785 -30.5785
   -30.5726 -30.5725 -30.5679 -30.5679 -30.5125 -30.5125 -30.5027 -30.5027
   -20.4126 -20.4126 -20.4125 -20.4125 -20.3964 -20.3964 -20.3961 -20.3961
   -20.3952 -20.3952 -20.3941 -20.3941 -20.3937 -20.3937 -20.3934 -20.3934
   -20.3908 -20.3908 -20.3905 -20.3905 -20.3848 -20.3848 -20.3845 -20.3845
   -20.3828 -20.3828 -20.3825 -20.3825  -9.7623  -9.7623  -8.9503  -8.9503
    -8.6674  -8.6674  -8.4729  -8.4729  -7.9850  -7.9850  -7.7987  -7.7987
     1.1980   1.1980   1.7646   1.7646   2.6718   2.6718   2.9914   2.9914
     3.0272   3.0272   3.0618   3.0618   3.4809   3.4809   4.8559   4.8559
     5.2171   5.2171   5.2725   5.2725   5.6651   5.6651   6.5135   6.5135
     6.7227   6.7227   6.9000   6.9000   7.1418   7.1418   7.5281   7.5281
     7.5343   7.5343   8.2403   8.2403   9.5396   9.5396  11.1063  11.1063
    11.3287  11.3287  13.1919  13.1919  13.5212  13.5212  13.6210  13.6210
    14.4740  14.4740  15.1978  15.1978  16.5894  16.5894  17.6417

          k = 0.1111 0.2222 0.0000 ( 31424 PWs)   bands (ev):

   -66.2519 -66.2513 -66.2509 -66.2504 -30.6125 -30.6095 -30.5824 -30.5777
   -30.5647 -30.5581 -30.5391 -30.5353 -30.5224 -30.5215 -30.5061 -30.5029
   -20.4127 -20.4126 -20.4126 -20.4125 -20.3966 -20.3966 -20.3961 -20.3958
   -20.3957 -20.3956 -20.3946 -20.3941 -20.3938 -20.3936 -20.3934 -20.3934
   -20.3932 -20.3931 -20.3873 -20.3871 -20.3855 -20.3848 -20.3841 -20.3836
   -20.3836 -20.3832 -20.3824 -20.3818  -9.9533  -9.4901  -9.3717  -8.9333
    -8.8291  -8.7930  -8.2543  -8.2082  -7.8693  -7.8601  -7.8022  -7.7285
     1.1056   1.2391   1.3364   1.3571   2.2466   2.2552   2.4100   2.6626
     2.8457   2.9556   3.6904   3.8885   4.0226   4.5779   4.6375   4.9413
     5.3062   5.3307   5.5660   5.8912   6.0102   6.0608   6.1255   6.1927
     6.3166   6.4073   6.4481   6.5008   6.9015   7.0036   7.0891   7.3756
     8.0326   8.0646   8.1123   8.3197   9.6911  10.1346  10.1649  10.6560
    12.3452  12.5063  12.7450  13.1571  13.2438  13.2438  13.5770  13.8712
    14.0885  14.9944  15.1167  15.2874  15.4130  17.1548  17.2833

          k = 0.1111 0.2222 0.1147 ( 31416 PWs)   bands (ev):

   -66.2518 -66.2514 -66.2509 -66.2505 -30.6077 -30.6046 -30.5821 -30.5779
   -30.5648 -30.5582 -30.5432 -30.5400 -30.5230 -30.5217 -30.5060 -30.5031
   -20.4127 -20.4126 -20.4126 -20.4125 -20.3966 -20.3966 -20.3960 -20.3958
   -20.3957 -20.3956 -20.3943 -20.3939 -20.3938 -20.3936 -20.3932 -20.3932
   -20.3931 -20.3931 -20.3878 -20.3876 -20.3854 -20.3848 -20.3841 -20.3837
   -20.3836 -20.3831 -20.3825 -20.3819  -9.9054  -9.5065  -9.2888  -8.9129
    -8.8315  -8.7733  -8.2738  -8.2051  -7.9274  -7.8677  -7.8571  -7.8312
     1.2901   1.3359   1.4145   1.5226   2.2527   2.2582   2.4814   2.7282
     2.8534   2.9488   3.6174   3.7757   4.0402   4.5941   4.6837   4.7023
     5.0654   5.3137   5.3985   5.6527   5.7710   6.1054   6.1684   6.1934
     6.4418   6.4824   6.4897   6.6666   6.8998   7.0077   7.0502   7.3733
     8.0245   8.0564   8.0643   8.2353   9.9028  10.1365  10.1706  10.7700
    12.2788  12.4511  12.5869  13.1740  13.2331  13.2605  13.4680  13.9907
    14.1255  14.9829  15.2599  15.3874  15.8337  16.7270  17.3500

          k = 0.1111 0.2222 0.2293 ( 31405 PWs)   bands (ev):

   -66.2517 -66.2515 -66.2508 -66.2506 -30.5948 -30.5914 -30.5814 -30.5785
   -30.5663 -30.5586 -30.5556 -30.5513 -30.5234 -30.5223 -30.5054 -30.5037
   -20.4126 -20.4126 -20.4126 -20.4125 -20.3966 -20.3966 -20.3959 -20.3959
   -20.3957 -20.3956 -20.3940 -20.3939 -20.3938 -20.3937 -20.3932 -20.3932
   -20.3923 -20.3922 -20.3890 -20.3888 -20.3851 -20.3846 -20.3844 -20.3839
   -20.3834 -20.3829 -20.3827 -20.3822  -9.7865  -9.5594  -9.0544  -8.8747
    -8.8387  -8.6799  -8.3981  -8.1950  -8.1611  -8.0897  -7.8631  -7.8495
     1.3273   1.3345   2.0757   2.1191   2.2435   2.4055   2.6940   2.8628
     2.9301   2.9406   3.3883   3.4292   4.0012   4.2365   4.5192   4.6530
     4.8828   4.9166   5.2161   5.2665   5.3573   5.7951   6.1736   6.1907
     6.5615   6.7689   6.8584   6.8870   6.9652   7.0239   7.1930   7.3558
     7.8435   7.9306   8.0572   8.0890  10.1394  10.1421  10.4846  11.1083
    11.8267  12.1638  12.5810  13.1236  13.2108  13.2776  13.3409  13.7580
    14.5643  14.9426  15.4034  16.0186  16.1847  16.8599  17.3976

          k = 0.1111 0.2222-0.3440 ( 31394 PWs)   bands (ev):

   -66.2516 -66.2516 -66.2507 -66.2507 -30.5816 -30.5816 -30.5758 -30.5758
   -30.5734 -30.5734 -30.5581 -30.5581 -30.5230 -30.5230 -30.5046 -30.5046
   -20.4126 -20.4126 -20.4126 -20.4125 -20.3966 -20.3966 -20.3959 -20.3959
   -20.3956 -20.3956 -20.3939 -20.3939 -20.3937 -20.3937 -20.3932 -20.3932
   -20.3907 -20.3907 -20.3905 -20.3905 -20.3847 -20.3847 -20.3842 -20.3842
   -20.3831 -20.3831 -20.3826 -20.3826  -9.6555  -9.6555  -8.8516  -8.8515
    -8.7176  -8.7174  -8.4628  -8.4627  -8.1718  -8.1717  -7.8567  -7.8567
     1.3320   1.3321   2.2228   2.2230   2.8751   2.8768   2.9988   3.0081
     3.0370   3.0382   3.1088   3.1162   3.4976   3.4988   4.5449   4.5525
     4.8101   4.8139   5.1039   5.1276   5.4617   5.4837   6.1850   6.1860
     6.6803   6.6921   6.8630   6.8715   7.2875   7.2888   7.4933   7.4965
     7.5204   7.5232   8.0678   8.0682  10.1441  10.1446  11.1699  11.1731
    11.6145  11.6174  12.8218  12.8353  13.2191  13.2622  13.4951  13.5251
    14.8332  14.8379  15.7021  15.7080  16.8426  16.8429  17.6824

          k = 0.1111 0.3333 0.0000 ( 31389 PWs)   bands (ev):

   -66.2517 -66.2512 -66.2511 -66.2506 -30.6126 -30.6104 -30.5765 -30.5709
   -30.5533 -30.5456 -30.5451 -30.5343 -30.5329 -30.5304 -30.5119 -30.5092
   -20.4127 -20.4126 -20.4126 -20.4125 -20.3967 -20.3967 -20.3962 -20.3960
   -20.3959 -20.3955 -20.3949 -20.3942 -20.3939 -20.3934 -20.3933 -20.3931
   -20.3930 -20.3929 -20.3874 -20.3873 -20.3853 -20.3844 -20.3842 -20.3837
   -20.3835 -20.3831 -20.3828 -20.3820  -9.8214  -9.4340  -9.3156  -8.8721
    -8.6621  -8.6404  -8.5314  -8.4323  -8.0178  -8.0114  -7.7917  -7.7418
     1.1324   1.2133   1.6666   1.6734   2.5032   2.6748   2.7557   2.8206
     3.2443   3.2788   3.3413   3.7623   3.9232   4.0580   4.3358   4.8613
     4.9384   5.0868   5.2470   5.5229   5.7121   5.9087   5.9896   6.0876
     6.1637   6.2148   6.4015   6.8321   6.8339   7.0208   7.1130   7.6745
     7.7976   7.8069   7.8987   8.2471  10.1210  10.8220  10.8560  11.2658
    11.8488  12.5765  12.7465  12.7922  12.8650  13.0157  13.2739  13.8836
    14.2283  15.2342  15.5474  15.7151  16.1392  17.4105  17.4602

          k = 0.1111 0.3333 0.1147 ( 31392 PWs)   bands (ev):

   -66.2517 -66.2512 -66.2511 -66.2506 -30.6078 -30.6056 -30.5763 -30.5711
   -30.5541 -30.5479 -30.5453 -30.5367 -30.5345 -30.5325 -30.5118 -30.5094
   -20.4126 -20.4126 -20.4126 -20.4125 -20.3967 -20.3967 -20.3962 -20.3960
   -20.3958 -20.3955 -20.3947 -20.3942 -20.3937 -20.3933 -20.3932 -20.3930
   -20.3929 -20.3928 -20.3878 -20.3877 -20.3852 -20.3844 -20.3841 -20.3838
   -20.3835 -20.3831 -20.3829 -20.3821  -9.7676  -9.3544  -9.3316  -8.8463
    -8.6654  -8.6321  -8.5477  -8.4260  -8.0248  -8.0159  -7.8937  -7.8540
     1.3876   1.4662   1.6656   1.6932   2.5738   2.6959   2.7945   2.8229
     3.2430   3.2587   3.3356   3.7414   3.8749   4.0910   4.4024   4.6608
     4.8702   4.9268   5.0345   5.5167   5.5274   5.5935   5.7014   6.0376
     6.3992   6.4977   6.5687   6.8509   6.8902   7.0138   7.1383   7.6523
     7.7956   7.8014   7.8583   8.1706  10.2790  10.8231  10.8571  11.3464
    11.9093  12.4120  12.7334  12.7850  12.8537  12.9308  13.1466  13.7776
    14.5247  15.6393  15.6962  15.7098  16.1810  17.1267  17.4964

          k = 0.1111 0.3333 0.2293 ( 31399 PWs)   bands (ev):

   -66.2516 -66.2513 -66.2510 -66.2507 -30.5951 -30.5925 -30.5762 -30.5715
   -30.5595 -30.5579 -30.5457 -30.5436 -30.5351 -30.5350 -30.5115 -30.5100
   -20.4126 -20.4126 -20.4126 -20.4125 -20.3967 -20.3967 -20.3961 -20.3961
   -20.3956 -20.3955 -20.3944 -20.3942 -20.3934 -20.3933 -20.3930 -20.3930
   -20.3922 -20.3921 -20.3890 -20.3889 -20.3849 -20.3842 -20.3842 -20.3838
   -20.3835 -20.3831 -20.3831 -20.3824  -9.6332  -9.3847  -9.1334  -8.7717
    -8.6765  -8.6226  -8.5905  -8.4029  -8.1759  -8.1418  -8.0106  -7.9845
     1.6444   1.6627   2.1041   2.1994   2.7329   2.7751   2.8226   2.9480
     3.1658   3.2535   3.3211   3.4508   4.0077   4.0386   4.2055   4.3434
     4.5895   4.8539   4.8820   4.9419   4.9953   5.4418   5.5284   5.6169
     6.8169   6.8985   6.9334   6.9482   6.9978   7.0373   7.2535   7.5737
     7.7025   7.7633   7.8166   7.9606  10.6885  10.8252  10.8878  11.5948
    11.9449  12.1152  12.4558  12.7312  12.7648  12.8719  13.0356  13.5226
    15.0651  15.6245  16.0774  16.4765  16.6203  16.7018  17.5150

          k = 0.1111 0.3333-0.3440 ( 31390 PWs)   bands (ev):

   -66.2515 -66.2514 -66.2508 -66.2508 -30.5801 -30.5801 -30.5748 -30.5748
   -30.5699 -30.5699 -30.5458 -30.5458 -30.5355 -30.5355 -30.5108 -30.5108
   -20.4126 -20.4126 -20.4126 -20.4126 -20.3967 -20.3967 -20.3961 -20.3961
   -20.3956 -20.3955 -20.3942 -20.3942 -20.3933 -20.3933 -20.3930 -20.3930
   -20.3907 -20.3907 -20.3905 -20.3905 -20.3846 -20.3846 -20.3839 -20.3839
   -20.3835 -20.3835 -20.3828 -20.3828  -9.4870  -9.4869  -8.8386  -8.8383
    -8.7033  -8.7027  -8.4363  -8.4357  -8.3388  -8.3383  -8.0020  -8.0019
     1.6572   1.6576   2.7157   2.7160   2.9294   2.9303   3.0455   3.0591
     3.1287   3.1427   3.3029   3.3042   3.4455   3.4489   4.3620   4.3733
     4.4558   4.4597   4.7739   4.8261   5.0521   5.0960   5.5391   5.5395
     6.9182   6.9339   6.9598   6.9753   7.3940   7.3979   7.4306   7.4387
     7.4980   7.5052   7.8355   7.8384  10.8206  10.8246  11.3490  11.3615
    11.9911  11.9984  12.3993  12.4229  12.7625  12.8155  13.2302  13.2593
    15.4350  15.4464  16.3332  16.3470  17.2008  17.2177  17.5275

          k = 0.1111 0.4444 0.0000 ( 31409 PWs)   bands (ev):

   -66.2515 -66.2513 -66.2510 -66.2508 -30.6122 -30.6114 -30.5672 -30.5606
   -30.5561 -30.5479 -30.5430 -30.5361 -30.5316 -30.5281 -30.5202 -30.5192
   -20.4126 -20.4126 -20.4125 -20.4125 -20.3967 -20.3966 -20.3966 -20.3964
   -20.3956 -20.3952 -20.3950 -20.3946 -20.3937 -20.3935 -20.3930 -20.3929
   -20.3928 -20.3928 -20.3874 -20.3874 -20.3849 -20.3845 -20.3841 -20.3837
   -20.3835 -20.3832 -20.3827 -20.3823  -9.6712  -9.5346  -9.0865  -8.8182
    -8.7771  -8.6309  -8.4510  -8.4403  -8.2225  -8.2213  -7.7756  -7.7581
     1.1579   1.1851   2.1300   2.1531   2.5829   2.6514   2.7242   2.7810
     3.3159   3.6875   3.7947   3.8208   3.8547   4.0282   4.1289   4.3215
     4.4881   4.8045   4.9769   5.1224   5.5532   5.7337   5.9557   6.0141
     6.1964   6.2603   6.3932   6.5804   7.2309   7.2343   7.3089   7.5119
     7.5347   7.6108   7.9297   8.1193  10.6718  11.2554  11.5133  11.5604
    11.8561  12.1687  12.2257  12.4218  12.7507  12.9868  13.2959  13.6040
    14.6278  14.9729  16.1253  16.5896  16.8128  17.0698  17.4007

          k = 0.1111 0.4444 0.1147 ( 31393 PWs)   bands (ev):

   -66.2515 -66.2513 -66.2510 -66.2508 -30.6074 -30.6066 -30.5673 -30.5607
   -30.5568 -30.5481 -30.5454 -30.5394 -30.5318 -30.5302 -30.5207 -30.5194
   -20.4126 -20.4126 -20.4126 -20.4125 -20.3967 -20.3966 -20.3965 -20.3964
   -20.3955 -20.3951 -20.3950 -20.3946 -20.3935 -20.3933 -20.3930 -20.3929
   -20.3927 -20.3927 -20.3878 -20.3878 -20.3848 -20.3845 -20.3840 -20.3837
   -20.3836 -20.3833 -20.3828 -20.3824  -9.6086  -9.4621  -9.1021  -8.8338
    -8.7559  -8.6181  -8.4557  -8.4363  -8.2294  -8.2188  -7.8845  -7.8695
     1.4187   1.4457   2.1369   2.1506   2.5994   2.7167   2.7205   2.8350
     3.2933   3.6185   3.7946   3.8313   3.9079   4.0883   4.1520   4.3309
     4.4408   4.7258   4.8108   4.8828   5.2258   5.3321   5.7788   5.8982
     6.3984   6.4512   6.6329   6.7561   7.2253   7.2353   7.3180   7.5048
     7.5355   7.5921   7.8875   8.0576  10.7830  11.3303  11.5130  11.5646
    11.9139  12.1657  12.2252  12.4697  12.5954  12.8434  13.1631  13.4856
    14.9758  15.3596  16.2386  16.5617  16.8765  17.0976  17.3157

          k = 0.1111 0.4444 0.2293 ( 31396 PWs)   bands (ev):

   -66.2514 -66.2512 -66.2511 -66.2509 -30.5946 -30.5937 -30.5686 -30.5619
   -30.5611 -30.5539 -30.5485 -30.5461 -30.5325 -30.5323 -30.5210 -30.5199
   -20.4126 -20.4126 -20.4126 -20.4126 -20.3967 -20.3967 -20.3965 -20.3964
   -20.3953 -20.3951 -20.3948 -20.3946 -20.3931 -20.3930 -20.3930 -20.3929
   -20.3921 -20.3920 -20.3890 -20.3889 -20.3846 -20.3843 -20.3839 -20.3838
   -20.3835 -20.3835 -20.3831 -20.3827  -9.4485  -9.2686  -9.1568  -8.8934
    -8.6818  -8.5697  -8.4748  -8.4207  -8.2754  -8.2110  -8.1398  -8.1031
     2.0421   2.1153   2.1429   2.2479   2.6480   2.6931   2.9249   2.9908
     3.2107   3.3980   3.8044   3.8239   4.0766   4.0851   4.2150   4.2516
     4.2702   4.3933   4.4398   4.7907   4.8310   4.9156   5.0730   5.2845
     6.8913   6.9279   7.0017   7.0324   7.2041   7.2255   7.3675   7.4743
     7.5004   7.5685   7.7543   7.8729  11.1056  11.4985  11.5158  11.6364
    12.0814  12.1159  12.2243  12.2401  12.4870  12.6169  12.8321  13.1958
    15.6729  16.2198  16.4450  16.6025  17.0742  17.1170  17.2326

          k = 0.1111 0.4444-0.3440 ( 31404 PWs)   bands (ev):

   -66.2513 -66.2513 -66.2510 -66.2510 -30.5783 -30.5783 -30.5765 -30.5765
   -30.5605 -30.5605 -30.5485 -30.5485 -30.5328 -30.5328 -30.5206 -30.5206
   -20.4126 -20.4126 -20.4126 -20.4126 -20.3967 -20.3967 -20.3965 -20.3965
   -20.3951 -20.3951 -20.3947 -20.3947 -20.3931 -20.3931 -20.3929 -20.3929
   -20.3906 -20.3906 -20.3905 -20.3905 -20.3843 -20.3843 -20.3839 -20.3839
   -20.3835 -20.3835 -20.3831 -20.3831  -9.2725  -9.2725  -9.0401  -9.0399
    -8.5501  -8.5495  -8.4480  -8.4480  -8.3595  -8.3594  -8.1929  -8.1927
     2.1283   2.1288   2.6406   2.6407   2.9555   2.9560   3.0059   3.0098
     3.2845   3.2893   3.4047   3.4057   3.8288   3.8382   4.2752   4.2832
     4.3964   4.4487   4.4880   4.5125   4.6636   4.6963   4.9024   4.9027
     7.1316   7.1317   7.1636   7.1643   7.3238   7.3261   7.3425   7.3587
     7.5358   7.5441   7.6375   7.6446  11.4494  11.4848  11.6481  11.6919
    11.9605  11.9947  12.1783  12.2479  12.4436  12.4615  12.8599  12.8832
    16.1644  16.1856  16.8030  16.8555  17.0193  17.0995  17.4235

          k = 0.2222 0.2222 0.0000 ( 31386 PWs)   bands (ev):

   -66.2518 -66.2513 -66.2510 -66.2505 -30.6121 -30.6099 -30.5854 -30.5811
   -30.5531 -30.5455 -30.5446 -30.5348 -30.5334 -30.5297 -30.5032 -30.4998
   -20.4127 -20.4126 -20.4126 -20.4125 -20.3968 -20.3968 -20.3963 -20.3961
   -20.3959 -20.3956 -20.3945 -20.3942 -20.3939 -20.3935 -20.3933 -20.3930
   -20.3929 -20.3929 -20.3873 -20.3872 -20.3856 -20.3844 -20.3842 -20.3839
   -20.3834 -20.3830 -20.3828 -20.3817  -9.9020  -9.4467  -9.4110  -8.9379
    -8.6818  -8.6470  -8.5091  -8.4242  -7.8276  -7.8087  -7.8028  -7.7354
     1.0994   1.2294   1.2336   1.2781   2.3624   2.6978   2.7586   2.8558
     3.0542   3.1589   3.2838   3.7578   3.9982   4.0699   4.7858   4.9366
     5.2433   5.2914   5.4697   5.8547   5.9634   6.0222   6.1628   6.1988
     6.2034   6.2228   6.3623   6.5672   6.6185   6.8258   7.2042   7.6607
     7.7896   7.8442   7.9109   8.3399   9.5520  10.6364  10.6735  11.2584
    11.8337  12.4494  12.9851  13.0493  13.0585  13.2734  13.2766  13.8196
    14.1758  15.0218  15.2767  15.3716  15.8460  17.3700  17.7803

          k = 0.2222 0.2222 0.1147 ( 31380 PWs)   bands (ev):

   -66.2518 -66.2513 -66.2510 -66.2505 -30.6073 -30.6051 -30.5851 -30.5814
   -30.5541 -30.5477 -30.5448 -30.5371 -30.5350 -30.5322 -30.5030 -30.5000
   -20.4126 -20.4126 -20.4126 -20.4125 -20.3968 -20.3968 -20.3962 -20.3961
   -20.3958 -20.3956 -20.3943 -20.3939 -20.3939 -20.3933 -20.3933 -20.3930
   -20.3929 -20.3928 -20.3878 -20.3876 -20.3855 -20.3844 -20.3843 -20.3839
   -20.3834 -20.3830 -20.3829 -20.3818  -9.8532  -9.4618  -9.3308  -8.9078
    -8.6858  -8.6378  -8.5238  -8.4183  -7.9184  -7.8536  -7.8259  -7.8045
     1.2063   1.2333   1.4146   1.5170   2.4342   2.7191   2.8064   2.8468
     3.0603   3.1515   3.2589   3.7580   3.8776   4.1029   4.6688   4.8413
     4.9562   5.2967   5.3451   5.5677   5.6980   6.0842   6.1699   6.2014
     6.3223   6.3934   6.5485   6.5616   6.6201   6.9095   7.0717   7.6388
     7.8017   7.8378   7.8714   8.2501   9.7957  10.6384  10.6735  11.3376
    11.8963  12.2793  12.8390  13.0339  13.0520  13.1626  13.3083  14.0557
    14.0794  15.0018  15.5442  15.6809  15.9388  17.0627  17.5430

          k = 0.2222 0.2222 0.2293 ( 31401 PWs)   bands (ev):

   -66.2517 -66.2514 -66.2509 -66.2506 -30.5941 -30.5920 -30.5843 -30.5822
   -30.5606 -30.5574 -30.5452 -30.5436 -30.5355 -30.5354 -30.5023 -30.5006
   -20.4126 -20.4126 -20.4126 -20.4125 -20.3968 -20.3968 -20.3962 -20.3961
   -20.3958 -20.3956 -20.3940 -20.3939 -20.3935 -20.3933 -20.3929 -20.3929
   -20.3923 -20.3921 -20.3890 -20.3888 -20.3852 -20.3845 -20.3842 -20.3838
   -20.3835 -20.3831 -20.3828 -20.3821  -9.7329  -9.5111  -9.1074  -8.8210
    -8.6998  -8.5946  -8.5932  -8.3968  -8.1726  -8.1310  -7.8214  -7.8091
     1.2262   1.2322   2.0995   2.2287   2.6431   2.7871   2.8181   2.9414
     3.0747   3.1269   3.1828   3.4060   4.0102   4.0287   4.2171   4.3412
     4.9105   4.9526   5.0230   5.2486   5.3455   5.8605   6.1956   6.2034
     6.4832   6.4932   6.6012   6.8278   6.9516   7.0370   7.1663   7.5608
     7.7152   7.7960   7.8415   8.0061  10.3779  10.6428  10.6833  11.5846
    11.7890  12.1056  12.4557  12.7871  13.0564  13.0751  13.4137  13.8476
    14.4755  14.9306  15.8644  16.4126  16.5946  16.6572  17.7606

          k = 0.2222 0.2222-0.3440 ( 31414 PWs)   bands (ev):

   -66.2515 -66.2515 -66.2508 -66.2508 -30.5833 -30.5833 -30.5764 -30.5764
   -30.5742 -30.5742 -30.5454 -30.5454 -30.5359 -30.5359 -30.5015 -30.5015
   -20.4126 -20.4126 -20.4126 -20.4126 -20.3968 -20.3968 -20.3961 -20.3961
   -20.3957 -20.3957 -20.3939 -20.3939 -20.3933 -20.3933 -20.3929 -20.3929
   -20.3907 -20.3907 -20.3905 -20.3905 -20.3848 -20.3848 -20.3839 -20.3839
   -20.3835 -20.3835 -20.3825 -20.3825  -9.6033  -9.6033  -8.8086  -8.8086
    -8.7346  -8.7346  -8.4403  -8.4403  -8.3342  -8.3342  -7.8153  -7.8153
     1.2302   1.2302   2.7457   2.7457   2.9578   2.9578   2.9633   2.9633
     3.1152   3.1152   3.1501   3.1501   3.4081   3.4081   4.3647   4.3648
     4.4670   4.4670   5.1739   5.1739   5.5177   5.5177   6.2044   6.2044
     6.5548   6.5548   6.6433   6.6433   7.3878   7.3879   7.4604   7.4604
     7.4807   7.4807   7.8685   7.8685  10.6429  10.6429  11.1322  11.1322
    11.9865  11.9865  12.4132  12.4132  13.0622  13.0622  13.5998  13.5998
    14.7723  14.7723  16.1789  16.1789  17.2066  17.2066  17.6887

          k = 0.2222 0.3333 0.0000 ( 31389 PWs)   bands (ev):

   -66.2517 -66.2512 -66.2511 -66.2506 -30.6118 -30.6106 -30.5839 -30.5792
   -30.5567 -30.5488 -30.5435 -30.5333 -30.5307 -30.5283 -30.5048 -30.5015
   -20.4126 -20.4126 -20.4126 -20.4125 -20.3970 -20.3970 -20.3967 -20.3966
   -20.3956 -20.3953 -20.3946 -20.3941 -20.3941 -20.3936 -20.3929 -20.3927
   -20.3926 -20.3926 -20.3873 -20.3872 -20.3855 -20.3845 -20.3841 -20.3840
   -20.3833 -20.3832 -20.3827 -20.3818  -9.8168  -9.4826  -9.3554  -8.9149
    -8.7710  -8.6197  -8.4745  -8.4535  -7.8884  -7.8738  -7.7894  -7.7462
     1.1285   1.2123   1.3483   1.3801   2.3920   2.5821   2.7206   2.8030
     3.3462   3.5072   3.5113   3.8663   3.9626   4.0910   4.6551   4.9620
     4.9998   5.0934   5.2713   5.8375   5.8496   5.8601   5.8614   6.0287
     6.2272   6.2844   6.5088   6.5464   6.6562   6.8582   7.0769   7.5083
     7.5329   7.6330   7.9151   8.3143   9.7323  11.2215  11.2455  11.2803
    11.8566  12.4779  12.7425  12.7620  12.9848  13.1422  13.3052  13.9790
    14.0964  15.0407  15.3472  15.7701  16.5172  17.3912  17.5923

          k = 0.2222 0.3333 0.1147 ( 31379 PWs)   bands (ev):

   -66.2516 -66.2512 -66.2511 -66.2507 -30.6070 -30.6058 -30.5837 -30.5795
   -30.5573 -30.5490 -30.5466 -30.5374 -30.5309 -30.5300 -30.5046 -30.5017
   -20.4126 -20.4126 -20.4126 -20.4125 -20.3970 -20.3970 -20.3967 -20.3966
   -20.3955 -20.3953 -20.3944 -20.3941 -20.3938 -20.3934 -20.3929 -20.3927
   -20.3926 -20.3925 -20.3878 -20.3876 -20.3854 -20.3845 -20.3841 -20.3840
   -20.3833 -20.3833 -20.3828 -20.3819  -9.7653  -9.4083  -9.3694  -8.8830
    -8.7842  -8.6079  -8.4803  -8.4489  -7.9228  -7.8867  -7.8695  -7.8473
     1.2978   1.3479   1.4341   1.5198   2.4649   2.5979   2.7128   2.8613
     3.3368   3.4903   3.5024   3.8097   3.9258   4.1016   4.6992   4.7156
     4.9751   4.9931   5.0301   5.4121   5.7769   5.8214   5.8610   6.1249
     6.2734   6.4651   6.5695   6.6229   6.6554   6.9189   7.0199   7.5148
     7.5264   7.6120   7.8717   8.2268   9.9467  11.2227  11.2553  11.3534
    11.9146  12.3081  12.7373  12.7490  12.8553  13.1300  13.2183  13.9964
    14.2336  15.3204  15.4205  15.9336  16.6015  17.2654  17.6270

          k = 0.2222 0.3333 0.2293 ( 31419 PWs)   bands (ev):

   -66.2515 -66.2513 -66.2510 -66.2508 -30.5940 -30.5928 -30.5830 -30.5800
   -30.5615 -30.5576 -30.5494 -30.5459 -30.5318 -30.5314 -30.5040 -30.5023
   -20.4126 -20.4126 -20.4126 -20.4125 -20.3970 -20.3970 -20.3967 -20.3966
   -20.3954 -20.3953 -20.3942 -20.3941 -20.3932 -20.3929 -20.3927 -20.3927
   -20.3922 -20.3920 -20.3890 -20.3888 -20.3852 -20.3844 -20.3842 -20.3838
   -20.3836 -20.3832 -20.3829 -20.3822  -9.6390  -9.4159  -9.2092  -8.8366
    -8.7768  -8.5620  -8.5055  -8.4313  -8.1793  -8.1377  -7.8819  -7.8675
     1.3382   1.3465   2.1061   2.2256   2.6459   2.6823   2.6903   3.0263
     3.2715   3.3726   3.4899   3.5121   4.0957   4.1014   4.2017   4.2933
     4.7757   4.8616   4.9741   5.0495   5.0721   5.6628   5.8680   5.9357
     6.5126   6.6326   6.6540   6.8748   6.9152   7.0450   7.1583   7.4989
     7.5132   7.5664   7.7315   7.9729  10.4895  11.2239  11.2560  11.5980
    11.8492  12.1012  12.4469  12.7392  12.7723  12.8243  13.3044  13.7568
    14.6985  15.2288  16.2428  16.3553  16.9624  16.9784  17.5126

          k = 0.2222 0.3333-0.3440 ( 31414 PWs)   bands (ev):

   -66.2514 -66.2514 -66.2509 -66.2509 -30.5826 -30.5826 -30.5756 -30.5756
   -30.5744 -30.5744 -30.5493 -30.5493 -30.5319 -30.5319 -30.5032 -30.5032
   -20.4126 -20.4126 -20.4126 -20.4126 -20.3970 -20.3970 -20.3966 -20.3966
   -20.3953 -20.3953 -20.3942 -20.3942 -20.3930 -20.3930 -20.3927 -20.3927
   -20.3907 -20.3907 -20.3905 -20.3905 -20.3848 -20.3848 -20.3839 -20.3839
   -20.3835 -20.3835 -20.3826 -20.3826  -9.5061  -9.5060  -8.9761  -8.9761
    -8.6048  -8.6045  -8.4341  -8.4338  -8.3664  -8.3663  -7.8752  -7.8752
     1.3438   1.3440   2.6342   2.6343   2.9724   2.9774   2.9899   2.9997
     3.2427   3.2465   3.3677   3.3779   3.4913   3.4930   4.3496   4.3516
     4.4974   4.4980   4.9276   4.9575   5.2877   5.3193   5.8817   5.8842
     6.5952   6.6015   6.7599   6.7652   7.3460   7.3461   7.3609   7.3734
     7.4764   7.4818   7.6571   7.6624  11.1205  11.1353  11.2859  11.3055
    11.9951  12.0004  12.4185  12.4199  12.7529  12.7667  13.4928  13.5036
    15.0351  15.0408  16.6267  16.6298  17.0923  17.1037  17.6519

          k = 0.2222 0.4444 0.0000 ( 31388 PWs)   bands (ev):

   -66.2515 -66.2513 -66.2510 -66.2508 -30.6116 -30.6112 -30.5780 -30.5724
   -30.5684 -30.5618 -30.5385 -30.5357 -30.5194 -30.5179 -30.5106 -30.5078
   -20.4126 -20.4126 -20.4125 -20.4125 -20.3971 -20.3971 -20.3970 -20.3969
   -20.3952 -20.3949 -20.3949 -20.3945 -20.3939 -20.3938 -20.3926 -20.3926
   -20.3924 -20.3924 -20.3873 -20.3873 -20.3853 -20.3849 -20.3838 -20.3837
   -20.3836 -20.3835 -20.3823 -20.3820  -9.7054  -9.5859  -9.2092  -9.0107
    -8.8615  -8.7669  -8.2441  -8.2382  -8.0366  -8.0304  -7.7745  -7.7597
     1.1618   1.1891   1.6692   1.6816   2.1303   2.1501   2.4946   2.6525
     3.7039   3.9191   3.9520   4.0198   4.0649   4.3665   4.4998   4.5645
     4.6996   5.1391   5.3162   5.3374   5.6875   5.7110   5.8481   5.8767
     6.3079   6.3947   6.5025   6.7775   6.8846   6.8964   7.0217   7.1922
     7.2395   7.2958   8.1083   8.2392  10.1507  10.6881  11.7969  11.8309
    12.3152  12.3172  12.4333  12.5783  12.7469  12.8541  13.6075  13.8909
    14.3189  14.7077  15.9597  16.2921  16.7499  16.9240  17.2085

          k = 0.2222 0.4444 0.1147 ( 31394 PWs)   bands (ev):

   -66.2515 -66.2513 -66.2510 -66.2508 -30.6068 -30.6064 -30.5778 -30.5726
   -30.5684 -30.5620 -30.5428 -30.5403 -30.5197 -30.5181 -30.5105 -30.5080
   -20.4126 -20.4126 -20.4125 -20.4125 -20.3971 -20.3971 -20.3970 -20.3969
   -20.3951 -20.3949 -20.3948 -20.3945 -20.3936 -20.3935 -20.3926 -20.3926
   -20.3924 -20.3924 -20.3877 -20.3877 -20.3852 -20.3849 -20.3839 -20.3837
   -20.3836 -20.3834 -20.3824 -20.3821  -9.6483  -9.5204  -9.2225  -9.0237
    -8.8333  -8.7465  -8.2523  -8.2355  -8.0436  -8.0346  -7.8806  -7.8694
     1.4130   1.4433   1.6682   1.7037   2.1377   2.1475   2.5687   2.7247
     3.6548   3.7885   3.9419   4.0117   4.0989   4.4196   4.5025   4.5184
     4.7109   4.9127   5.0422   5.3167   5.3444   5.4803   5.9053   6.0408
     6.2877   6.3414   6.7254   6.8646   6.8863   6.9142   7.0463   7.1850
     7.2378   7.2945   8.0452   8.1608  10.3111  10.8031  11.7965  11.8293
    12.3101  12.3222  12.4176  12.4696  12.5946  12.8921  13.4867  13.7824
    14.6121  15.0478  15.9269  16.4257  16.7089  17.0140  17.2779

          k = 0.2222 0.4444 0.2293 ( 31401 PWs)   bands (ev):

   -66.2514 -66.2512 -66.2511 -66.2509 -30.5940 -30.5936 -30.5775 -30.5728
   -30.5693 -30.5622 -30.5552 -30.5520 -30.5199 -30.5187 -30.5101 -30.5086
   -20.4126 -20.4126 -20.4126 -20.4125 -20.3971 -20.3971 -20.3970 -20.3969
   -20.3950 -20.3949 -20.3946 -20.3945 -20.3929 -20.3928 -20.3926 -20.3926
   -20.3921 -20.3919 -20.3889 -20.3889 -20.3850 -20.3847 -20.3842 -20.3839
   -20.3834 -20.3831 -20.3827 -20.3824  -9.5073  -9.3535  -9.2677  -9.0702
    -8.7330  -8.6691  -8.3082  -8.2270  -8.2036  -8.1110  -8.0289  -8.0002
     1.6451   1.6653   2.0301   2.1396   2.2050   2.2517   2.7933   2.9420
     3.4327   3.4497   3.9302   3.9475   4.2715   4.2811   4.3185   4.4533
     4.4999   4.6624   4.7525   4.9128   5.2920   5.3059   5.3612   5.6016
     6.6639   6.8098   6.8545   6.9499   6.9773   7.0326   7.1610   7.1822
     7.2538   7.3115   7.8500   7.9263  10.7512  11.1369  11.7807  11.8242
    11.9854  12.1546  12.3219  12.3539  12.6061  13.0141  13.1913  13.5202
    15.1736  15.7510  15.8164  16.5693  16.7949  17.2729  17.4495

          k = 0.2222 0.4444-0.3440 ( 31434 PWs)   bands (ev):

   -66.2512 -66.2512 -66.2511 -66.2511 -30.5800 -30.5800 -30.5774 -30.5774
   -30.5697 -30.5697 -30.5611 -30.5611 -30.5194 -30.5194 -30.5094 -30.5094
   -20.4126 -20.4126 -20.4126 -20.4126 -20.3971 -20.3971 -20.3970 -20.3970
   -20.3949 -20.3949 -20.3945 -20.3945 -20.3927 -20.3927 -20.3926 -20.3926
   -20.3906 -20.3906 -20.3905 -20.3905 -20.3846 -20.3846 -20.3843 -20.3843
   -20.3831 -20.3831 -20.3828 -20.3828  -9.3612  -9.3611  -9.1765  -9.1765
    -8.5303  -8.5300  -8.4865  -8.4864  -8.2068  -8.2066  -8.0198  -8.0196
     1.6597   1.6600   2.1244   2.1246   2.9931   2.9942   3.0040   3.0078
     3.3228   3.3281   3.4018   3.4025   3.9284   3.9445   4.4075   4.4235
     4.6679   4.6745   4.8657   4.8725   4.9746   4.9948   5.4051   5.4071
     6.8049   6.8067   6.9845   6.9850   7.0923   7.1026   7.1985   7.2017
     7.5232   7.5280   7.5661   7.5721  11.3403  11.3505  11.6224  11.6329
    11.8192  11.8422  12.3216  12.3450  12.8532  12.8641  13.2276  13.2400
    15.5826  15.5931  16.2820  16.2986  17.1463  17.1767  17.5230

          k = 0.3333 0.3333 0.0000 ( 31398 PWs)   bands (ev):

   -66.2516 -66.2513 -66.2510 -66.2507 -30.6111 -30.6107 -30.5870 -30.5827
   -30.5689 -30.5623 -30.5391 -30.5346 -30.5190 -30.5174 -30.5018 -30.4984
   -20.4126 -20.4126 -20.4125 -20.4125 -20.3973 -20.3973 -20.3972 -20.3971
   -20.3953 -20.3950 -20.3945 -20.3942 -20.3941 -20.3938 -20.3925 -20.3924
   -20.3923 -20.3922 -20.3873 -20.3871 -20.3856 -20.3849 -20.3841 -20.3837
   -20.3836 -20.3833 -20.3823 -20.3817  -9.7909  -9.5605  -9.3545  -8.9926
    -8.9242  -8.7629  -8.2510  -8.2443  -7.8467  -7.8209  -7.7900  -7.7533
     1.1227   1.2058   1.2347   1.2898   2.1283   2.1474   2.3479   2.6566
     3.7136   3.8133   3.9061   4.0307   4.0455   4.6787   4.8042   4.9409
     5.0043   5.1480   5.3418   5.7027   5.7297   5.7836   5.9777   6.0741
     6.3185   6.3579   6.4039   6.4219   6.5716   6.7996   7.1208   7.1654
     7.2098   7.2980   8.1050   8.3353   9.5897  10.6886  11.6836  11.7208
    12.4009  12.4434  12.6439  12.6560  12.7539  13.2540  13.6099  13.8756
    14.1786  14.7262  15.2250  16.1129  16.7766  16.9542  17.5701

          k = 0.3333 0.3333 0.1147 ( 31388 PWs)   bands (ev):

   -66.2515 -66.2512 -66.2511 -66.2508 -30.6062 -30.6059 -30.5867 -30.5829
   -30.5689 -30.5625 -30.5436 -30.5393 -30.5193 -30.5176 -30.5015 -30.4986
   -20.4126 -20.4126 -20.4126 -20.4125 -20.3973 -20.3973 -20.3972 -20.3971
   -20.3952 -20.3950 -20.3944 -20.3942 -20.3938 -20.3935 -20.3925 -20.3924
   -20.3923 -20.3922 -20.3877 -20.3876 -20.3855 -20.3849 -20.3842 -20.3837
   -20.3837 -20.3832 -20.3824 -20.3818  -9.7404  -9.4945  -9.3673  -9.0048
    -8.8895  -8.7427  -8.2593  -8.2416  -7.9036  -7.8681  -7.8450  -7.8227
     1.2095   1.2344   1.4355   1.5040   2.1357   2.1448   2.4213   2.7303
     3.7005   3.7984   3.8086   3.8557   4.1145   4.6886   4.8540   4.9037
     4.9557   4.9582   5.0526   5.3275   5.8613   5.9057   5.9813   6.0540
     6.1409   6.3942   6.4517   6.5135   6.6472   6.8801   7.0809   7.1582
     7.1611   7.2962   8.0415   8.2439   9.8313  10.8053  11.6844  11.7191
    12.2732  12.4449  12.5703  12.6466  12.6804  13.2855  13.4899  14.0797
    14.1186  15.0627  15.1967  16.2791  16.7349  17.0488  17.6966

          k = 0.3333 0.3333 0.2293 ( 31389 PWs)   bands (ev):

   -66.2514 -66.2512 -66.2511 -66.2509 -30.5931 -30.5928 -30.5859 -30.5838
   -30.5696 -30.5627 -30.5565 -30.5515 -30.5194 -30.5182 -30.5009 -30.4992
   -20.4126 -20.4126 -20.4126 -20.4125 -20.3973 -20.3973 -20.3971 -20.3971
   -20.3951 -20.3950 -20.3943 -20.3942 -20.3929 -20.3925 -20.3924 -20.3923
   -20.3923 -20.3919 -20.3890 -20.3889 -20.3853 -20.3847 -20.3844 -20.3839
   -20.3834 -20.3829 -20.3827 -20.3821  -9.6180  -9.4096  -9.3268  -9.0489
    -8.7706  -8.6652  -8.3166  -8.2328  -8.1798  -8.1128  -7.8403  -7.8274
     1.2278   1.2335   2.0261   2.1368   2.2337   2.2507   2.6362   2.9528
     3.3956   3.4969   3.7598   3.7939   4.2731   4.3173   4.3235   4.7285
     4.8628   4.9154   4.9204   5.1041   5.2915   5.7355   5.9908   6.0560
     6.2634   6.3811   6.5381   6.8141   6.8529   7.0363   7.0988   7.1361
     7.2503   7.2928   7.8441   7.9761  10.4188  11.1417  11.6683  11.7146
    11.8247  12.1676  12.5898  12.6521  12.6651  13.1809  13.4021  13.8435
    14.5695  15.1012  15.7650  16.5983  16.6783  17.4070  17.4397

          k = 0.3333 0.3333-0.3440 ( 31406 PWs)   bands (ev):

   -66.2513 -66.2513 -66.2510 -66.2510 -30.5848 -30.5848 -30.5771 -30.5771
   -30.5746 -30.5746 -30.5614 -30.5613 -30.5189 -30.5189 -30.5001 -30.5001
   -20.4126 -20.4126 -20.4126 -20.4126 -20.3973 -20.3973 -20.3971 -20.3971
   -20.3951 -20.3951 -20.3943 -20.3943 -20.3926 -20.3926 -20.3923 -20.3923
   -20.3907 -20.3907 -20.3905 -20.3905 -20.3849 -20.3849 -20.3843 -20.3843
   -20.3831 -20.3831 -20.3825 -20.3825  -9.4926  -9.4926  -9.1514  -9.1513
    -8.5475  -8.5475  -8.4779  -8.4779  -8.2120  -8.2120  -7.8339  -7.8339
     1.2317   1.2317   2.1216   2.1216   2.9751   2.9751   3.0144   3.0144
     3.2491   3.2491   3.4190   3.4190   3.7750   3.7750   4.6135   4.6135
     4.8473   4.8473   4.9262   4.9262   5.4021   5.4021   6.0088   6.0088
     6.3437   6.3437   6.6737   6.6738   7.0671   7.0671   7.2085   7.2085
     7.5084   7.5084   7.5796   7.5796  11.1267  11.1267  11.6382  11.6382
    11.7109  11.7109  12.6574  12.6574  12.8488  12.8488  13.5896  13.5896
    14.9074  14.9074  16.3137  16.3137  17.0641  17.0641  17.8776

          k = 0.3333 0.4444 0.0000 ( 31377 PWs)   bands (ev):

   -66.2515 -66.2514 -66.2509 -66.2508 -30.6108 -30.6107 -30.5853 -30.5806
   -30.5790 -30.5734 -30.5372 -30.5358 -30.5097 -30.5069 -30.5035 -30.5003
   -20.4126 -20.4126 -20.4125 -20.4125 -20.3975 -20.3975 -20.3974 -20.3974
   -20.3949 -20.3947 -20.3947 -20.3944 -20.3941 -20.3940 -20.3923 -20.3922
   -20.3921 -20.3921 -20.3872 -20.3871 -20.3856 -20.3853 -20.3840 -20.3839
   -20.3835 -20.3833 -20.3820 -20.3818  -9.7348  -9.6523  -9.2941  -9.1715
    -8.9052  -8.8549  -8.0483  -8.0413  -7.9048  -7.8872  -7.7750  -7.7628
     1.1574   1.1894   1.3460   1.3830   1.6656   1.6798   2.3821   2.4917
     4.0121   4.0553   4.2009   4.2069   4.3454   4.6353   4.6642   4.6900
     5.2959   5.3973   5.4125   5.6847   5.7256   5.7402   5.7652   5.9534
     6.4140   6.4836   6.4861   6.5167   6.5876   6.7533   6.7836   6.9298
     6.9570   7.1378   8.2349   8.3097   9.7584  10.1625  12.1051  12.1362
    12.4326  12.4556  12.4756  12.5768  12.8481  13.1471  13.8938  14.0179
    14.1003  14.3465  15.4692  16.0291  16.5416  17.0367  17.3858

          k = 0.3333 0.4444 0.1147 ( 31379 PWs)   bands (ev):

   -66.2514 -66.2513 -66.2510 -66.2509 -30.6060 -30.6059 -30.5850 -30.5808
   -30.5788 -30.5735 -30.5420 -30.5407 -30.5096 -30.5071 -30.5033 -30.5005
   -20.4126 -20.4126 -20.4125 -20.4125 -20.3975 -20.3975 -20.3974 -20.3974
   -20.3949 -20.3947 -20.3946 -20.3944 -20.3937 -20.3936 -20.3923 -20.3922
   -20.3921 -20.3921 -20.3876 -20.3876 -20.3855 -20.3852 -20.3841 -20.3840
   -20.3834 -20.3832 -20.3821 -20.3819  -9.6824  -9.5945  -9.3062  -9.1834
    -8.8717  -8.8265  -8.0539  -8.0463  -7.9199  -7.9030  -7.8730  -7.8591
     1.3018   1.3457   1.4259   1.5170   1.6647   1.7027   2.4566   2.5673
     3.8482   3.8737   4.1701   4.2046   4.4101   4.6158   4.6600   4.7523
     5.1169   5.1367   5.3023   5.4325   5.7071   5.7651   6.0395   6.1033
     6.1200   6.3622   6.4862   6.6053   6.6968   6.7801   6.8502   6.9454
     6.9692   7.0587   8.1558   8.2211   9.9723  10.3242  12.1039  12.1342
    12.3082  12.3949  12.4392  12.4674  12.8845  13.1807  13.7836  13.9983
    14.2749  14.6373  15.4386  15.9948  16.7041  17.1812  17.4670

          k = 0.3333 0.4444 0.2293 ( 31420 PWs)   bands (ev):

   -66.2513 -66.2512 -66.2511 -66.2510 -30.5932 -30.5929 -30.5843 -30.5812
   -30.5784 -30.5737 -30.5553 -30.5538 -30.5092 -30.5077 -30.5027 -30.5011
   -20.4126 -20.4126 -20.4126 -20.4125 -20.3975 -20.3975 -20.3974 -20.3974
   -20.3948 -20.3947 -20.3945 -20.3945 -20.3927 -20.3925 -20.3923 -20.3922
   -20.3920 -20.3919 -20.3889 -20.3889 -20.3852 -20.3850 -20.3844 -20.3842
   -20.3831 -20.3829 -20.3824 -20.3822  -9.5559  -9.4532  -9.3468  -9.2244
    -8.7539  -8.7226  -8.2134  -8.1873  -8.0405  -8.0100  -7.8981  -7.8832
     1.3366   1.3445   1.6418   1.6618   2.2001   2.2199   2.6791   2.7974
     3.4287   3.4781   4.1662   4.1946   4.3209   4.3443   4.5650   4.6044
     4.6972   4.9476   5.2525   5.3249   5.5731   5.6080   5.7791   5.9104
     6.3325   6.4631   6.5782   6.6810   6.7596   6.9094   6.9711   6.9961
     7.0735   7.1180   7.9168   7.9587  10.5143  10.7657  11.8329  11.9607
    12.1200  12.1317  12.4414  12.4552  13.0058  13.2904  13.5171  13.7533
    14.7616  15.2088  15.3365  15.8806  17.1034  17.5435  17.6958

          k = 0.3333 0.4444-0.3440 ( 31436 PWs)   bands (ev):

   -66.2512 -66.2512 -66.2511 -66.2511 -30.5838 -30.5838 -30.5802 -30.5802
   -30.5731 -30.5731 -30.5695 -30.5695 -30.5085 -30.5085 -30.5019 -30.5019
   -20.4126 -20.4126 -20.4126 -20.4126 -20.3975 -20.3975 -20.3974 -20.3974
   -20.3948 -20.3948 -20.3945 -20.3945 -20.3923 -20.3923 -20.3922 -20.3922
   -20.3906 -20.3906 -20.3906 -20.3906 -20.3848 -20.3848 -20.3846 -20.3846
   -20.3828 -20.3828 -20.3826 -20.3826  -9.4285  -9.4285  -9.3113  -9.3113
    -8.5216  -8.5215  -8.5021  -8.5021  -8.0310  -8.0309  -7.8912  -7.8911
     1.3420   1.3421   1.6564   1.6565   2.9854   2.9867   3.0032   3.0047
     3.2718   3.2725   3.3372   3.3376   4.1772   4.1849   4.5989   4.6102
     4.9578   4.9636   5.2451   5.2596   5.3810   5.3852   5.8068   5.8105
     6.4237   6.4248   6.7075   6.7114   6.7884   6.7897   7.0046   7.0056
     7.5292   7.5308   7.5498   7.5518  11.1916  11.1931  11.3634  11.3651
    12.1214  12.1273  12.4447  12.4515  13.2226  13.2268  13.4868  13.4915
    15.1269  15.1308  15.6412  15.6456  17.4344  17.4452  17.7639

          k = 0.4444 0.4444 0.0000 ( 31372 PWs)   bands (ev):

   -66.2514 -66.2514 -66.2509 -66.2509 -30.6103 -30.6102 -30.5881 -30.5859
   -30.5837 -30.5811 -30.5365 -30.5361 -30.5030 -30.5008 -30.4998 -30.4975
   -20.4126 -20.4126 -20.4125 -20.4125 -20.3977 -20.3977 -20.3977 -20.3977
   -20.3948 -20.3947 -20.3946 -20.3945 -20.3941 -20.3941 -20.3920 -20.3920
   -20.3919 -20.3919 -20.3871 -20.3871 -20.3857 -20.3856 -20.3841 -20.3841
   -20.3833 -20.3832 -20.3818 -20.3817  -9.7389  -9.7095  -9.3187  -9.2772
    -8.9173  -8.9017  -7.9113  -7.8927  -7.8590  -7.8326  -7.7773  -7.7689
     1.1434   1.1728   1.2323   1.2963   1.3444   1.3837   2.3407   2.3792
     4.1131   4.1294   4.4365   4.5043   4.6505   4.6607   4.7021   4.8041
     5.4533   5.4711   5.5508   5.6075   5.7402   5.9127   5.9412   6.0392
     6.2924   6.4069   6.4354   6.4466   6.5000   6.5199   6.5759   6.6034
     7.1219   7.2101   8.3079   8.3322   9.6082   9.7661  12.3386  12.3664
    12.4405  12.4502  12.4636  12.4859  13.1437  13.2514  13.8961  14.0275
    14.1020  14.1809  15.2912  15.4986  16.7979  16.9896  17.5804

          k = 0.4444 0.4444 0.1147 ( 31402 PWs)   bands (ev):

   -66.2514 -66.2514 -66.2509 -66.2509 -30.6054 -30.6053 -30.5878 -30.5856
   -30.5840 -30.5813 -30.5415 -30.5411 -30.5028 -30.5006 -30.5000 -30.4977
   -20.4126 -20.4126 -20.4125 -20.4125 -20.3977 -20.3977 -20.3977 -20.3977
   -20.3947 -20.3946 -20.3946 -20.3945 -20.3937 -20.3936 -20.3920 -20.3920
   -20.3919 -20.3919 -20.3876 -20.3875 -20.3856 -20.3855 -20.3842 -20.3842
   -20.3832 -20.3832 -20.3819 -20.3818  -9.6883  -9.6571  -9.3304  -9.2888
    -8.8818  -8.8679  -7.9209  -7.9095  -7.8949  -7.8619  -7.8573  -7.8344
     1.2105   1.2321   1.3032   1.3440   1.5029   1.5207   2.4152   2.4545
     3.8801   3.8992   4.4471   4.5028   4.6545   4.6971   4.7177   4.8687
     5.1558   5.1699   5.5879   5.6976   5.7451   5.9172   6.0287   6.0947
     6.2162   6.2788   6.3386   6.4291   6.4756   6.6224   6.6649   6.7193
     7.0452   7.0842   8.2190   8.2401   9.8490   9.9801  12.2669  12.3024
    12.3437  12.3649  12.4528  12.4758  13.1769  13.2842  13.9990  14.0804
    14.1411  14.2847  15.2617  15.4678  16.9927  17.1906  17.6361

          k = 0.4444 0.4444 0.2293 ( 31414 PWs)   bands (ev):

   -66.2513 -66.2513 -66.2510 -66.2510 -30.5925 -30.5919 -30.5870 -30.5849
   -30.5848 -30.5817 -30.5550 -30.5546 -30.5023 -30.5006 -30.5000 -30.4983
   -20.4126 -20.4126 -20.4126 -20.4125 -20.3977 -20.3977 -20.3977 -20.3977
   -20.3947 -20.3946 -20.3946 -20.3945 -20.3925 -20.3924 -20.3920 -20.3920
   -20.3920 -20.3919 -20.3889 -20.3889 -20.3853 -20.3852 -20.3845 -20.3844
   -20.3829 -20.3829 -20.3822 -20.3821  -9.5671  -9.5312  -9.3691  -9.3276
    -8.7577  -8.7483  -8.1909  -8.1852  -7.9045  -7.8893  -7.8525  -7.8393
     1.2263   1.2314   1.3354   1.3429   2.2173   2.2289   2.6342   2.6794
     3.4256   3.4469   4.3297   4.3396   4.4631   4.4962   4.6583   4.6865
     4.9136   5.0595   5.5057   5.6390   5.7591   5.9071   5.9307   6.0306
     6.1725   6.2719   6.3022   6.4093   6.5596   6.6939   6.8676   6.9176
     7.0491   7.0640   7.9547   7.9682  10.4342  10.5214  11.7995  11.8406
    12.3479  12.3605  12.4585  12.4710  13.2864  13.3904  13.7517  13.8402
    14.6067  14.7779  15.1630  15.3648  17.4726  17.7992  17.8176

          k = 0.4444 0.4444-0.3440 ( 31454 PWs)   bands (ev):

   -66.2512 -66.2512 -66.2511 -66.2511 -30.5859 -30.5859 -30.5842 -30.5842
   -30.5735 -30.5735 -30.5726 -30.5726 -30.5014 -30.5014 -30.4992 -30.4992
   -20.4126 -20.4126 -20.4126 -20.4126 -20.3977 -20.3977 -20.3977 -20.3977
   -20.3947 -20.3946 -20.3946 -20.3945 -20.3920 -20.3920 -20.3920 -20.3920
   -20.3907 -20.3907 -20.3906 -20.3906 -20.3849 -20.3849 -20.3848 -20.3848
   -20.3826 -20.3826 -20.3825 -20.3825  -9.4465  -9.4465  -9.4064  -9.4064
    -8.5159  -8.5159  -8.5102  -8.5102  -7.8974  -7.8974  -7.8459  -7.8459
     1.2298   1.2298   1.3407   1.3407   2.9824   2.9824   2.9912   2.9912
     3.2528   3.2528   3.2747   3.2747   4.4804   4.4804   4.6712   4.6712
     5.2110   5.2110   5.3499   5.3499   5.7922   5.7922   5.9554   5.9554
     6.2381   6.2381   6.3714   6.3714   6.6916   6.6916   6.7972   6.7972
     7.5376   7.5376   7.5449   7.5449  11.1416  11.1416  11.1988  11.1988
    12.3544  12.3544  12.4649  12.4649  13.4847  13.4847  13.5824  13.5824
    14.9615  14.9615  15.1537  15.1537  17.7578  17.7581  17.9199

     the Fermi energy is     9.2589 ev

!    total energy              =   -3130.35372602 Ry
     Harris-Foulkes estimate   =   -3130.35372602 Ry
     estimated scf accuracy    <          1.0E-09 Ry

     The total energy is the sum of the following terms:

     one-electron contribution =   -2384.14703087 Ry
     hartree contribution      =    1310.15963703 Ry
     xc contribution           =    -483.08407920 Ry
     ewald contribution        =   -1573.28222529 Ry
     smearing contrib. (-TS)   =      -0.00002768 Ry

     convergence has been achieved in  12 iterations

     Writing output data file chempot_4.save/
 
     init_run     :      9.24s CPU      9.93s WALL (       1 calls)
     electrons    :    351.97s CPU    358.69s WALL (       1 calls)

     Called by init_run:
     wfcinit      :      8.44s CPU      8.98s WALL (       1 calls)
     potinit      :      0.28s CPU      0.30s WALL (       1 calls)
     hinit0       :      0.40s CPU      0.49s WALL (       1 calls)

     Called by electrons:
     c_bands      :    304.68s CPU    310.61s WALL (      12 calls)
     sum_band     :     44.28s CPU     44.48s WALL (      12 calls)
     v_of_rho     :      0.67s CPU      0.69s WALL (      13 calls)
     mix_rho      :      0.88s CPU      1.04s WALL (      12 calls)

     Called by c_bands:
     init_us_2    :      1.81s CPU      1.96s WALL (      50 calls)
     cegterg      :    247.84s CPU    253.42s WALL (      24 calls)

     Called by sum_band:

     Called by *egterg:
     h_psi        :    199.22s CPU    201.96s WALL (      91 calls)
     g_psi        :      0.40s CPU      0.41s WALL (      65 calls)
     cdiaghg      :      2.55s CPU      2.61s WALL (      89 calls)

     Called by h_psi:
     h_psi:pot    :    198.55s CPU    199.73s WALL (      91 calls)
     h_psi:calbec :     20.90s CPU     21.31s WALL (      91 calls)
     vloc_psi     :    155.15s CPU    155.78s WALL (      91 calls)
     add_vuspsi   :     22.49s CPU     22.64s WALL (      91 calls)

     General routines
     calbec       :     20.90s CPU     21.31s WALL (      91 calls)
     fft          :      0.38s CPU      0.44s WALL (      39 calls)
     ffts         :      0.13s CPU      0.13s WALL (      12 calls)
     fftw         :    161.87s CPU    162.34s WALL (   15810 calls)
 
     Parallel routines
 
     PWSCF        :   6m 9.17s CPU   6m17.63s WALL

 
   This run was terminated on:  14:37:52  17Dec2019            

=------------------------------------------------------------------------------=
   JOB DONE.
=------------------------------------------------------------------------------=
