
     Program PWSCF v.6.2 (svn rev. 14038) starts on 17Sep2019 at 14:27:15 

     This program is part of the open-source Quantum ESPRESSO suite
     for quantum simulation of materials; please cite
         "P. Giannozzi et al., J. Phys.:Condens. Matter 21 395502 (2009);
         "P. Giannozzi et al., J. Phys.:Condens. Matter 29 465901 (2017);
          URL http://www.quantum-espresso.org", 
     in publications or presentations arising from this work. More details at
     http://www.quantum-espresso.org/quote

     Parallel version (MPI), running on    40 processors

     MPI processes distributed on     2 nodes
     K-points division:     npool     =      40
     Reading input from scf.in

     Current dimensions of program PWSCF are:
     Max number of different atomic species (ntypx) = 10
     Max number of k-points (npk) =  40000
     Max angular momentum in pseudopotentials (lmaxx) =  3

     Subspace diagonalization in iterative solution of the eigenvalue problem:
     a serial algorithm will be used

 
     G-vector sticks info
     --------------------
     sticks:   dense  smooth     PW     G-vecs:    dense   smooth      PW
     Sum        7701    7701   2071               495445   495445   68765
 


     bravais-lattice index     =            0
     lattice parameter (alat)  =      13.8521  a.u.
     unit-cell volume          =    2790.4208 (a.u.)^3
     number of atoms/cell      =           32
     number of atomic types    =            2
     number of electrons       =       369.00
     number of Kohn-Sham states=          222
     kinetic-energy cutoff     =     120.0000  Ry
     charge density cutoff     =     480.0000  Ry
     convergence threshold     =      1.0E-08
     mixing beta               =       0.7000
     number of iterations used =            8  plain     mixing
     Exchange-correlation      = SLA PW NOGX NOGC ( 1  4  0  0 0 0)

     celldm(1)=  13.852081  celldm(2)=   0.000000  celldm(3)=   0.000000
     celldm(4)=   0.000000  celldm(5)=   0.000000  celldm(6)=   0.000000

     crystal axes: (cart. coord. in units of alat)
               a(1) = (   1.000000   0.000000   0.000000 )  
               a(2) = (   0.000000   1.049844   0.000000 )  
               a(3) = (   0.000000   0.000000   1.000000 )  

     reciprocal axes: (cart. coord. in units 2 pi/alat)
               b(1) = (  1.000000  0.000000  0.000000 )  
               b(2) = (  0.000000  0.952523  0.000000 )  
               b(3) = (  0.000000  0.000000  1.000000 )  


     PseudoPot. # 1 for W  read from file:
     /cluster/scratch/mnoe/QE/pps/W_ONCV_LDA-4.0.upf
     MD5 check sum: ba0307d5d4cd419d6f1d13dc49d7c13a
     Pseudo is Norm-conserving + core correction, Zval = 28.0
     Generated using ONCVPSP code by D. R. Hamann
     Using radial grid of 1380 points,  8 beta functions with: 
                l(1) =   0
                l(2) =   0
                l(3) =   1
                l(4) =   1
                l(5) =   2
                l(6) =   2
                l(7) =   3
                l(8) =   3

     PseudoPot. # 2 for O  read from file:
     /cluster/scratch/mnoe/QE/pps/O_ONCV_LDA-3.0.upf
     MD5 check sum: ca1549d10c4e927e51167f6fca52ae32
     Pseudo is Norm-conserving + core correction, Zval =  6.0
     Generated using ONCVPSP code by D. R. Hamann
     Using radial grid of  926 points,  5 beta functions with: 
                l(1) =   0
                l(2) =   0
                l(3) =   1
                l(4) =   1
                l(5) =   2

     atomic species   valence    mass     pseudopotential
        W             28.00   183.84000     W ( 1.00)
        O              6.00    15.99940     O ( 1.00)

      8 Sym. Ops. (no inversion) found ( 4 have fractional translation)



   Cartesian axes

     site n.     atom                  positions (alat units)
         1           W   tau(   1) = (   0.2652900   0.2959090   0.2504300  )
         2           W   tau(   2) = (  -0.2504299   0.7539348  -0.7347100  )
         3           W   tau(   3) = (   0.2347100   0.2290129   0.7504300  )
         4           W   tau(   4) = (   0.7504300   0.8208308   0.7652900  )
         5           W   tau(   5) = (   0.7347100   0.2959090   0.7495700  )
         6           W   tau(   6) = (   0.2504300   0.7539348   0.7347100  )
         7           W   tau(   7) = (  -0.2347100   0.2290129  -0.7504299  )
         8           W   tau(   8) = (   0.2495700   0.8208308   0.2347100  )
         9           O   tau(   9) = (   0.2668100   0.0087347   0.2621900  )
        10           O   tau(  10) = (  -0.2621901   1.0411090  -0.7331900  )
        11           O   tau(  11) = (   0.2331900   0.5161871   0.7621901  )
        12           O   tau(  12) = (   0.7621900   0.5336565   0.7668100  )
        13           O   tau(  13) = (   0.7331900   0.0087347   0.7378100  )
        14           O   tau(  14) = (   0.2621900   1.0411090   0.7331900  )
        15           O   tau(  15) = (  -0.2331900   0.5161871  -0.7621901  )
        16           O   tau(  16) = (   0.2378100   0.5336565   0.2331900  )
        17           O   tau(  17) = (   0.4945900   0.2814946   0.6995400  )
        18           O   tau(  18) = (   0.4988900   0.7751731   0.8004600  )
        19           O   tau(  19) = (  -0.9945900   0.2434273   1.1995400  )
        20           O   tau(  20) = (   0.0011100   0.7995924   0.3004600  )
        21           O   tau(  21) = (   0.5054100   0.2814946   0.3004600  )
        22           O   tau(  22) = (   0.5011100   0.7751731   1.1995400  )
        23           O   tau(  23) = (  -0.0054101   0.2434273   0.8004600  )
        24           O   tau(  24) = (  -1.0011100   0.7995924   0.6995400  )
        25           O   tau(  25) = (   0.6995400   0.2502513   2.0011100  )
        26           O   tau(  26) = (   0.3004600   0.7683491   0.4945900  )
        27           O   tau(  27) = (   0.8004600   0.2746706   0.5011100  )
        28           O   tau(  28) = (   0.1995400   0.8064165   1.9945900  )
        29           O   tau(  29) = (   0.3004600   0.2502513   0.9988900  )
        30           O   tau(  30) = (   0.6995400   0.7683491   0.5054100  )
        31           O   tau(  31) = (   0.1995400   0.2746706   0.4988900  )
        32           O   tau(  32) = (   0.8004600   0.8064165   1.0054101  )

     number of k points=    40  gaussian smearing, width (Ry)=  0.0007
                       cart. coord. in units 2pi/alat
        k(    1) = (   0.0000000   0.0000000   0.0000000), wk =   0.0092593
        k(    2) = (   0.0000000   0.0000000   0.1666667), wk =   0.0370370
        k(    3) = (   0.0000000   0.0000000   0.3333333), wk =   0.0370370
        k(    4) = (   0.0000000   0.0000000  -0.5000000), wk =   0.0185185
        k(    5) = (   0.0000000   0.1587538   0.0000000), wk =   0.0185185
        k(    6) = (   0.0000000   0.1587538   0.1666667), wk =   0.0740741
        k(    7) = (   0.0000000   0.1587538   0.3333333), wk =   0.0740741
        k(    8) = (   0.0000000   0.1587538  -0.5000000), wk =   0.0370370
        k(    9) = (   0.0000000   0.3175076   0.0000000), wk =   0.0185185
        k(   10) = (   0.0000000   0.3175076   0.1666667), wk =   0.0740741
        k(   11) = (   0.0000000   0.3175076   0.3333333), wk =   0.0740741
        k(   12) = (   0.0000000   0.3175076  -0.5000000), wk =   0.0370370
        k(   13) = (   0.0000000  -0.4762614   0.0000000), wk =   0.0092593
        k(   14) = (   0.0000000  -0.4762614   0.1666667), wk =   0.0370370
        k(   15) = (   0.0000000  -0.4762614   0.3333333), wk =   0.0370370
        k(   16) = (   0.0000000  -0.4762614  -0.5000000), wk =   0.0185185
        k(   17) = (   0.1666667   0.0000000   0.1666667), wk =   0.0370370
        k(   18) = (   0.1666667   0.0000000   0.3333333), wk =   0.0740741
        k(   19) = (   0.1666667   0.0000000  -0.5000000), wk =   0.0370370
        k(   20) = (   0.1666667   0.1587538   0.1666667), wk =   0.0740741
        k(   21) = (   0.1666667   0.1587538   0.3333333), wk =   0.1481481
        k(   22) = (   0.1666667   0.1587538  -0.5000000), wk =   0.0740741
        k(   23) = (   0.1666667   0.3175076   0.1666667), wk =   0.0740741
        k(   24) = (   0.1666667   0.3175076   0.3333333), wk =   0.1481481
        k(   25) = (   0.1666667   0.3175076  -0.5000000), wk =   0.0740741
        k(   26) = (   0.1666667  -0.4762614   0.1666667), wk =   0.0370370
        k(   27) = (   0.1666667  -0.4762614   0.3333333), wk =   0.0740741
        k(   28) = (   0.1666667  -0.4762614  -0.5000000), wk =   0.0370370
        k(   29) = (   0.3333333   0.0000000   0.3333333), wk =   0.0370370
        k(   30) = (   0.3333333   0.0000000  -0.5000000), wk =   0.0370370
        k(   31) = (   0.3333333   0.1587538   0.3333333), wk =   0.0740741
        k(   32) = (   0.3333333   0.1587538  -0.5000000), wk =   0.0740741
        k(   33) = (   0.3333333   0.3175076   0.3333333), wk =   0.0740741
        k(   34) = (   0.3333333   0.3175076  -0.5000000), wk =   0.0740741
        k(   35) = (   0.3333333  -0.4762614   0.3333333), wk =   0.0370370
        k(   36) = (   0.3333333  -0.4762614  -0.5000000), wk =   0.0370370
        k(   37) = (  -0.5000000   0.0000000  -0.5000000), wk =   0.0092593
        k(   38) = (  -0.5000000   0.1587538  -0.5000000), wk =   0.0185185
        k(   39) = (  -0.5000000   0.3175076  -0.5000000), wk =   0.0185185
        k(   40) = (  -0.5000000  -0.4762614  -0.5000000), wk =   0.0092593

     Dense  grid:   495445 G-vectors     FFT dimensions: ( 100, 108, 100)

     Estimated max dynamical RAM per process >       2.71 GB

     Estimated total dynamical RAM >     108.48 GB

     Initial potential from superposition of free atoms

     starting charge  367.99656, renormalised to  369.00000
     Starting wfc are  232 randomized atomic wfcs

     total cpu time spent up to now is       26.3 secs

     Self-consistent Calculation

     iteration #  1     ecut=   120.00 Ry     beta= 0.70
     Davidson diagonalization with overlap
     ethr =  1.00E-02,  avg # of iterations =  5.6

     total cpu time spent up to now is      115.3 secs

     total energy              =   -6253.08415569 Ry
     Harris-Foulkes estimate   =   -6264.01670318 Ry
     estimated scf accuracy    <      13.72695918 Ry

     iteration #  2     ecut=   120.00 Ry     beta= 0.70
     Davidson diagonalization with overlap
     ethr =  3.72E-03,  avg # of iterations =  3.8

     total cpu time spent up to now is      202.1 secs

     total energy              =   -6250.16132031 Ry
     Harris-Foulkes estimate   =   -6269.87385974 Ry
     estimated scf accuracy    <      52.04659545 Ry

     iteration #  3     ecut=   120.00 Ry     beta= 0.70
     Davidson diagonalization with overlap
     ethr =  3.72E-03,  avg # of iterations =  3.4

     total cpu time spent up to now is      283.8 secs

     total energy              =   -6260.36486960 Ry
     Harris-Foulkes estimate   =   -6260.62619133 Ry
     estimated scf accuracy    <       0.88348115 Ry

     iteration #  4     ecut=   120.00 Ry     beta= 0.70
     Davidson diagonalization with overlap
     ethr =  2.39E-04,  avg # of iterations =  2.8

     total cpu time spent up to now is      351.8 secs

     total energy              =   -6260.35609302 Ry
     Harris-Foulkes estimate   =   -6260.42950836 Ry
     estimated scf accuracy    <       0.22933319 Ry

     iteration #  5     ecut=   120.00 Ry     beta= 0.70
     Davidson diagonalization with overlap
     ethr =  6.21E-05,  avg # of iterations =  5.3

     total cpu time spent up to now is      423.5 secs

     total energy              =   -6260.35767543 Ry
     Harris-Foulkes estimate   =   -6260.38905845 Ry
     estimated scf accuracy    <       0.06958695 Ry

     iteration #  6     ecut=   120.00 Ry     beta= 0.70
     Davidson diagonalization with overlap
     ethr =  1.89E-05,  avg # of iterations =  5.8

     total cpu time spent up to now is      500.8 secs

     total energy              =   -6260.37261168 Ry
     Harris-Foulkes estimate   =   -6260.37536258 Ry
     estimated scf accuracy    <       0.00703370 Ry

     iteration #  7     ecut=   120.00 Ry     beta= 0.70
     Davidson diagonalization with overlap
     ethr =  1.91E-06,  avg # of iterations =  5.3

     total cpu time spent up to now is      574.0 secs

     total energy              =   -6260.37359783 Ry
     Harris-Foulkes estimate   =   -6260.37367034 Ry
     estimated scf accuracy    <       0.00012228 Ry

     iteration #  8     ecut=   120.00 Ry     beta= 0.70
     Davidson diagonalization with overlap
     ethr =  3.31E-08,  avg # of iterations =  3.1

     total cpu time spent up to now is      662.6 secs

     total energy              =   -6260.37365966 Ry
     Harris-Foulkes estimate   =   -6260.37367397 Ry
     estimated scf accuracy    <       0.00006089 Ry

     iteration #  9     ecut=   120.00 Ry     beta= 0.70
     Davidson diagonalization with overlap
     ethr =  1.65E-08,  avg # of iterations =  1.0

     total cpu time spent up to now is      725.1 secs

     total energy              =   -6260.37365617 Ry
     Harris-Foulkes estimate   =   -6260.37366299 Ry
     estimated scf accuracy    <       0.00001957 Ry

     iteration # 10     ecut=   120.00 Ry     beta= 0.70
     Davidson diagonalization with overlap
     ethr =  5.30E-09,  avg # of iterations =  2.8

     total cpu time spent up to now is      791.5 secs

     total energy              =   -6260.37365843 Ry
     Harris-Foulkes estimate   =   -6260.37365900 Ry
     estimated scf accuracy    <       0.00000134 Ry

     iteration # 11     ecut=   120.00 Ry     beta= 0.70
     Davidson diagonalization with overlap
     ethr =  3.62E-10,  avg # of iterations =  3.0

     total cpu time spent up to now is      872.0 secs

     total energy              =   -6260.37365876 Ry
     Harris-Foulkes estimate   =   -6260.37365883 Ry
     estimated scf accuracy    <       0.00000019 Ry

     iteration # 12     ecut=   120.00 Ry     beta= 0.70
     Davidson diagonalization with overlap
     ethr =  5.25E-11,  avg # of iterations =  2.0

     total cpu time spent up to now is      936.6 secs

     total energy              =   -6260.37365876 Ry
     Harris-Foulkes estimate   =   -6260.37365877 Ry
     estimated scf accuracy    <       0.00000003 Ry

     iteration # 13     ecut=   120.00 Ry     beta= 0.70
     Davidson diagonalization with overlap
     ethr =  9.03E-12,  avg # of iterations =  2.9

     total cpu time spent up to now is     1021.8 secs

     End of self-consistent calculation

          k = 0.0000 0.0000 0.0000 ( 61855 PWs)   bands (ev):

   -65.8457 -65.8452 -65.8447 -65.8447 -65.8442 -65.8442 -65.8437 -65.8432
   -30.3118 -30.3049 -30.3049 -30.2980 -30.2655 -30.2522 -30.2522 -30.2382
   -30.2184 -30.2031 -30.2031 -30.1985 -30.1722 -30.1705 -30.1685 -30.1685
   -30.1211 -30.1191 -30.1191 -30.1165 -30.0740 -30.0739 -30.0693 -30.0679
   -19.9924 -19.9920 -19.9920 -19.9916 -19.9883 -19.9876 -19.9876 -19.9869
   -19.9854 -19.9847 -19.9847 -19.9842 -19.9840 -19.9837 -19.9837 -19.9835
   -19.9789 -19.9784 -19.9784 -19.9782 -19.9778 -19.9777 -19.9777 -19.9769
   -19.9762 -19.9761 -19.9757 -19.9757 -19.9748 -19.9748 -19.9747 -19.9744
   -19.9630 -19.9628 -19.9625 -19.9624 -19.9622 -19.9622 -19.9618 -19.9617
   -19.9306 -19.9306 -19.9292 -19.9292 -19.9284 -19.9284 -19.9275 -19.9275
   -19.9248 -19.9248 -19.9242 -19.9241 -19.9231 -19.9231 -19.9214 -19.9214
    -9.8150  -9.5054  -9.3757  -9.3757  -9.0532  -9.0532  -8.9642  -8.8515
    -8.8463  -8.7402  -8.7001  -8.7001  -7.7769  -7.6827  -7.6820  -7.6820
    -7.6602  -7.6163  -7.5886  -7.5747  -7.5265  -7.5265  -7.4309  -7.4309
     1.4374   1.4466   1.4868   1.4868   1.5561   1.5614   1.5614   1.7629
     1.7838   1.7838   1.8585   2.0485   2.5373   2.6262   2.6557   2.7135
     2.8413   2.8413   4.2850   4.2850   4.5434   4.5466   4.8312   4.9519
     4.9631   4.9631   5.0034   5.0034   5.1948   5.1948   5.2848   5.5325
     5.5346   5.6293   5.6293   5.6937   5.6937   5.7953   5.7953   5.9586
     5.9587   5.9631   5.9833   5.9942   6.0674   6.0913   6.0978   6.2669
     6.2729   6.4029   6.4252   6.6431   6.6431   6.8712   6.9411   6.9411
     6.9758   6.9823   7.0692   7.1481   7.1710   7.1710   7.4031   7.4031
     7.5785   7.5785   7.8861   7.9046   8.1570   8.1570   8.1725   8.2572
     9.6999   9.7137  10.2454  10.2623  10.2772  10.2772  12.4595  12.4595
    12.4747  12.4747  12.6837  12.6837  12.7188  12.8298  12.8331  12.9974
    13.3573  13.5311  13.5311  13.5315  13.8862  14.1559  14.1559  14.2988
    14.5439  14.7677  14.7677  14.9435  15.6662  15.6677  15.7157  16.2283
    16.2283  16.9340  17.1680  17.1680  17.5176  17.5874

          k = 0.0000 0.0000 0.1667 ( 61898 PWs)   bands (ev):

   -65.8456 -65.8451 -65.8447 -65.8446 -65.8443 -65.8441 -65.8437 -65.8433
   -30.3112 -30.3053 -30.3043 -30.2984 -30.2639 -30.2527 -30.2504 -30.2387
   -30.2155 -30.2035 -30.1987 -30.1962 -30.1709 -30.1690 -30.1652 -30.1618
   -30.1258 -30.1253 -30.1186 -30.1185 -30.0804 -30.0749 -30.0736 -30.0690
   -19.9924 -19.9920 -19.9920 -19.9916 -19.9882 -19.9877 -19.9876 -19.9869
   -19.9853 -19.9848 -19.9847 -19.9843 -19.9840 -19.9837 -19.9837 -19.9835
   -19.9788 -19.9784 -19.9783 -19.9781 -19.9777 -19.9777 -19.9775 -19.9768
   -19.9763 -19.9762 -19.9758 -19.9757 -19.9750 -19.9748 -19.9748 -19.9744
   -19.9629 -19.9628 -19.9625 -19.9624 -19.9622 -19.9622 -19.9618 -19.9617
   -19.9305 -19.9303 -19.9293 -19.9289 -19.9283 -19.9282 -19.9276 -19.9271
   -19.9251 -19.9247 -19.9245 -19.9244 -19.9234 -19.9230 -19.9218 -19.9215
    -9.7694  -9.4522  -9.3932  -9.3183  -9.0686  -8.9734  -8.9689  -8.8155
    -8.8094  -8.7225  -8.7053  -8.6649  -7.8285  -7.7403  -7.7102  -7.6923
    -7.6863  -7.6588  -7.6292  -7.6199  -7.5709  -7.5550  -7.5359  -7.4406
     1.4853   1.4877   1.5520   1.5655   1.6185   1.6503   1.7561   1.7792
     1.7822   1.8976   2.0253   2.1772   2.6224   2.6852   2.7173   2.7829
     2.8321   2.9324   4.2074   4.2818   4.4974   4.5380   4.5688   4.6155
     4.7266   4.9100   4.9401   5.0064   5.0218   5.1849   5.2645   5.4295
     5.5375   5.5684   5.6088   5.6402   5.7087   5.7463   5.7895   5.7974
     5.8629   5.8856   5.9374   6.0387   6.1280   6.1285   6.1729   6.2661
     6.3837   6.4661   6.6244   6.6328   6.8128   6.8370   6.8549   6.8754
     6.9697   6.9796   7.0148   7.0921   7.1588   7.1745   7.2502   7.2729
     7.3646   7.4270   7.9060   7.9155   8.1181   8.1507   8.1709   8.2438
     9.9950  10.0163  10.2684  10.2747  10.4929  10.5560  12.3903  12.4217
    12.5051  12.5344  12.5999  12.7092  12.7546  12.8765  12.8930  13.0217
    13.2472  13.4330  13.5024  13.5344  13.9392  14.0954  14.1548  14.2229
    14.5394  14.7620  14.8247  15.0513  15.6806  15.6909  15.7033  16.1978
    16.5148  16.8921  17.0972  17.3489  17.5933  17.6467

          k = 0.0000 0.0000 0.3333 ( 61946 PWs)   bands (ev):

   -65.8454 -65.8450 -65.8449 -65.8445 -65.8444 -65.8440 -65.8439 -65.8435
   -30.3097 -30.3064 -30.3029 -30.2995 -30.2604 -30.2543 -30.2466 -30.2403
   -30.2103 -30.2048 -30.1877 -30.1846 -30.1706 -30.1686 -30.1487 -30.1442
   -30.1419 -30.1415 -30.1213 -30.1165 -30.0979 -30.0914 -30.0727 -30.0701
   -19.9923 -19.9921 -19.9919 -19.9917 -19.9881 -19.9878 -19.9875 -19.9871
   -19.9852 -19.9849 -19.9846 -19.9844 -19.9840 -19.9838 -19.9837 -19.9835
   -19.9787 -19.9784 -19.9781 -19.9778 -19.9777 -19.9774 -19.9771 -19.9766
   -19.9765 -19.9765 -19.9762 -19.9756 -19.9755 -19.9751 -19.9748 -19.9746
   -19.9628 -19.9626 -19.9625 -19.9623 -19.9623 -19.9621 -19.9619 -19.9618
   -19.9303 -19.9296 -19.9296 -19.9281 -19.9280 -19.9278 -19.9274 -19.9262
   -19.9261 -19.9254 -19.9252 -19.9242 -19.9240 -19.9227 -19.9226 -19.9219
    -9.6584  -9.4466  -9.3256  -9.1861  -9.1159  -9.0042  -8.7652  -8.7304
    -8.7192  -8.6784  -8.6046  -8.5324  -8.1042  -7.9991  -7.9887  -7.8907
    -7.7240  -7.6980  -7.6543  -7.6325  -7.6298  -7.5618  -7.5422  -7.4671
     1.4909   1.4987   1.5767   1.5953   1.7140   1.7392   1.7418   1.7720
     2.4334   2.5051   2.6420   2.7156   2.7403   2.8242   2.8719   2.9806
     3.0201   3.1773   3.8822   3.9562   4.0158   4.1038   4.2676   4.4536
     4.5085   4.6594   4.6888   4.8514   4.8635   4.9546   5.1100   5.1989
     5.2860   5.3440   5.4621   5.4702   5.5998   5.6315   5.7411   5.8136
     5.8402   5.8806   5.9225   6.0900   6.1492   6.2429   6.2911   6.3637
     6.4863   6.5035   6.5457   6.6212   6.6621   6.6814   6.7634   6.9119
     6.9136   6.9654   6.9787   7.1139   7.1415   7.1760   7.2005   7.2813
     7.4298   7.4686   7.8588   7.8755   7.9959   8.0424   8.2032   8.2292
    10.2295  10.2660  10.6441  10.7661  11.0665  11.2053  12.0383  12.1404
    12.2767  12.6212  12.6292  12.7282  12.7896  12.8426  12.9188  13.0243
    13.1224  13.2911  13.3655  13.5549  13.8229  13.8807  14.1528  14.1553
    14.6186  14.7436  15.0652  15.3391  15.5683  15.8230  16.0369  16.0938
    16.3640  17.3085  17.4769  17.6203  17.7573  17.8944

          k = 0.0000 0.0000-0.5000 ( 61888 PWs)   bands (ev):

   -65.8452 -65.8452 -65.8447 -65.8447 -65.8442 -65.8442 -65.8437 -65.8437
   -30.3080 -30.3080 -30.3011 -30.3011 -30.2570 -30.2569 -30.2430 -30.2430
   -30.2069 -30.2068 -30.1752 -30.1752 -30.1639 -30.1639 -30.1603 -30.1603
   -30.1294 -30.1293 -30.1212 -30.1212 -30.1096 -30.1095 -30.0715 -30.0715
   -19.9922 -19.9922 -19.9918 -19.9918 -19.9880 -19.9880 -19.9873 -19.9873
   -19.9851 -19.9851 -19.9845 -19.9845 -19.9839 -19.9839 -19.9836 -19.9836
   -19.9785 -19.9785 -19.9779 -19.9779 -19.9771 -19.9771 -19.9769 -19.9769
   -19.9766 -19.9766 -19.9760 -19.9760 -19.9754 -19.9754 -19.9747 -19.9747
   -19.9627 -19.9627 -19.9625 -19.9625 -19.9621 -19.9621 -19.9619 -19.9619
   -19.9300 -19.9299 -19.9287 -19.9287 -19.9271 -19.9271 -19.9267 -19.9267
   -19.9263 -19.9263 -19.9250 -19.9250 -19.9236 -19.9236 -19.9223 -19.9223
    -9.5377  -9.5377  -9.2004  -9.2004  -9.0693  -9.0693  -8.7386  -8.7386
    -8.4359  -8.4358  -8.3754  -8.3753  -8.3385  -8.3384  -8.2558  -8.2558
    -7.7136  -7.7136  -7.6430  -7.6430  -7.5973  -7.5973  -7.5042  -7.5042
     1.4959   1.4959   1.5905   1.5905   1.7283   1.7283   1.7658   1.7658
     2.7519   2.7519   3.1194   3.1194   3.2570   3.2570   3.2860   3.2860
     3.4224   3.4224   3.4906   3.4906   3.6846   3.6846   3.9422   3.9422
     3.9909   3.9910   4.6188   4.6188   4.8028   4.8028   5.0895   5.0895
     5.3644   5.3644   5.4846   5.4846   5.5312   5.5313   5.7799   5.7799
     5.8960   5.8960   6.0728   6.0728   6.2270   6.2270   6.3638   6.3639
     6.4033   6.4034   6.5273   6.5273   6.5958   6.5958   6.7069   6.7069
     6.9125   6.9125   6.9614   6.9615   7.1457   7.1457   7.6092   7.6092
     7.6612   7.6613   7.7761   7.7761   7.8153   7.8153   8.2208   8.2208
    10.2509  10.2509  11.3909  11.3909  11.5228  11.5228  11.7279  11.7280
    11.9661  11.9661  12.7866  12.7866  12.8646  12.8646  13.0339  13.0339
    13.0941  13.0941  13.4768  13.4768  13.6407  13.6407  14.1536  14.1536
    14.7039  14.7040  15.3607  15.3607  15.7536  15.7536  16.0176  16.0176
    16.7602  16.7602  17.9140  17.9141  18.2090  18.2092

          k = 0.0000 0.1588 0.0000 ( 61943 PWs)   bands (ev):

   -65.8456 -65.8452 -65.8446 -65.8446 -65.8442 -65.8442 -65.8436 -65.8432
   -30.3081 -30.3011 -30.3011 -30.2940 -30.2679 -30.2549 -30.2549 -30.2421
   -30.2176 -30.2041 -30.2041 -30.2006 -30.1721 -30.1706 -30.1686 -30.1685
   -30.1209 -30.1192 -30.1192 -30.1169 -30.0740 -30.0740 -30.0692 -30.0680
   -19.9921 -19.9917 -19.9917 -19.9912 -19.9885 -19.9879 -19.9879 -19.9871
   -19.9853 -19.9847 -19.9847 -19.9842 -19.9842 -19.9838 -19.9838 -19.9835
   -19.9789 -19.9783 -19.9783 -19.9782 -19.9779 -19.9777 -19.9777 -19.9770
   -19.9761 -19.9760 -19.9757 -19.9757 -19.9749 -19.9749 -19.9748 -19.9745
   -19.9630 -19.9628 -19.9624 -19.9624 -19.9622 -19.9622 -19.9618 -19.9617
   -19.9306 -19.9306 -19.9292 -19.9292 -19.9284 -19.9284 -19.9275 -19.9275
   -19.9248 -19.9248 -19.9242 -19.9242 -19.9231 -19.9231 -19.9214 -19.9214
    -9.7836  -9.5180  -9.3370  -9.3370  -9.0587  -9.0587  -8.8896  -8.8506
    -8.8441  -8.6982  -8.6655  -8.6655  -7.8516  -7.7782  -7.7782  -7.7240
    -7.6831  -7.6796  -7.5882  -7.5761  -7.5301  -7.5301  -7.4314  -7.4314
     1.4398   1.4458   1.4942   1.4943   1.5696   1.5697   1.6943   1.8578
     1.9472   2.0047   2.0047   2.1952   2.5437   2.6201   2.7281   2.7910
     2.9130   2.9130   4.1521   4.1521   4.2563   4.2587   4.7740   4.9519
     4.9519   4.9969   4.9969   5.0166   5.1276   5.1276   5.1767   5.4424
     5.4424   5.6295   5.6295   5.6794   5.7285   5.7994   5.8078   5.8078
     5.9194   5.9243   5.9941   6.0177   6.0177   6.1062   6.1355   6.2545
     6.2670   6.4045   6.4138   6.6736   6.6736   6.8178   6.9587   6.9587
     6.9946   7.0024   7.0509   7.0771   7.1144   7.1144   7.4063   7.4063
     7.5828   7.5828   7.8884   7.9029   8.1169   8.1230   8.1230   8.1777
     9.7076   9.7149  10.4384  10.4412  10.4412  10.4462  12.3733  12.3733
    12.4737  12.4737  12.5621  12.6546  12.6731  12.6731  12.8548  12.9982
    13.3879  13.5213  13.5213  13.5521  14.0234  14.1232  14.1232  14.2067
    14.6012  14.9671  14.9671  15.1244  15.6622  15.6630  16.1125  16.1989
    16.1989  16.6282  17.3013  17.3013  17.5786  17.6307

          k = 0.0000 0.1588 0.1667 ( 61929 PWs)   bands (ev):

   -65.8456 -65.8452 -65.8447 -65.8446 -65.8443 -65.8442 -65.8437 -65.8433
   -30.3075 -30.3015 -30.3005 -30.2944 -30.2664 -30.2554 -30.2534 -30.2426
   -30.2149 -30.2045 -30.1995 -30.1981 -30.1709 -30.1691 -30.1652 -30.1618
   -30.1257 -30.1254 -30.1188 -30.1187 -30.0804 -30.0749 -30.0736 -30.0690
   -19.9921 -19.9917 -19.9917 -19.9913 -19.9885 -19.9879 -19.9878 -19.9872
   -19.9853 -19.9848 -19.9847 -19.9842 -19.9842 -19.9838 -19.9838 -19.9836
   -19.9788 -19.9784 -19.9782 -19.9781 -19.9778 -19.9777 -19.9775 -19.9769
   -19.9762 -19.9761 -19.9758 -19.9757 -19.9751 -19.9749 -19.9749 -19.9745
   -19.9629 -19.9628 -19.9625 -19.9624 -19.9623 -19.9622 -19.9618 -19.9617
   -19.9305 -19.9303 -19.9293 -19.9289 -19.9283 -19.9282 -19.9276 -19.9271
   -19.9251 -19.9247 -19.9245 -19.9244 -19.9234 -19.9230 -19.9218 -19.9215
    -9.7369  -9.4647  -9.3546  -9.2749  -9.0746  -8.9745  -8.8988  -8.8135
    -8.8053  -8.6848  -8.6705  -8.6351  -7.8656  -7.7980  -7.7801  -7.7720
    -7.7322  -7.6965  -7.6724  -7.6486  -7.5714  -7.5536  -7.5397  -7.4410
     1.4969   1.4972   1.5574   1.5753   1.7196   1.7772   1.8025   1.9566
     1.9982   2.0297   2.0356   2.2679   2.6307   2.7106   2.7583   2.8606
     2.9047   3.0033   4.1117   4.1596   4.2543   4.2994   4.5289   4.6087
     4.7181   4.8453   4.9334   4.9931   5.0072   5.1268   5.1466   5.3753
     5.3876   5.4884   5.5454   5.6377   5.6970   5.6997   5.7799   5.7989
     5.8688   5.9121   5.9591   5.9802   5.9921   6.1395   6.2089   6.2591
     6.3962   6.4106   6.6120   6.6599   6.7975   6.8577   6.8960   6.9157
     6.9463   7.0069   7.0446   7.0747   7.1196   7.1542   7.2462   7.2756
     7.3662   7.4329   7.9054   7.9145   8.0865   8.0984   8.1247   8.1680
    10.0042  10.0318  10.4391  10.4473  10.6501  10.6925  12.3384  12.3988
    12.4481  12.5067  12.5835  12.5965  12.6646  12.7642  12.9017  13.0257
    13.2649  13.4274  13.5132  13.5225  13.9874  14.0413  14.1224  14.1561
    14.6618  14.9610  15.0732  15.2128  15.6885  15.7000  16.0701  16.1768
    16.4834  16.7789  17.0189  17.4561  17.6571  17.7018

          k = 0.0000 0.1588 0.3333 ( 61952 PWs)   bands (ev):

   -65.8454 -65.8450 -65.8449 -65.8445 -65.8444 -65.8440 -65.8439 -65.8435
   -30.3060 -30.3026 -30.2990 -30.2955 -30.2630 -30.2570 -30.2500 -30.2442
   -30.2103 -30.2056 -30.1888 -30.1851 -30.1708 -30.1686 -30.1487 -30.1443
   -30.1419 -30.1416 -30.1214 -30.1166 -30.0979 -30.0914 -30.0728 -30.0702
   -19.9920 -19.9918 -19.9916 -19.9914 -19.9884 -19.9880 -19.9877 -19.9873
   -19.9852 -19.9849 -19.9846 -19.9843 -19.9841 -19.9839 -19.9838 -19.9836
   -19.9786 -19.9784 -19.9780 -19.9778 -19.9777 -19.9774 -19.9771 -19.9766
   -19.9766 -19.9764 -19.9762 -19.9756 -19.9755 -19.9751 -19.9748 -19.9746
   -19.9628 -19.9627 -19.9625 -19.9624 -19.9623 -19.9621 -19.9619 -19.9618
   -19.9303 -19.9296 -19.9296 -19.9281 -19.9280 -19.9278 -19.9274 -19.9262
   -19.9261 -19.9254 -19.9252 -19.9242 -19.9240 -19.9227 -19.9226 -19.9219
    -9.6232  -9.4085  -9.3373  -9.1290  -9.1230  -8.9303  -8.7464  -8.7290
    -8.6849  -8.6758  -8.5925  -8.5166  -8.1066  -8.0050  -7.9946  -7.9022
    -7.8035  -7.7871  -7.7525  -7.7249  -7.6400  -7.5663  -7.5427  -7.4676
     1.5056   1.5239   1.5902   1.6152   1.8921   1.9161   1.9900   2.0011
     2.4350   2.5114   2.6474   2.7508   2.7909   2.8840   2.8871   2.9776
     3.0990   3.2405   3.8838   3.9608   4.0031   4.0501   4.2735   4.3178
     4.3329   4.5049   4.6689   4.7941   4.8126   4.9406   4.9886   5.0575
     5.1765   5.2941   5.3036   5.4197   5.5313   5.5672   5.6486   5.7534
     5.8291   5.8633   5.9330   5.9695   6.0633   6.1841   6.3009   6.3868
     6.4498   6.5410   6.6071   6.6962   6.7581   6.7663   6.8235   6.9167
     6.9266   6.9787   7.0158   7.0677   7.1171   7.1606   7.2204   7.2839
     7.4302   7.4675   7.8585   7.8732   7.9708   8.0030   8.1416   8.1587
    10.4095  10.4379  10.6579  10.7750  11.1772  11.2902  12.0379  12.1409
    12.2610  12.5895  12.6409  12.6675  12.6923  12.7942  12.8546  13.0149
    13.0281  13.2765  13.3717  13.5328  13.7310  13.8057  14.1210  14.1349
    14.8217  14.9428  15.3804  15.4690  15.8212  15.9441  16.0537  16.0976
    16.4770  17.2323  17.2743  17.5395  17.8680  17.9032

          k = 0.0000 0.1588-0.5000 ( 61924 PWs)   bands (ev):

   -65.8451 -65.8451 -65.8447 -65.8447 -65.8441 -65.8441 -65.8437 -65.8437
   -30.3042 -30.3042 -30.2971 -30.2971 -30.2596 -30.2596 -30.2467 -30.2467
   -30.2074 -30.2074 -30.1756 -30.1756 -30.1641 -30.1641 -30.1605 -30.1605
   -30.1295 -30.1294 -30.1213 -30.1212 -30.1096 -30.1096 -30.0715 -30.0715
   -19.9919 -19.9919 -19.9915 -19.9915 -19.9882 -19.9882 -19.9875 -19.9875
   -19.9850 -19.9850 -19.9845 -19.9844 -19.9840 -19.9840 -19.9837 -19.9837
   -19.9785 -19.9785 -19.9779 -19.9779 -19.9771 -19.9771 -19.9769 -19.9769
   -19.9766 -19.9766 -19.9761 -19.9761 -19.9754 -19.9754 -19.9748 -19.9747
   -19.9627 -19.9626 -19.9625 -19.9625 -19.9621 -19.9621 -19.9619 -19.9619
   -19.9300 -19.9300 -19.9287 -19.9287 -19.9271 -19.9271 -19.9267 -19.9267
   -19.9263 -19.9263 -19.9250 -19.9250 -19.9236 -19.9236 -19.9223 -19.9223
    -9.5005  -9.5005  -9.2098  -9.2097  -8.9994  -8.9994  -8.7044  -8.7044
    -8.4363  -8.4363  -8.3815  -8.3814  -8.3375  -8.3374  -8.2538  -8.2537
    -7.8016  -7.8015  -7.7423  -7.7423  -7.6031  -7.6031  -7.5047  -7.5046
     1.5177   1.5177   1.6082   1.6082   1.9135   1.9135   2.0023   2.0024
     2.8230   2.8230   3.1345   3.1345   3.2543   3.2543   3.3249   3.3249
     3.4299   3.4299   3.4919   3.4920   3.6793   3.6793   3.9430   3.9431
     4.0384   4.0384   4.3996   4.3996   4.7221   4.7221   4.9012   4.9012
     5.2132   5.2132   5.4518   5.4518   5.4935   5.4936   5.6463   5.6463
     5.8331   5.8331   5.9521   5.9521   6.2280   6.2280   6.3697   6.3697
     6.4690   6.4690   6.5701   6.5701   6.6820   6.6820   6.7873   6.7873
     6.9589   6.9589   6.9761   6.9761   7.0939   7.0939   7.6163   7.6163
     7.6533   7.6534   7.7629   7.7629   7.7969   7.7969   8.1533   8.1533
    10.4314  10.4314  11.3989  11.3990  11.5239  11.5240  11.7918  11.7918
    12.0215  12.0215  12.6692  12.6692  12.8352  12.8352  13.0345  13.0345
    13.0434  13.0434  13.3730  13.3730  13.5928  13.5928  14.1234  14.1234
    14.9074  14.9074  15.6917  15.6918  15.8819  15.8820  16.0363  16.0363
    16.7998  16.7998  17.7201  17.7201  18.1878  18.1879

          k = 0.0000 0.3175 0.0000 ( 61947 PWs)   bands (ev):

   -65.8456 -65.8453 -65.8446 -65.8446 -65.8443 -65.8443 -65.8435 -65.8433
   -30.2985 -30.2912 -30.2912 -30.2829 -30.2750 -30.2628 -30.2628 -30.2530
   -30.2152 -30.2059 -30.2059 -30.2056 -30.1718 -30.1709 -30.1687 -30.1687
   -30.1202 -30.1194 -30.1194 -30.1179 -30.0740 -30.0740 -30.0689 -30.0682
   -19.9913 -19.9908 -19.9908 -19.9903 -19.9892 -19.9886 -19.9886 -19.9880
   -19.9851 -19.9847 -19.9847 -19.9845 -19.9841 -19.9840 -19.9840 -19.9837
   -19.9787 -19.9783 -19.9782 -19.9782 -19.9778 -19.9778 -19.9778 -19.9773
   -19.9760 -19.9759 -19.9756 -19.9756 -19.9751 -19.9751 -19.9749 -19.9746
   -19.9629 -19.9629 -19.9624 -19.9624 -19.9622 -19.9622 -19.9618 -19.9617
   -19.9306 -19.9306 -19.9292 -19.9292 -19.9284 -19.9284 -19.9275 -19.9275
   -19.9248 -19.9248 -19.9242 -19.9242 -19.9231 -19.9231 -19.9214 -19.9214
    -9.7070  -9.5566  -9.2528  -9.2528  -9.0756  -9.0756  -8.8482  -8.8433
    -8.6792  -8.5607  -8.5449  -8.5449  -8.0812  -8.0266  -8.0265  -7.9980
    -7.6882  -7.6846  -7.5867  -7.5796  -7.5322  -7.5322  -7.4323  -7.4323
     1.4411   1.4440   1.4980   1.4980   1.5747   1.5747   1.8188   1.8551
     2.4856   2.5598   2.6036   2.6349   2.6349   2.8027   2.9390   3.0354
     3.1292   3.1292   3.7600   3.7817   3.8064   3.8064   4.2564   4.6101
     4.6101   4.8767   4.9586   4.9586   5.0068   5.0068   5.1867   5.2109
     5.2109   5.2160   5.5421   5.5421   5.6979   5.7029   5.8556   5.8557
     5.9539   5.9598   6.0007   6.0007   6.0787   6.1581   6.2058   6.2536
     6.2806   6.3782   6.3898   6.6197   6.7224   6.7224   6.9855   6.9855
     7.0064   7.0678   7.1952   7.1976   7.2302   7.2302   7.4129   7.4129
     7.5904   7.5904   7.8641   7.8859   7.9451   7.9578   7.9666   7.9666
     9.7161   9.7174  10.8863  10.8863  10.9133  10.9546  12.0268  12.0268
    12.1353  12.2134  12.4862  12.4862  12.6715  12.6715  12.8957  12.9867
    13.4913  13.5632  13.5632  13.6181  13.9384  13.9415  13.9415  13.9930
    14.9760  15.4530  15.4530  15.6474  15.6545  15.7868  16.0776  16.0990
    16.0990  17.0842  17.3632  17.7609  17.7609  17.7617

          k = 0.0000 0.3175 0.1667 ( 61936 PWs)   bands (ev):

   -65.8455 -65.8453 -65.8446 -65.8445 -65.8444 -65.8443 -65.8436 -65.8434
   -30.2977 -30.2915 -30.2903 -30.2834 -30.2737 -30.2634 -30.2619 -30.2535
   -30.2129 -30.2063 -30.2028 -30.2007 -30.1708 -30.1692 -30.1653 -30.1620
   -30.1256 -30.1254 -30.1194 -30.1188 -30.0805 -30.0749 -30.0737 -30.0690
   -19.9913 -19.9909 -19.9908 -19.9904 -19.9891 -19.9886 -19.9885 -19.9880
   -19.9851 -19.9847 -19.9846 -19.9845 -19.9841 -19.9840 -19.9840 -19.9838
   -19.9786 -19.9782 -19.9782 -19.9780 -19.9778 -19.9777 -19.9776 -19.9772
   -19.9761 -19.9760 -19.9758 -19.9756 -19.9752 -19.9750 -19.9750 -19.9747
   -19.9629 -19.9628 -19.9625 -19.9624 -19.9623 -19.9622 -19.9618 -19.9618
   -19.9305 -19.9303 -19.9293 -19.9289 -19.9283 -19.9282 -19.9276 -19.9271
   -19.9251 -19.9247 -19.9245 -19.9244 -19.9234 -19.9230 -19.9218 -19.9215
    -9.6577  -9.5034  -9.2702  -9.1784  -9.0926  -8.9924  -8.8116  -8.8014
    -8.6881  -8.5534  -8.5497  -8.5268  -8.0818  -8.0346  -8.0234  -8.0047
    -7.8001  -7.6989  -7.6773  -7.6560  -7.5724  -7.5539  -7.5420  -7.4419
     1.5002   1.5014   1.5582   1.5810   1.7420   1.8192   1.9625   2.0328
     2.4911   2.6123   2.6326   2.6545   2.6940   2.7938   2.9775   3.0953
     3.1308   3.2218   3.7680   3.7884   3.8156   3.8669   4.2401   4.5414
     4.5655   4.6253   4.6693   4.8721   4.8902   4.9757   5.0293   5.0584
     5.2032   5.2110   5.3361   5.4824   5.5329   5.6332   5.7118   5.7791
     5.8291   5.9056   5.9241   5.9725   6.0811   6.1661   6.2576   6.2749
     6.3852   6.4209   6.5906   6.6758   6.7244   6.9235   6.9648   7.0549
     7.0628   7.0863   7.1580   7.1900   7.2013   7.2165   7.2877   7.3013
     7.3792   7.4501   7.8647   7.8925   7.9360   7.9503   7.9560   7.9624
    10.0158  10.0446  10.8894  10.9268  11.0591  11.1029  12.0207  12.1117
    12.1641  12.2633  12.4089  12.5446  12.5739  12.7180  12.9520  13.0247
    13.3570  13.4506  13.5604  13.5649  13.8037  13.8589  13.9390  13.9773
    15.1043  15.4421  15.6005  15.6900  15.7145  15.8474  16.0702  16.2359
    16.3778  17.0479  17.3864  17.4630  17.8218  17.8758

          k = 0.0000 0.3175 0.3333 ( 61944 PWs)   bands (ev):

   -65.8453 -65.8451 -65.8448 -65.8446 -65.8443 -65.8441 -65.8438 -65.8436
   -30.2961 -30.2926 -30.2884 -30.2846 -30.2708 -30.2650 -30.2596 -30.2548
   -30.2103 -30.2072 -30.1910 -30.1860 -30.1710 -30.1686 -30.1488 -30.1444
   -30.1420 -30.1419 -30.1217 -30.1168 -30.0980 -30.0915 -30.0728 -30.0702
   -19.9912 -19.9910 -19.9907 -19.9905 -19.9890 -19.9887 -19.9884 -19.9881
   -19.9850 -19.9848 -19.9845 -19.9844 -19.9842 -19.9841 -19.9840 -19.9838
   -19.9785 -19.9783 -19.9781 -19.9778 -19.9776 -19.9774 -19.9772 -19.9769
   -19.9765 -19.9764 -19.9761 -19.9757 -19.9755 -19.9752 -19.9750 -19.9748
   -19.9628 -19.9627 -19.9625 -19.9624 -19.9622 -19.9621 -19.9619 -19.9618
   -19.9303 -19.9296 -19.9296 -19.9281 -19.9280 -19.9278 -19.9274 -19.9262
   -19.9261 -19.9254 -19.9252 -19.9242 -19.9240 -19.9227 -19.9226 -19.9219
    -9.5389  -9.3738  -9.3230  -9.1450  -8.9896  -8.7611  -8.7209  -8.6979
    -8.6660  -8.5646  -8.5145  -8.4509  -8.1442  -8.1077  -8.0453  -8.0246
    -8.0127  -7.9568  -7.9324  -7.8482  -7.6432  -7.5688  -7.5438  -7.4685
     1.5118   1.5323   1.5977   1.6239   2.3435   2.4316   2.4483   2.5406
     2.6187   2.6549   2.6770   2.8739   2.9175   2.9509   3.0198   3.1045
     3.3347   3.4301   3.7499   3.7646   3.8597   3.9339   3.9869   4.0203
     4.2098   4.3948   4.5241   4.5780   4.5812   4.7083   4.7266   4.8916
     4.9703   5.0117   5.1358   5.2049   5.3088   5.3515   5.4108   5.5064
     5.5412   5.7372   5.7740   5.9304   6.1967   6.2393   6.3109   6.4428
     6.5237   6.5635   6.6718   6.7802   6.8443   6.8923   6.9300   6.9913
     7.0574   7.0869   7.1509   7.1596   7.1905   7.2329   7.2765   7.3419
     7.4343   7.4708   7.8069   7.8545   7.8700   7.8936   7.9428   7.9574
    10.6696  10.7212  10.8999  10.9571  11.4828  11.5584  11.9699  12.0750
    12.1799  12.2059  12.3959  12.4517  12.7266  12.7777  12.8108  12.8893
    13.0430  13.2177  13.3748  13.4953  13.5598  13.6830  13.9346  13.9549
    15.2784  15.4100  15.7209  15.9763  16.0280  16.1447  16.1798  16.7225
    16.8914  16.9229  17.1414  17.6435  17.7189  17.9052

          k = 0.0000 0.3175-0.5000 ( 61934 PWs)   bands (ev):

   -65.8451 -65.8450 -65.8448 -65.8448 -65.8441 -65.8440 -65.8438 -65.8438
   -30.2943 -30.2942 -30.2863 -30.2863 -30.2676 -30.2676 -30.2570 -30.2570
   -30.2086 -30.2086 -30.1763 -30.1763 -30.1645 -30.1645 -30.1607 -30.1607
   -30.1296 -30.1296 -30.1213 -30.1213 -30.1096 -30.1096 -30.0715 -30.0715
   -19.9911 -19.9911 -19.9906 -19.9906 -19.9889 -19.9889 -19.9883 -19.9883
   -19.9849 -19.9849 -19.9844 -19.9844 -19.9843 -19.9842 -19.9839 -19.9839
   -19.9784 -19.9783 -19.9779 -19.9779 -19.9770 -19.9770 -19.9769 -19.9769
   -19.9766 -19.9766 -19.9763 -19.9763 -19.9754 -19.9754 -19.9749 -19.9749
   -19.9626 -19.9626 -19.9625 -19.9625 -19.9621 -19.9621 -19.9620 -19.9620
   -19.9300 -19.9300 -19.9287 -19.9287 -19.9271 -19.9271 -19.9267 -19.9267
   -19.9263 -19.9263 -19.9250 -19.9250 -19.9236 -19.9236 -19.9223 -19.9223
    -9.4143  -9.4143  -9.2388  -9.2388  -8.8081  -8.8080  -8.5975  -8.5975
    -8.4421  -8.4421  -8.4116  -8.4116  -8.3297  -8.3296  -8.2429  -8.2428
    -8.0259  -8.0259  -7.9786  -7.9786  -7.6060  -7.6060  -7.5056  -7.5056
     1.5259   1.5259   1.6174   1.6174   2.4913   2.4913   2.6363   2.6363
     3.0306   3.0306   3.1752   3.1752   3.2356   3.2356   3.3939   3.3939
     3.4484   3.4484   3.5141   3.5141   3.6573   3.6574   3.8034   3.8034
     4.1392   4.1392   4.2001   4.2001   4.3166   4.3166   4.4892   4.4892
     4.9600   4.9600   5.0649   5.0649   5.2619   5.2619   5.4365   5.4366
     5.5897   5.5898   5.8541   5.8541   6.3310   6.3310   6.3888   6.3888
     6.5795   6.5795   6.6686   6.6686   6.6977   6.6977   6.8757   6.8757
     7.1565   7.1565   7.1694   7.1694   7.1993   7.1994   7.6098   7.6098
     7.6354   7.6354   7.7017   7.7017   7.7363   7.7364   7.9476   7.9476
    10.8996  10.8996  11.4158  11.4158  11.5259  11.5259  11.9004  11.9004
    12.1970  12.1970  12.3603  12.3603  12.7462  12.7462  12.8270  12.8270
    13.0345  13.0345  13.1753  13.1753  13.5805  13.5805  13.9372  13.9373
    15.3565  15.3566  15.8569  15.8569  16.3852  16.3852  16.6490  16.6490
    16.9569  16.9569  17.3538  17.3538  18.0227  18.0227

          k = 0.0000-0.4763 0.0000 ( 61818 PWs)   bands (ev):

   -65.8454 -65.8454 -65.8445 -65.8445 -65.8444 -65.8444 -65.8434 -65.8434
   -30.2861 -30.2861 -30.2817 -30.2817 -30.2713 -30.2713 -30.2679 -30.2679
   -30.2110 -30.2110 -30.2068 -30.2067 -30.1714 -30.1714 -30.1688 -30.1688
   -30.1195 -30.1195 -30.1191 -30.1191 -30.0740 -30.0740 -30.0686 -30.0686
   -19.9902 -19.9902 -19.9900 -19.9900 -19.9894 -19.9894 -19.9891 -19.9891
   -19.9849 -19.9848 -19.9846 -19.9846 -19.9841 -19.9841 -19.9840 -19.9839
   -19.9785 -19.9785 -19.9782 -19.9781 -19.9778 -19.9778 -19.9776 -19.9776
   -19.9759 -19.9759 -19.9756 -19.9756 -19.9752 -19.9752 -19.9748 -19.9748
   -19.9629 -19.9629 -19.9624 -19.9624 -19.9623 -19.9622 -19.9618 -19.9618
   -19.9306 -19.9306 -19.9292 -19.9292 -19.9284 -19.9284 -19.9275 -19.9275
   -19.9248 -19.9248 -19.9242 -19.9242 -19.9231 -19.9231 -19.9214 -19.9214
    -9.6221  -9.6221  -9.2032  -9.2032  -9.0916  -9.0916  -8.8453  -8.8453
    -8.3808  -8.3807  -8.3230  -8.3230  -8.3185  -8.3185  -8.3124  -8.3123
    -7.6871  -7.6871  -7.5837  -7.5837  -7.5325  -7.5325  -7.4327  -7.4327
     1.4423   1.4423   1.4986   1.4986   1.5758   1.5758   1.8470   1.8470
     2.5814   2.5814   3.1429   3.1430   3.2429   3.2430   3.3590   3.3590
     3.4671   3.4671   3.4683   3.4683   3.5872   3.5872   3.7611   3.7611
     3.8397   3.8397   4.9654   4.9654   4.9876   4.9876   5.3571   5.3571
     5.3981   5.3981   5.4284   5.4284   5.4469   5.4469   5.8982   5.8982
     5.9242   5.9242   5.9947   5.9947   6.1861   6.1861   6.2350   6.2350
     6.3214   6.3214   6.4306   6.4306   6.7588   6.7588   6.9217   6.9217
     7.0384   7.0385   7.4063   7.4063   7.5270   7.5270   7.5306   7.5306
     7.6126   7.6126   7.6608   7.6608   7.6861   7.6861   7.9078   7.9078
     9.7186   9.7186  11.4149  11.4149  11.4982  11.4982  11.5371  11.5371
    11.6381  11.6381  12.4908  12.4908  12.6735  12.6735  12.9489  12.9489
    13.6639  13.6639  13.7139  13.7139  13.7175  13.7175  13.7969  13.7969
    15.4676  15.4676  15.6801  15.6801  15.7916  15.7916  15.9439  15.9439
    16.6741  16.6741  18.0452  18.0453  18.1935  18.1935

          k = 0.0000-0.4763 0.1667 ( 61930 PWs)   bands (ev):

   -65.8454 -65.8454 -65.8445 -65.8445 -65.8444 -65.8444 -65.8435 -65.8435
   -30.2858 -30.2845 -30.2820 -30.2803 -30.2719 -30.2711 -30.2685 -30.2682
   -30.2109 -30.2071 -30.2060 -30.2015 -30.1708 -30.1693 -30.1654 -30.1621
   -30.1257 -30.1253 -30.1197 -30.1189 -30.0805 -30.0749 -30.0737 -30.0691
   -19.9902 -19.9901 -19.9900 -19.9899 -19.9894 -19.9894 -19.9892 -19.9892
   -19.9849 -19.9848 -19.9847 -19.9846 -19.9841 -19.9841 -19.9840 -19.9840
   -19.9784 -19.9784 -19.9782 -19.9780 -19.9779 -19.9777 -19.9775 -19.9774
   -19.9760 -19.9760 -19.9757 -19.9756 -19.9753 -19.9752 -19.9749 -19.9749
   -19.9629 -19.9628 -19.9624 -19.9624 -19.9623 -19.9622 -19.9618 -19.9618
   -19.9305 -19.9303 -19.9293 -19.9289 -19.9283 -19.9282 -19.9276 -19.9271
   -19.9251 -19.9247 -19.9245 -19.9244 -19.9234 -19.9230 -19.9218 -19.9215
    -9.5763  -9.5642  -9.2196  -9.1197  -9.1099  -9.0109  -8.8107  -8.8008
    -8.3869  -8.3869  -8.3315  -8.3225  -8.3183  -8.3141  -8.3125  -8.3035
    -7.8019  -7.6996  -7.6778  -7.6569  -7.5729  -7.5543  -7.5422  -7.4424
     1.5004   1.5021   1.5581   1.5822   1.7442   1.8219   1.9870   2.0375
     2.6698   2.6717   3.1423   3.1545   3.2546   3.2832   3.3649   3.3654
     3.4331   3.4729   3.4748   3.5260   3.5886   3.6559   3.7519   3.7957
     3.8661   3.8735   4.5865   4.5982   4.9425   4.9751   5.1364   5.1813
     5.2586   5.2616   5.3364   5.3590   5.4372   5.4695   5.6283   5.6906
     5.8634   5.8812   5.9065   5.9294   6.0845   6.2403   6.2485   6.2888
     6.4147   6.4810   6.5183   6.6176   6.7470   6.9084   6.9367   7.0878
     7.0895   7.1204   7.2197   7.2524   7.3451   7.3854   7.5204   7.5396
     7.6015   7.6109   7.6207   7.6301   7.6698   7.6799   7.9208   7.9248
    10.0199  10.0479  11.4186  11.4906  11.5257  11.5392  11.6180  11.6448
    11.6561  11.7520  12.4112  12.5448  12.5738  12.7176  13.0020  13.0071
    13.5085  13.5429  13.5582  13.6121  13.7110  13.7131  13.7492  13.8159
    15.4973  15.6352  15.6881  15.7701  15.8129  15.9315  16.0592  16.1882
    16.7316  16.7376  17.9232  17.9707  18.0843  18.0868

          k = 0.0000-0.4763 0.3333 ( 62010 PWs)   bands (ev):

   -65.8452 -65.8452 -65.8447 -65.8447 -65.8442 -65.8442 -65.8437 -65.8437
   -30.2851 -30.2829 -30.2807 -30.2768 -30.2738 -30.2707 -30.2703 -30.2689
   -30.2102 -30.2080 -30.1921 -30.1864 -30.1711 -30.1687 -30.1488 -30.1445
   -30.1421 -30.1420 -30.1219 -30.1168 -30.0980 -30.0915 -30.0728 -30.0702
   -19.9902 -19.9901 -19.9900 -19.9898 -19.9896 -19.9894 -19.9893 -19.9892
   -19.9849 -19.9847 -19.9846 -19.9844 -19.9842 -19.9841 -19.9841 -19.9840
   -19.9783 -19.9782 -19.9781 -19.9779 -19.9775 -19.9773 -19.9771 -19.9771
   -19.9764 -19.9763 -19.9761 -19.9758 -19.9755 -19.9752 -19.9751 -19.9750
   -19.9627 -19.9627 -19.9625 -19.9624 -19.9622 -19.9621 -19.9619 -19.9619
   -19.9303 -19.9296 -19.9296 -19.9281 -19.9280 -19.9278 -19.9274 -19.9262
   -19.9261 -19.9255 -19.9252 -19.9242 -19.9240 -19.9227 -19.9226 -19.9219
    -9.4669  -9.4213  -9.2690  -9.1670  -8.8890  -8.7918  -8.6926  -8.6583
    -8.4255  -8.4174  -8.3544  -8.3447  -8.3084  -8.3067  -8.2888  -8.2700
    -8.0739  -7.9794  -7.9537  -7.8609  -7.6435  -7.5691  -7.5443  -7.4690
     1.5128   1.5333   1.5992   1.6253   2.3986   2.4675   2.5961   2.6640
     2.9248   2.9289   3.1432   3.1730   3.2895   3.3475   3.3556   3.3842
     3.4308   3.4575   3.5070   3.5463   3.6341   3.7241   3.8436   3.8916
     3.9345   3.9505   3.9759   4.0146   4.5686   4.5816   4.7562   4.7869
     4.8646   4.9189   5.0197   5.0561   5.3392   5.3817   5.3867   5.4181
     5.4877   5.5620   5.7927   5.8050   6.2191   6.2852   6.3115   6.4686
     6.5632   6.5945   6.6695   6.7559   6.8675   6.8718   6.9112   7.0506
     7.1394   7.1815   7.2363   7.2658   7.3129   7.3378   7.4988   7.5619
     7.5696   7.6018   7.6171   7.6434   7.6457   7.6671   7.8806   7.8850
    10.6817  10.7432  11.4283  11.4769  11.5496  11.6001  11.9116  11.9581
    11.9969  12.0671  12.0700  12.1894  12.7186  12.8461  12.8887  12.8973
    13.0541  13.1064  13.3110  13.3957  13.7032  13.7094  13.7235  13.7723
    15.5160  15.6755  15.7021  15.8583  16.2559  16.3789  16.7654  16.8545
    16.9285  16.9569  17.4549  17.4591  18.0127  18.0406

          k = 0.0000-0.4763-0.5000 ( 61996 PWs)   bands (ev):

   -65.8450 -65.8449 -65.8449 -65.8449 -65.8439 -65.8439 -65.8439 -65.8439
   -30.2840 -30.2840 -30.2769 -30.2769 -30.2732 -30.2732 -30.2698 -30.2698
   -30.2092 -30.2092 -30.1766 -30.1766 -30.1647 -30.1646 -30.1608 -30.1608
   -30.1297 -30.1297 -30.1214 -30.1214 -30.1097 -30.1097 -30.0715 -30.0715
   -19.9901 -19.9901 -19.9898 -19.9898 -19.9896 -19.9896 -19.9893 -19.9893
   -19.9848 -19.9848 -19.9844 -19.9844 -19.9843 -19.9842 -19.9841 -19.9841
   -19.9783 -19.9783 -19.9780 -19.9780 -19.9769 -19.9769 -19.9768 -19.9768
   -19.9766 -19.9766 -19.9765 -19.9765 -19.9754 -19.9754 -19.9750 -19.9750
   -19.9626 -19.9626 -19.9625 -19.9625 -19.9621 -19.9620 -19.9620 -19.9620
   -19.9300 -19.9300 -19.9287 -19.9287 -19.9271 -19.9271 -19.9267 -19.9267
   -19.9263 -19.9263 -19.9250 -19.9250 -19.9236 -19.9236 -19.9223 -19.9223
    -9.3529  -9.3529  -9.2709  -9.2709  -8.5951  -8.5951  -8.5358  -8.5357
    -8.4802  -8.4802  -8.4443  -8.4443  -8.2802  -8.2802  -8.2342  -8.2341
    -8.2086  -8.2086  -8.1479  -8.1478  -7.6063  -7.6063  -7.5061  -7.5061
     1.5271   1.5271   1.6191   1.6191   3.0467   3.0467   3.1667   3.1667
     3.2416   3.2416   3.2659   3.2659   3.3223   3.3223   3.3587   3.3587
     3.4636   3.4636   3.5045   3.5045   3.5788   3.5789   3.6370   3.6370
     3.7393   3.7393   3.9106   3.9107   4.4085   4.4085   4.4688   4.4689
     4.5037   4.5037   4.5920   4.5920   5.3451   5.3451   5.3823   5.3823
     5.6215   5.6215   5.6966   5.6967   6.3728   6.3728   6.3874   6.3874
     6.6175   6.6175   6.7022   6.7022   6.7269   6.7270   6.8125   6.8125
     7.3502   7.3503   7.3874   7.3874   7.4223   7.4223   7.5488   7.5488
     7.5900   7.5900   7.6434   7.6434   7.6905   7.6905   7.7303   7.7303
    11.3495  11.3495  11.4470  11.4470  11.5446  11.5446  11.6340  11.6340
    12.3933  12.3933  12.4418  12.4419  12.5268  12.5268  12.5680  12.5680
    13.0128  13.0128  13.1195  13.1195  13.7023  13.7023  13.7252  13.7252
    15.6016  15.6016  15.7664  15.7665  16.8859  16.8859  16.9827  16.9827
    17.4272  17.4272  17.4929  17.4929  17.6123  17.6129

          k = 0.1667 0.0000 0.1667 ( 61928 PWs)   bands (ev):

   -65.8455 -65.8451 -65.8447 -65.8447 -65.8442 -65.8442 -65.8438 -65.8433
   -30.3106 -30.3047 -30.3047 -30.2988 -30.2623 -30.2510 -30.2509 -30.2392
   -30.2123 -30.1991 -30.1989 -30.1946 -30.1657 -30.1644 -30.1621 -30.1620
   -30.1279 -30.1247 -30.1246 -30.1230 -30.0801 -30.0801 -30.0761 -30.0747
   -19.9924 -19.9920 -19.9920 -19.9916 -19.9882 -19.9876 -19.9876 -19.9870
   -19.9853 -19.9847 -19.9847 -19.9843 -19.9840 -19.9837 -19.9837 -19.9835
   -19.9787 -19.9783 -19.9782 -19.9781 -19.9777 -19.9776 -19.9775 -19.9768
   -19.9764 -19.9763 -19.9758 -19.9758 -19.9750 -19.9750 -19.9749 -19.9745
   -19.9629 -19.9627 -19.9624 -19.9624 -19.9622 -19.9622 -19.9619 -19.9617
   -19.9303 -19.9302 -19.9290 -19.9290 -19.9280 -19.9280 -19.9272 -19.9272
   -19.9250 -19.9250 -19.9247 -19.9247 -19.9233 -19.9233 -19.9219 -19.9219
    -9.7220  -9.3947  -9.3363  -9.3349  -8.9863  -8.9831  -8.9824  -8.7791
    -8.7758  -8.7085  -8.6715  -8.6697  -7.8367  -7.7915  -7.7219  -7.7168
    -7.6937  -7.6918  -7.6840  -7.6391  -7.6371  -7.6236  -7.5655  -7.5543
     1.5939   1.6405   1.6429   1.6981   1.7018   1.7490   1.7852   1.7886
     1.9016   1.9017   2.1109   2.2534   2.7094   2.7537   2.8111   2.8131
     2.9079   2.9439   4.1988   4.2159   4.4836   4.4868   4.5984   4.6079
     4.6530   4.6883   4.7411   4.8253   4.9061   4.9752   5.2444   5.3879
     5.3927   5.4818   5.5049   5.6196   5.6608   5.7353   5.7597   5.8270
     5.8314   5.8655   5.8662   5.9035   5.9164   6.1613   6.3645   6.3818
     6.4362   6.6364   6.6902   6.7615   6.7856   6.8075   6.8098   6.8479
     6.8499   6.9518   6.9818   6.9906   7.0572   7.1018   7.1264   7.2218
     7.4108   7.4625   7.9106   7.9147   8.1149   8.1380   8.1607   8.2211
    10.1908  10.2506  10.4781  10.4962  10.5368  10.6262  12.4400  12.4432
    12.4648  12.4866  12.6294  12.6469  12.8064  12.8983  12.9190  13.0328
    13.2061  13.3549  13.4251  13.5183  13.9616  14.0530  14.1306  14.1530
    14.5350  14.8168  14.8172  15.1676  15.6477  15.7518  15.7617  16.4660
    16.4885  17.0382  17.0634  17.2437  17.6550  17.7142

          k = 0.1667 0.0000 0.3333 ( 61940 PWs)   bands (ev):

   -65.8454 -65.8449 -65.8449 -65.8445 -65.8444 -65.8440 -65.8440 -65.8435
   -30.3091 -30.3058 -30.3033 -30.2999 -30.2587 -30.2526 -30.2472 -30.2408
   -30.2060 -30.2002 -30.1869 -30.1849 -30.1655 -30.1619 -30.1490 -30.1445
   -30.1424 -30.1404 -30.1268 -30.1221 -30.0977 -30.0923 -30.0792 -30.0765
   -19.9923 -19.9921 -19.9920 -19.9917 -19.9881 -19.9878 -19.9875 -19.9871
   -19.9852 -19.9849 -19.9846 -19.9844 -19.9840 -19.9838 -19.9837 -19.9836
   -19.9785 -19.9783 -19.9780 -19.9777 -19.9776 -19.9774 -19.9771 -19.9767
   -19.9765 -19.9765 -19.9762 -19.9757 -19.9754 -19.9752 -19.9749 -19.9747
   -19.9628 -19.9626 -19.9625 -19.9623 -19.9623 -19.9621 -19.9620 -19.9618
   -19.9300 -19.9295 -19.9293 -19.9282 -19.9279 -19.9273 -19.9273 -19.9263
   -19.9259 -19.9256 -19.9253 -19.9246 -19.9241 -19.9230 -19.9228 -19.9222
    -9.6063  -9.3890  -9.2565  -9.2020  -9.0325  -9.0148  -8.7492  -8.7277
    -8.6860  -8.6564  -8.5937  -8.5411  -8.0942  -8.0028  -7.9866  -7.9118
    -7.7738  -7.7216  -7.6946  -7.6669  -7.6578  -7.6455  -7.6334  -7.5859
     1.6079   1.6287   1.7044   1.7340   1.7979   1.8133   1.8965   1.9149
     2.4392   2.5135   2.6224   2.7230   2.8006   2.9000   2.9805   3.0297
     3.0968   3.1863   3.9104   3.9849   4.0682   4.0836   4.2594   4.4581
     4.4875   4.6002   4.6583   4.6630   4.7416   4.8678   4.9499   5.0477
     5.1877   5.2031   5.2659   5.3465   5.4142   5.5447   5.6901   5.7738
     5.8095   5.8877   5.8952   5.9330   5.9694   6.1448   6.2249   6.2633
     6.4935   6.5792   6.6095   6.6447   6.6802   6.7824   6.7961   6.8402
     6.8578   6.9774   7.0007   7.0299   7.2218   7.2584   7.2750   7.3735
     7.4482   7.4855   7.8664   7.8765   8.0133   8.0434   8.1733   8.1938
    10.4723  10.4823  10.7922  10.8959  11.0788  11.2344  12.0976  12.1873
    12.3125  12.5830  12.6319  12.6585  12.7717  12.8497  12.9531  13.0163
    13.1066  13.2415  13.3012  13.4675  13.8140  13.8378  14.0755  14.0989
    14.6334  14.7920  15.0539  15.4777  15.5412  15.9880  16.1094  16.3407
    16.5264  17.2621  17.5025  17.5753  17.6836  17.8044

          k = 0.1667 0.0000-0.5000 ( 61982 PWs)   bands (ev):

   -65.8451 -65.8451 -65.8446 -65.8446 -65.8442 -65.8442 -65.8438 -65.8438
   -30.3074 -30.3074 -30.3015 -30.3015 -30.2552 -30.2552 -30.2435 -30.2435
   -30.2023 -30.2022 -30.1722 -30.1722 -30.1643 -30.1643 -30.1565 -30.1565
   -30.1326 -30.1326 -30.1212 -30.1212 -30.1124 -30.1124 -30.0780 -30.0779
   -19.9922 -19.9922 -19.9919 -19.9919 -19.9879 -19.9879 -19.9873 -19.9873
   -19.9850 -19.9850 -19.9845 -19.9845 -19.9839 -19.9839 -19.9836 -19.9836
   -19.9784 -19.9784 -19.9778 -19.9778 -19.9772 -19.9772 -19.9769 -19.9769
   -19.9766 -19.9766 -19.9760 -19.9760 -19.9755 -19.9755 -19.9748 -19.9748
   -19.9626 -19.9626 -19.9625 -19.9624 -19.9621 -19.9621 -19.9620 -19.9620
   -19.9297 -19.9296 -19.9285 -19.9285 -19.9270 -19.9270 -19.9267 -19.9267
   -19.9263 -19.9263 -19.9251 -19.9251 -19.9238 -19.9238 -19.9227 -19.9226
    -9.4817  -9.4816  -9.1207  -9.1207  -9.0823  -9.0823  -8.7063  -8.7063
    -8.4398  -8.4397  -8.3761  -8.3761  -8.3350  -8.3350  -8.2575  -8.2574
    -7.7500  -7.7499  -7.6778  -7.6778  -7.6468  -7.6468  -7.6208  -7.6208
     1.6162   1.6162   1.7196   1.7196   1.8143   1.8143   1.9238   1.9238
     2.8315   2.8315   3.1369   3.1370   3.2235   3.2235   3.3433   3.3433
     3.4438   3.4438   3.5492   3.5492   3.7288   3.7288   3.9619   3.9620
     3.9854   3.9854   4.5642   4.5642   4.6474   4.6474   5.0406   5.0406
     5.1567   5.1567   5.2182   5.2182   5.4165   5.4165   5.7493   5.7493
     5.8906   5.8906   5.9227   5.9227   6.0089   6.0089   6.1251   6.1251
     6.4537   6.4538   6.5528   6.5528   6.7561   6.7561   6.8058   6.8058
     6.9569   6.9569   7.0755   7.0755   7.1394   7.1394   7.6403   7.6403
     7.6817   7.6817   7.7912   7.7912   7.8230   7.8230   8.1851   8.1851
    10.4918  10.4918  11.4690  11.4690  11.5961  11.5961  11.7459  11.7459
    11.9862  11.9862  12.7689  12.7690  12.8742  12.8742  12.9401  12.9401
    13.1073  13.1073  13.4597  13.4597  13.5504  13.5504  14.0811  14.0812
    14.7389  14.7389  15.3421  15.3421  15.9061  15.9062  16.2417  16.2417
    16.8502  16.8502  17.8820  17.8821  17.9962  17.9962

          k = 0.1667 0.1588 0.1667 ( 61894 PWs)   bands (ev):

   -65.8455 -65.8451 -65.8446 -65.8446 -65.8442 -65.8442 -65.8438 -65.8434
   -30.3069 -30.3009 -30.3009 -30.2948 -30.2649 -30.2540 -30.2539 -30.2432
   -30.2116 -30.1999 -30.1997 -30.1964 -30.1656 -30.1645 -30.1622 -30.1621
   -30.1277 -30.1248 -30.1247 -30.1234 -30.0801 -30.0801 -30.0760 -30.0748
   -19.9921 -19.9917 -19.9917 -19.9913 -19.9884 -19.9879 -19.9879 -19.9873
   -19.9852 -19.9847 -19.9847 -19.9843 -19.9841 -19.9838 -19.9838 -19.9836
   -19.9787 -19.9782 -19.9782 -19.9780 -19.9777 -19.9776 -19.9775 -19.9768
   -19.9763 -19.9762 -19.9758 -19.9758 -19.9751 -19.9750 -19.9750 -19.9746
   -19.9629 -19.9627 -19.9624 -19.9624 -19.9622 -19.9622 -19.9619 -19.9618
   -19.9303 -19.9302 -19.9290 -19.9290 -19.9280 -19.9280 -19.9272 -19.9272
   -19.9250 -19.9250 -19.9247 -19.9247 -19.9233 -19.9233 -19.9219 -19.9219
    -9.6881  -9.4073  -9.2932  -9.2917  -8.9918  -8.9891  -8.9084  -8.7749
    -8.7723  -8.6738  -8.6413  -8.6396  -7.8735  -7.8026  -7.7936  -7.7778
    -7.7574  -7.7414  -7.6920  -7.6827  -7.6655  -7.6533  -7.5635  -7.5553
     1.6843   1.6950   1.7213   1.7242   1.7957   1.8075   1.8123   1.9570
     2.0325   2.0353   2.1110   2.3231   2.7206   2.8066   2.8268   2.8900
     2.9835   3.0100   4.1207   4.1214   4.2787   4.2940   4.5608   4.5707
     4.6515   4.6829   4.7174   4.8298   4.8657   4.9005   5.0818   5.3064
     5.3320   5.4187   5.4392   5.5343   5.5460   5.6786   5.6810   5.7490
     5.8607   5.8877   5.9062   5.9281   5.9547   5.9950   6.3483   6.3696
     6.4620   6.5503   6.6690   6.7448   6.8089   6.8270   6.8624   6.8830
     6.9279   6.9448   7.0125   7.0239   7.0768   7.0995   7.1416   7.2256
     7.4150   7.4602   7.9088   7.9144   8.0725   8.0885   8.1156   8.1479
    10.2188  10.2654  10.6288  10.6380  10.6824  10.7544  12.3909  12.4157
    12.4433  12.4550  12.5908  12.6111  12.6812  12.7578  12.9329  13.0461
    13.2075  13.3385  13.4272  13.5114  13.9745  13.9821  14.0624  14.0858
    14.7295  15.0635  15.0700  15.3100  15.7475  15.7620  16.0427  16.4439
    16.4564  16.8998  17.1566  17.1634  17.7190  17.7701

          k = 0.1667 0.1588 0.3333 ( 61944 PWs)   bands (ev):

   -65.8453 -65.8449 -65.8448 -65.8445 -65.8444 -65.8441 -65.8439 -65.8436
   -30.3054 -30.3020 -30.2994 -30.2959 -30.2615 -30.2555 -30.2506 -30.2447
   -30.2058 -30.2009 -30.1880 -30.1854 -30.1656 -30.1619 -30.1490 -30.1446
   -30.1424 -30.1405 -30.1270 -30.1222 -30.0977 -30.0923 -30.0792 -30.0765
   -19.9920 -19.9918 -19.9916 -19.9914 -19.9883 -19.9880 -19.9878 -19.9874
   -19.9851 -19.9848 -19.9846 -19.9844 -19.9841 -19.9839 -19.9838 -19.9836
   -19.9785 -19.9782 -19.9780 -19.9777 -19.9776 -19.9774 -19.9771 -19.9766
   -19.9766 -19.9765 -19.9762 -19.9757 -19.9755 -19.9752 -19.9750 -19.9748
   -19.9627 -19.9626 -19.9625 -19.9623 -19.9623 -19.9621 -19.9620 -19.9618
   -19.9300 -19.9295 -19.9293 -19.9282 -19.9279 -19.9273 -19.9273 -19.9263
   -19.9259 -19.9256 -19.9253 -19.9246 -19.9241 -19.9230 -19.9228 -19.9222
    -9.5688  -9.3467  -9.2685  -9.1455  -9.0397  -8.9412  -8.7543  -8.7024
    -8.6574  -8.6525  -8.5837  -8.5246  -8.0969  -8.0125  -7.9897  -7.9219
    -7.8102  -7.7906  -7.7627  -7.7410  -7.7296  -7.6767  -7.6571  -7.5855
     1.7261   1.7402   1.8198   1.8396   1.9123   1.9221   2.0024   2.0355
     2.4410   2.5196   2.6263   2.7325   2.8762   2.9624   3.0045   3.0886
     3.1116   3.2440   3.9121   3.9918   4.0242   4.0704   4.2861   4.2950
     4.3790   4.5163   4.5863   4.6810   4.7246   4.8072   4.9098   4.9492
     5.0589   5.0846   5.1497   5.2591   5.3675   5.4041   5.4851   5.7179
     5.7544   5.7762   5.8874   5.9233   5.9548   5.9810   6.2011   6.2580
     6.4930   6.6032   6.6587   6.7270   6.7684   6.8058   6.8341   6.9194
     6.9429   6.9783   7.0336   7.0771   7.2187   7.2611   7.2728   7.3749
     7.4487   7.4848   7.8661   7.8730   7.9776   8.0043   8.1162   8.1277
    10.6083  10.6278  10.8237  10.9101  11.1879  11.3137  12.0973  12.1889
    12.3030  12.5712  12.6153  12.6853  12.7063  12.7310  12.8917  12.9806
    13.0186  13.2222  13.2815  13.4551  13.7182  13.7490  14.0188  14.0408
    14.8997  15.0458  15.3766  15.5860  15.9277  15.9944  16.1175  16.3445
    16.6061  17.2328  17.2974  17.5603  17.6308  17.8944

          k = 0.1667 0.1588-0.5000 ( 61948 PWs)   bands (ev):

   -65.8451 -65.8451 -65.8447 -65.8447 -65.8442 -65.8442 -65.8438 -65.8438
   -30.3036 -30.3036 -30.2975 -30.2975 -30.2581 -30.2581 -30.2472 -30.2472
   -30.2027 -30.2027 -30.1726 -30.1726 -30.1645 -30.1645 -30.1566 -30.1566
   -30.1328 -30.1328 -30.1213 -30.1212 -30.1125 -30.1124 -30.0780 -30.0780
   -19.9919 -19.9919 -19.9915 -19.9915 -19.9882 -19.9882 -19.9876 -19.9876
   -19.9850 -19.9850 -19.9845 -19.9845 -19.9840 -19.9840 -19.9837 -19.9837
   -19.9783 -19.9783 -19.9778 -19.9778 -19.9771 -19.9771 -19.9769 -19.9769
   -19.9766 -19.9766 -19.9761 -19.9761 -19.9755 -19.9755 -19.9749 -19.9749
   -19.9626 -19.9626 -19.9625 -19.9625 -19.9621 -19.9621 -19.9620 -19.9620
   -19.9297 -19.9296 -19.9285 -19.9285 -19.9270 -19.9270 -19.9267 -19.9267
   -19.9263 -19.9263 -19.9251 -19.9251 -19.9238 -19.9238 -19.9227 -19.9226
    -9.4410  -9.4410  -9.1303  -9.1303  -9.0130  -9.0129  -8.6752  -8.6752
    -8.4411  -8.4410  -8.3827  -8.3827  -8.3323  -8.3322  -8.2559  -8.2558
    -7.8063  -7.8063  -7.7504  -7.7504  -7.7104  -7.7104  -7.6212  -7.6212
     1.7345   1.7345   1.8379   1.8379   1.9239   1.9239   2.0363   2.0363
     2.9021   2.9021   3.1538   3.1538   3.2390   3.2391   3.3613   3.3613
     3.4478   3.4478   3.5576   3.5576   3.7243   3.7243   3.9660   3.9661
     4.0306   4.0306   4.4099   4.4100   4.6161   4.6162   4.8382   4.8382
     5.0522   5.0522   5.1845   5.1846   5.2667   5.2667   5.5869   5.5869
     5.8114   5.8114   5.8671   5.8671   5.9876   5.9876   6.0158   6.0158
     6.5711   6.5711   6.7088   6.7088   6.7565   6.7565   6.8642   6.8642
     7.0169   7.0169   7.0569   7.0569   7.1648   7.1648   7.6406   7.6406
     7.6742   7.6743   7.7744   7.7744   7.8034   7.8034   8.1225   8.1225
    10.6439  10.6439  11.4792  11.4792  11.5979  11.5979  11.8115  11.8115
    12.0398  12.0398  12.7199  12.7199  12.7929  12.7929  12.9144  12.9144
    13.0895  13.0895  13.3515  13.3515  13.4795  13.4795  14.0208  14.0208
    15.0014  15.0015  15.6964  15.6965  16.0171  16.0171  16.2387  16.2387
    16.8810  16.8810  17.7291  17.7291  17.9815  17.9815

          k = 0.1667 0.3175 0.1667 ( 61942 PWs)   bands (ev):

   -65.8454 -65.8452 -65.8446 -65.8446 -65.8443 -65.8443 -65.8437 -65.8435
   -30.2970 -30.2907 -30.2907 -30.2838 -30.2725 -30.2624 -30.2624 -30.2539
   -30.2094 -30.2016 -30.2012 -30.2005 -30.1654 -30.1648 -30.1624 -30.1623
   -30.1269 -30.1250 -30.1249 -30.1245 -30.0801 -30.0801 -30.0757 -30.0750
   -19.9912 -19.9909 -19.9908 -19.9904 -19.9891 -19.9886 -19.9886 -19.9881
   -19.9851 -19.9847 -19.9847 -19.9844 -19.9842 -19.9840 -19.9840 -19.9838
   -19.9785 -19.9782 -19.9781 -19.9780 -19.9777 -19.9777 -19.9775 -19.9771
   -19.9762 -19.9761 -19.9758 -19.9758 -19.9752 -19.9752 -19.9750 -19.9748
   -19.9628 -19.9628 -19.9624 -19.9624 -19.9622 -19.9622 -19.9619 -19.9618
   -19.9302 -19.9302 -19.9290 -19.9290 -19.9280 -19.9280 -19.9272 -19.9272
   -19.9250 -19.9250 -19.9247 -19.9247 -19.9233 -19.9233 -19.9219 -19.9219
    -9.6052  -9.4466  -9.1969  -9.1952  -9.0108  -9.0084  -8.7725  -8.7686
    -8.6973  -8.5464  -8.5324  -8.5310  -8.0838  -8.0312  -8.0311  -8.0111
    -7.7907  -7.7905  -7.6912  -7.6855  -7.6717  -7.6651  -7.5623  -7.5576
     1.6907   1.6940   1.7458   1.7469   1.8264   1.8271   2.0432   2.1062
     2.4956   2.6126   2.6200   2.7428   2.7572   2.8151   3.0489   3.1359
     3.2122   3.2206   3.7972   3.7987   3.8309   3.8929   4.2262   4.5608
     4.5657   4.6017   4.6223   4.7035   4.7201   4.8740   4.8967   4.9698
     5.0204   5.0497   5.2735   5.2815   5.5123   5.5349   5.5427   5.5820
     5.7739   5.7874   5.8879   5.8920   5.9416   5.9621   6.3590   6.3802
     6.5230   6.5841   6.6523   6.7410   6.8965   6.9104   6.9186   6.9564
     7.0641   7.0696   7.1131   7.1270   7.2095   7.2124   7.2480   7.2716
     7.4424   7.4621   7.8627   7.8900   7.9213   7.9418   7.9474   7.9595
    10.2539  10.2746  11.0267  11.0577  11.0862  11.1512  12.0881  12.1266
    12.2103  12.2842  12.4666  12.4740  12.6228  12.6243  12.9920  13.0528
    13.3012  13.3657  13.4574  13.5252  13.7677  13.7828  13.8538  13.9100
    15.2491  15.6004  15.6314  15.7385  15.7764  15.9062  16.3301  16.3443
    16.3763  17.0142  17.4347  17.5048  17.5558  17.8906

          k = 0.1667 0.3175 0.3333 ( 61930 PWs)   bands (ev):

   -65.8452 -65.8450 -65.8447 -65.8445 -65.8444 -65.8441 -65.8439 -65.8436
   -30.2953 -30.2918 -30.2888 -30.2850 -30.2696 -30.2640 -30.2601 -30.2553
   -30.2054 -30.2022 -30.1903 -30.1863 -30.1658 -30.1620 -30.1492 -30.1447
   -30.1425 -30.1408 -30.1274 -30.1224 -30.0977 -30.0923 -30.0793 -30.0766
   -19.9912 -19.9909 -19.9908 -19.9905 -19.9890 -19.9887 -19.9885 -19.9882
   -19.9850 -19.9848 -19.9845 -19.9844 -19.9843 -19.9841 -19.9840 -19.9839
   -19.9783 -19.9781 -19.9779 -19.9777 -19.9776 -19.9774 -19.9772 -19.9768
   -19.9765 -19.9764 -19.9761 -19.9757 -19.9757 -19.9753 -19.9752 -19.9750
   -19.9627 -19.9626 -19.9625 -19.9623 -19.9623 -19.9621 -19.9619 -19.9619
   -19.9300 -19.9295 -19.9293 -19.9282 -19.9279 -19.9273 -19.9273 -19.9263
   -19.9259 -19.9256 -19.9253 -19.9246 -19.9241 -19.9230 -19.9228 -19.9222
    -9.4783  -9.3069  -9.2501  -9.0632  -9.0074  -8.7780  -8.7327  -8.6659
    -8.6433  -8.5460  -8.5093  -8.4571  -8.1464  -8.1086  -8.0432  -8.0242
    -8.0148  -7.9537  -7.9382  -7.8600  -7.7558  -7.6833  -7.6596  -7.5863
     1.7579   1.7782   1.8402   1.8644   2.3483   2.4308   2.4492   2.5358
     2.6046   2.6491   2.6622   2.8490   3.0138   3.0788   3.1117   3.1996
     3.3427   3.4283   3.7719   3.8032   3.8623   3.9428   4.0317   4.1082
     4.2038   4.4032   4.5191   4.5460   4.5719   4.6762   4.6844   4.8136
     4.8955   4.9420   4.9860   5.0148   5.0815   5.1574   5.2823   5.3039
     5.4622   5.4942   5.5754   5.7450   5.9113   5.9578   6.2325   6.2591
     6.6610   6.7014   6.7638   6.8253   6.9005   6.9656   7.0375   7.0792
     7.1144   7.1321   7.1475   7.2012   7.2512   7.2816   7.3227   7.3844
     7.4522   7.4920   7.8114   7.8411   7.8768   7.8943   7.9247   7.9479
    10.7959  10.8472  11.0765  11.1134  11.4954  11.5752  12.0486  12.1220
    12.2097  12.3056  12.3967  12.4503  12.6569  12.7721  12.8204  12.8369
    13.0428  13.1812  13.2811  13.4570  13.4920  13.5642  13.8097  13.8451
    15.4648  15.6020  15.8918  16.0910  16.1521  16.1767  16.2852  16.7810
    16.8900  16.9481  17.1396  17.6541  17.7459  17.7763

          k = 0.1667 0.3175-0.5000 ( 61952 PWs)   bands (ev):

   -65.8450 -65.8450 -65.8448 -65.8447 -65.8441 -65.8441 -65.8439 -65.8439
   -30.2935 -30.2934 -30.2867 -30.2867 -30.2665 -30.2665 -30.2575 -30.2575
   -30.2035 -30.2035 -30.1735 -30.1735 -30.1649 -30.1648 -30.1568 -30.1568
   -30.1330 -30.1330 -30.1213 -30.1213 -30.1125 -30.1125 -30.0780 -30.0780
   -19.9911 -19.9911 -19.9907 -19.9906 -19.9889 -19.9889 -19.9883 -19.9883
   -19.9849 -19.9849 -19.9844 -19.9844 -19.9842 -19.9842 -19.9840 -19.9839
   -19.9782 -19.9782 -19.9778 -19.9778 -19.9770 -19.9770 -19.9769 -19.9769
   -19.9766 -19.9766 -19.9763 -19.9763 -19.9755 -19.9755 -19.9751 -19.9751
   -19.9626 -19.9626 -19.9625 -19.9625 -19.9621 -19.9621 -19.9620 -19.9620
   -19.9297 -19.9296 -19.9285 -19.9285 -19.9270 -19.9270 -19.9267 -19.9267
   -19.9263 -19.9263 -19.9251 -19.9251 -19.9238 -19.9238 -19.9227 -19.9226
    -9.3455  -9.3455  -9.1615  -9.1615  -8.8233  -8.8233  -8.5761  -8.5761
    -8.4541  -8.4540  -8.4071  -8.4071  -8.3211  -8.3211  -8.2468  -8.2468
    -8.0227  -8.0227  -7.9838  -7.9838  -7.7214  -7.7214  -7.6225  -7.6225
     1.7741   1.7741   1.8627   1.8628   2.4961   2.4961   2.6184   2.6184
     3.0976   3.0976   3.2039   3.2039   3.2480   3.2481   3.4126   3.4126
     3.4561   3.4561   3.5872   3.5872   3.6999   3.7000   3.8531   3.8531
     4.1320   4.1320   4.2070   4.2070   4.3101   4.3101   4.4956   4.4956
     4.8695   4.8695   4.9611   4.9611   5.1284   5.1285   5.1893   5.1894
     5.2989   5.2989   5.6489   5.6489   5.9993   5.9993   6.0241   6.0241
     6.7417   6.7417   6.8855   6.8855   6.9450   6.9451   6.9894   6.9894
     7.1359   7.1359   7.1880   7.1880   7.2797   7.2797   7.6221   7.6221
     7.6488   7.6488   7.7114   7.7115   7.7465   7.7465   7.9312   7.9312
    11.0515  11.0516  11.5002  11.5002  11.6024  11.6024  11.9500  11.9500
    12.2122  12.2122  12.4000  12.4000  12.7312  12.7312  12.7985  12.7985
    13.0036  13.0036  13.1321  13.1321  13.4371  13.4371  13.8114  13.8114
    15.5541  15.5541  16.0901  16.0901  16.4558  16.4558  16.6392  16.6392
    17.0073  17.0073  17.3899  17.3900  17.9347  17.9347

          k = 0.1667-0.4763 0.1667 ( 61942 PWs)   bands (ev):

   -65.8453 -65.8453 -65.8445 -65.8444 -65.8444 -65.8444 -65.8436 -65.8436
   -30.2842 -30.2842 -30.2806 -30.2805 -30.2718 -30.2718 -30.2688 -30.2688
   -30.2058 -30.2058 -30.2018 -30.2018 -30.1651 -30.1651 -30.1624 -30.1624
   -30.1258 -30.1258 -30.1250 -30.1250 -30.0802 -30.0801 -30.0754 -30.0754
   -19.9901 -19.9901 -19.9899 -19.9899 -19.9894 -19.9894 -19.9892 -19.9892
   -19.9848 -19.9848 -19.9846 -19.9846 -19.9841 -19.9841 -19.9840 -19.9840
   -19.9783 -19.9783 -19.9780 -19.9780 -19.9777 -19.9777 -19.9774 -19.9774
   -19.9761 -19.9761 -19.9757 -19.9757 -19.9753 -19.9753 -19.9750 -19.9750
   -19.9628 -19.9628 -19.9624 -19.9624 -19.9622 -19.9622 -19.9618 -19.9618
   -19.9302 -19.9302 -19.9290 -19.9290 -19.9280 -19.9280 -19.9272 -19.9272
   -19.9250 -19.9250 -19.9247 -19.9247 -19.9233 -19.9233 -19.9219 -19.9219
    -9.5148  -9.5148  -9.1364  -9.1364  -9.0296  -9.0296  -8.7697  -8.7697
    -8.3946  -8.3946  -8.3261  -8.3261  -8.3144  -8.3144  -8.3065  -8.3065
    -7.7924  -7.7924  -7.6888  -7.6888  -7.6695  -7.6695  -7.5603  -7.5603
     1.6923   1.6923   1.7487   1.7487   1.8296   1.8296   2.0943   2.0943
     2.7634   2.7634   3.1585   3.1585   3.2858   3.2858   3.3689   3.3689
     3.4382   3.4382   3.5477   3.5477   3.6549   3.6549   3.7892   3.7892
     3.8912   3.8912   4.6104   4.6104   4.6735   4.6735   5.0695   5.0695
     5.1351   5.1352   5.2348   5.2348   5.2936   5.2936   5.5891   5.5891
     5.6378   5.6378   5.8907   5.8907   5.9311   5.9311   6.3826   6.3826
     6.6109   6.6109   6.6652   6.6652   6.9092   6.9092   6.9678   6.9678
     7.0843   7.0843   7.1803   7.1803   7.3856   7.3856   7.5250   7.5250
     7.6007   7.6008   7.6211   7.6211   7.6800   7.6801   7.9240   7.9240
    10.2705  10.2705  11.5324  11.5324  11.6034  11.6034  11.6678  11.6678
    11.7540  11.7540  12.4669  12.4669  12.6202  12.6202  13.0451  13.0452
    13.4898  13.4898  13.5210  13.5210  13.5562  13.5562  13.7485  13.7485
    15.6823  15.6824  15.8255  15.8255  16.0418  16.0418  16.1717  16.1717
    16.7893  16.7893  17.9351  17.9351  17.9874  17.9874

          k = 0.1667-0.4763 0.3333 ( 61950 PWs)   bands (ev):

   -65.8451 -65.8451 -65.8446 -65.8446 -65.8443 -65.8442 -65.8438 -65.8437
   -30.2835 -30.2814 -30.2805 -30.2771 -30.2736 -30.2713 -30.2706 -30.2695
   -30.2051 -30.2028 -30.1915 -30.1868 -30.1659 -30.1620 -30.1492 -30.1448
   -30.1425 -30.1409 -30.1276 -30.1224 -30.0977 -30.0923 -30.0793 -30.0766
   -19.9901 -19.9900 -19.9900 -19.9898 -19.9896 -19.9894 -19.9894 -19.9893
   -19.9848 -19.9847 -19.9846 -19.9845 -19.9842 -19.9841 -19.9841 -19.9841
   -19.9782 -19.9780 -19.9780 -19.9778 -19.9775 -19.9774 -19.9771 -19.9770
   -19.9764 -19.9764 -19.9761 -19.9758 -19.9756 -19.9753 -19.9753 -19.9751
   -19.9627 -19.9627 -19.9625 -19.9623 -19.9622 -19.9621 -19.9619 -19.9619
   -19.9300 -19.9295 -19.9293 -19.9282 -19.9279 -19.9273 -19.9273 -19.9263
   -19.9259 -19.9256 -19.9253 -19.9246 -19.9241 -19.9230 -19.9228 -19.9222
    -9.3967  -9.3616  -9.1871  -9.0887  -8.9065  -8.8118  -8.6626  -8.6364
    -8.4369  -8.4290  -8.3464  -8.3339  -8.3075  -8.3040  -8.2910  -8.2750
    -8.0642  -7.9691  -7.9630  -7.8764  -7.7567  -7.6840  -7.6603  -7.5868
     1.7609   1.7808   1.8433   1.8668   2.4045   2.4757   2.5799   2.6454
     3.0270   3.0302   3.1638   3.1872   3.3065   3.3415   3.3653   3.3767
     3.4302   3.4455   3.5729   3.6276   3.6737   3.7638   3.8359   3.8847
     3.9366   3.9435   4.0443   4.1177   4.5301   4.5710   4.7405   4.7511
     4.8041   4.8477   4.9407   4.9992   5.0923   5.1490   5.1735   5.2129
     5.2847   5.3504   5.4926   5.5716   5.9105   5.9404   6.2396   6.2614
     6.7334   6.7481   6.7757   6.8349   6.9184   7.0226   7.1303   7.1771
     7.1888   7.2447   7.2571   7.2992   7.3303   7.3519   7.5006   7.5567
     7.5679   7.5927   7.6130   7.6340   7.6661   7.6790   7.8845   7.8872
    10.8227  10.8645  11.5456  11.5930  11.6572  11.7073  11.9141  11.9670
    12.0113  12.0551  12.1401  12.2494  12.6439  12.7737  12.8869  12.9169
    13.0629  13.1148  13.2557  13.3318  13.5289  13.5604  13.6269  13.6775
    15.7349  15.8798  15.9585  16.0921  16.3055  16.4290  16.7430  16.8409
    16.9679  16.9882  17.4748  17.5284  17.8901  17.9653

          k = 0.1667-0.4763-0.5000 ( 61888 PWs)   bands (ev):

   -65.8449 -65.8449 -65.8449 -65.8449 -65.8440 -65.8440 -65.8440 -65.8440
   -30.2825 -30.2825 -30.2767 -30.2767 -30.2735 -30.2735 -30.2704 -30.2704
   -30.2040 -30.2040 -30.1739 -30.1739 -30.1650 -30.1650 -30.1568 -30.1568
   -30.1332 -30.1332 -30.1214 -30.1213 -30.1125 -30.1125 -30.0780 -30.0780
   -19.9901 -19.9901 -19.9898 -19.9898 -19.9896 -19.9896 -19.9893 -19.9893
   -19.9848 -19.9847 -19.9844 -19.9844 -19.9843 -19.9843 -19.9841 -19.9841
   -19.9781 -19.9781 -19.9779 -19.9779 -19.9769 -19.9769 -19.9769 -19.9769
   -19.9766 -19.9766 -19.9765 -19.9764 -19.9755 -19.9755 -19.9752 -19.9752
   -19.9626 -19.9626 -19.9625 -19.9625 -19.9621 -19.9621 -19.9620 -19.9620
   -19.9297 -19.9296 -19.9285 -19.9285 -19.9270 -19.9270 -19.9267 -19.9267
   -19.9263 -19.9263 -19.9251 -19.9251 -19.9238 -19.9238 -19.9227 -19.9226
    -9.2748  -9.2748  -9.1990  -9.1989  -8.6144  -8.6144  -8.5562  -8.5562
    -8.4602  -8.4602  -8.4277  -8.4277  -8.2768  -8.2768  -8.2322  -8.2322
    -8.2107  -8.2106  -8.1502  -8.1501  -7.7223  -7.7223  -7.6230  -7.6230
     1.7774   1.7774   1.8662   1.8662   3.0597   3.0597   3.1710   3.1710
     3.2407   3.2407   3.2701   3.2701   3.3221   3.3221   3.3977   3.3977
     3.4808   3.4808   3.5668   3.5668   3.6136   3.6136   3.7081   3.7081
     3.7715   3.7715   3.9365   3.9366   4.4115   4.4115   4.4592   4.4593
     4.5029   4.5030   4.5831   4.5831   5.0191   5.0191   5.1919   5.1919
     5.2897   5.2897   5.4537   5.4537   5.9980   5.9980   6.0239   6.0239
     6.7942   6.7943   6.9219   6.9219   6.9722   6.9723   7.0390   7.0390
     7.3554   7.3554   7.3785   7.3785   7.4570   7.4571   7.5445   7.5446
     7.5866   7.5867   7.6418   7.6418   7.7116   7.7116   7.7455   7.7455
    11.4314  11.4314  11.5225  11.5225  11.6506  11.6506  11.7538  11.7538
    12.3956  12.3956  12.4511  12.4511  12.5267  12.5267  12.5741  12.5741
    12.9564  12.9564  13.0584  13.0584  13.5483  13.5483  13.5996  13.5996
    15.8514  15.8514  15.9993  15.9993  16.9405  16.9405  17.0299  17.0299
    17.4339  17.4339  17.4989  17.4989  17.6105  17.6107

          k = 0.3333 0.0000 0.3333 ( 61968 PWs)   bands (ev):

   -65.8452 -65.8447 -65.8447 -65.8447 -65.8442 -65.8442 -65.8442 -65.8437
   -30.3077 -30.3044 -30.3043 -30.3010 -30.2550 -30.2489 -30.2487 -30.2424
   -30.1952 -30.1867 -30.1864 -30.1823 -30.1531 -30.1531 -30.1463 -30.1449
   -30.1437 -30.1404 -30.1347 -30.1345 -30.0969 -30.0967 -30.0946 -30.0932
   -19.9923 -19.9921 -19.9920 -19.9918 -19.9880 -19.9877 -19.9876 -19.9873
   -19.9851 -19.9848 -19.9848 -19.9845 -19.9839 -19.9838 -19.9837 -19.9836
   -19.9782 -19.9780 -19.9778 -19.9776 -19.9774 -19.9773 -19.9770 -19.9768
   -19.9767 -19.9763 -19.9761 -19.9760 -19.9755 -19.9754 -19.9753 -19.9750
   -19.9626 -19.9625 -19.9624 -19.9624 -19.9622 -19.9622 -19.9621 -19.9619
   -19.9292 -19.9292 -19.9284 -19.9284 -19.9274 -19.9274 -19.9264 -19.9264
   -19.9261 -19.9260 -19.9253 -19.9253 -19.9240 -19.9239 -19.9232 -19.9232
    -9.4796  -9.2553  -9.2510  -9.0801  -9.0512  -8.8030  -8.7906  -8.6508
    -8.5740  -8.5610  -8.5582  -8.5339  -8.1102  -8.0638  -8.0502  -8.0286
    -7.9640  -7.9509  -7.8775  -7.8512  -7.6938  -7.6684  -7.6683  -7.6435
     1.6496   1.6836   1.6863   1.7175   2.3708   2.3740   2.4491   2.4637
     2.5333   2.5382   2.6982   2.8033   3.0032   3.0657   3.0993   3.1431
     3.3645   3.4000   3.8718   3.9340   4.0434   4.0687   4.2205   4.2322
     4.2612   4.3003   4.4138   4.4870   4.5631   4.6007   4.7144   4.7144
     4.9130   5.0308   5.1127   5.1539   5.1661   5.2105   5.3176   5.5540
     5.5764   5.6426   5.6523   5.7642   5.9960   6.0162   6.0171   6.1947
     6.5563   6.5582   6.5933   6.5973   6.6121   6.6445   6.6738   6.7170
     7.0910   7.2427   7.2907   7.3193   7.3680   7.4109   7.4773   7.4880
     7.5263   7.5865   7.8295   7.8380   7.9894   8.0183   8.0992   8.1034
    10.9348  11.0242  11.0992  11.1242  11.3031  11.4775  12.2617  12.2663
    12.3062  12.3326  12.3884  12.4673  12.6783  12.7014  13.0005  13.0216
    13.0532  13.1183  13.2158  13.2790  13.7222  13.8022  13.8115  13.9141
    14.7693  15.0081  15.0169  15.4488  15.8581  16.4467  16.4622  16.7428
    16.8786  17.2083  17.3376  17.8081  17.8126  17.9113

          k = 0.3333 0.0000-0.5000 ( 62008 PWs)   bands (ev):

   -65.8449 -65.8449 -65.8445 -65.8445 -65.8444 -65.8444 -65.8440 -65.8439
   -30.3060 -30.3060 -30.3026 -30.3026 -30.2515 -30.2514 -30.2451 -30.2451
   -30.1887 -30.1887 -30.1681 -30.1681 -30.1656 -30.1656 -30.1454 -30.1454
   -30.1420 -30.1420 -30.1206 -30.1206 -30.1167 -30.1167 -30.0955 -30.0955
   -19.9922 -19.9922 -19.9920 -19.9919 -19.9878 -19.9878 -19.9875 -19.9875
   -19.9849 -19.9849 -19.9846 -19.9846 -19.9838 -19.9838 -19.9837 -19.9837
   -19.9780 -19.9780 -19.9776 -19.9775 -19.9773 -19.9772 -19.9770 -19.9770
   -19.9765 -19.9765 -19.9759 -19.9759 -19.9758 -19.9758 -19.9752 -19.9752
   -19.9625 -19.9625 -19.9623 -19.9623 -19.9622 -19.9622 -19.9621 -19.9621
   -19.9288 -19.9288 -19.9282 -19.9281 -19.9272 -19.9272 -19.9267 -19.9267
   -19.9260 -19.9260 -19.9252 -19.9251 -19.9243 -19.9243 -19.9236 -19.9236
    -9.3465  -9.3465  -9.1260  -9.1260  -8.9002  -8.9002  -8.5983  -8.5983
    -8.4720  -8.4720  -8.3678  -8.3677  -8.3290  -8.3289  -8.2563  -8.2562
    -8.0067  -8.0066  -7.9176  -7.9175  -7.6821  -7.6821  -7.6568  -7.6568
     1.6663   1.6663   1.7015   1.7015   2.4672   2.4672   2.5441   2.5442
     3.0289   3.0289   3.1726   3.1727   3.2151   3.2152   3.3822   3.3823
     3.4822   3.4823   3.7084   3.7084   3.8830   3.8830   3.9764   3.9764
     4.0528   4.0528   4.1674   4.1674   4.3636   4.3636   4.5494   4.5494
     4.8457   4.8457   5.0639   5.0639   5.2001   5.2001   5.2810   5.2810
     5.4179   5.4180   5.6572   5.6572   6.0361   6.0361   6.1464   6.1464
     6.4986   6.4986   6.5244   6.5244   6.5871   6.5871   6.6707   6.6707
     7.2585   7.2585   7.4175   7.4175   7.4935   7.4935   7.6588   7.6588
     7.6969   7.6970   7.8063   7.8063   7.8337   7.8337   8.0753   8.0753
    11.0677  11.0677  11.6634  11.6634  11.7647  11.7647  11.8464  11.8464
    12.0929  12.0929  12.4073  12.4073  12.6571  12.6571  12.8837  12.8837
    13.0794  13.0794  13.4115  13.4115  13.4520  13.4520  13.8231  13.8231
    14.9226  14.9226  15.2730  15.2731  16.3195  16.3195  16.8334  16.8334
    17.1800  17.1800  17.5419  17.5420  18.0050  18.0050

          k = 0.3333 0.1588 0.3333 ( 61963 PWs)   bands (ev):

   -65.8451 -65.8447 -65.8446 -65.8446 -65.8442 -65.8442 -65.8441 -65.8437
   -30.3039 -30.3005 -30.3004 -30.2970 -30.2581 -30.2522 -30.2520 -30.2462
   -30.1947 -30.1871 -30.1867 -30.1836 -30.1533 -30.1532 -30.1460 -30.1448
   -30.1438 -30.1409 -30.1347 -30.1346 -30.0969 -30.0968 -30.0945 -30.0933
   -19.9919 -19.9917 -19.9917 -19.9915 -19.9882 -19.9879 -19.9879 -19.9875
   -19.9850 -19.9847 -19.9847 -19.9845 -19.9840 -19.9839 -19.9838 -19.9837
   -19.9782 -19.9779 -19.9778 -19.9776 -19.9774 -19.9773 -19.9770 -19.9768
   -19.9767 -19.9763 -19.9761 -19.9760 -19.9755 -19.9755 -19.9754 -19.9750
   -19.9626 -19.9625 -19.9624 -19.9623 -19.9622 -19.9622 -19.9620 -19.9619
   -19.9292 -19.9292 -19.9284 -19.9284 -19.9274 -19.9274 -19.9264 -19.9264
   -19.9261 -19.9260 -19.9253 -19.9253 -19.9240 -19.9239 -19.9232 -19.9232
    -9.4357  -9.2009  -9.1959  -9.0930  -8.9786  -8.8110  -8.7986  -8.6221
[...]
    12.1311  12.1311  12.4370  12.4370  12.6485  12.6485  12.8785  12.8785
    12.9594  12.9594  13.2915  13.2915  13.3329  13.3329  13.7249  13.7249
    15.2663  15.2663  15.6418  15.6418  16.4020  16.4020  16.8364  16.8364
    17.1827  17.1827  17.5500  17.5500  17.8655  17.8655

          k = 0.3333 0.3175 0.3333 ( 61905 PWs)   bands (ev):

   -65.8451 -65.8448 -65.8446 -65.8446 -65.8443 -65.8443 -65.8440 -65.8438
   -30.2935 -30.2900 -30.2899 -30.2861 -30.2669 -30.2617 -30.2615 -30.2567
   -30.1931 -30.1879 -30.1874 -30.1865 -30.1536 -30.1536 -30.1452 -30.1448
   -30.1440 -30.1422 -30.1349 -30.1348 -30.0969 -30.0968 -30.0943 -30.0935
   -19.9911 -19.9909 -19.9909 -19.9906 -19.9889 -19.9886 -19.9886 -19.9883
   -19.9849 -19.9846 -19.9846 -19.9844 -19.9843 -19.9841 -19.9841 -19.9839
   -19.9780 -19.9778 -19.9776 -19.9776 -19.9774 -19.9774 -19.9770 -19.9767
   -19.9766 -19.9766 -19.9761 -19.9760 -19.9756 -19.9756 -19.9755 -19.9752
   -19.9626 -19.9625 -19.9623 -19.9623 -19.9622 -19.9622 -19.9620 -19.9620
   -19.9292 -19.9292 -19.9284 -19.9284 -19.9274 -19.9274 -19.9264 -19.9264
   -19.9261 -19.9260 -19.9253 -19.9253 -19.9239 -19.9239 -19.9232 -19.9232
    -9.3284  -9.1357  -9.0672  -9.0609  -8.8412  -8.8281  -8.7737  -8.5638
    -8.5611  -8.4855  -8.4770  -8.4676  -8.2194  -8.0958  -8.0894  -8.0396
    -8.0325  -7.9990  -7.9897  -7.9372  -7.9221  -7.9171  -7.8549  -7.8543
     2.3339   2.3384   2.3713   2.3993   2.4384   2.4708   2.4758   2.5481
     2.6605   2.6766   2.7062   2.8875   3.2650   3.3024   3.3577   3.3936
     3.4282   3.4615   3.7858   3.8052   3.8845   3.9794   4.1090   4.1753
     4.2111   4.2946   4.3105   4.3937   4.4389   4.4999   4.5233   4.6202
     4.6331   4.7127   4.7560   4.8275   4.8910   4.9411   4.9839   5.0480
     5.0894   5.1129   5.2768   5.3797   5.4438   5.4827   5.6624   5.6657
     6.8647   6.8970   6.9467   6.9852   7.0425   7.0899   7.1333   7.1447
     7.2040   7.2631   7.3202   7.3294   7.3707   7.3989   7.4729   7.4734
     7.5349   7.5702   7.7881   7.7956   7.8535   7.8655   7.8741   7.9233
    11.1468  11.2278  11.4530  11.5062  11.5408  11.7135  12.2383  12.2448
    12.2978  12.3326  12.3549  12.4313  12.5710  12.6278  12.7697  12.8022
    12.8954  12.9110  12.9974  13.2583  13.3599  13.4431  13.4523  13.6104
    15.8946  16.0837  16.1089  16.2820  16.4436  16.4854  16.7616  16.9255
    16.9652  17.0465  17.2339  17.3310  17.7915  17.8478

          k = 0.3333 0.3175-0.5000 ( 61938 PWs)   bands (ev):

   -65.8448 -65.8448 -65.8446 -65.8446 -65.8443 -65.8443 -65.8441 -65.8441
   -30.2916 -30.2916 -30.2879 -30.2879 -30.2640 -30.2640 -30.2589 -30.2589
   -30.1890 -30.1890 -30.1696 -30.1696 -30.1660 -30.1660 -30.1463 -30.1463
   -30.1421 -30.1421 -30.1207 -30.1207 -30.1167 -30.1167 -30.0955 -30.0955
   -19.9910 -19.9910 -19.9908 -19.9907 -19.9888 -19.9888 -19.9885 -19.9885
   -19.9847 -19.9847 -19.9845 -19.9845 -19.9842 -19.9842 -19.9840 -19.9840
   -19.9778 -19.9778 -19.9775 -19.9775 -19.9771 -19.9771 -19.9770 -19.9769
   -19.9766 -19.9765 -19.9762 -19.9761 -19.9759 -19.9759 -19.9755 -19.9755
   -19.9625 -19.9625 -19.9624 -19.9624 -19.9622 -19.9622 -19.9621 -19.9621
   -19.9288 -19.9288 -19.9282 -19.9281 -19.9272 -19.9272 -19.9267 -19.9267
   -19.9260 -19.9260 -19.9252 -19.9251 -19.9243 -19.9243 -19.9236 -19.9236
    -9.1711  -9.1711  -8.9508  -8.9508  -8.8749  -8.8749  -8.5254  -8.5253
    -8.4881  -8.4881  -8.3734  -8.3733  -8.3057  -8.3057  -8.2534  -8.2533
    -8.0358  -8.0358  -8.0094  -8.0094  -7.9688  -7.9688  -7.8935  -7.8935
     2.3757   2.3757   2.4731   2.4731   2.5329   2.5329   2.6574   2.6574
     3.1783   3.1783   3.2482   3.2482   3.3252   3.3252   3.4339   3.4339
     3.5138   3.5138   3.7522   3.7522   3.8689   3.8690   3.9734   3.9735
     4.0984   4.0984   4.2260   4.2260   4.2778   4.2778   4.3941   4.3941
     4.4868   4.4869   4.6408   4.6409   4.7641   4.7641   4.9893   4.9893
     5.0908   5.0908   5.1731   5.1731   5.2359   5.2359   5.4491   5.4491
     6.9232   6.9232   7.0107   7.0107   7.0716   7.0716   7.1440   7.1440
     7.3016   7.3016   7.4042   7.4043   7.4927   7.4927   7.6232   7.6232
     7.6625   7.6625   7.7307   7.7307   7.7586   7.7586   7.8838   7.8838
    11.4479  11.4479  11.7456  11.7456  11.8552  11.8552  12.0285  12.0285
    12.2712  12.2712  12.4967  12.4967  12.5662  12.5662  12.6323  12.6323
    12.9084  12.9084  13.0195  13.0195  13.0885  13.0885  13.4731  13.4731
    16.0574  16.0574  16.5226  16.5226  16.6645  16.6645  16.8383  16.8384
    17.2053  17.2053  17.4476  17.4476  17.7231  17.7232

          k = 0.3333-0.4763 0.3333 ( 61922 PWs)   bands (ev):

   -65.8449 -65.8449 -65.8445 -65.8444 -65.8444 -65.8444 -65.8439 -65.8439
   -30.2799 -30.2799 -30.2779 -30.2779 -30.2731 -30.2731 -30.2713 -30.2713
   -30.1905 -30.1904 -30.1877 -30.1877 -30.1537 -30.1537 -30.1446 -30.1446
   -30.1437 -30.1437 -30.1349 -30.1349 -30.0969 -30.0969 -30.0939 -30.0939
   -19.9900 -19.9900 -19.9899 -19.9898 -19.9896 -19.9896 -19.9894 -19.9894
   -19.9846 -19.9846 -19.9845 -19.9845 -19.9843 -19.9842 -19.9842 -19.9842
   -19.9778 -19.9778 -19.9776 -19.9775 -19.9774 -19.9774 -19.9768 -19.9768
   -19.9766 -19.9766 -19.9760 -19.9760 -19.9757 -19.9757 -19.9755 -19.9755
   -19.9626 -19.9626 -19.9623 -19.9623 -19.9622 -19.9622 -19.9620 -19.9620
   -19.9292 -19.9292 -19.9284 -19.9284 -19.9274 -19.9274 -19.9264 -19.9264
   -19.9261 -19.9260 -19.9253 -19.9253 -19.9239 -19.9239 -19.9232 -19.9232
    -9.2147  -9.2147  -8.9615  -8.9615  -8.8773  -8.8773  -8.5638  -8.5638
    -8.4776  -8.4775  -8.3188  -8.3187  -8.2959  -8.2959  -8.2856  -8.2855
    -8.0415  -8.0415  -7.9960  -7.9960  -7.9412  -7.9412  -7.8583  -7.8583
     2.3628   2.3629   2.4233   2.4233   2.4993   2.4993   2.6801   2.6802
     3.1998   3.1998   3.2477   3.2477   3.3531   3.3531   3.4016   3.4016
     3.4534   3.4535   3.7144   3.7144   3.8232   3.8232   3.8618   3.8618
     3.9485   3.9485   4.2076   4.2076   4.3372   4.3372   4.5362   4.5363
     4.6720   4.6720   4.7583   4.7583   4.8486   4.8486   4.9256   4.9256
     5.0306   5.0306   5.1271   5.1271   5.1608   5.1608   5.6549   5.6549
     6.9804   6.9804   7.1207   7.1207   7.1994   7.1994   7.2468   7.2468
     7.3322   7.3322   7.3636   7.3636   7.4120   7.4120   7.5387   7.5387
     7.5700   7.5700   7.6377   7.6377   7.6976   7.6976   7.8550   7.8550
    11.2187  11.2187  11.8541  11.8542  11.8981  11.8981  12.0236  12.0236
    12.1029  12.1029  12.3319  12.3319  12.4586  12.4586  12.8011  12.8012
    13.0208  13.0209  13.1164  13.1164  13.1658  13.1658  13.4135  13.4135
    16.3840  16.3840  16.5225  16.5225  16.6914  16.6914  16.8067  16.8067
    17.0977  17.0977  17.5586  17.5586  17.6524  17.6524

          k = 0.3333-0.4763-0.5000 ( 61884 PWs)   bands (ev):

   -65.8447 -65.8447 -65.8447 -65.8447 -65.8442 -65.8442 -65.8442 -65.8442
   -30.2790 -30.2790 -30.2761 -30.2761 -30.2743 -30.2742 -30.2723 -30.2722
   -30.1891 -30.1891 -30.1701 -30.1701 -30.1661 -30.1661 -30.1465 -30.1465
   -30.1421 -30.1421 -30.1208 -30.1207 -30.1167 -30.1167 -30.0955 -30.0955
   -19.9899 -19.9899 -19.9898 -19.9898 -19.9897 -19.9896 -19.9895 -19.9895
   -19.9846 -19.9846 -19.9844 -19.9844 -19.9843 -19.9843 -19.9842 -19.9842
   -19.9777 -19.9776 -19.9776 -19.9776 -19.9770 -19.9770 -19.9770 -19.9770
   -19.9765 -19.9765 -19.9764 -19.9763 -19.9758 -19.9758 -19.9756 -19.9756
   -19.9624 -19.9624 -19.9624 -19.9624 -19.9621 -19.9621 -19.9621 -19.9621
   -19.9288 -19.9288 -19.9282 -19.9281 -19.9272 -19.9272 -19.9267 -19.9267
   -19.9260 -19.9260 -19.9252 -19.9251 -19.9243 -19.9243 -19.9236 -19.9236
    -9.0634  -9.0634  -9.0109  -9.0109  -8.6749  -8.6749  -8.6276  -8.6276
    -8.3964  -8.3963  -8.3721  -8.3720  -8.2680  -8.2680  -8.2311  -8.2311
    -8.2129  -8.2129  -8.1559  -8.1558  -7.9938  -7.9938  -7.9048  -7.9048
     2.4369   2.4369   2.5135   2.5135   3.0867   3.0867   3.1578   3.1579
     3.2413   3.2414   3.2874   3.2875   3.3619   3.3619   3.4138   3.4138
     3.5527   3.5528   3.6000   3.6001   3.7542   3.7542   3.8463   3.8463
     3.9568   3.9568   4.0541   4.0541   4.3447   4.3447   4.4091   4.4091
     4.4942   4.4943   4.5344   4.5345   4.6221   4.6222   4.7219   4.7219
     4.8087   4.8088   4.9698   4.9698   5.2241   5.2241   5.2540   5.2540
     7.0519   7.0519   7.1797   7.1797   7.2670   7.2670   7.3082   7.3083
     7.3879   7.3879   7.4168   7.4168   7.5077   7.5077   7.5331   7.5331
     7.5991   7.5991   7.6706   7.6706   7.7290   7.7291   7.7697   7.7697
    11.6824  11.6824  11.7471  11.7471  11.9689  11.9689  12.0727  12.0727
    12.3700  12.3700  12.4472  12.4472  12.5074  12.5074  12.5710  12.5710
    12.7229  12.7229  12.8356  12.8356  13.1610  13.1610  13.2416  13.2416
    16.5579  16.5579  16.6701  16.6701  17.0998  17.0999  17.1650  17.1650
    17.4129  17.4130  17.5032  17.5032  17.6066  17.6066

          k =-0.5000 0.0000-0.5000 ( 62068 PWs)   bands (ev):

   -65.8447 -65.8447 -65.8447 -65.8447 -65.8442 -65.8442 -65.8442 -65.8442
   -30.3043 -30.3043 -30.3042 -30.3042 -30.2479 -30.2479 -30.2477 -30.2477
   -30.1712 -30.1712 -30.1711 -30.1711 -30.1627 -30.1627 -30.1624 -30.1623
   -30.1200 -30.1200 -30.1198 -30.1198 -30.1186 -30.1186 -30.1183 -30.1183
   -19.9921 -19.9921 -19.9921 -19.9920 -19.9877 -19.9877 -19.9876 -19.9876
   -19.9848 -19.9848 -19.9848 -19.9848 -19.9838 -19.9838 -19.9837 -19.9837
   -19.9776 -19.9776 -19.9775 -19.9775 -19.9773 -19.9773 -19.9771 -19.9771
   -19.9763 -19.9763 -19.9761 -19.9761 -19.9756 -19.9756 -19.9756 -19.9756
   -19.9624 -19.9623 -19.9623 -19.9623 -19.9622 -19.9622 -19.9622 -19.9622
   -19.9277 -19.9277 -19.9277 -19.9277 -19.9277 -19.9276 -19.9276 -19.9276
   -19.9249 -19.9249 -19.9249 -19.9249 -19.9248 -19.9248 -19.9248 -19.9248
    -9.2146  -9.2146  -9.2091  -9.2091  -8.6387  -8.6387  -8.6030  -8.6029
    -8.4602  -8.4602  -8.4134  -8.4134  -8.2482  -8.2482  -8.2265  -8.2264
    -8.2084  -8.2084  -8.1758  -8.1757  -7.6706  -7.6706  -7.6703  -7.6703
     1.6818   1.6818   1.6856   1.6856   3.0661   3.0661   3.0814   3.0814
     3.2326   3.2326   3.2416   3.2416   3.3019   3.3019   3.3492   3.3493
     3.5364   3.5365   3.5455   3.5455   3.8196   3.8196   3.9130   3.9130
     3.9305   3.9306   4.0562   4.0562   4.3658   4.3658   4.3950   4.3951
     4.4602   4.4602   4.5188   4.5189   5.0642   5.0642   5.0863   5.0863
     5.5018   5.5018   5.5280   5.5280   6.1290   6.1290   6.1306   6.1306
     6.4968   6.4968   6.4983   6.4983   6.5281   6.5281   6.5522   6.5522
     7.5518   7.5518   7.5676   7.5676   7.5963   7.5964   7.6583   7.6583
     7.7333   7.7333   7.7549   7.7549   7.8742   7.8742   7.9520   7.9521
    11.6575  11.6575  11.7236  11.7237  11.8187  11.8187  11.8693  11.8693
    12.2316  12.2316  12.2593  12.2593  12.4318  12.4318  12.4508  12.4508
    13.2948  13.2948  13.3552  13.3552  13.4789  13.4789  13.5344  13.5344
    15.1335  15.1335  15.1366  15.1366  16.7431  16.7431  16.8354  16.8354
    17.7715  17.7715  17.7894  17.7894  17.9332  17.9332

          k =-0.5000 0.1588-0.5000 ( 62008 PWs)   bands (ev):

   -65.8446 -65.8446 -65.8446 -65.8446 -65.8442 -65.8442 -65.8442 -65.8442
   -30.3004 -30.3004 -30.3002 -30.3002 -30.2515 -30.2515 -30.2512 -30.2512
   -30.1708 -30.1708 -30.1708 -30.1708 -30.1635 -30.1635 -30.1632 -30.1632
   -30.1199 -30.1199 -30.1197 -30.1197 -30.1187 -30.1187 -30.1184 -30.1184
   -19.9918 -19.9918 -19.9917 -19.9917 -19.9879 -19.9879 -19.9879 -19.9879
   -19.9848 -19.9848 -19.9847 -19.9847 -19.9839 -19.9839 -19.9838 -19.9838
   -19.9776 -19.9776 -19.9775 -19.9775 -19.9772 -19.9772 -19.9771 -19.9771
   -19.9763 -19.9763 -19.9762 -19.9762 -19.9757 -19.9757 -19.9757 -19.9757
   -19.9623 -19.9623 -19.9623 -19.9623 -19.9622 -19.9622 -19.9622 -19.9622
   -19.9277 -19.9277 -19.9277 -19.9277 -19.9277 -19.9276 -19.9276 -19.9276
   -19.9249 -19.9249 -19.9249 -19.9249 -19.9248 -19.9248 -19.9248 -19.9248
    -9.1532  -9.1532  -9.1467  -9.1467  -8.6516  -8.6516  -8.6173  -8.6173
    -8.4466  -8.4466  -8.3995  -8.3994  -8.2469  -8.2468  -8.2278  -8.2277
    -8.2088  -8.2088  -8.1759  -8.1759  -7.7651  -7.7650  -7.7642  -7.7642
     1.9083   1.9083   1.9123   1.9123   3.0832   3.0832   3.1033   3.1033
     3.2408   3.2409   3.2472   3.2472   3.3231   3.3231   3.3757   3.3757
     3.5294   3.5295   3.5389   3.5390   3.8632   3.8632   3.9516   3.9517
     3.9754   3.9754   4.0986   4.0987   4.3445   4.3445   4.3731   4.3731
     4.4596   4.4596   4.5186   4.5186   4.8481   4.8481   4.8671   4.8671
     5.2615   5.2615   5.2787   5.2787   5.8719   5.8719   5.8743   5.8744
     6.6556   6.6556   6.6935   6.6935   6.7269   6.7269   6.7496   6.7496
     7.5490   7.5490   7.5627   7.5627   7.5895   7.5895   7.6543   7.6543
     7.7249   7.7249   7.7374   7.7375   7.8565   7.8566   7.9167   7.9167
    11.7187  11.7187  11.7851  11.7851  11.8732  11.8732  11.9291  11.9291
    12.2322  12.2322  12.2578  12.2578  12.4506  12.4506  12.4668  12.4668
    13.1665  13.1665  13.2222  13.2222  13.3647  13.3647  13.4141  13.4141
    15.5029  15.5029  15.5067  15.5067  16.8082  16.8082  16.8940  16.8940
    17.6935  17.6935  17.7450  17.7450  17.9367  17.9367

          k =-0.5000 0.3175-0.5000 ( 61924 PWs)   bands (ev):

   -65.8446 -65.8446 -65.8446 -65.8445 -65.8443 -65.8443 -65.8443 -65.8443
   -30.2897 -30.2897 -30.2895 -30.2895 -30.2613 -30.2613 -30.2611 -30.2611
   -30.1697 -30.1697 -30.1696 -30.1696 -30.1655 -30.1655 -30.1653 -30.1653
   -30.1196 -30.1196 -30.1195 -30.1195 -30.1189 -30.1189 -30.1187 -30.1187
   -19.9909 -19.9909 -19.9909 -19.9909 -19.9887 -19.9886 -19.9886 -19.9886
   -19.9846 -19.9846 -19.9846 -19.9846 -19.9842 -19.9842 -19.9841 -19.9841
   -19.9774 -19.9774 -19.9773 -19.9773 -19.9772 -19.9772 -19.9771 -19.9771
   -19.9763 -19.9763 -19.9762 -19.9762 -19.9759 -19.9759 -19.9759 -19.9759
   -19.9623 -19.9623 -19.9623 -19.9623 -19.9622 -19.9622 -19.9622 -19.9622
   -19.9277 -19.9277 -19.9277 -19.9277 -19.9276 -19.9276 -19.9276 -19.9276
   -19.9249 -19.9249 -19.9249 -19.9249 -19.9248 -19.9248 -19.9248 -19.9248
    -8.9928  -8.9928  -8.9823  -8.9823  -8.6990  -8.6990  -8.6703  -8.6702
    -8.3967  -8.3967  -8.3477  -8.3477  -8.2435  -8.2435  -8.2309  -8.2308
    -8.2141  -8.2141  -8.1748  -8.1748  -7.9915  -7.9915  -7.9860  -7.9860
     2.5077   2.5077   2.5115   2.5115   3.1191   3.1191   3.1481   3.1481
     3.2471   3.2471   3.2475   3.2475   3.3867   3.3868   3.4555   3.4555
     3.5001   3.5002   3.5170   3.5170   3.9892   3.9892   4.0516   4.0517
     4.0936   4.0936   4.1239   4.1239   4.2223   4.2223   4.2762   4.2762
     4.4504   4.4504   4.5207   4.5207   4.5497   4.5497   4.5591   4.5591
     4.8558   4.8558   4.8559   4.8559   5.1915   5.1915   5.2015   5.2015
     6.9750   6.9750   7.0284   7.0284   7.0962   7.0962   7.1424   7.1424
     7.5143   7.5143   7.5263   7.5263   7.5589   7.5589   7.6274   7.6275
     7.7008   7.7008   7.7023   7.7023   7.7894   7.7894   7.8240   7.8240
    11.8939  11.8939  11.9383  11.9383  12.0239  12.0239  12.0669  12.0669
    12.2489  12.2489  12.2684  12.2684  12.5250  12.5250  12.5357  12.5357
    12.8504  12.8504  12.8963  12.8963  13.0751  13.0751  13.1087  13.1087
    16.4105  16.4105  16.4132  16.4132  16.9912  16.9912  17.0526  17.0526
    17.4852  17.4852  17.5973  17.5973  17.9467  17.9467

          k =-0.5000-0.4763-0.5000 ( 61936 PWs)   bands (ev):

   -65.8445 -65.8445 -65.8445 -65.8444 -65.8444 -65.8444 -65.8444 -65.8444
   -30.2758 -30.2757 -30.2751 -30.2751 -30.2751 -30.2751 -30.2749 -30.2748
   -30.1681 -30.1681 -30.1678 -30.1678 -30.1678 -30.1678 -30.1673 -30.1673
   -30.1193 -30.1193 -30.1193 -30.1193 -30.1192 -30.1192 -30.1192 -30.1191
   -19.9898 -19.9898 -19.9897 -19.9897 -19.9897 -19.9897 -19.9897 -19.9896
   -19.9844 -19.9844 -19.9844 -19.9844 -19.9844 -19.9844 -19.9844 -19.9843
   -19.9772 -19.9772 -19.9772 -19.9772 -19.9772 -19.9772 -19.9772 -19.9772
   -19.9762 -19.9762 -19.9761 -19.9761 -19.9761 -19.9761 -19.9761 -19.9761
   -19.9623 -19.9623 -19.9623 -19.9623 -19.9623 -19.9622 -19.9622 -19.9622
   -19.9277 -19.9277 -19.9277 -19.9277 -19.9276 -19.9276 -19.9276 -19.9276
   -19.9249 -19.9249 -19.9249 -19.9249 -19.9248 -19.9248 -19.9248 -19.9248
    -8.8269  -8.8269  -8.7966  -8.7965  -8.7928  -8.7928  -8.7927  -8.7927
    -8.3123  -8.3123  -8.2517  -8.2517  -8.2450  -8.2450  -8.2450  -8.2450
    -8.2107  -8.2107  -8.2107  -8.2107  -8.1602  -8.1602  -8.1465  -8.1465
     3.0896   3.0896   3.0930   3.0930   3.0930   3.0930   3.1171   3.1172
     3.3576   3.3577   3.3577   3.3577   3.3584   3.3584   3.3760   3.3760
     3.4792   3.4792   3.6146   3.6146   3.6146   3.6146   3.6683   3.6683
     4.2709   4.2709   4.2724   4.2725   4.3075   4.3075   4.3075   4.3075
     4.4920   4.4920   4.4920   4.4921   4.5371   4.5371   4.5582   4.5583
     4.6297   4.6297   4.6335   4.6336   4.6676   4.6676   4.6676   4.6677
     7.1563   7.1564   7.2734   7.2734   7.2735   7.2735   7.4126   7.4126
     7.4767   7.4767   7.4767   7.4767   7.4833   7.4833   7.4964   7.4964
     7.6911   7.6911   7.7122   7.7122   7.7122   7.7122   7.7657   7.7657
    12.0689  12.0689  12.0693  12.0693  12.0693  12.0694  12.0776  12.0776
    12.3706  12.3706  12.4453  12.4453  12.4453  12.4453  12.6081  12.6081
    12.6958  12.6958  12.7767  12.7767  12.7767  12.7767  12.8046  12.8047
    17.1694  17.1694  17.2070  17.2071  17.2071  17.2071  17.2781  17.2781
    17.4918  17.4918  17.4918  17.4918  17.6043  17.6044

     the Fermi energy is    10.2679 ev

!    total energy              =   -6260.37365876 Ry
     Harris-Foulkes estimate   =   -6260.37365877 Ry
     estimated scf accuracy    <          2.4E-09 Ry

     The total energy is the sum of the following terms:

     one-electron contribution =   -4696.48092910 Ry
     hartree contribution      =    2589.18482206 Ry
     xc contribution           =    -966.77105086 Ry
     ewald contribution        =   -3186.30643642 Ry
     smearing contrib. (-TS)   =      -0.00006444 Ry

     convergence has been achieved in  13 iterations

     Writing output data file Landau_17.save
 
     init_run     :     23.26s CPU     24.35s WALL (       1 calls)
     electrons    :    976.40s CPU    995.61s WALL (       1 calls)

     Called by init_run:
     wfcinit      :     21.28s CPU     22.23s WALL (       1 calls)
     potinit      :      0.82s CPU      0.85s WALL (       1 calls)

     Called by electrons:
     c_bands      :    852.10s CPU    870.13s WALL (      13 calls)
     sum_band     :    116.76s CPU    117.19s WALL (      13 calls)
     v_of_rho     :      2.00s CPU      2.04s WALL (      14 calls)
     mix_rho      :      4.65s CPU      5.19s WALL (      13 calls)

     Called by c_bands:
     init_us_2    :     10.26s CPU     10.73s WALL (      27 calls)
     cegterg      :    726.18s CPU    744.01s WALL (      13 calls)

     Called by sum_band:

     Called by *egterg:
     h_psi        :    571.55s CPU    574.21s WALL (      60 calls)
     g_psi        :      2.23s CPU      2.23s WALL (      46 calls)
     cdiaghg      :      8.72s CPU      8.76s WALL (      59 calls)

     Called by h_psi:
     h_psi:pot    :    567.45s CPU    569.97s WALL (      60 calls)
     h_psi:calbec :     66.64s CPU     68.41s WALL (      60 calls)
     vloc_psi     :    430.91s CPU    431.48s WALL (      60 calls)
     add_vuspsi   :     69.90s CPU     70.08s WALL (      60 calls)

     General routines
     calbec       :     66.64s CPU     68.41s WALL (      60 calls)
     fft          :      1.25s CPU      1.25s WALL (      56 calls)
     fftw         :    415.97s CPU    416.23s WALL (   17152 calls)
 
     Parallel routines
 
     PWSCF        : 16m44.18s CPU    17m10.58s WALL

 
   This run was terminated on:  14:44:26  17Sep2019            

=------------------------------------------------------------------------------=
   JOB DONE.
=------------------------------------------------------------------------------=
