
     Program PWSCF v.6.4.1 starts on 29Nov2019 at 17:40: 5 

     This program is part of the open-source Quantum ESPRESSO suite
     for quantum simulation of materials; please cite
         "P. Giannozzi et al., J. Phys.:Condens. Matter 21 395502 (2009);
         "P. Giannozzi et al., J. Phys.:Condens. Matter 29 465901 (2017);
          URL http://www.quantum-espresso.org", 
     in publications or presentations arising from this work. More details at
     http://www.quantum-espresso.org/quote

     Parallel version (MPI), running on    40 processors

     MPI processes distributed on    10 nodes
     K-points division:     npool     =      40
     Reading input from scf.in

     Current dimensions of program PWSCF are:
     Max number of different atomic species (ntypx) = 10
     Max number of k-points (npk) =  40000
     Max angular momentum in pseudopotentials (lmaxx) =  3

     Subspace diagonalization in iterative solution of the eigenvalue problem:
     a serial algorithm will be used

     Message from routine setup:
     using ibrav=0 with symmetry is DISCOURAGED, use correct ibrav instead
 
     G-vector sticks info
     --------------------
     sticks:   dense  smooth     PW     G-vecs:    dense   smooth      PW
     Sum        3769    3769   1033               254557   254557   35909
 


     bravais-lattice index     =            0
     lattice parameter (alat)  =       9.9420  a.u.
     unit-cell volume          =    1432.8094 (a.u.)^3
     number of atoms/cell      =           16
     number of atomic types    =            2
     number of electrons       =       184.18
     number of Kohn-Sham states=          111
     kinetic-energy cutoff     =     120.0000  Ry
     charge density cutoff     =     480.0000  Ry
     convergence threshold     =      1.0E-08
     mixing beta               =       0.7000
     number of iterations used =            8  plain     mixing
     Exchange-correlation      = SLA PW NOGX NOGC ( 1  4  0  0 0 0)

     celldm(1)=   9.941979  celldm(2)=   0.000000  celldm(3)=   0.000000
     celldm(4)=   0.000000  celldm(5)=   0.000000  celldm(6)=   0.000000

     crystal axes: (cart. coord. in units of alat)
               a(1) = (   1.000000   0.000000   0.000000 )  
               a(2) = (   0.000000   1.000000   0.000000 )  
               a(3) = (   0.000000   0.000000   1.458042 )  

     reciprocal axes: (cart. coord. in units 2 pi/alat)
               b(1) = (  1.000000  0.000000  0.000000 )  
               b(2) = (  0.000000  1.000000  0.000000 )  
               b(3) = (  0.000000  0.000000  0.685851 )  


     PseudoPot. # 1 for W  read from file:
     /cluster/scratch/mnoe/QE/pps/W_ONCV_LDA-4.0.upf
     MD5 check sum: ba0307d5d4cd419d6f1d13dc49d7c13a
     Pseudo is Norm-conserving + core correction, Zval = 28.0
     Generated using ONCVPSP code by D. R. Hamann
     Using radial grid of 1380 points,  8 beta functions with: 
                l(1) =   0
                l(2) =   0
                l(3) =   1
                l(4) =   1
                l(5) =   2
                l(6) =   2
                l(7) =   3
                l(8) =   3

     PseudoPot. # 2 for O  read from file:
     /cluster/scratch/mnoe/QE/pps/O_ONCV_LDA-3.0.upf
     MD5 check sum: b55cdb4f45ae2203d24ad12cf8d61a31
     Pseudo is Norm-conserving + core correction, Zval =  6.0
     Generated using ONCVPSP code by D. R. Hamann
     Using radial grid of  926 points,  5 beta functions with: 
                l(1) =   0
                l(2) =   0
                l(3) =   1
                l(4) =   1
                l(5) =   2

     atomic species   valence    mass     pseudopotential
        W             28.00   183.84000     W ( 1.00)
        O              6.00    15.99940     O ( 1.00)

     16 Sym. Ops., with inversion, found (14 have fractional translation)



   Cartesian axes

     site n.     atom                  positions (alat units)
         1           W   tau(   1) = (   0.2500000   0.2500000   0.3096131  )
         2           W   tau(   2) = (   0.7500000   0.7500000   1.1484287  )
         3           W   tau(   3) = (   0.7500000   0.7500000   0.4194078  )
         4           W   tau(   4) = (   0.2500000   0.2500000   1.0386339  )
         5           O   tau(   5) = (   0.2500000   0.2500000   0.7009508  )
         6           O   tau(   6) = (   0.7500000   0.7500000   0.7570909  )
         7           O   tau(   7) = (   0.7500000   0.7500000   0.0280701  )
         8           O   tau(   8) = (   0.2500000   0.2500000   1.4299716  )
         9           O   tau(   9) = (   0.4792520   0.5207480   0.3645104  )
        10           O   tau(  10) = (   0.5207480   0.4792520   1.0935313  )
        11           O   tau(  11) = (   0.0207480   0.9792520   0.3645104  )
        12           O   tau(  12) = (   0.9792520   0.0207480   1.0935313  )
        13           O   tau(  13) = (   0.9792520   0.4792520   0.3645104  )
        14           O   tau(  14) = (   0.0207480   0.5207480   1.0935313  )
        15           O   tau(  15) = (   0.5207480   0.0207480   0.3645104  )
        16           O   tau(  16) = (   0.4792520   0.9792520   1.0935313  )

     number of k points=    60  gaussian smearing, width (Ry)=  0.0007
                       cart. coord. in units 2pi/alat
        k(    1) = (   0.0000000   0.0000000   0.0000000), wk =   0.0041152
        k(    2) = (   0.0000000   0.0000000   0.1143086), wk =   0.0082305
        k(    3) = (   0.0000000   0.0000000   0.2286171), wk =   0.0082305
        k(    4) = (   0.0000000   0.0000000  -0.3429257), wk =   0.0041152
        k(    5) = (   0.0000000   0.1111111   0.0000000), wk =   0.0164609
        k(    6) = (   0.0000000   0.1111111   0.1143086), wk =   0.0329218
        k(    7) = (   0.0000000   0.1111111   0.2286171), wk =   0.0329218
        k(    8) = (   0.0000000   0.1111111  -0.3429257), wk =   0.0164609
        k(    9) = (   0.0000000   0.2222222   0.0000000), wk =   0.0164609
        k(   10) = (   0.0000000   0.2222222   0.1143086), wk =   0.0329218
        k(   11) = (   0.0000000   0.2222222   0.2286171), wk =   0.0329218
        k(   12) = (   0.0000000   0.2222222  -0.3429257), wk =   0.0164609
        k(   13) = (   0.0000000   0.3333333   0.0000000), wk =   0.0164609
        k(   14) = (   0.0000000   0.3333333   0.1143086), wk =   0.0329218
        k(   15) = (   0.0000000   0.3333333   0.2286171), wk =   0.0329218
        k(   16) = (   0.0000000   0.3333333  -0.3429257), wk =   0.0164609
        k(   17) = (   0.0000000   0.4444444   0.0000000), wk =   0.0164609
        k(   18) = (   0.0000000   0.4444444   0.1143086), wk =   0.0329218
        k(   19) = (   0.0000000   0.4444444   0.2286171), wk =   0.0329218
        k(   20) = (   0.0000000   0.4444444  -0.3429257), wk =   0.0164609
        k(   21) = (   0.1111111   0.1111111   0.0000000), wk =   0.0164609
        k(   22) = (   0.1111111   0.1111111   0.1143086), wk =   0.0329218
        k(   23) = (   0.1111111   0.1111111   0.2286171), wk =   0.0329218
        k(   24) = (   0.1111111   0.1111111  -0.3429257), wk =   0.0164609
        k(   25) = (   0.1111111   0.2222222   0.0000000), wk =   0.0329218
        k(   26) = (   0.1111111   0.2222222   0.1143086), wk =   0.0658436
        k(   27) = (   0.1111111   0.2222222   0.2286171), wk =   0.0658436
        k(   28) = (   0.1111111   0.2222222  -0.3429257), wk =   0.0329218
        k(   29) = (   0.1111111   0.3333333   0.0000000), wk =   0.0329218
        k(   30) = (   0.1111111   0.3333333   0.1143086), wk =   0.0658436
        k(   31) = (   0.1111111   0.3333333   0.2286171), wk =   0.0658436
        k(   32) = (   0.1111111   0.3333333  -0.3429257), wk =   0.0329218
        k(   33) = (   0.1111111   0.4444444   0.0000000), wk =   0.0329218
        k(   34) = (   0.1111111   0.4444444   0.1143086), wk =   0.0658436
        k(   35) = (   0.1111111   0.4444444   0.2286171), wk =   0.0658436
        k(   36) = (   0.1111111   0.4444444  -0.3429257), wk =   0.0329218
        k(   37) = (   0.2222222   0.2222222   0.0000000), wk =   0.0164609
        k(   38) = (   0.2222222   0.2222222   0.1143086), wk =   0.0329218
        k(   39) = (   0.2222222   0.2222222   0.2286171), wk =   0.0329218
        k(   40) = (   0.2222222   0.2222222  -0.3429257), wk =   0.0164609
        k(   41) = (   0.2222222   0.3333333   0.0000000), wk =   0.0329218
        k(   42) = (   0.2222222   0.3333333   0.1143086), wk =   0.0658436
        k(   43) = (   0.2222222   0.3333333   0.2286171), wk =   0.0658436
        k(   44) = (   0.2222222   0.3333333  -0.3429257), wk =   0.0329218
        k(   45) = (   0.2222222   0.4444444   0.0000000), wk =   0.0329218
        k(   46) = (   0.2222222   0.4444444   0.1143086), wk =   0.0658436
        k(   47) = (   0.2222222   0.4444444   0.2286171), wk =   0.0658436
        k(   48) = (   0.2222222   0.4444444  -0.3429257), wk =   0.0329218
        k(   49) = (   0.3333333   0.3333333   0.0000000), wk =   0.0164609
        k(   50) = (   0.3333333   0.3333333   0.1143086), wk =   0.0329218
        k(   51) = (   0.3333333   0.3333333   0.2286171), wk =   0.0329218
        k(   52) = (   0.3333333   0.3333333  -0.3429257), wk =   0.0164609
        k(   53) = (   0.3333333   0.4444444   0.0000000), wk =   0.0329218
        k(   54) = (   0.3333333   0.4444444   0.1143086), wk =   0.0658436
        k(   55) = (   0.3333333   0.4444444   0.2286171), wk =   0.0658436
        k(   56) = (   0.3333333   0.4444444  -0.3429257), wk =   0.0329218
        k(   57) = (   0.4444444   0.4444444   0.0000000), wk =   0.0164609
        k(   58) = (   0.4444444   0.4444444   0.1143086), wk =   0.0329218
        k(   59) = (   0.4444444   0.4444444   0.2286171), wk =   0.0329218
        k(   60) = (   0.4444444   0.4444444  -0.3429257), wk =   0.0164609

     Dense  grid:   254557 G-vectors     FFT dimensions: (  72,  72, 108)

     Estimated max dynamical RAM per process >     905.31 MB

     Estimated total dynamical RAM >      35.36 GB

     Initial potential from superposition of free atoms

     starting charge  183.99828, renormalised to  184.18000
     Starting wfcs are  116 randomized atomic wfcs

     total cpu time spent up to now is        7.0 secs

     Self-consistent Calculation

     iteration #  1     ecut=   120.00 Ry     beta= 0.70
     Davidson diagonalization with overlap
     ethr =  1.00E-02,  avg # of iterations =  5.0

     total cpu time spent up to now is       29.2 secs

     total energy              =   -3126.74359118 Ry
     Harris-Foulkes estimate   =   -3132.21756797 Ry
     estimated scf accuracy    <       6.90284064 Ry

     iteration #  2     ecut=   120.00 Ry     beta= 0.70
     Davidson diagonalization with overlap
     ethr =  3.75E-03,  avg # of iterations =  3.5

     total cpu time spent up to now is       50.5 secs

     total energy              =   -3125.14299658 Ry
     Harris-Foulkes estimate   =   -3135.43827407 Ry
     estimated scf accuracy    <      27.66084860 Ry

     iteration #  3     ecut=   120.00 Ry     beta= 0.70
     Davidson diagonalization with overlap
     ethr =  3.75E-03,  avg # of iterations =  3.3

     total cpu time spent up to now is       70.2 secs

     total energy              =   -3130.41256134 Ry
     Harris-Foulkes estimate   =   -3130.54861360 Ry
     estimated scf accuracy    <       0.46232634 Ry

     iteration #  4     ecut=   120.00 Ry     beta= 0.70
     Davidson diagonalization with overlap
     ethr =  2.51E-04,  avg # of iterations =  2.4

     total cpu time spent up to now is       86.5 secs

     total energy              =   -3130.39597443 Ry
     Harris-Foulkes estimate   =   -3130.44207157 Ry
     estimated scf accuracy    <       0.11361292 Ry

     iteration #  5     ecut=   120.00 Ry     beta= 0.70
     Davidson diagonalization with overlap
     ethr =  6.17E-05,  avg # of iterations =  4.1

     total cpu time spent up to now is      104.7 secs

     total energy              =   -3130.41173837 Ry
     Harris-Foulkes estimate   =   -3130.42057257 Ry
     estimated scf accuracy    <       0.02319575 Ry

     iteration #  6     ecut=   120.00 Ry     beta= 0.70
     Davidson diagonalization with overlap
     ethr =  1.26E-05,  avg # of iterations =  4.2

     total cpu time spent up to now is      122.6 secs

     total energy              =   -3130.41513417 Ry
     Harris-Foulkes estimate   =   -3130.41688999 Ry
     estimated scf accuracy    <       0.00452094 Ry

     iteration #  7     ecut=   120.00 Ry     beta= 0.70
     Davidson diagonalization with overlap
     ethr =  2.45E-06,  avg # of iterations =  4.0

     total cpu time spent up to now is      140.5 secs

     total energy              =   -3130.41580929 Ry
     Harris-Foulkes estimate   =   -3130.41582688 Ry
     estimated scf accuracy    <       0.00002792 Ry

     iteration #  8     ecut=   120.00 Ry     beta= 0.70
     Davidson diagonalization with overlap
     ethr =  1.52E-08,  avg # of iterations =  3.9

     total cpu time spent up to now is      162.6 secs

     total energy              =   -3130.41583026 Ry
     Harris-Foulkes estimate   =   -3130.41583343 Ry
     estimated scf accuracy    <       0.00002135 Ry

     iteration #  9     ecut=   120.00 Ry     beta= 0.70
     Davidson diagonalization with overlap
     ethr =  1.16E-08,  avg # of iterations =  1.5

     total cpu time spent up to now is      177.9 secs

     total energy              =   -3130.41582651 Ry
     Harris-Foulkes estimate   =   -3130.41583111 Ry
     estimated scf accuracy    <       0.00001380 Ry

     iteration # 10     ecut=   120.00 Ry     beta= 0.70
     Davidson diagonalization with overlap
     ethr =  7.49E-09,  avg # of iterations =  2.0

     total cpu time spent up to now is      193.8 secs

     total energy              =   -3130.41582783 Ry
     Harris-Foulkes estimate   =   -3130.41582823 Ry
     estimated scf accuracy    <       0.00000085 Ry

     iteration # 11     ecut=   120.00 Ry     beta= 0.70
     Davidson diagonalization with overlap
     ethr =  4.61E-10,  avg # of iterations =  3.1

     total cpu time spent up to now is      211.2 secs

     total energy              =   -3130.41582798 Ry
     Harris-Foulkes estimate   =   -3130.41582801 Ry
     estimated scf accuracy    <       0.00000003 Ry

     iteration # 12     ecut=   120.00 Ry     beta= 0.70
     Davidson diagonalization with overlap
     ethr =  1.80E-11,  avg # of iterations =  2.0

     total cpu time spent up to now is      229.1 secs

     End of self-consistent calculation

          k = 0.0000 0.0000 0.0000 ( 31879 PWs)   bands (ev):

   -66.4664 -66.4659 -66.4651 -66.4646 -30.8541 -30.8494 -30.7859 -30.7839
   -30.7839 -30.7824 -30.7800 -30.7800 -30.7049 -30.7049 -30.7017 -30.7017
   -20.6283 -20.6283 -20.6282 -20.6282 -20.6162 -20.6160 -20.6098 -20.6096
   -20.6069 -20.6067 -20.6066 -20.6066 -20.6066 -20.6065 -20.6064 -20.6064
   -20.6044 -20.6044 -20.6043 -20.6043 -20.6003 -20.6003 -20.6002 -20.6002
   -20.5957 -20.5957 -20.5954 -20.5954 -10.2375  -9.8556  -9.5009  -9.2310
    -9.2094  -9.1665  -8.1312  -8.0174  -7.9696  -7.9696  -7.9450  -7.9450
     0.9114   0.9119   0.9429   1.1466   1.2497   1.3701   2.3049   2.3049
     2.3056   2.4105   3.8889   3.8889   4.5352   4.5352   4.7823   5.3288
     5.3288   5.3562   5.3562   5.5566   5.5566   5.7104   5.7169   6.3927
     6.3927   6.6203   6.8797   6.8825   6.9769   6.9769   6.9934   6.9934
     7.9626   7.9626   8.0415   8.0451   8.7485   8.7544   9.4141   9.4141
    12.1667  12.1667  13.0349  13.0349  13.2035  13.2092  13.3219  13.9060
    13.9060  14.2431  14.2458  14.4512  15.2904  16.2177  16.9869

          k = 0.0000 0.0000 0.1143 ( 31843 PWs)   bands (ev):

   -66.4664 -66.4660 -66.4650 -66.4646 -30.8496 -30.8450 -30.7905 -30.7869
   -30.7836 -30.7836 -30.7803 -30.7803 -30.7046 -30.7046 -30.7019 -30.7019
   -20.6283 -20.6283 -20.6282 -20.6282 -20.6157 -20.6156 -20.6102 -20.6101
   -20.6069 -20.6067 -20.6066 -20.6066 -20.6066 -20.6065 -20.6064 -20.6064
   -20.6044 -20.6044 -20.6044 -20.6044 -20.6003 -20.6003 -20.6002 -20.6002
   -20.5957 -20.5957 -20.5955 -20.5955 -10.1982  -9.8700  -9.4208  -9.2296
    -9.2108  -9.1241  -8.2382  -8.1353  -7.9679  -7.9679  -7.9467  -7.9467
     0.9114   0.9119   1.1137   1.2491   1.3298   1.5327   2.3125   2.3760
     2.3760   2.4033   3.7128   3.7128   4.5307   4.5681   4.5681   5.2288
     5.2288   5.3359   5.3621   5.3621   5.7125   5.7125   5.7588   6.4151
     6.4151   6.6374   6.6938   6.8645   6.9771   6.9771   6.9916   6.9916
     7.8882   7.8882   8.0418   8.0455   8.7490   8.7542   9.6410   9.6410
    12.0044  12.0044  13.0614  13.0614  13.2039  13.2088  13.6132  13.8104
    13.8104  14.2434  14.2458  14.6634  15.7040  15.9262  17.0139

          k = 0.0000 0.0000 0.2286 ( 31802 PWs)   bands (ev):

   -66.4663 -66.4660 -66.4650 -66.4647 -30.8372 -30.8328 -30.8031 -30.7993
   -30.7829 -30.7829 -30.7810 -30.7810 -30.7041 -30.7041 -30.7025 -30.7025
   -20.6283 -20.6282 -20.6282 -20.6282 -20.6146 -20.6145 -20.6114 -20.6113
   -20.6068 -20.6068 -20.6066 -20.6065 -20.6064 -20.6064 -20.6063 -20.6063
   -20.6045 -20.6045 -20.6045 -20.6045 -20.6003 -20.6003 -20.6002 -20.6002
   -20.5956 -20.5956 -20.5955 -20.5955 -10.1016  -9.9155  -9.2256  -9.2148
    -9.1936  -8.9878  -8.5117  -8.4265  -7.9635  -7.9635  -7.9512  -7.9512
     0.9116   0.9118   1.2233   1.2470   1.9369   2.2296   2.3313   2.3837
     2.5840   2.5840   3.3201   3.3201   3.8204   4.4001   4.7114   4.7114
     5.1105   5.1105   5.3922   5.3922   5.6341   5.6341   5.8820   6.3599
     6.6845   6.7513   6.7513   6.8156   6.9777   6.9777   6.9924   6.9924
     7.6465   7.6465   8.0427   8.0452   8.7504   8.7534  10.2058  10.2058
    11.5485  11.5485  13.1578  13.1578  13.2049  13.2078  13.5828  13.5828
    14.1795  14.2442  14.2456  15.3176  15.3643  16.7364  16.7828

          k = 0.0000 0.0000-0.3429 ( 31842 PWs)   bands (ev):

   -66.4662 -66.4662 -66.4648 -66.4648 -30.8202 -30.8202 -30.8161 -30.8161
   -30.7820 -30.7820 -30.7820 -30.7820 -30.7033 -30.7033 -30.7033 -30.7033
   -20.6283 -20.6282 -20.6282 -20.6282 -20.6130 -20.6130 -20.6129 -20.6129
   -20.6068 -20.6068 -20.6065 -20.6065 -20.6063 -20.6063 -20.6063 -20.6063
   -20.6046 -20.6046 -20.6045 -20.6045 -20.6003 -20.6003 -20.6003 -20.6003
   -20.5956 -20.5956 -20.5956 -20.5956  -9.9954  -9.9954  -9.2202  -9.2202
    -8.8628  -8.8627  -8.7467  -8.7467  -7.9574  -7.9574  -7.9574  -7.9574
     0.9117   0.9117   1.2414   1.2414   2.3573   2.3573   2.8607   2.8607
     2.9119   2.9119   2.9119   2.9119   3.2663   3.2663   4.9279   4.9279
     4.9279   4.9279   5.4705   5.4705   5.4705   5.4705   6.0820   6.0820
     6.7496   6.7496   6.9762   6.9762   6.9762   6.9762   7.2491   7.2491
     7.2491   7.2491   8.0440   8.0440   8.7520   8.7520  10.9004  10.9004
    10.9004  10.9004  13.2064  13.2064  13.3388  13.3388  13.3388  13.3388
    14.2451  14.2451  14.7633  14.7633  16.1563  16.1563  18.0068

          k = 0.0000 0.1111 0.0000 ( 31855 PWs)   bands (ev):

   -66.4664 -66.4659 -66.4651 -66.4646 -30.8541 -30.8497 -30.7875 -30.7827
   -30.7815 -30.7798 -30.7777 -30.7776 -30.7073 -30.7072 -30.7041 -30.7040
   -20.6283 -20.6283 -20.6282 -20.6282 -20.6162 -20.6161 -20.6098 -20.6096
   -20.6072 -20.6071 -20.6067 -20.6066 -20.6065 -20.6063 -20.6062 -20.6062
   -20.6044 -20.6044 -20.6043 -20.6043 -20.6002 -20.6002 -20.6001 -20.6001
   -20.5958 -20.5958 -20.5956 -20.5956 -10.2011  -9.8091  -9.5088  -9.1998
    -9.1781  -9.1552  -8.1378  -8.0357  -8.0203  -8.0172  -8.0085  -7.9929
     0.9619   1.0254   1.0256   1.1392   1.3704   1.4732   2.3335   2.3357
     2.3889   2.4854   3.8647   3.8819   4.3789   4.4296   4.7756   5.1927
     5.2172   5.2747   5.3122   5.5539   5.5599   5.7203   5.9074   6.3274
     6.3283   6.6255   6.6357   6.7283   6.7613   6.7974   6.9356   6.9614
     7.9285   7.9524   7.9947   7.9973   9.0808   9.0902   9.5492   9.5967
    12.1879  12.2032  12.8938  12.9171  13.2028  13.2593  13.4574  13.8261
    13.8419  14.3749  14.3804  14.5416  15.2597  16.3695  17.0246

          k = 0.0000 0.1111 0.1143 ( 31835 PWs)   bands (ev):

   -66.4663 -66.4659 -66.4651 -66.4647 -30.8496 -30.8452 -30.7914 -30.7872
   -30.7813 -30.7803 -30.7780 -30.7778 -30.7070 -30.7070 -30.7043 -30.7043
   -20.6283 -20.6283 -20.6282 -20.6282 -20.6158 -20.6156 -20.6103 -20.6101
   -20.6071 -20.6071 -20.6066 -20.6066 -20.6065 -20.6062 -20.6061 -20.6061
   -20.6045 -20.6044 -20.6044 -20.6044 -20.6002 -20.6002 -20.6001 -20.6001
   -20.5958 -20.5958 -20.5956 -20.5956 -10.1605  -9.8237  -9.4287  -9.1984
    -9.1796  -9.1141  -8.2421  -8.1413  -8.0340  -8.0156  -8.0095  -7.9945
     1.0254   1.0256   1.1650   1.3427   1.3697   1.5813   2.3775   2.4069
     2.4221   2.4793   3.7029   3.7223   4.4109   4.4626   4.5228   5.1354
     5.1531   5.2353   5.2425   5.3410   5.6777   5.7019   5.9446   6.3512
     6.3580   6.6044   6.6354   6.6879   6.7428   6.7979   6.9345   6.9630
     7.8568   7.8753   7.9921   7.9987   9.0833   9.0888   9.7545   9.7956
    12.0289  12.0455  12.9157  12.9489  13.1986  13.2633  13.7278  13.7471
    13.7537  14.3751  14.3782  14.7440  15.6734  16.0627  17.0733

          k = 0.0000 0.1111 0.2286 ( 31806 PWs)   bands (ev):

   -66.4662 -66.4660 -66.4650 -66.4648 -30.8372 -30.8330 -30.8034 -30.7995
   -30.7806 -30.7801 -30.7786 -30.7785 -30.7065 -30.7064 -30.7049 -30.7048
   -20.6283 -20.6282 -20.6282 -20.6282 -20.6146 -20.6145 -20.6115 -20.6113
   -20.6071 -20.6071 -20.6066 -20.6066 -20.6063 -20.6062 -20.6061 -20.6060
   -20.6045 -20.6045 -20.6045 -20.6045 -20.6002 -20.6001 -20.6001 -20.6001
   -20.5958 -20.5958 -20.5957 -20.5956 -10.0606  -9.8696  -9.2016  -9.1944
    -9.1836  -8.9813  -8.5163  -8.4295  -8.0294  -8.0159  -8.0112  -7.9990
     1.0254   1.0255   1.3350   1.3670   1.9392   2.2153   2.4048   2.4577
     2.6199   2.6278   3.3237   3.3448   3.8170   4.4026   4.5638   4.6102
     5.0065   5.0304   5.2500   5.2706   5.5270   5.5346   6.0502   6.4100
     6.6326   6.6379   6.7241   6.7256   6.7861   6.8272   6.9379   6.9709
     7.6202   7.6370   7.9933   7.9980   9.0860   9.0877  10.2809  10.3126
    11.5806  11.6006  12.9960  13.0491  13.1806  13.2812  13.4947  13.5412
    14.3217  14.3753  14.3757  15.3858  15.4977  16.7030  16.8538

          k = 0.0000 0.1111-0.3429 ( 31844 PWs)   bands (ev):

   -66.4661 -66.4661 -66.4649 -66.4649 -30.8203 -30.8203 -30.8163 -30.8163
   -30.7796 -30.7796 -30.7794 -30.7794 -30.7057 -30.7057 -30.7056 -30.7056
   -20.6282 -20.6282 -20.6282 -20.6282 -20.6131 -20.6131 -20.6129 -20.6129
   -20.6071 -20.6071 -20.6066 -20.6066 -20.6062 -20.6062 -20.6060 -20.6060
   -20.6046 -20.6046 -20.6045 -20.6045 -20.6002 -20.6002 -20.6001 -20.6001
   -20.5957 -20.5957 -20.5957 -20.5957  -9.9511  -9.9511  -9.1890  -9.1890
    -8.8701  -8.8701  -8.7443  -8.7443  -8.0229  -8.0229  -8.0051  -8.0051
     1.0255   1.0255   1.3598   1.3598   2.4312   2.4312   2.8602   2.8602
     2.9094   2.9094   2.9436   2.9436   3.2884   3.2884   4.8014   4.8014
     4.8374   4.8374   5.3292   5.3292   5.3470   5.3470   6.2126   6.2126
     6.6360   6.6360   6.8084   6.8085   6.9287   6.9287   7.2270   7.2270
     7.2494   7.2494   7.9959   7.9959   9.0871   9.0872  10.9474  10.9474
    10.9724  10.9724  13.1109  13.1109  13.2391  13.2391  13.3581  13.3581
    14.3751  14.3751  14.9019  14.9019  16.2264  16.2264  17.4467

          k = 0.0000 0.2222 0.0000 ( 31807 PWs)   bands (ev):

   -66.4662 -66.4658 -66.4652 -66.4648 -30.8540 -30.8503 -30.7883 -30.7834
   -30.7747 -30.7721 -30.7709 -30.7706 -30.7142 -30.7138 -30.7109 -30.7108
   -20.6283 -20.6283 -20.6282 -20.6282 -20.6162 -20.6161 -20.6099 -20.6097
   -20.6075 -20.6074 -20.6069 -20.6069 -20.6062 -20.6060 -20.6058 -20.6057
   -20.6045 -20.6044 -20.6043 -20.6042 -20.5999 -20.5998 -20.5998 -20.5997
   -20.5963 -20.5962 -20.5961 -20.5960 -10.0985  -9.6729  -9.5343  -9.1176
    -9.1083  -9.0865  -8.2527  -8.2151  -8.1499  -8.1259  -8.0871  -8.0284
     0.9925   1.1197   1.3501   1.3539   1.7068   1.7811   2.4236   2.4376
     2.6180   2.7122   3.7694   3.8023   4.0944   4.1759   4.7552   4.8188
     4.8507   5.0575   5.1828   5.5549   5.5844   5.7455   5.9276   5.9427
     6.1581   6.2093   6.3076   6.4388   6.6083   6.9024   6.9585   6.9594
     7.8233   7.8585   7.8770   7.9105   9.7223   9.7627   9.9089  10.0521
    12.2398  12.2895  12.6370  12.6400  13.0018  13.0713  13.6075  13.6563
    13.7738  14.8166  14.9176  14.9196  15.1669  16.7709  17.1000

          k = 0.0000 0.2222 0.1143 ( 31816 PWs)   bands (ev):

   -66.4662 -66.4658 -66.4652 -66.4648 -30.8495 -30.8458 -30.7922 -30.7879
   -30.7745 -30.7725 -30.7712 -30.7708 -30.7139 -30.7136 -30.7111 -30.7110
   -20.6283 -20.6283 -20.6282 -20.6282 -20.6158 -20.6157 -20.6104 -20.6102
   -20.6075 -20.6074 -20.6069 -20.6069 -20.6062 -20.6060 -20.6058 -20.6056
   -20.6045 -20.6044 -20.6043 -20.6043 -20.5999 -20.5998 -20.5997 -20.5997
   -20.5963 -20.5962 -20.5961 -20.5960 -10.0535  -9.6877  -9.4546  -9.1069
    -9.0879  -9.0809  -8.3051  -8.2130  -8.1735  -8.1483  -8.1275  -8.1157
     1.2317   1.3503   1.3534   1.3549   1.7056   1.8171   2.4973   2.5028
     2.6277   2.7063   3.6540   3.7097   4.1092   4.2078   4.4995   4.8213
     4.8465   4.9100   5.0081   5.3522   5.5514   5.6624   5.9222   5.9445
     6.2150   6.2619   6.3407   6.5861   6.6191   6.8929   6.9679   6.9703
     7.7709   7.8209   7.8586   7.8742   9.7329   9.7561  10.0711  10.1957
    12.1013  12.1596  12.6469  12.6543  12.9964  13.0741  13.5038  13.5620
    14.0901  14.9176  14.9182  14.9878  15.5802  16.4190  17.1230

          k = 0.0000 0.2222 0.2286 ( 31826 PWs)   bands (ev):

   -66.4661 -66.4659 -66.4651 -66.4649 -30.8373 -30.8336 -30.8039 -30.8002
   -30.7738 -30.7726 -30.7719 -30.7714 -30.7134 -30.7131 -30.7117 -30.7116
   -20.6283 -20.6283 -20.6282 -20.6282 -20.6147 -20.6145 -20.6115 -20.6114
   -20.6074 -20.6074 -20.6069 -20.6068 -20.6061 -20.6059 -20.6057 -20.6056
   -20.6046 -20.6045 -20.6045 -20.6044 -20.5999 -20.5998 -20.5997 -20.5997
   -20.5962 -20.5961 -20.5961 -20.5960  -9.9427  -9.7352  -9.2287  -9.1029
    -9.0919  -8.9594  -8.5467  -8.4355  -8.2070  -8.1791  -8.1439  -8.1320
     1.3510   1.3530   1.6276   1.7009   1.9461   2.2056   2.6210   2.6793
     2.7267   2.7402   3.3261   3.3990   3.8080   4.2659   4.3443   4.4061
     4.7534   4.7796   4.8985   4.9016   5.2368   5.2994   5.9249   5.9423
     6.3844   6.5302   6.6783   6.7070   6.7921   6.8770   6.9857   7.0126
     7.5559   7.6057   7.8557   7.8642   9.7439   9.7519  10.5050  10.6077
    11.6825  11.7532  12.7285  12.7510  12.9719  13.0817  13.2631  13.3469
    14.7046  14.9169  14.9172  15.5800  15.8561  16.5996  17.0497

          k = 0.0000 0.2222-0.3429 ( 31830 PWs)   bands (ev):

   -66.4660 -66.4660 -66.4650 -66.4650 -30.8205 -30.8205 -30.8169 -30.8169
   -30.7728 -30.7728 -30.7722 -30.7722 -30.7125 -30.7125 -30.7123 -30.7123
   -20.6282 -20.6282 -20.6282 -20.6282 -20.6131 -20.6131 -20.6130 -20.6130
   -20.6074 -20.6074 -20.6068 -20.6068 -20.6060 -20.6059 -20.6055 -20.6055
   -20.6046 -20.6046 -20.6045 -20.6045 -20.5998 -20.5998 -20.5997 -20.5997
   -20.5962 -20.5962 -20.5961 -20.5961  -9.8223  -9.8223  -9.0975  -9.0974
    -8.8987  -8.8987  -8.7354  -8.7354  -8.1970  -8.1970  -8.1380  -8.1380
     1.3520   1.3520   1.6877   1.6877   2.6492   2.6492   2.8584   2.8584
     2.9121   2.9121   3.0285   3.0285   3.3433   3.3433   4.5226   4.5226
     4.5982   4.5982   4.9792   4.9792   5.0011   5.0011   5.9350   5.9350
     6.4720   6.4720   6.8468   6.8468   6.9574   6.9574   7.1891   7.1891
     7.2521   7.2521   7.8593   7.8593   9.7490   9.7490  11.0947  11.0947
    11.1805  11.1805  12.8563  12.8564  12.9707  12.9707  13.1771  13.1771
    14.9165  14.9165  15.2798  15.2798  16.4222  16.4222  17.4729

          k = 0.0000 0.3333 0.0000 ( 31797 PWs)   bands (ev):

   -66.4661 -66.4656 -66.4654 -66.4649 -30.8537 -30.8512 -30.7879 -30.7844
   -30.7642 -30.7616 -30.7606 -30.7601 -30.7247 -30.7239 -30.7214 -30.7211
   -20.6283 -20.6283 -20.6282 -20.6282 -20.6162 -20.6162 -20.6100 -20.6099
   -20.6077 -20.6075 -20.6072 -20.6071 -20.6059 -20.6057 -20.6056 -20.6054
   -20.6045 -20.6044 -20.6043 -20.6042 -20.5993 -20.5992 -20.5991 -20.5991
   -20.5969 -20.5968 -20.5967 -20.5966  -9.9509  -9.5837  -9.4562  -9.0424
    -8.9629  -8.9408  -8.5301  -8.4595  -8.3410  -8.3176  -8.0855  -8.0409
     1.0177   1.0938   1.8380   1.8573   2.1855   2.2238   2.5537   2.5907
     3.0082   3.0993   3.5558   3.5672   3.7804   3.8646   4.2714   4.3181
     4.7378   4.7927   5.0884   5.1564   5.1690   5.5271   5.6326   5.7739
     6.0163   6.1069   6.1150   6.3990   6.7309   6.9804   7.0548   7.2298
     7.6352   7.6492   7.7107   7.8229  10.4070  10.4094  10.4976  10.6517
    12.0880  12.1065  12.5137  12.5469  12.5852  12.6058  13.3044  13.3964
    14.1500  15.0096  15.2776  15.7923  15.8030  17.1806  17.2690

          k = 0.0000 0.3333 0.1143 ( 31807 PWs)   bands (ev):

   -66.4660 -66.4656 -66.4654 -66.4650 -30.8493 -30.8467 -30.7921 -30.7889
   -30.7640 -30.7618 -30.7608 -30.7603 -30.7245 -30.7237 -30.7216 -30.7213
   -20.6283 -20.6283 -20.6282 -20.6282 -20.6158 -20.6157 -20.6104 -20.6103
   -20.6076 -20.6075 -20.6072 -20.6071 -20.6058 -20.6057 -20.6056 -20.6053
   -20.6046 -20.6044 -20.6043 -20.6043 -20.5993 -20.5992 -20.5991 -20.5991
   -20.5969 -20.5968 -20.5967 -20.5966  -9.8981  -9.5057  -9.4714  -9.0137
    -8.9614  -8.9422  -8.5537  -8.4557  -8.3395  -8.3191  -8.1853  -8.1431
     1.2657   1.3404   1.8394   1.8562   2.1837   2.2349   2.6282   2.6526
     3.0133   3.0935   3.5029   3.5425   3.8100   3.9042   4.2831   4.3303
     4.4686   4.6094   4.8177   5.1397   5.1521   5.3285   5.3779   5.5862
     6.1792   6.2293   6.4435   6.4746   6.7401   6.9726   7.0641   7.2211
     7.6127   7.6393   7.6753   7.7688  10.4363  10.4576  10.5576  10.7376
    12.1085  12.1219  12.3978  12.4495  12.5468  12.6103  13.1908  13.2891
    14.5051  15.3778  15.4456  15.7931  15.8021  16.8482  17.2811

          k = 0.0000 0.3333 0.2286 ( 31809 PWs)   bands (ev):

   -66.4660 -66.4657 -66.4653 -66.4651 -30.8370 -30.8346 -30.8039 -30.8011
   -30.7633 -30.7619 -30.7615 -30.7608 -30.7239 -30.7233 -30.7222 -30.7219
   -20.6283 -20.6283 -20.6282 -20.6282 -20.6147 -20.6146 -20.6116 -20.6115
   -20.6076 -20.6075 -20.6071 -20.6071 -20.6057 -20.6056 -20.6054 -20.6052
   -20.6047 -20.6045 -20.6045 -20.6045 -20.5993 -20.5993 -20.5991 -20.5991
   -20.5969 -20.5969 -20.5967 -20.5966  -9.7656  -9.5223  -9.2859  -8.9574
    -8.9462  -8.9140  -8.6796  -8.4434  -8.4347  -8.3352  -8.3310  -8.3235
     1.8432   1.8529   1.9048   1.9593   2.1750   2.3375   2.8282   2.8573
     3.0249   3.0779   3.2928   3.3810   3.7987   3.9726   4.0498   4.2159
     4.3421   4.3733   4.5108   4.6190   4.8830   5.0272   5.1558   5.1561
     6.6115   6.6384   6.6972   6.7675   6.7704   6.9507   7.1051   7.1849
     7.4480   7.5340   7.6592   7.6807  10.4635  10.4720  10.8684  11.0347
    11.8564  11.9860  12.3258  12.3557  12.5463  12.6312  12.9209  13.0317
    15.2278  15.7939  15.7999  15.8801  16.3374  16.4191  17.2475

          k = 0.0000 0.3333-0.3429 ( 31794 PWs)   bands (ev):

   -66.4658 -66.4658 -66.4652 -66.4652 -30.8204 -30.8204 -30.8179 -30.8179
   -30.7624 -30.7624 -30.7615 -30.7615 -30.7231 -30.7231 -30.7226 -30.7226
   -20.6282 -20.6282 -20.6282 -20.6282 -20.6132 -20.6132 -20.6131 -20.6130
   -20.6076 -20.6076 -20.6071 -20.6071 -20.6056 -20.6056 -20.6052 -20.6052
   -20.6047 -20.6047 -20.6046 -20.6046 -20.5993 -20.5993 -20.5991 -20.5991
   -20.5969 -20.5969 -20.5967 -20.5967  -9.6217  -9.6217  -8.9745  -8.9745
    -8.9501  -8.9500  -8.7152  -8.7152  -8.4150  -8.4150  -8.3293  -8.3293
     1.8483   1.8483   2.1449   2.1449   2.8194   2.8194   2.9098   2.9098
     3.0543   3.0543   3.1291   3.1291   3.3825   3.3825   4.2243   4.2243
     4.2776   4.2776   4.5074   4.5074   4.5984   4.5984   5.1487   5.1487
     6.7161   6.7161   6.8950   6.8950   7.0629   7.0629   7.1356   7.1356
     7.2620   7.2621   7.6629   7.6629  10.4721  10.4721  11.3494  11.3495
    11.5005  11.5005  12.4345  12.4345  12.6013  12.6013  12.7875  12.7875
    15.7876  15.7876  15.8195  15.8195  16.7004  16.7004  17.3638

          k = 0.0000 0.4444 0.0000 ( 31790 PWs)   bands (ev):

   -66.4659 -66.4656 -66.4654 -66.4652 -30.8531 -30.8522 -30.7869 -30.7857
   -30.7514 -30.7493 -30.7478 -30.7473 -30.7377 -30.7362 -30.7342 -30.7338
   -20.6283 -20.6283 -20.6282 -20.6282 -20.6162 -20.6162 -20.6100 -20.6100
   -20.6076 -20.6075 -20.6075 -20.6074 -20.6056 -20.6055 -20.6055 -20.6053
   -20.6044 -20.6043 -20.6043 -20.6043 -20.5986 -20.5985 -20.5983 -20.5983
   -20.5977 -20.5977 -20.5975 -20.5974  -9.7948  -9.6678  -9.1755  -8.9106
    -8.8573  -8.7714  -8.7555  -8.7048  -8.5586  -8.5355  -8.0721  -8.0562
     1.0414   1.0668   2.3799   2.4749   2.6120   2.6250   2.6782   2.7719
     3.1117   3.2096   3.5647   3.5723   3.5941   3.6646   3.7163   3.8250
     4.2630   4.3698   4.7296   4.7823   5.1832   5.3872   5.6965   5.7570
     5.9406   5.9451   6.1094   6.2209   7.1121   7.1606   7.2345   7.3874
     7.4013   7.4815   7.4944   7.6823  10.9675  11.0563  11.2024  11.3211
    11.5932  11.6365  11.9429  11.9939  12.6998  12.8176  12.9823  13.1040
    14.4978  14.7863  15.8866  16.5127  16.8335  16.9110  17.3735

          k = 0.0000 0.4444 0.1143 ( 31798 PWs)   bands (ev):

   -66.4658 -66.4656 -66.4654 -66.4652 -30.8486 -30.8477 -30.7913 -30.7901
   -30.7511 -30.7493 -30.7481 -30.7475 -30.7374 -30.7361 -30.7345 -30.7340
   -20.6283 -20.6283 -20.6282 -20.6282 -20.6158 -20.6158 -20.6104 -20.6104
   -20.6076 -20.6075 -20.6074 -20.6074 -20.6056 -20.6055 -20.6054 -20.6052
   -20.6045 -20.6044 -20.6044 -20.6043 -20.5986 -20.5985 -20.5983 -20.5983
   -20.5977 -20.5977 -20.5975 -20.5974  -9.7312  -9.5947  -9.1916  -8.8926
    -8.8749  -8.7704  -8.7562  -8.6970  -8.5571  -8.5371  -8.1749  -8.1598
     1.2910   1.3161   2.3891   2.4710   2.6297   2.6506   2.7392   2.7808
     3.0970   3.1862   3.5671   3.6163   3.6480   3.6690   3.7503   3.8542
     4.2309   4.3676   4.4716   4.5496   4.8559   5.0641   5.4250   5.4972
     6.2208   6.2731   6.3117   6.3633   7.1018   7.1520   7.2353   7.3717
     7.3869   7.4597   7.4764   7.6411  11.0336  11.1011  11.2168  11.3584
    11.6458  11.6818  11.9488  12.0069  12.5593  12.6818  12.8548  12.9823
    14.8822  15.1853  15.9777  16.5625  16.8279  16.9210  17.1832

          k = 0.0000 0.4444 0.2286 ( 31796 PWs)   bands (ev):

   -66.4657 -66.4655 -66.4655 -66.4653 -30.8364 -30.8356 -30.8032 -30.8022
   -30.7505 -30.7492 -30.7487 -30.7480 -30.7368 -30.7358 -30.7351 -30.7345
   -20.6283 -20.6283 -20.6282 -20.6282 -20.6147 -20.6147 -20.6116 -20.6115
   -20.6076 -20.6075 -20.6074 -20.6074 -20.6054 -20.6053 -20.6053 -20.6051
   -20.6047 -20.6046 -20.6045 -20.6045 -20.5986 -20.5985 -20.5983 -20.5983
   -20.5977 -20.5977 -20.5975 -20.5974  -9.5651  -9.3941  -9.2494  -8.9486
    -8.8266  -8.7673  -8.7587  -8.6670  -8.5531  -8.5413  -8.4216  -8.3947
     1.9622   1.9734   2.4119   2.4587   2.6683   2.6910   2.8431   2.9076
     3.0477   3.0917   3.5648   3.6349   3.7946   3.8054   3.8083   3.8856
     3.9609   3.9649   4.3373   4.3574   4.4077   4.5867   4.7021   4.8421
     6.6607   6.6868   6.6951   6.7404   7.0522   7.1191   7.2470   7.2849
     7.2986   7.4257   7.4442   7.5302  11.1512  11.1635  11.3397  11.5384
    11.7706  11.7914  11.9823  12.0830  12.2105  12.3328  12.5402  12.6784
    15.7522  16.1476  16.2834  16.6887  16.7808  16.8466  16.9704

          k = 0.0000 0.4444-0.3429 ( 31800 PWs)   bands (ev):

   -66.4656 -66.4656 -66.4654 -66.4654 -30.8198 -30.8198 -30.8189 -30.8189
   -30.7496 -30.7496 -30.7487 -30.7487 -30.7359 -30.7359 -30.7352 -30.7352
   -20.6282 -20.6282 -20.6282 -20.6282 -20.6132 -20.6132 -20.6131 -20.6131
   -20.6075 -20.6075 -20.6074 -20.6074 -20.6053 -20.6053 -20.6050 -20.6050
   -20.6048 -20.6048 -20.6047 -20.6047 -20.5986 -20.5985 -20.5983 -20.5983
   -20.5977 -20.5977 -20.5974 -20.5974  -9.3756  -9.3756  -9.1354  -9.1354
    -8.7629  -8.7629  -8.6741  -8.6741  -8.5852  -8.5852  -8.5469  -8.5469
     2.4377   2.4377   2.5806   2.5806   2.7777   2.7777   2.9460   2.9460
     3.0114   3.0114   3.2422   3.2422   3.6315   3.6315   4.0241   4.0241
     4.0981   4.0981   4.1626   4.1626   4.2688   4.2688   4.3889   4.3889
     6.9087   6.9088   7.0062   7.0062   7.0469   7.0469   7.0964   7.0964
     7.3164   7.3164   7.4589   7.4589  11.1776  11.1776  11.6579  11.6579
    11.8814  11.8814  11.9387  11.9387  12.1744  12.1744  12.3396  12.3396
    16.3882  16.3882  16.7626  16.7626  16.9312  16.9312  17.1428

          k = 0.1111 0.1111 0.0000 ( 31829 PWs)   bands (ev):

   -66.4663 -66.4659 -66.4652 -66.4647 -30.8541 -30.8499 -30.7871 -30.7844
   -30.7829 -30.7806 -30.7728 -30.7703 -30.7145 -30.7113 -30.7044 -30.7012
   -20.6283 -20.6283 -20.6282 -20.6282 -20.6162 -20.6161 -20.6099 -20.6097
   -20.6072 -20.6072 -20.6067 -20.6067 -20.6066 -20.6063 -20.6059 -20.6059
   -20.6045 -20.6044 -20.6044 -20.6042 -20.6005 -20.6003 -20.5997 -20.5996
   -20.5963 -20.5961 -20.5956 -20.5953 -10.1702  -9.7721  -9.5172  -9.1911
    -9.1401  -9.1185  -8.1968  -8.1759  -8.0949  -8.0229  -7.9771  -7.9522
     0.9399   1.0172   1.0738   1.1334   1.5982   1.6649   2.2961   2.4202
     2.4769   2.5586   3.8285   3.8288   4.1526   4.5262   4.7685   4.8689
     5.1533   5.2830   5.3231   5.5327   5.5870   5.7304   5.9639   6.1529
     6.3615   6.4997   6.5642   6.5839   6.7354   6.8065   6.8448   6.8857
     7.8581   7.9399   7.9420   7.9697   9.3603   9.3769   9.4291   9.9671
    12.1433  12.2988  12.6028  13.0338  13.1457  13.1848  13.5447  13.6452
    13.9062  14.4850  14.5652  14.6374  15.2263  16.5537  17.0619

          k = 0.1111 0.1111 0.1143 ( 31811 PWs)   bands (ev):

   -66.4663 -66.4659 -66.4651 -66.4647 -30.8495 -30.8454 -30.7914 -30.7874
   -30.7842 -30.7808 -30.7729 -30.7705 -30.7142 -30.7115 -30.7042 -30.7014
   -20.6283 -20.6283 -20.6282 -20.6282 -20.6158 -20.6157 -20.6103 -20.6101
   -20.6072 -20.6072 -20.6067 -20.6067 -20.6066 -20.6063 -20.6059 -20.6058
   -20.6045 -20.6044 -20.6044 -20.6043 -20.6004 -20.6003 -20.5997 -20.5996
   -20.5963 -20.5961 -20.5956 -20.5953 -10.1286  -9.7866  -9.4373  -9.1782
    -9.1418  -9.0900  -8.2641  -8.1741  -8.1640  -8.1128  -7.9755  -7.9539
     1.0030   1.0172   1.2409   1.3683   1.5972   1.7135   2.3665   2.4501
     2.5249   2.5524   3.6955   3.6976   4.1487   4.5138   4.5718   4.8771
     4.9736   5.2127   5.2965   5.3496   5.6106   5.7042   5.9994   6.2456
     6.3674   6.5347   6.5688   6.5732   6.7361   6.7871   6.8397   6.8562
     7.8018   7.8802   7.9344   7.9477   9.3628   9.3723   9.6584  10.1200
    11.9949  12.1442  12.6303  13.0565  13.1374  13.1964  13.5532  13.8054
    13.8139  14.4810  14.5928  14.8258  15.6394  16.2232  17.1403

          k = 0.1111 0.1111 0.2286 ( 31822 PWs)   bands (ev):

   -66.4662 -66.4660 -66.4650 -66.4648 -30.8372 -30.8332 -30.8035 -30.7997
   -30.7835 -30.7815 -30.7727 -30.7711 -30.7137 -30.7121 -30.7036 -30.7020
   -20.6283 -20.6283 -20.6282 -20.6282 -20.6146 -20.6145 -20.6115 -20.6113
   -20.6072 -20.6072 -20.6067 -20.6067 -20.6065 -20.6063 -20.6058 -20.6057
   -20.6046 -20.6045 -20.6045 -20.6044 -20.6004 -20.6004 -20.5997 -20.5996
   -20.5963 -20.5962 -20.5955 -20.5954 -10.0262  -9.8324  -9.2106  -9.1627
    -9.1464  -8.9711  -8.5258  -8.4326  -8.1690  -8.1505  -7.9710  -7.9585
     1.0145   1.0170   1.5475   1.5935   1.9420   2.2178   2.4774   2.5219
     2.5865   2.7317   3.3163   3.3653   3.8136   4.2996   4.3969   4.7181
     4.8018   4.9044   5.1096   5.2629   5.3516   5.6112   6.0985   6.4309
     6.5427   6.5567   6.6360   6.7074   6.7545   6.7728   6.8867   6.9150
     7.5921   7.6305   7.9363   7.9442   9.3667   9.3710  10.2194  10.5449
    11.5515  11.7157  12.7351  13.0750  13.1563  13.2104  13.3615  13.5837
    14.2589  14.4687  14.7082  15.4637  15.6625  16.6637  16.9366

          k = 0.1111 0.1111-0.3429 ( 31808 PWs)   bands (ev):

   -66.4661 -66.4661 -66.4649 -66.4649 -30.8203 -30.8203 -30.8165 -30.8165
   -30.7825 -30.7825 -30.7720 -30.7720 -30.7129 -30.7129 -30.7028 -30.7028
   -20.6282 -20.6282 -20.6282 -20.6282 -20.6131 -20.6131 -20.6129 -20.6129
   -20.6071 -20.6071 -20.6067 -20.6067 -20.6063 -20.6063 -20.6057 -20.6057
   -20.6046 -20.6046 -20.6045 -20.6045 -20.6004 -20.6004 -20.5996 -20.5996
   -20.5962 -20.5962 -20.5955 -20.5955  -9.9147  -9.9146  -9.1534  -9.1534
    -8.8795  -8.8795  -8.7412  -8.7412  -8.1614  -8.1614  -7.9648  -7.9648
     1.0164   1.0164   1.5842   1.5842   2.5031   2.5031   2.8599   2.8599
     2.9075   2.9075   2.9630   2.9630   3.3126   3.3126   4.5607   4.5607
     4.9065   4.9065   5.0376   5.0376   5.4250   5.4251   6.2492   6.2492
     6.5557   6.5557   6.7133   6.7133   6.8831   6.8832   7.2257   7.2257
     7.2350   7.2350   7.9405   7.9405   9.3694   9.3694  10.9092  10.9092
    11.1295  11.1295  12.9153  12.9153  13.2342  13.2342  13.3482  13.3482
    14.4326  14.4326  15.1072  15.1072  16.3086  16.3086  17.4771

          k = 0.1111 0.2222 0.0000 ( 31841 PWs)   bands (ev):

   -66.4662 -66.4657 -66.4653 -66.4648 -30.8539 -30.8504 -30.7878 -30.7836
   -30.7816 -30.7786 -30.7620 -30.7594 -30.7252 -30.7222 -30.7063 -30.7032
   -20.6283 -20.6283 -20.6282 -20.6282 -20.6162 -20.6161 -20.6099 -20.6098
   -20.6074 -20.6073 -20.6069 -20.6069 -20.6064 -20.6062 -20.6057 -20.6055
   -20.6045 -20.6044 -20.6043 -20.6041 -20.6005 -20.6003 -20.5990 -20.5989
   -20.5970 -20.5969 -20.5956 -20.5954 -10.0825  -9.6632  -9.5445  -9.1621
    -9.0294  -9.0120  -8.4206  -8.3916  -8.1049  -8.0388  -8.0304  -8.0123
     0.9758   1.1172   1.1524   1.2015   2.0835   2.1099   2.3251   2.5690
     2.6957   2.7809   3.6154   3.6511   4.0055   4.3407   4.3801   4.7496
     4.9986   5.0919   5.2064   5.5247   5.6088   5.7499   5.8826   6.0251
     6.0925   6.2116   6.2489   6.3344   6.6976   6.7950   6.8025   7.1028
     7.7181   7.7847   7.7984   7.9534   9.5887   9.9561   9.9829  10.4987
    12.0287  12.3320  12.4595  12.9039  12.9323  13.0059  13.3647  13.7175
    13.8313  14.8774  14.8917  15.1246  15.1623  17.0159  17.1652

          k = 0.1111 0.2222 0.1143 ( 31831 PWs)   bands (ev):

   -66.4662 -66.4658 -66.4652 -66.4648 -30.8494 -30.8460 -30.7918 -30.7881
   -30.7818 -30.7789 -30.7619 -30.7596 -30.7250 -30.7224 -30.7061 -30.7034
   -20.6283 -20.6283 -20.6282 -20.6282 -20.6158 -20.6157 -20.6104 -20.6102
   -20.6074 -20.6073 -20.6069 -20.6069 -20.6064 -20.6062 -20.6056 -20.6054
   -20.6046 -20.6045 -20.6044 -20.6042 -20.6004 -20.6003 -20.5990 -20.5989
   -20.5970 -20.5969 -20.5956 -20.5954 -10.0375  -9.6774  -9.4653  -9.1362
    -9.0316  -8.9998  -8.4413  -8.3891  -8.2006  -8.1398  -8.0370  -8.0142
     1.1116   1.1522   1.2903   1.3907   2.0823   2.1234   2.3955   2.6252
     2.7130   2.7749   3.5474   3.6397   3.8939   4.3550   4.4371   4.4888
     4.7546   5.0814   5.1033   5.3631   5.4491   5.6858   5.9419   6.0248
     6.1863   6.2562   6.3469   6.4291   6.7041   6.7298   6.8333   7.0994
     7.6812   7.7743   7.7833   7.8793   9.7813   9.9592   9.9904  10.6082
    11.9757  12.2730  12.3214  12.9003  12.9285  13.0225  13.2661  13.7348
    13.9898  14.8677  15.0686  15.1954  15.5359  16.6116  17.1957

          k = 0.1111 0.2222 0.2286 ( 31823 PWs)   bands (ev):

   -66.4661 -66.4659 -66.4651 -66.4649 -30.8371 -30.8338 -30.8036 -30.8003
   -30.7813 -30.7796 -30.7616 -30.7602 -30.7245 -30.7230 -30.7055 -30.7040
   -20.6283 -20.6283 -20.6282 -20.6282 -20.6147 -20.6146 -20.6115 -20.6114
   -20.6074 -20.6073 -20.6069 -20.6069 -20.6063 -20.6061 -20.6055 -20.6053
   -20.6047 -20.6046 -20.6045 -20.6043 -20.6004 -20.6004 -20.5989 -20.5989
   -20.5970 -20.5969 -20.5956 -20.5955  -9.9268  -9.7231  -9.2412  -9.0810
    -9.0383  -8.9294  -8.5895  -8.4386  -8.3814  -8.3189  -8.0324  -8.0195
     1.1455   1.1516   1.9073   1.9604   2.0755   2.2861   2.6030   2.6951
     2.7615   2.8626   3.3098   3.3565   3.8065   3.9922   4.2939   4.4090
     4.5846   4.6202   4.9447   4.9792   5.1514   5.4804   5.9958   6.0228
     6.3016   6.5048   6.5975   6.6722   6.7260   6.7666   6.9462   7.0805
     7.5109   7.6030   7.7804   7.7989   9.9609   9.9662  10.3244  10.9309
    11.5921  11.9300  12.3555  12.8232  12.9410  13.0674  13.1063  13.5060
    14.4594  14.8316  15.2988  15.7000  16.0766  16.5412  17.1705

          k = 0.1111 0.2222-0.3429 ( 31814 PWs)   bands (ev):

   -66.4660 -66.4660 -66.4650 -66.4650 -30.8203 -30.8203 -30.8171 -30.8171
   -30.7805 -30.7805 -30.7610 -30.7610 -30.7237 -30.7237 -30.7048 -30.7047
   -20.6282 -20.6282 -20.6282 -20.6282 -20.6131 -20.6131 -20.6130 -20.6130
   -20.6073 -20.6073 -20.6069 -20.6069 -20.6062 -20.6062 -20.6053 -20.6053
   -20.6047 -20.6047 -20.6045 -20.6045 -20.6004 -20.6004 -20.5989 -20.5989
   -20.5970 -20.5970 -20.5955 -20.5955  -9.8079  -9.8079  -9.0515  -9.0514
    -8.9166  -8.9163  -8.7289  -8.7287  -8.3659  -8.3657  -8.0260  -8.0260
     1.1500   1.1503   2.0552   2.0557   2.7114   2.7141   2.8533   2.8580
     2.9068   2.9203   3.0095   3.0285   3.3456   3.3493   4.2521   4.2661
     4.5593   4.5667   4.8094   4.8462   5.2193   5.2534   6.0155   6.0157
     6.4031   6.4209   6.6653   6.6795   6.9986   7.0001   7.1856   7.1968
     7.2209   7.2309   7.7868   7.7880   9.9661   9.9672  10.9721  10.9779
    11.4104  11.4158  12.5700  12.5925  12.9515  13.0248  13.2369  13.2879
    14.7264  14.7339  15.5957  15.6057  16.5457  16.5459  17.5167

          k = 0.1111 0.3333 0.0000 ( 31813 PWs)   bands (ev):

   -66.4661 -66.4656 -66.4654 -66.4650 -30.8536 -30.8512 -30.7878 -30.7846
   -30.7746 -30.7721 -30.7490 -30.7463 -30.7382 -30.7352 -30.7128 -30.7097
   -20.6283 -20.6283 -20.6282 -20.6282 -20.6162 -20.6162 -20.6100 -20.6099
   -20.6076 -20.6075 -20.6072 -20.6071 -20.6061 -20.6059 -20.6055 -20.6052
   -20.6046 -20.6045 -20.6042 -20.6041 -20.6002 -20.6000 -20.5981 -20.5981
   -20.5979 -20.5978 -20.5959 -20.5957  -9.9533  -9.5971  -9.4886  -9.1049
    -8.8560  -8.8453  -8.6992  -8.6293  -8.1931  -8.1858  -8.0808  -8.0422
     1.0147   1.0941   1.4870   1.5143   2.4052   2.5688   2.6452   2.7070
     3.0849   3.1349   3.1938   3.5024   3.8012   3.9025   4.0914   4.6426
     4.7414   4.8230   5.0196   5.3497   5.3792   5.5042   5.6125   5.7399
     6.0062   6.0431   6.1871   6.5492   6.5652   6.8178   6.9079   7.3723
     7.5138   7.5526   7.5969   7.8907   9.9798  10.6330  10.6643  11.0845
    11.6052  12.3496  12.4622  12.5355  12.6361  12.8118  13.0455  13.6325
    14.0263  14.9509  15.3352  15.5615  15.9782  17.2707  17.3530

          k = 0.1111 0.3333 0.1143 ( 31797 PWs)   bands (ev):

   -66.4660 -66.4656 -66.4654 -66.4650 -30.8491 -30.8468 -30.7918 -30.7890
   -30.7747 -30.7723 -30.7489 -30.7465 -30.7380 -30.7355 -30.7126 -30.7099
   -20.6283 -20.6283 -20.6282 -20.6282 -20.6158 -20.6157 -20.6104 -20.6103
   -20.6075 -20.6075 -20.6072 -20.6071 -20.6060 -20.6059 -20.6054 -20.6052
   -20.6047 -20.6046 -20.6043 -20.6041 -20.6001 -20.6001 -20.5981 -20.5981
   -20.5979 -20.5978 -20.5959 -20.5958  -9.9019  -9.5204  -9.5024  -9.0787
    -8.8591  -8.8400  -8.7139  -8.6245  -8.2217  -8.1914  -8.1680  -8.1313
     1.2510   1.3301   1.4865   1.5450   2.4731   2.5876   2.6585   2.7387
     3.0877   3.1207   3.1843   3.5334   3.7884   3.8326   4.1499   4.4538
     4.6429   4.6722   4.7938   5.2400   5.3324   5.3520   5.4013   5.6345
     6.2177   6.2348   6.3169   6.5837   6.6070   6.8087   6.9258   7.3498
     7.4934   7.5459   7.5771   7.8202  10.1314  10.6346  10.6669  11.1632
    11.6639  12.1987  12.4443  12.5289  12.6128  12.7467  12.9280  13.5295
    14.3387  15.3421  15.4838  15.5452  16.0106  17.0077  17.3090

          k = 0.1111 0.3333 0.2286 ( 31787 PWs)   bands (ev):

   -66.4659 -66.4657 -66.4653 -66.4651 -30.8369 -30.8346 -30.8036 -30.8012
   -30.7745 -30.7730 -30.7485 -30.7471 -30.7375 -30.7360 -30.7120 -30.7104
   -20.6283 -20.6283 -20.6282 -20.6282 -20.6147 -20.6146 -20.6116 -20.6115
   -20.6075 -20.6075 -20.6071 -20.6071 -20.6059 -20.6058 -20.6052 -20.6050
   -20.6048 -20.6047 -20.6045 -20.6043 -20.6001 -20.6001 -20.5981 -20.5981
   -20.5979 -20.5978 -20.5959 -20.5958  -9.7745  -9.5485  -9.3061  -8.9956
    -8.8701  -8.8157  -8.7860  -8.6073  -8.4381  -8.4054  -8.1864  -8.1695
     1.4664   1.4847   1.9532   2.0480   2.6082   2.6366   2.7346   2.8623
     3.0525   3.0976   3.1632   3.3612   3.7958   3.8096   3.9452   4.1165
     4.3229   4.6047   4.6172   4.6893   4.7596   5.1645   5.3534   5.3984
     6.5404   6.6028   6.6517   6.6871   6.7601   6.7992   7.0088   7.2716
     7.3782   7.4919   7.5631   7.6434  10.5177  10.6373  10.7030  11.4036
    11.6885  11.9334  12.2150  12.4635  12.5270  12.6833  12.8156  13.2822
    14.9226  15.4790  15.8885  16.2050  16.3265  16.5774  17.3328

          k = 0.1111 0.3333-0.3429 ( 31784 PWs)   bands (ev):

   -66.4658 -66.4658 -66.4652 -66.4652 -30.8202 -30.8202 -30.8179 -30.8179
   -30.7738 -30.7738 -30.7479 -30.7479 -30.7368 -30.7368 -30.7112 -30.7112
   -20.6282 -20.6282 -20.6282 -20.6282 -20.6131 -20.6131 -20.6131 -20.6130
   -20.6075 -20.6075 -20.6071 -20.6071 -20.6058 -20.6058 -20.6050 -20.6050
   -20.6048 -20.6048 -20.6045 -20.6045 -20.6001 -20.6001 -20.5981 -20.5981
   -20.5979 -20.5979 -20.5959 -20.5958  -9.6395  -9.6394  -9.0139  -9.0131
    -8.9024  -8.9009  -8.6949  -8.6938  -8.5602  -8.5595  -8.1793  -8.1790
     1.4802   1.4810   2.5686   2.5692   2.7965   2.7974   2.9055   2.9313
     3.0011   3.0294   3.1539   3.1582   3.2841   3.2963   4.0818   4.1018
     4.1979   4.2059   4.4946   4.5849   4.7987   4.8742   5.3575   5.3606
     6.6238   6.6435   6.7420   6.7630   7.0811   7.0857   7.1185   7.1456
     7.2091   7.2305   7.5710   7.5772  10.6325  10.6384  11.1469  11.1692
    11.7797  11.7926  12.1640  12.2044  12.5174  12.6125  12.9856  13.0396
    15.2959  15.3149  16.1916  16.2150  16.9070  16.9250  17.3375

          k = 0.1111 0.4444 0.0000 ( 31786 PWs)   bands (ev):

   -66.4658 -66.4656 -66.4654 -66.4652 -30.8530 -30.8521 -30.7869 -30.7858
   -30.7643 -30.7618 -30.7517 -30.7490 -30.7355 -30.7326 -30.7229 -30.7199
   -20.6283 -20.6283 -20.6282 -20.6282 -20.6162 -20.6162 -20.6100 -20.6099
   -20.6076 -20.6075 -20.6074 -20.6073 -20.6058 -20.6057 -20.6053 -20.6052
   -20.6047 -20.6046 -20.6042 -20.6041 -20.5996 -20.5995 -20.5987 -20.5987
   -20.5972 -20.5972 -20.5965 -20.5964  -9.8097  -9.6847  -9.2588  -9.0047
    -8.9889  -8.8452  -8.6363  -8.6334  -8.4048  -8.4003  -8.0712  -8.0565
     1.0423   1.0683   1.9831   1.9853   2.4754   2.5523   2.5710   2.6884
     3.2000   3.5451   3.5869   3.6560   3.6848   3.7879   3.9280   4.1069
     4.3217   4.6196   4.7537   4.8862   5.2056   5.3728   5.6323   5.6845
     5.9926   6.0325   6.1441   6.3143   6.9373   7.0162   7.0947   7.2565
     7.2787   7.3455   7.6056   7.7766  10.4951  11.0466  11.3084  11.3563
    11.6591  11.9410  12.0014  12.2108  12.5158  12.7507  13.0523  13.3554
    14.3843  14.7027  15.9271  16.3851  16.6699  16.8888  17.2679

          k = 0.1111 0.4444 0.1143 ( 31803 PWs)   bands (ev):

   -66.4658 -66.4656 -66.4654 -66.4652 -30.8485 -30.8477 -30.7912 -30.7901
   -30.7643 -30.7620 -30.7516 -30.7492 -30.7354 -30.7328 -30.7227 -30.7201
   -20.6283 -20.6283 -20.6282 -20.6282 -20.6158 -20.6158 -20.6104 -20.6104
   -20.6075 -20.6075 -20.6074 -20.6073 -20.6057 -20.6057 -20.6053 -20.6052
   -20.6047 -20.6046 -20.6042 -20.6042 -20.5996 -20.5995 -20.5987 -20.5987
   -20.5972 -20.5972 -20.5965 -20.5964  -9.7489  -9.6141  -9.2723  -9.0030
    -8.9848  -8.8346  -8.6409  -8.6304  -8.4082  -8.4027  -8.1729  -8.1589
     1.2904   1.3159   1.9814   1.9927   2.4884   2.5657   2.6220   2.7442
     3.1818   3.5115   3.6065   3.6569   3.6977   3.8463   3.9413   4.1148
     4.2551   4.5008   4.6252   4.6769   4.9166   5.0481   5.4610   5.5475
     6.1744   6.2047   6.3536   6.4724   6.9375   7.0083   7.1005   7.2443
     7.2720   7.3373   7.5654   7.7186  10.6062  11.1235  11.3096  11.3618
    11.7148  11.9409  12.0023  12.2560  12.3679  12.6151  12.9255  13.2413
    14.7394  15.0861  16.0260  16.3731  16.7133  16.9089  17.1844

          k = 0.1111 0.4444 0.2286 ( 31805 PWs)   bands (ev):

   -66.4657 -66.4655 -66.4655 -66.4653 -30.8363 -30.8355 -30.8031 -30.8022
   -30.7641 -30.7626 -30.7513 -30.7498 -30.7349 -30.7334 -30.7222 -30.7207
   -20.6283 -20.6283 -20.6282 -20.6282 -20.6147 -20.6147 -20.6116 -20.6115
   -20.6075 -20.6075 -20.6074 -20.6073 -20.6056 -20.6055 -20.6052 -20.6050
   -20.6048 -20.6048 -20.6044 -20.6044 -20.5995 -20.5995 -20.5987 -20.5987
   -20.5972 -20.5972 -20.5965 -20.5964  -9.5935  -9.4243  -9.3202  -9.0565
    -8.9147  -8.7943  -8.6627  -8.6201  -8.4839  -8.4123  -8.3962  -8.3432
     1.8677   1.9597   1.9761   2.1156   2.5303   2.5474   2.8256   2.9016
     3.1100   3.3092   3.6117   3.6593   3.8357   3.8791   3.9805   4.0137
     4.0503   4.1713   4.2618   4.5213   4.6368   4.6549   4.7943   5.0172
     6.6023   6.6338   6.7139   6.7523   6.9261   6.9817   7.1315   7.1846
     7.2396   7.3311   7.4428   7.5495  10.9215  11.2873  11.3239  11.4284
    11.8694  11.9073  12.0122  12.0152  12.2812  12.3948  12.6109  12.9621
    15.4861  15.9742  16.2820  16.3507  16.8579  16.9705  17.0111

          k = 0.1111 0.4444-0.3429 ( 31810 PWs)   bands (ev):

   -66.4656 -66.4656 -66.4654 -66.4654 -30.8196 -30.8196 -30.8189 -30.8188
   -30.7634 -30.7634 -30.7506 -30.7506 -30.7342 -30.7341 -30.7214 -30.7214
   -20.6282 -20.6282 -20.6282 -20.6282 -20.6131 -20.6131 -20.6131 -20.6131
   -20.6075 -20.6075 -20.6074 -20.6073 -20.6054 -20.6054 -20.6051 -20.6051
   -20.6047 -20.6047 -20.6046 -20.6046 -20.5995 -20.5995 -20.5988 -20.5987
   -20.5972 -20.5972 -20.5965 -20.5964  -9.4257  -9.4256  -9.1978  -9.1975
    -8.7705  -8.7693  -8.6847  -8.6846  -8.5848  -8.5844  -8.3850  -8.3845
     1.9627   1.9638   2.4961   2.4966   2.8215   2.8216   2.8814   2.8828
     3.1331   3.1523   3.2699   3.2747   3.6549   3.6764   4.0375   4.0461
     4.1141   4.2153   4.2475   4.2759   4.3888   4.4648   4.6949   4.6989
     6.8290   6.8475   6.8951   6.9038   7.0179   7.0347   7.0534   7.0991
     7.2453   7.2710   7.3633   7.3807  11.2378  11.2990  11.4260  11.5001
    11.7479  11.8032  11.9375  12.0645  12.2221  12.2565  12.6266  12.6709
    16.0086  16.0452  16.6151  16.7193  16.7921  16.9418  17.1429

          k = 0.2222 0.2222 0.0000 ( 31807 PWs)   bands (ev):

   -66.4661 -66.4657 -66.4653 -66.4649 -30.8536 -30.8508 -30.7864 -30.7858
   -30.7841 -30.7819 -30.7486 -30.7458 -30.7386 -30.7357 -30.7032 -30.7000
   -20.6283 -20.6283 -20.6282 -20.6282 -20.6162 -20.6161 -20.6099 -20.6098
   -20.6072 -20.6072 -20.6071 -20.6070 -20.6066 -20.6063 -20.6055 -20.6052
   -20.6047 -20.6046 -20.6042 -20.6040 -20.6008 -20.6007 -20.5980 -20.5980
   -20.5979 -20.5979 -20.5953 -20.5951 -10.0336  -9.6225  -9.5773  -9.1718
    -8.8756  -8.8541  -8.6785  -8.6194  -8.0978  -8.0366  -7.9962  -7.9705
     0.9495   1.0446   1.1086   1.1399   2.2692   2.5935   2.6707   2.7104
     2.9032   2.9797   3.1727   3.4938   3.8121   3.9924   4.4915   4.7341
     4.9896   5.0874   5.1595   5.4954   5.5995   5.6806   5.8916   5.9216
     6.0377   6.0738   6.1458   6.4053   6.4186   6.6150   6.8942   7.3572
     7.4949   7.5791   7.6124   7.9744   9.4631  10.4507  10.4834  11.0717
    11.5856  12.2334  12.6915  12.7493  12.7788  13.0449  13.0713  13.6854
    13.9065  14.9174  14.9949  15.1360  15.7016  17.2584  17.3517

          k = 0.2222 0.2222 0.1143 ( 31806 PWs)   bands (ev):

   -66.4661 -66.4657 -66.4653 -66.4649 -30.8491 -30.8464 -30.7908 -30.7886
   -30.7855 -30.7822 -30.7485 -30.7460 -30.7385 -30.7359 -30.7030 -30.7003
   -20.6283 -20.6283 -20.6282 -20.6282 -20.6158 -20.6157 -20.6103 -20.6102
   -20.6072 -20.6072 -20.6070 -20.6070 -20.6066 -20.6063 -20.6054 -20.6052
   -20.6047 -20.6046 -20.6043 -20.6041 -20.6008 -20.6007 -20.5980 -20.5980
   -20.5980 -20.5979 -20.5953 -20.5951  -9.9876  -9.6355  -9.5001  -9.1408
    -8.8794  -8.8479  -8.6919  -8.6149  -8.2003  -8.1462  -7.9946  -7.9722
     1.0193   1.0445   1.2943   1.3905   2.3401   2.6131   2.7034   2.7162
     2.9111   2.9724   3.1532   3.5266   3.8107   3.8442   4.4638   4.5314
     4.7197   5.0654   5.0855   5.2839   5.4039   5.6889   5.8939   6.0375
     6.0699   6.1737   6.3131   6.3759   6.4544   6.6747   6.7875   7.3350
     7.4898   7.5720   7.5912   7.8919   9.6850  10.4529  10.4834  11.1503
    11.6424  12.0792  12.5680  12.7189  12.7866  12.9722  13.0626  13.8099
    13.9325  14.8977  15.2954  15.4051  15.7668  16.9477  17.3863

          k = 0.2222 0.2222 0.2286 ( 31794 PWs)   bands (ev):

   -66.4660 -66.4658 -66.4652 -66.4650 -30.8368 -30.8342 -30.8031 -30.8008
   -30.7848 -30.7829 -30.7481 -30.7466 -30.7380 -30.7365 -30.7024 -30.7008
   -20.6283 -20.6283 -20.6282 -20.6282 -20.6147 -20.6146 -20.6115 -20.6114
   -20.6072 -20.6072 -20.6070 -20.6070 -20.6065 -20.6063 -20.6052 -20.6050
   -20.6048 -20.6047 -20.6044 -20.6042 -20.6008 -20.6007 -20.5980 -20.5980
   -20.5980 -20.5979 -20.5952 -20.5951  -9.8757  -9.6778  -9.2841  -9.0449
    -8.8934  -8.8194  -8.7611  -8.5991  -8.4421  -8.3972  -7.9899  -7.9770
     1.0393   1.0442   1.9487   2.0712   2.5439   2.6779   2.6822   2.8322
     2.9396   2.9502   3.0885   3.3135   3.7875   3.8132   3.9550   4.1097
     4.6163   4.6828   4.7462   4.9931   5.1433   5.5220   6.0029   6.0382
     6.2548   6.2693   6.3896   6.5502   6.7141   6.7611   6.8963   7.2578
     7.3909   7.5165   7.5799   7.6820  10.2273  10.4578  10.4921  11.3906
    11.5455  11.9150  12.2183  12.5289  12.7971  12.8430  13.1543  13.5811
    14.3721  14.8279  15.7178  16.1139  16.3611  16.4788  17.5013

          k = 0.2222 0.2222-0.3429 ( 31798 PWs)   bands (ev):

   -66.4659 -66.4659 -66.4651 -66.4651 -30.8200 -30.8200 -30.8175 -30.8175
   -30.7838 -30.7838 -30.7474 -30.7474 -30.7373 -30.7373 -30.7016 -30.7016
   -20.6282 -20.6282 -20.6282 -20.6282 -20.6131 -20.6131 -20.6130 -20.6130
   -20.6072 -20.6072 -20.6070 -20.6070 -20.6063 -20.6063 -20.6050 -20.6050
   -20.6048 -20.6048 -20.6045 -20.6044 -20.6007 -20.6007 -20.5980 -20.5980
   -20.5980 -20.5979 -20.5952 -20.5952  -9.7585  -9.7585  -8.9881  -8.9880
    -8.9342  -8.9342  -8.6985  -8.6985  -8.5545  -8.5545  -7.9835  -7.9835
     1.0430   1.0430   2.5995   2.5995   2.8093   2.8093   2.8562   2.8562
     2.9487   2.9487   3.0397   3.0397   3.2448   3.2448   4.0918   4.0918
     4.2083   4.2083   4.9043   4.9043   5.2581   5.2581   6.0332   6.0332
     6.3345   6.3345   6.4099   6.4099   7.0782   7.0782   7.1585   7.1585
     7.1919   7.1919   7.5970   7.5970  10.4592  10.4592  10.9362  10.9362
    11.7758  11.7758  12.1906  12.1906  12.8091  12.8091  13.3360  13.3360
    14.6722  14.6722  16.0602  16.0602  16.8992  16.8992  17.4140

          k = 0.2222 0.3333 0.0000 ( 31805 PWs)   bands (ev):

   -66.4660 -66.4655 -66.4655 -66.4650 -30.8531 -30.8514 -30.7873 -30.7850
   -30.7825 -30.7801 -30.7526 -30.7499 -30.7346 -30.7317 -30.7049 -30.7018
   -20.6283 -20.6283 -20.6282 -20.6282 -20.6162 -20.6161 -20.6099 -20.6099
   -20.6073 -20.6073 -20.6072 -20.6071 -20.6064 -20.6062 -20.6053 -20.6051
   -20.6049 -20.6048 -20.6041 -20.6039 -20.6008 -20.6007 -20.5989 -20.5989
   -20.5970 -20.5970 -20.5953 -20.5951  -9.9514  -9.6389  -9.5328  -9.1497
    -8.9437  -8.8296  -8.6608  -8.6497  -8.0938  -8.0602  -8.0458  -8.0308
     0.9933   1.0930   1.1593   1.2274   2.2950   2.4720   2.5661   2.7026
     3.2015   3.3343   3.3826   3.6215   3.7802   4.0152   4.3760   4.7284
     4.8124   4.8643   5.0574   5.4629   5.5282   5.5411   5.6800   5.6840
     6.0166   6.0315   6.3191   6.3366   6.4355   6.6407   6.7865   7.2310
     7.2868   7.3544   7.5884   7.9522   9.6237  11.0269  11.0390  11.0762
    11.6463  12.2508  12.4828  12.4896  12.7722  12.8422  13.0877  13.8166
    13.8321  14.7731  15.2290  15.5339  16.3526  17.2672  17.3907

          k = 0.2222 0.3333 0.1143 ( 31799 PWs)   bands (ev):

   -66.4660 -66.4656 -66.4655 -66.4650 -30.8486 -30.8469 -30.7909 -30.7894
   -30.7831 -30.7804 -30.7525 -30.7501 -30.7344 -30.7319 -30.7047 -30.7020
   -20.6283 -20.6283 -20.6282 -20.6282 -20.6158 -20.6157 -20.6103 -20.6103
   -20.6073 -20.6073 -20.6072 -20.6071 -20.6064 -20.6062 -20.6053 -20.6050
   -20.6049 -20.6048 -20.6042 -20.6040 -20.6008 -20.6007 -20.5989 -20.5989
   -20.5970 -20.5970 -20.5952 -20.5951  -9.9025  -9.5666  -9.5448  -9.1188
    -8.9553  -8.8203  -8.6666  -8.6464  -8.1949  -8.1560  -8.0583  -8.0343
     1.1143   1.1592   1.3083   1.3974   2.3673   2.4845   2.5603   2.7633
     3.1977   3.3302   3.3597   3.6777   3.7089   3.9190   4.4283   4.4690
     4.7538   4.7954   4.8157   5.1399   5.4632   5.5576   5.6699   5.6890
     6.0404   6.3184   6.3207   6.3724   6.4521   6.6813   6.7407   7.2319
     7.2796   7.3392   7.5465   7.8709   9.8235  11.0276  11.0536  11.1468
    11.7051  12.0884  12.4556  12.4918  12.6582  12.8278  13.0115  13.7331
    14.0813  15.1473  15.2028  15.6895  16.4220  17.1422  17.4221

          k = 0.2222 0.3333 0.2286 ( 31780 PWs)   bands (ev):

   -66.4659 -66.4656 -66.4654 -66.4651 -30.8364 -30.8348 -30.8028 -30.8014
   -30.7828 -30.7811 -30.7522 -30.7507 -30.7340 -30.7325 -30.7042 -30.7026
   -20.6283 -20.6283 -20.6282 -20.6282 -20.6146 -20.6146 -20.6115 -20.6115
   -20.6073 -20.6072 -20.6071 -20.6071 -20.6063 -20.6061 -20.6051 -20.6050
   -20.6049 -20.6049 -20.6044 -20.6042 -20.6008 -20.6007 -20.5989 -20.5989
   -20.5970 -20.5970 -20.5952 -20.5951  -9.7841  -9.5845  -9.3715  -9.0132
    -9.0025  -8.7836  -8.6946  -8.6343  -8.4412  -8.4118  -8.0536  -8.0401
     1.1511   1.1586   1.9512   2.0767   2.5268   2.5382   2.5856   2.9326
     3.1553   3.2556   3.3202   3.3892   3.8463   3.8899   3.9694   4.0857
     4.4975   4.5824   4.7668   4.7974   4.8549   5.3458   5.6914   5.7070
     6.2751   6.4063   6.4254   6.5850   6.6787   6.7715   6.8818   7.2012
     7.2504   7.3186   7.4126   7.6378  10.3350  11.0290  11.0552  11.3779
    11.6595  11.8890  12.2146  12.4825  12.5418  12.5857  13.0549  13.4966
    14.5717  15.1123  16.0150  16.1089  16.7235  16.8337  17.3460

          k = 0.2222 0.3333-0.3429 ( 31794 PWs)   bands (ev):

   -66.4658 -66.4658 -66.4653 -66.4652 -30.8196 -30.8196 -30.8181 -30.8181
   -30.7820 -30.7820 -30.7515 -30.7515 -30.7332 -30.7332 -30.7034 -30.7034
   -20.6282 -20.6282 -20.6282 -20.6282 -20.6131 -20.6131 -20.6130 -20.6130
   -20.6072 -20.6072 -20.6071 -20.6071 -20.6062 -20.6062 -20.6051 -20.6050
   -20.6048 -20.6048 -20.6045 -20.6044 -20.6008 -20.6008 -20.5989 -20.5989
   -20.5970 -20.5970 -20.5952 -20.5952  -9.6635  -9.6634  -9.1389  -9.1387
    -8.8255  -8.8248  -8.6751  -8.6747  -8.5947  -8.5946  -8.0470  -8.0469
     1.1567   1.1571   2.4874   2.4874   2.8434   2.8444   2.8786   2.8850
     3.0621   3.0772   3.2211   3.2479   3.3363   3.3438   4.0785   4.0816
     4.2496   4.2501   4.6926   4.7582   4.9906   5.0569   5.6955   5.7011
     6.3688   6.3848   6.5028   6.5183   7.0445   7.0473   7.0689   7.1103
     7.1683   7.1885   7.3729   7.3864  10.9314  10.9606  11.0700  11.1084
    11.7909  11.7999  12.1939  12.1958  12.5043  12.5297  13.2315  13.2519
    14.9171  14.9265  16.4769  16.4854  16.8714  16.8940  17.3431

          k = 0.2222 0.4444 0.0000 ( 31799 PWs)   bands (ev):

   -66.4658 -66.4656 -66.4654 -66.4652 -30.8526 -30.8520 -30.7869 -30.7860
   -30.7756 -30.7736 -30.7654 -30.7631 -30.7217 -30.7186 -30.7114 -30.7083
   -20.6283 -20.6283 -20.6282 -20.6282 -20.6162 -20.6162 -20.6099 -20.6099
   -20.6074 -20.6074 -20.6072 -20.6072 -20.6061 -20.6060 -20.6053 -20.6052
   -20.6050 -20.6049 -20.6040 -20.6039 -20.6005 -20.6004 -20.5998 -20.5997
   -20.5962 -20.5961 -20.5956 -20.5954  -9.8442  -9.7318  -9.3865  -9.1863
    -9.0932  -8.9903  -8.4245  -8.4235  -8.2145  -8.2057  -8.0676  -8.0572
     1.0411   1.0708   1.4851   1.5204   1.9768   1.9831   2.3918   2.5460
     3.5819   3.7622   3.8032   3.8708   3.9464   4.1121   4.3039   4.3967
     4.5093   4.8903   5.1221   5.1556   5.3112   5.3467   5.5248   5.5633
     6.0838   6.1906   6.2286   6.4935   6.6416   6.6730   6.7959   6.9624
     6.9643   7.0544   7.7647   7.8840  10.0081  10.5118  11.5884  11.6141
    12.0815  12.0871  12.1971  12.3483  12.5200  12.6022  13.3555  13.6324
    14.1134  14.4653  15.8210  16.0658  16.6053  16.7233  17.0250

          k = 0.2222 0.4444 0.1143 ( 31791 PWs)   bands (ev):

   -66.4658 -66.4656 -66.4654 -66.4652 -30.8481 -30.8476 -30.7909 -30.7902
   -30.7760 -30.7738 -30.7655 -30.7633 -30.7215 -30.7189 -30.7112 -30.7085
   -20.6283 -20.6283 -20.6282 -20.6282 -20.6158 -20.6158 -20.6103 -20.6103
   -20.6074 -20.6073 -20.6072 -20.6072 -20.6060 -20.6059 -20.6052 -20.6052
   -20.6050 -20.6049 -20.6041 -20.6040 -20.6005 -20.6004 -20.5998 -20.5998
   -20.5962 -20.5961 -20.5956 -20.5954  -9.7892  -9.6680  -9.3978  -9.1974
    -9.0672  -8.9726  -8.4326  -8.4223  -8.2338  -8.2126  -8.1649  -8.1442
     1.2684   1.3100   1.4846   1.5552   1.9749   1.9911   2.4657   2.6190
     3.5494   3.7095   3.7699   3.8511   3.9077   4.1606   4.3049   4.3291
     4.5181   4.6827   4.8472   5.0304   5.1597   5.1727   5.5480   5.6249
     6.0809   6.1770   6.4436   6.5903   6.6578   6.6620   6.8133   6.9560
     6.9598   7.0529   7.7047   7.8105  10.1635  10.6270  11.5876  11.6127
    12.0799  12.0839  12.1952  12.2368  12.3779  12.6420  13.2390  13.5261
    14.4155  14.8084  15.7894  16.1854  16.5666  16.8022  17.0843

          k = 0.2222 0.4444 0.2286 ( 31806 PWs)   bands (ev):

   -66.4657 -66.4655 -66.4655 -66.4653 -30.8359 -30.8354 -30.8026 -30.8021
   -30.7760 -30.7745 -30.7653 -30.7639 -30.7210 -30.7194 -30.7106 -30.7091
   -20.6283 -20.6283 -20.6282 -20.6282 -20.6146 -20.6146 -20.6115 -20.6115
   -20.6073 -20.6073 -20.6072 -20.6072 -20.6059 -20.6058 -20.6053 -20.6053
   -20.6049 -20.6048 -20.6043 -20.6042 -20.6005 -20.6004 -20.5998 -20.5998
   -20.5962 -20.5961 -20.5955 -20.5955  -9.6546  -9.5052  -9.4367  -9.2381
    -8.9721  -8.9040  -8.5177  -8.4575  -8.4154  -8.3550  -8.2074  -8.1892
     1.4621   1.4827   1.8546   1.9689   2.0629   2.1200   2.6885   2.8377
     3.3386   3.3589   3.7431   3.7809   4.0556   4.0809   4.1267   4.2364
     4.2979   4.4222   4.5514   4.6273   5.0140   5.0304   5.1744   5.3461
     6.4087   6.5299   6.6324   6.6760   6.7142   6.7616   6.9071   6.9427
     6.9606   7.0688   7.5205   7.5918  10.5869  10.9552  11.5760  11.6022
    11.7791  11.9336  12.0840  12.1447  12.3777  12.7633  12.9566  13.2698
    15.0105  15.5435  15.6812  16.4103  16.5650  17.0398  17.2748

          k = 0.2222 0.4444-0.3429 ( 31804 PWs)   bands (ev):

   -66.4656 -66.4656 -66.4654 -66.4654 -30.8192 -30.8192 -30.8187 -30.8187
   -30.7753 -30.7753 -30.7647 -30.7647 -30.7202 -30.7202 -30.7099 -30.7098
   -20.6282 -20.6282 -20.6282 -20.6282 -20.6131 -20.6131 -20.6131 -20.6131
   -20.6073 -20.6073 -20.6073 -20.6072 -20.6058 -20.6058 -20.6054 -20.6054
   -20.6046 -20.6046 -20.6045 -20.6045 -20.6004 -20.6004 -20.5998 -20.5998
   -20.5961 -20.5961 -20.5955 -20.5955  -9.5194  -9.5193  -9.3352  -9.3350
    -8.7728  -8.7723  -8.7337  -8.7335  -8.4026  -8.4023  -8.1999  -8.1997
     1.4780   1.4786   1.9551   1.9556   2.8628   2.8646   2.8730   2.8758
     3.1604   3.1766   3.2659   3.2715   3.7429   3.7809   4.2046   4.2356
     4.3963   4.4076   4.6435   4.6601   4.6978   4.7330   5.2054   5.2119
     6.5693   6.5709   6.7007   6.7027   6.8465   6.8697   6.9090   6.9330
     7.2114   7.2276   7.2592   7.2771  11.1479  11.1661  11.4219  11.4412
    11.5989  11.6431  12.0830  12.1283  12.6149  12.6366  12.9775  13.0015
    15.4403  15.4579  16.1148  16.1430  16.9407  16.9917  17.2995

          k = 0.3333 0.3333 0.0000 ( 31772 PWs)   bands (ev):

   -66.4659 -66.4656 -66.4654 -66.4651 -30.8526 -30.8516 -30.7873 -30.7856
   -30.7851 -30.7834 -30.7658 -30.7636 -30.7212 -30.7182 -30.7018 -30.6987
   -20.6283 -20.6283 -20.6282 -20.6282 -20.6161 -20.6161 -20.6098 -20.6098
   -20.6072 -20.6072 -20.6070 -20.6070 -20.6067 -20.6063 -20.6052 -20.6051
   -20.6051 -20.6050 -20.6040 -20.6039 -20.6012 -20.6010 -20.5999 -20.5999
   -20.5961 -20.5960 -20.5949 -20.5947  -9.9282  -9.7088  -9.5339  -9.1685
    -9.1600  -8.9851  -8.4317  -8.4312  -8.0819  -8.0516  -8.0179  -7.9911
     0.9636   1.0414   1.0861   1.1552   1.9728   1.9798   2.2477   2.5455
     3.5455   3.6439   3.8232   3.8384   3.9777   4.4888   4.5112   4.7466
     4.8066   4.9046   5.1330   5.4147   5.4243   5.4376   5.6941   5.8051
     6.0586   6.0988   6.1723   6.2113   6.4155   6.5618   6.8595   6.9021
     6.9306   7.0391   7.7611   7.9720   9.4953  10.5121  11.4767  11.5051
    12.1684  12.2154  12.3695  12.3778  12.5448  12.9671  13.3643  13.7324
    13.9070  14.4854  15.1272  15.8634  16.6344  16.7787  17.3782

          k = 0.3333 0.3333 0.1143 ( 31776 PWs)   bands (ev):

   -66.4659 -66.4655 -66.4655 -66.4651 -30.8481 -30.8471 -30.7898 -30.7897
   -30.7871 -30.7837 -30.7659 -30.7638 -30.7210 -30.7184 -30.7016 -30.6989
   -20.6283 -20.6283 -20.6282 -20.6282 -20.6157 -20.6157 -20.6103 -20.6102
   -20.6072 -20.6072 -20.6070 -20.6070 -20.6066 -20.6063 -20.6052 -20.6052
   -20.6051 -20.6050 -20.6041 -20.6039 -20.6012 -20.6010 -20.5999 -20.5999
   -20.5961 -20.5960 -20.5949 -20.5947  -9.8804  -9.6444  -9.5448  -9.1790
    -9.1268  -8.9678  -8.4405  -8.4294  -8.1869  -8.1584  -8.0161  -7.9929
     1.0185   1.0414   1.3077   1.3833   1.9709   1.9878   2.3206   2.6199
     3.5401   3.6388   3.7247   3.7766   3.8886   4.4856   4.5612   4.6516
     4.7641   4.7752   4.8510   5.0603   5.5466   5.6130   5.6656   5.8044
     5.8543   6.1610   6.2388   6.3907   6.3970   6.6198   6.7951   6.8958
     6.9218   7.0368   7.7007   7.8869   9.7172  10.6292  11.4772  11.5037
    12.0513  12.2137  12.3066  12.3847  12.4562  12.9949  13.2534  13.8085
    13.9821  14.8236  15.0984  16.0210  16.5933  16.8597  17.4834

          k = 0.3333 0.3333 0.2286 ( 31800 PWs)   bands (ev):

   -66.4658 -66.4656 -66.4655 -66.4652 -30.8358 -30.8349 -30.8021 -30.8017
   -30.7864 -30.7844 -30.7658 -30.7644 -30.7205 -30.7190 -30.7010 -30.6995
   -20.6283 -20.6283 -20.6282 -20.6282 -20.6146 -20.6146 -20.6114 -20.6114
   -20.6072 -20.6071 -20.6070 -20.6070 -20.6065 -20.6063 -20.6053 -20.6053
   -20.6049 -20.6048 -20.6043 -20.6042 -20.6011 -20.6010 -20.5999 -20.5999
   -20.5960 -20.5960 -20.5949 -20.5948  -9.7662  -9.5809  -9.4805  -9.2176
    -9.0115  -8.8998  -8.5264  -8.4442  -8.4225  -8.3592  -8.0113  -7.9979
     1.0365   1.0412   1.8503   1.9648   2.0847   2.1181   2.5345   2.8434
     3.2960   3.3985   3.6003   3.6263   4.0681   4.0786   4.1361   4.5079
     4.5714   4.6863   4.7455   4.8489   5.0417   5.4040   5.8113   5.8178
     6.0261   6.1521   6.3176   6.5878   6.5917   6.7693   6.8049   6.9018
     6.9609   7.0439   7.5137   7.6388  10.2680  10.9591  11.4664  11.5000
    11.6138  11.9521  12.3563  12.3973  12.4115  12.9220  13.1466  13.5740
    14.4537  15.0018  15.5545  16.4397  16.4548  17.1850  17.2535

          k = 0.3333 0.3333-0.3429 ( 31832 PWs)   bands (ev):

   -66.4657 -66.4657 -66.4653 -66.4653 -30.8190 -30.8190 -30.8183 -30.8183
   -30.7854 -30.7854 -30.7652 -30.7652 -30.7197 -30.7197 -30.7003 -30.7002
   -20.6282 -20.6282 -20.6282 -20.6282 -20.6130 -20.6130 -20.6130 -20.6130
   -20.6071 -20.6071 -20.6070 -20.6070 -20.6064 -20.6064 -20.6053 -20.6053
   -20.6046 -20.6046 -20.6044 -20.6044 -20.6011 -20.6011 -20.5999 -20.5999
   -20.5960 -20.5960 -20.5948 -20.5948  -9.6531  -9.6531  -9.3113  -9.3113
    -8.7902  -8.7902  -8.7271  -8.7271  -8.4090  -8.4090  -8.0046  -8.0046
     1.0402   1.0402   1.9511   1.9511   2.8710   2.8711   2.8733   2.8733
     3.0655   3.0655   3.2859   3.2859   3.6101   3.6101   4.3503   4.3504
     4.6005   4.6005   4.7656   4.7656   5.0915   5.0915   5.8239   5.8239
     6.1167   6.1168   6.4388   6.4388   6.8183   6.8183   6.9244   6.9244
     7.1990   7.1990   7.2798   7.2798  10.9425  10.9425  11.4468  11.4468
    11.4984  11.4984  12.4002  12.4002  12.6130  12.6130  13.3228  13.3228
    14.8046  14.8046  16.1510  16.1510  16.8766  16.8766  17.6584

          k = 0.3333 0.4444 0.0000 ( 31772 PWs)   bands (ev):

   -66.4658 -66.4657 -66.4653 -66.4652 -30.8522 -30.8518 -30.7873 -30.7865
   -30.7826 -30.7815 -30.7762 -30.7746 -30.7105 -30.7074 -30.7037 -30.7006
   -20.6283 -20.6283 -20.6282 -20.6282 -20.6161 -20.6161 -20.6098 -20.6098
   -20.6072 -20.6072 -20.6070 -20.6070 -20.6064 -20.6063 -20.6054 -20.6054
   -20.6051 -20.6051 -20.6039 -20.6039 -20.6011 -20.6010 -20.6006 -20.6005
   -20.5953 -20.5952 -20.5949 -20.5948  -9.8744  -9.7950  -9.4737  -9.3498
    -9.1399  -9.0855  -8.2279  -8.2178  -8.0842  -8.0787  -8.0579  -8.0437
     1.0155   1.0660   1.1535   1.2311   1.4790   1.5165   2.2773   2.3822
     3.9005   3.9974   4.0411   4.0715   4.1371   4.3868   4.4800   4.4925
     5.1172   5.1888   5.2064   5.3471   5.3843   5.4204   5.5641   5.5866
     6.2013   6.2021   6.2537   6.3395   6.3740   6.4914   6.5352   6.6926
     6.7091   6.8491   7.8800   7.9486   9.6478  10.0197  11.8779  11.9009
    12.1799  12.1926  12.2482  12.3565  12.5967  12.8781  13.6341  13.8329
    13.8523  14.1417  15.3629  15.9027  16.2962  16.8119  17.1885

          k = 0.3333 0.4444 0.1143 ( 31797 PWs)   bands (ev):

   -66.4658 -66.4656 -66.4654 -66.4652 -30.8477 -30.8474 -30.7902 -30.7902
   -30.7841 -30.7817 -30.7768 -30.7748 -30.7103 -30.7076 -30.7035 -30.7008
   -20.6283 -20.6283 -20.6282 -20.6282 -20.6157 -20.6157 -20.6102 -20.6102
   -20.6072 -20.6072 -20.6070 -20.6070 -20.6064 -20.6063 -20.6055 -20.6055
   -20.6050 -20.6050 -20.6040 -20.6039 -20.6011 -20.6010 -20.6006 -20.6005
   -20.5953 -20.5952 -20.5949 -20.5948  -9.8245  -9.7392  -9.4839  -9.3599
    -9.1084  -9.0597  -8.2425  -8.2261  -8.1850  -8.1483  -8.0769  -8.0517
     1.1141   1.1534   1.2778   1.3973   1.4785   1.5532   2.3513   2.4575
     3.7621   3.7957   4.0022   4.0386   4.1890   4.4093   4.4694   4.5085
     4.9091   4.9431   5.1191   5.1377   5.4404   5.5862   5.6012   5.6398
     5.9748   6.1960   6.2914   6.3752   6.4611   6.5399   6.5937   6.7018
     6.7102   6.7831   7.8054   7.8658   9.8481  10.1766  11.8777  11.8986
    12.0861  12.1478  12.1855  12.2423  12.6353  12.9133  13.5262  13.7316
    14.1164  14.4387  15.3320  15.8687  16.4447  16.9382  17.2618

          k = 0.3333 0.4444 0.2286 ( 31810 PWs)   bands (ev):

   -66.4657 -66.4656 -66.4654 -66.4653 -30.8354 -30.8352 -30.8019 -30.8018
   -30.7842 -30.7824 -30.7769 -30.7754 -30.7097 -30.7082 -30.7030 -30.7014
   -20.6283 -20.6283 -20.6282 -20.6282 -20.6146 -20.6146 -20.6114 -20.6114
   -20.6071 -20.6071 -20.6070 -20.6070 -20.6063 -20.6062 -20.6056 -20.6056
   -20.6048 -20.6048 -20.6042 -20.6042 -20.6011 -20.6010 -20.6006 -20.6006
   -20.5953 -20.5952 -20.5949 -20.5948  -9.7056  -9.6039  -9.5186  -9.3952
    -8.9960  -8.9632  -8.4690  -8.4525  -8.2207  -8.2017  -8.0720  -8.0581
     1.1459   1.1529   1.4563   1.4766   2.0589   2.0742   2.5717   2.6855
     3.3277   3.3751   3.9955   4.0233   4.1202   4.1441   4.3568   4.4247
     4.4807   4.6724   4.9749   5.1379   5.2718   5.3487   5.5998   5.6531
     6.0933   6.2272   6.3513   6.4506   6.5199   6.6467   6.7075   6.7263
     6.8069   6.8629   7.5812   7.6213  10.3608  10.6022  11.6285  11.7518
    11.8871  11.9031  12.1900  12.2085  12.7588  13.0243  13.2665  13.4890
    14.6277  15.0396  15.2284  15.7528  16.8490  17.2911  17.5269

          k = 0.3333 0.4444-0.3429 ( 31802 PWs)   bands (ev):

   -66.4656 -66.4656 -66.4654 -66.4654 -30.8186 -30.8186 -30.8185 -30.8184
   -30.7833 -30.7833 -30.7763 -30.7763 -30.7090 -30.7090 -30.7022 -30.7022
   -20.6282 -20.6282 -20.6282 -20.6282 -20.6130 -20.6130 -20.6130 -20.6130
   -20.6071 -20.6071 -20.6070 -20.6070 -20.6061 -20.6061 -20.6057 -20.6057
   -20.6045 -20.6045 -20.6045 -20.6045 -20.6010 -20.6010 -20.6006 -20.6006
   -20.5953 -20.5953 -20.5949 -20.5949  -9.5899  -9.5899  -9.4722  -9.4721
    -8.7715  -8.7713  -8.7534  -8.7533  -8.2129  -8.2128  -8.0652  -8.0651
     1.1513   1.1515   1.4722   1.4724   2.8711   2.8725   2.8726   2.8747
     3.0962   3.0990   3.1800   3.1821   4.0053   4.0224   4.4162   4.4417
     4.6818   4.6950   4.9385   4.9689   5.1820   5.1920   5.6127   5.6217
     6.1903   6.1937   6.4644   6.4702   6.5434   6.5520   6.7347   6.7390
     7.2191   7.2238   7.2431   7.2486  11.0080  11.0105  11.1787  11.1815
    11.8877  11.8993  12.1921  12.2054  12.9713  12.9793  13.2235  13.2323
    15.0110  15.0176  15.5009  15.5084  17.2312  17.2490  17.5521

          k = 0.4444 0.4444 0.0000 ( 31786 PWs)   bands (ev):

   -66.4658 -66.4657 -66.4653 -66.4652 -30.8518 -30.8517 -30.7883 -30.7875
   -30.7844 -30.7842 -30.7825 -30.7820 -30.7033 -30.7009 -30.7002 -30.6978
   -20.6283 -20.6283 -20.6282 -20.6282 -20.6161 -20.6161 -20.6097 -20.6097
   -20.6071 -20.6070 -20.6068 -20.6067 -20.6067 -20.6065 -20.6057 -20.6057
   -20.6051 -20.6051 -20.6038 -20.6038 -20.6014 -20.6013 -20.6010 -20.6010
   -20.5948 -20.5947 -20.5946 -20.5945  -9.8794  -9.8507  -9.4990  -9.4571
    -9.1527  -9.1361  -8.0862  -8.0826  -8.0709  -8.0467  -8.0317  -8.0045
     0.9755   1.0271   1.0365   1.1505   1.1657   1.2328   2.2343   2.2709
     4.0534   4.0697   4.2641   4.3364   4.4063   4.4976   4.5267   4.5333
     5.2336   5.2672   5.2768   5.3053   5.5426   5.5664   5.6416   5.7430
     6.0476   6.1309   6.1898   6.2333   6.2398   6.3450   6.3865   6.4179
     6.8268   6.9000   7.9470   7.9693   9.5132   9.6556  12.0852  12.1120
    12.1822  12.2009  12.2139  12.2573  12.8773  12.9769  13.7503  13.8346
    13.8605  13.9095  15.2016  15.3973  16.5449  16.7475  17.3565

          k = 0.4444 0.4444 0.1143 ( 31792 PWs)   bands (ev):

   -66.4657 -66.4657 -66.4653 -66.4653 -30.8474 -30.8473 -30.7899 -30.7888
   -30.7881 -30.7847 -30.7844 -30.7823 -30.7031 -30.7007 -30.7004 -30.6980
   -20.6283 -20.6283 -20.6282 -20.6282 -20.6157 -20.6157 -20.6102 -20.6101
   -20.6070 -20.6070 -20.6068 -20.6067 -20.6067 -20.6065 -20.6058 -20.6058
   -20.6050 -20.6050 -20.6039 -20.6039 -20.6014 -20.6013 -20.6011 -20.6010
   -20.5948 -20.5947 -20.5946 -20.5945  -9.8314  -9.8007  -9.5089  -9.4669
    -9.1193  -9.1045  -8.1846  -8.1799  -8.0843  -8.0586  -8.0300  -8.0064
     1.0169   1.0365   1.1140   1.1504   1.3853   1.4017   2.3081   2.3455
     3.7928   3.8119   4.2808   4.3361   4.4657   4.4908   4.5262   4.5890
     4.9436   4.9590   5.3610   5.4680   5.5723   5.5819   5.6246   5.7457
     6.0041   6.0344   6.1502   6.1865   6.2665   6.3994   6.4649   6.5235
     6.7610   6.7963   7.8638   7.8834   9.7347   9.8560  12.0463  12.0785
    12.0922  12.1112  12.1886  12.2156  12.9120  13.0107  13.7323  13.8082
    14.0009  14.1251  15.1714  15.3660  16.7199  16.9248  17.4118

          k = 0.4444 0.4444 0.2286 ( 31835 PWs)   bands (ev):

   -66.4656 -66.4656 -66.4654 -66.4654 -30.8351 -30.8350 -30.8014 -30.8013
   -30.7874 -30.7854 -30.7847 -30.7830 -30.7025 -30.7009 -30.7001 -30.6986
   -20.6283 -20.6283 -20.6282 -20.6282 -20.6145 -20.6145 -20.6114 -20.6114
   -20.6069 -20.6069 -20.6067 -20.6067 -20.6066 -20.6064 -20.6060 -20.6060
   -20.6048 -20.6048 -20.6042 -20.6041 -20.6013 -20.6013 -20.6011 -20.6011
   -20.5948 -20.5947 -20.5946 -20.5945  -9.7180  -9.6823  -9.5419  -9.5001
    -9.0008  -8.9910  -8.4576  -8.4532  -8.0793  -8.0652  -8.0251  -8.0114
     1.0323   1.0364   1.1433   1.1500   2.0719   2.0816   2.5254   2.5680
     3.3195   3.3394   4.1198   4.1316   4.2998   4.3338   4.4940   4.5207
     4.6484   4.7698   5.2361   5.3451   5.5824   5.6288   5.7419   5.7544
     5.9402   6.0226   6.0938   6.1694   6.3431   6.4623   6.6124   6.6537
     6.7947   6.8129   7.6172   7.6304  10.2843  10.3683  11.5960  11.6362
    12.0974  12.1080  12.1977  12.2097  13.0236  13.1190  13.4873  13.5693
    14.4878  14.6425  15.0700  15.2605  17.1991  17.4964  17.6434

          k = 0.4444 0.4444-0.3429 ( 31804 PWs)   bands (ev):

   -66.4655 -66.4655 -66.4655 -66.4655 -30.8182 -30.8182 -30.8182 -30.8182
   -30.7864 -30.7864 -30.7839 -30.7839 -30.7017 -30.7017 -30.6994 -30.6994
   -20.6282 -20.6282 -20.6282 -20.6282 -20.6130 -20.6130 -20.6130 -20.6130
   -20.6069 -20.6069 -20.6067 -20.6067 -20.6064 -20.6064 -20.6061 -20.6061
   -20.6045 -20.6045 -20.6044 -20.6044 -20.6013 -20.6013 -20.6011 -20.6011
   -20.5947 -20.5947 -20.5946 -20.5946  -9.6092  -9.6092  -9.5688  -9.5688
    -8.7681  -8.7681  -8.7627  -8.7627  -8.0724  -8.0724  -8.0183  -8.0183
     1.0356   1.0356   1.1485   1.1485   2.8724   2.8724   2.8732   2.8732
     3.0708   3.0708   3.1003   3.1003   4.3172   4.3172   4.5060   4.5060
     4.9297   4.9297   5.0463   5.0463   5.5991   5.5991   5.7620   5.7620
     5.9978   5.9978   6.1320   6.1320   6.4612   6.4613   6.5526   6.5526
     7.2315   7.2315   7.2408   7.2408  10.9607  10.9607  11.0179  11.0179
    12.1033  12.1033  12.2045  12.2045  13.2216  13.2216  13.3130  13.3130
    14.8611  14.8611  15.0406  15.0406  17.5530  17.5530  17.7165

     the Fermi energy is     9.0896 ev

!    total energy              =   -3130.41582799 Ry
     Harris-Foulkes estimate   =   -3130.41582799 Ry
     estimated scf accuracy    <          7.0E-10 Ry

     The total energy is the sum of the following terms:

     one-electron contribution =   -2400.17648058 Ry
     hartree contribution      =    1316.64954539 Ry
     xc contribution           =    -482.96721587 Ry
     ewald contribution        =   -1563.92164154 Ry
     smearing contrib. (-TS)   =      -0.00003539 Ry

     convergence has been achieved in  12 iterations

     Writing output data file Landau_17.save/
 
     init_run     :      5.95s CPU      6.41s WALL (       1 calls)
     electrons    :    217.28s CPU    222.13s WALL (       1 calls)

     Called by init_run:
     wfcinit      :      5.28s CPU      5.66s WALL (       1 calls)
     potinit      :      0.25s CPU      0.28s WALL (       1 calls)
     hinit0       :      0.31s CPU      0.35s WALL (       1 calls)

     Called by electrons:
     c_bands      :    186.69s CPU    191.09s WALL (      12 calls)
     sum_band     :     28.22s CPU     28.39s WALL (      12 calls)
     v_of_rho     :      0.54s CPU      0.56s WALL (      13 calls)
     mix_rho      :      0.80s CPU      0.94s WALL (      12 calls)

     Called by c_bands:
     init_us_2    :      1.53s CPU      1.63s WALL (      50 calls)
     cegterg      :    146.80s CPU    151.03s WALL (      24 calls)

     Called by sum_band:

     Called by *egterg:
     h_psi        :    125.63s CPU    127.65s WALL (      91 calls)
     g_psi        :      0.32s CPU      0.32s WALL (      65 calls)
     cdiaghg      :      1.53s CPU      1.55s WALL (      89 calls)

     Called by h_psi:
     h_psi:pot    :    125.08s CPU    125.70s WALL (      91 calls)
     h_psi:calbec :      7.95s CPU      8.05s WALL (      91 calls)
     vloc_psi     :    107.27s CPU    107.66s WALL (      91 calls)
     add_vuspsi   :      9.86s CPU      9.99s WALL (      91 calls)

     General routines
     calbec       :      7.95s CPU      8.05s WALL (      91 calls)
     fft          :      0.26s CPU      0.28s WALL (      39 calls)
     ffts         :      0.09s CPU      0.09s WALL (      12 calls)
     fftw         :    109.09s CPU    109.42s WALL (   15736 calls)
 
     Parallel routines
 
     PWSCF        :   3m43.95s CPU   3m49.63s WALL

 
   This run was terminated on:  17:43:55  29Nov2019            

=------------------------------------------------------------------------------=
   JOB DONE.
=------------------------------------------------------------------------------=
