
     Program PWSCF v.6.2 (svn rev. 14038) starts on 13Mar2020 at 15:39:14 

     This program is part of the open-source Quantum ESPRESSO suite
     for quantum simulation of materials; please cite
         "P. Giannozzi et al., J. Phys.:Condens. Matter 21 395502 (2009);
         "P. Giannozzi et al., J. Phys.:Condens. Matter 29 465901 (2017);
          URL http://www.quantum-espresso.org", 
     in publications or presentations arising from this work. More details at
     http://www.quantum-espresso.org/quote

     Parallel version (MPI), running on    40 processors

     MPI processes distributed on     7 nodes
     K-points division:     npool     =      40
     Reading input from rscf.in

     Current dimensions of program PWSCF are:
     Max number of different atomic species (ntypx) = 10
     Max number of k-points (npk) =  40000
     Max angular momentum in pseudopotentials (lmaxx) =  3

     Subspace diagonalization in iterative solution of the eigenvalue problem:
     a serial algorithm will be used

 
     G-vector sticks info
     --------------------
     sticks:   dense  smooth     PW     G-vecs:    dense   smooth      PW
     Sum        7747    7747   2077               498127   498127   69057
 


     bravais-lattice index     =            0
     lattice parameter (alat)  =      13.8397  a.u.
     unit-cell volume          =    2804.9816 (a.u.)^3
     number of atoms/cell      =           32
     number of atomic types    =            2
     number of electrons       =       368.00
     number of Kohn-Sham states=          221
     kinetic-energy cutoff     =     120.0000  Ry
     charge density cutoff     =     480.0000  Ry
     convergence threshold     =      1.0E-08
     mixing beta               =       0.7000
     number of iterations used =            8  plain     mixing
     Exchange-correlation      = SLA PW NOGX NOGC ( 1  4  0  0 0 0)
     nstep                     =           50


     celldm(1)=  13.839685  celldm(2)=   0.000000  celldm(3)=   0.000000
     celldm(4)=   0.000000  celldm(5)=   0.000000  celldm(6)=   0.000000

     crystal axes: (cart. coord. in units of alat)
               a(1) = (   1.000000   0.000000   0.000000 )  
               a(2) = (   0.000000   1.058160   0.000000 )  
               a(3) = (   0.000000   0.000000   1.000000 )  

     reciprocal axes: (cart. coord. in units 2 pi/alat)
               b(1) = (  1.000000  0.000000  0.000000 )  
               b(2) = (  0.000000  0.945037  0.000000 )  
               b(3) = (  0.000000  0.000000  1.000000 )  


     PseudoPot. # 1 for W  read from file:
     /cluster/scratch/mnoe/QE/pps/W_ONCV_LDA-4.0.upf
     MD5 check sum: ba0307d5d4cd419d6f1d13dc49d7c13a
     Pseudo is Norm-conserving + core correction, Zval = 28.0
     Generated using ONCVPSP code by D. R. Hamann
     Using radial grid of 1380 points,  8 beta functions with: 
                l(1) =   0
                l(2) =   0
                l(3) =   1
                l(4) =   1
                l(5) =   2
                l(6) =   2
                l(7) =   3
                l(8) =   3

     PseudoPot. # 2 for O  read from file:
     /cluster/scratch/mnoe/QE/pps/O_ONCV_LDA-3.0.upf
     MD5 check sum: a1bd6164e7280c17a38c229939bfbd54
     Pseudo is Norm-conserving + core correction, Zval =  6.0
     Generated using ONCVPSP code by D. R. Hamann
     Using radial grid of  926 points,  5 beta functions with: 
                l(1) =   0
                l(2) =   0
                l(3) =   1
                l(4) =   1
                l(5) =   2

     atomic species   valence    mass     pseudopotential
        W             28.00   183.84000     W ( 1.00)
        O              6.00    15.99940     O ( 1.00)

      8 Sym. Ops., with inversion, found ( 6 have fractional translation)



   Cartesian axes

     site n.     atom                  positions (alat units)
         1           W   tau(   1) = (   0.2416800   0.2935366   0.0078600  )
         2           W   tau(   2) = (   0.7583200   0.7646234   0.9921400  )
         3           W   tau(   3) = (   0.2583200   0.2355434   0.5078600  )
         4           W   tau(   4) = (   0.7416800   0.8226167   0.4921400  )
         5           W   tau(   5) = (   0.7583200   0.2935366   0.4921400  )
         6           W   tau(   6) = (   0.2416800   0.7646234   0.5078600  )
         7           W   tau(   7) = (   0.7416800   0.2355434   0.9921400  )
         8           W   tau(   8) = (   0.2583200   0.8226167   0.0078600  )
         9           O   tau(   9) = (   0.2346400   0.0075190   0.0024500  )
        10           O   tau(  10) = (   0.7653600   1.0506411   0.9975500  )
        11           O   tau(  11) = (   0.2653600   0.5215610   0.5024500  )
        12           O   tau(  12) = (   0.7346399   0.5365991   0.4975500  )
        13           O   tau(  13) = (   0.7653600   0.0075190   0.4975500  )
        14           O   tau(  14) = (   0.2346400   1.0506411   0.5024500  )
        15           O   tau(  15) = (   0.7346399   0.5215610   0.9975500  )
        16           O   tau(  16) = (   0.2653600   0.5365991   0.0024500  )
        17           O   tau(  17) = (   0.5022800   0.2478740   0.4604386  )
        18           O   tau(  18) = (   0.4977200   0.8102861   0.5395614  )
        19           O   tau(  19) = (   0.9977200   0.2812060   0.9604386  )
        20           O   tau(  20) = (   0.0022800   0.7769541   0.0395614  )
        21           O   tau(  21) = (   0.4977200   0.2478740   0.0395614  )
        22           O   tau(  22) = (   0.5022800   0.8102861   0.9604386  )
        23           O   tau(  23) = (   0.0022800   0.2812060   0.5395614  )
        24           O   tau(  24) = (   0.9977200   0.7769541   0.4604386  )
        25           O   tau(  25) = (   0.7104386   0.2609000   0.7465500  )
        26           O   tau(  26) = (   0.2895614   0.7972602   0.2534500  )
        27           O   tau(  27) = (   0.7895615   0.2681801   0.2465501  )
        28           O   tau(  28) = (   0.2104386   0.7899800   0.7534499  )
        29           O   tau(  29) = (   0.2895614   0.2609000   0.7534499  )
        30           O   tau(  30) = (   0.7104386   0.7972602   0.2465501  )
        31           O   tau(  31) = (   0.2104386   0.2681801   0.2534500  )
        32           O   tau(  32) = (   0.7895615   0.7899800   0.7465500  )

     number of k points=    64  gaussian smearing, width (Ry)=  0.0007
                       cart. coord. in units 2pi/alat
        k(    1) = (   0.0000000   0.0000000   0.0000000), wk =   0.0092593
        k(    2) = (   0.0000000   0.0000000   0.1666667), wk =   0.0185185
        k(    3) = (   0.0000000   0.0000000   0.3333333), wk =   0.0185185
        k(    4) = (   0.0000000   0.0000000  -0.5000000), wk =   0.0092593
        k(    5) = (   0.0000000   0.1575061   0.0000000), wk =   0.0185185
        k(    6) = (   0.0000000   0.1575061   0.1666667), wk =   0.0370370
        k(    7) = (   0.0000000   0.1575061   0.3333333), wk =   0.0370370
        k(    8) = (   0.0000000   0.1575061  -0.5000000), wk =   0.0185185
        k(    9) = (   0.0000000   0.3150122   0.0000000), wk =   0.0185185
        k(   10) = (   0.0000000   0.3150122   0.1666667), wk =   0.0370370
        k(   11) = (   0.0000000   0.3150122   0.3333333), wk =   0.0370370
        k(   12) = (   0.0000000   0.3150122  -0.5000000), wk =   0.0185185
        k(   13) = (   0.0000000  -0.4725183   0.0000000), wk =   0.0092593
        k(   14) = (   0.0000000  -0.4725183   0.1666667), wk =   0.0185185
        k(   15) = (   0.0000000  -0.4725183   0.3333333), wk =   0.0185185
        k(   16) = (   0.0000000  -0.4725183  -0.5000000), wk =   0.0092593
        k(   17) = (   0.1666667   0.0000000   0.1666667), wk =   0.0370370
        k(   18) = (   0.1666667   0.0000000   0.3333333), wk =   0.0370370
        k(   19) = (   0.1666667   0.0000000  -0.5000000), wk =   0.0185185
        k(   20) = (   0.1666667   0.1575061   0.1666667), wk =   0.0740741
        k(   21) = (   0.1666667   0.1575061   0.3333333), wk =   0.0740741
        k(   22) = (   0.1666667   0.1575061  -0.5000000), wk =   0.0370370
        k(   23) = (   0.1666667   0.3150122   0.1666667), wk =   0.0740741
        k(   24) = (   0.1666667   0.3150122   0.3333333), wk =   0.0740741
        k(   25) = (   0.1666667   0.3150122  -0.5000000), wk =   0.0370370
        k(   26) = (   0.1666667  -0.4725183   0.1666667), wk =   0.0370370
        k(   27) = (   0.1666667  -0.4725183   0.3333333), wk =   0.0370370
        k(   28) = (   0.1666667  -0.4725183  -0.5000000), wk =   0.0185185
        k(   29) = (   0.3333333   0.0000000   0.3333333), wk =   0.0370370
        k(   30) = (   0.3333333   0.0000000  -0.5000000), wk =   0.0185185
        k(   31) = (   0.3333333   0.1575061   0.3333333), wk =   0.0740741
        k(   32) = (   0.3333333   0.1575061  -0.5000000), wk =   0.0370370
        k(   33) = (   0.3333333   0.3150122   0.3333333), wk =   0.0740741
        k(   34) = (   0.3333333   0.3150122  -0.5000000), wk =   0.0370370
        k(   35) = (   0.3333333  -0.4725183   0.3333333), wk =   0.0370370
        k(   36) = (   0.3333333  -0.4725183  -0.5000000), wk =   0.0185185
        k(   37) = (  -0.5000000   0.0000000  -0.5000000), wk =   0.0092593
        k(   38) = (  -0.5000000   0.1575061  -0.5000000), wk =   0.0185185
        k(   39) = (  -0.5000000   0.3150122  -0.5000000), wk =   0.0185185
        k(   40) = (  -0.5000000  -0.4725183  -0.5000000), wk =   0.0092593
        k(   41) = (   0.1666667   0.0000000   0.0000000), wk =   0.0185185
        k(   42) = (   0.3333333   0.0000000   0.0000000), wk =   0.0185185
        k(   43) = (  -0.5000000   0.0000000   0.0000000), wk =   0.0092593
        k(   44) = (   0.1666667  -0.1575061   0.0000000), wk =   0.0370370
        k(   45) = (   0.3333333  -0.1575061   0.0000000), wk =   0.0370370
        k(   46) = (  -0.5000000  -0.1575061   0.0000000), wk =   0.0185185
        k(   47) = (   0.1666667  -0.3150122   0.0000000), wk =   0.0370370
        k(   48) = (   0.3333333  -0.3150122   0.0000000), wk =   0.0370370
        k(   49) = (  -0.5000000  -0.3150122   0.0000000), wk =   0.0185185
        k(   50) = (   0.1666667   0.4725183   0.0000000), wk =   0.0185185
        k(   51) = (   0.3333333   0.4725183   0.0000000), wk =   0.0185185
        k(   52) = (  -0.5000000   0.4725183   0.0000000), wk =   0.0092593
        k(   53) = (   0.3333333   0.0000000   0.1666667), wk =   0.0370370
        k(   54) = (  -0.5000000   0.0000000   0.1666667), wk =   0.0185185
        k(   55) = (   0.3333333  -0.1575061   0.1666667), wk =   0.0740741
        k(   56) = (  -0.5000000  -0.1575061   0.1666667), wk =   0.0370370
        k(   57) = (   0.3333333  -0.3150122   0.1666667), wk =   0.0740741
        k(   58) = (  -0.5000000  -0.3150122   0.1666667), wk =   0.0370370
        k(   59) = (   0.3333333   0.4725183   0.1666667), wk =   0.0370370
        k(   60) = (  -0.5000000   0.4725183   0.1666667), wk =   0.0185185
        k(   61) = (  -0.5000000   0.0000000   0.3333333), wk =   0.0185185
        k(   62) = (  -0.5000000  -0.1575061   0.3333333), wk =   0.0370370
        k(   63) = (  -0.5000000  -0.3150122   0.3333333), wk =   0.0370370
        k(   64) = (  -0.5000000   0.4725183   0.3333333), wk =   0.0185185

     Dense  grid:   498127 G-vectors     FFT dimensions: ( 100, 108, 100)

     Estimated max dynamical RAM per process >       3.15 GB

     Estimated total dynamical RAM >     125.81 GB

     Initial potential from superposition of free atoms

     starting charge  367.99656, renormalised to  368.00000
     Starting wfc are  232 randomized atomic wfcs

     total cpu time spent up to now is       63.7 secs

     Self-consistent Calculation

     iteration #  1     ecut=   120.00 Ry     beta= 0.70
     Davidson diagonalization with overlap
     ethr =  1.00E-02,  avg # of iterations =  5.1

     total cpu time spent up to now is      231.0 secs

     total energy              =   -6254.03342109 Ry
     Harris-Foulkes estimate   =   -6264.57225942 Ry
     estimated scf accuracy    <      13.35959726 Ry

     iteration #  2     ecut=   120.00 Ry     beta= 0.70
     Davidson diagonalization with overlap
     ethr =  3.63E-03,  avg # of iterations =  3.5

     total cpu time spent up to now is      391.0 secs

     total energy              =   -6250.98081079 Ry
     Harris-Foulkes estimate   =   -6270.57382428 Ry
     estimated scf accuracy    <      52.43131128 Ry

     iteration #  3     ecut=   120.00 Ry     beta= 0.70
     Davidson diagonalization with overlap
     ethr =  3.63E-03,  avg # of iterations =  3.5

     total cpu time spent up to now is      542.4 secs

     total energy              =   -6261.04858568 Ry
     Harris-Foulkes estimate   =   -6261.40096929 Ry
     estimated scf accuracy    <       1.12319844 Ry

     iteration #  4     ecut=   120.00 Ry     beta= 0.70
     Davidson diagonalization with overlap
     ethr =  3.05E-04,  avg # of iterations =  3.0

     total cpu time spent up to now is      666.6 secs

     total energy              =   -6261.08135150 Ry
     Harris-Foulkes estimate   =   -6261.16411646 Ry
     estimated scf accuracy    <       0.28641012 Ry

     iteration #  5     ecut=   120.00 Ry     beta= 0.70
     Davidson diagonalization with overlap
     ethr =  7.78E-05,  avg # of iterations =  4.2

     total cpu time spent up to now is      796.3 secs

     total energy              =   -6261.06935010 Ry
     Harris-Foulkes estimate   =   -6261.10977044 Ry
     estimated scf accuracy    <       0.08753291 Ry

     iteration #  6     ecut=   120.00 Ry     beta= 0.70
     Davidson diagonalization with overlap
     ethr =  2.38E-05,  avg # of iterations =  5.7

     total cpu time spent up to now is      937.7 secs

     total energy              =   -6261.08918842 Ry
     Harris-Foulkes estimate   =   -6261.09084017 Ry
     estimated scf accuracy    <       0.00490219 Ry

     iteration #  7     ecut=   120.00 Ry     beta= 0.70
     Davidson diagonalization with overlap
     ethr =  1.33E-06,  avg # of iterations =  5.8

     total cpu time spent up to now is     1072.5 secs

     total energy              =   -6261.08964401 Ry
     Harris-Foulkes estimate   =   -6261.08978088 Ry
     estimated scf accuracy    <       0.00037169 Ry

     iteration #  8     ecut=   120.00 Ry     beta= 0.70
     Davidson diagonalization with overlap
     ethr =  1.01E-07,  avg # of iterations =  3.0

     total cpu time spent up to now is     1203.8 secs

     total energy              =   -6261.08969578 Ry
     Harris-Foulkes estimate   =   -6261.08971769 Ry
     estimated scf accuracy    <       0.00004575 Ry

     iteration #  9     ecut=   120.00 Ry     beta= 0.70
     Davidson diagonalization with overlap
     ethr =  1.24E-08,  avg # of iterations =  3.0

     total cpu time spent up to now is     1340.9 secs

     total energy              =   -6261.08970795 Ry
     Harris-Foulkes estimate   =   -6261.08971007 Ry
     estimated scf accuracy    <       0.00000707 Ry

     iteration # 10     ecut=   120.00 Ry     beta= 0.70
     Davidson diagonalization with overlap
     ethr =  1.92E-09,  avg # of iterations =  2.0

     total cpu time spent up to now is     1465.8 secs

     total energy              =   -6261.08970781 Ry
     Harris-Foulkes estimate   =   -6261.08970880 Ry
     estimated scf accuracy    <       0.00000214 Ry

     iteration # 11     ecut=   120.00 Ry     beta= 0.70
     Davidson diagonalization with overlap
     ethr =  5.80E-10,  avg # of iterations =  2.6

     total cpu time spent up to now is     1596.7 secs

     total energy              =   -6261.08970826 Ry
     Harris-Foulkes estimate   =   -6261.08970828 Ry
     estimated scf accuracy    <       0.00000004 Ry

     iteration # 12     ecut=   120.00 Ry     beta= 0.70
     Davidson diagonalization with overlap
     ethr =  1.15E-11,  avg # of iterations =  2.2

     total cpu time spent up to now is     1747.5 secs

     End of self-consistent calculation

          k = 0.0000 0.0000 0.0000 ( 62239 PWs)   bands (ev):

   -66.1609 -66.1605 -66.1599 -66.1599 -66.1595 -66.1595 -66.1589 -66.1585
   -30.5654 -30.5627 -30.5595 -30.5570 -30.5568 -30.5535 -30.5517 -30.5483
   -30.4907 -30.4901 -30.4898 -30.4881 -30.4608 -30.4561 -30.4530 -30.4519
   -30.4515 -30.4486 -30.4470 -30.4420 -30.4333 -30.4276 -30.4268 -30.4214
   -20.3153 -20.3152 -20.3151 -20.3151 -20.3150 -20.3150 -20.3149 -20.3148
   -20.2932 -20.2927 -20.2926 -20.2920 -20.2920 -20.2916 -20.2911 -20.2907
   -20.2906 -20.2906 -20.2904 -20.2901 -20.2898 -20.2898 -20.2897 -20.2897
   -20.2894 -20.2893 -20.2888 -20.2885 -20.2860 -20.2855 -20.2853 -20.2849
   -20.2848 -20.2843 -20.2841 -20.2837 -20.2835 -20.2833 -20.2825 -20.2824
   -20.2781 -20.2779 -20.2776 -20.2775 -20.2759 -20.2759 -20.2757 -20.2756
   -20.2738 -20.2736 -20.2734 -20.2730 -20.2728 -20.2727 -20.2713 -20.2712
   -10.0390  -9.8296  -9.6131  -9.5867  -9.4543  -9.4153  -9.2150  -9.1989
    -8.9091  -8.7975  -8.7939  -8.7923  -7.8341  -7.8228  -7.7880  -7.7814
    -7.7168  -7.7108  -7.7043  -7.6965  -7.6738  -7.6427  -7.6419  -7.5982
     0.9243   0.9284   1.0525   1.0537   1.1020   1.1064   1.3049   1.4047
     1.7372   1.7372   1.7499   1.8387   2.2158   2.2963   2.5779   2.5829
     2.7177   2.7188   4.1063   4.1606   4.2150   4.2873   4.5626   4.5777
     4.5957   4.6116   4.8822   5.0146   5.0977   5.1091   5.1354   5.4567
     5.4924   5.5239   5.5461   5.5634   5.5770   5.5864   5.6259   5.7635
     5.8804   5.8921   5.9637   5.9708   6.0066   6.0274   6.0335   6.0898
     6.1308   6.2875   6.3106   6.3767   6.4342   6.7328   6.9043   6.9456
     6.9946   6.9988   7.0130   7.0267   7.0297   7.0521   7.1792   7.1954
     7.2185   7.2324   7.9073   7.9211   8.0832   8.1322   8.1463   8.1944
     9.2548   9.2726   9.8182   9.8312   9.8357   9.8447  12.2414  12.3076
    12.4282  12.4632  12.4994  12.5098  12.5456  12.5523  12.9438  13.1568
    13.2999  13.3522  13.3616  13.4983  13.7379  13.9140  14.1440  14.1569
    14.2937  14.3541  14.5298  14.8838  15.3871  15.4680  15.4855  16.2255
    16.2284  17.0406  17.1959  17.2236  17.3285

          k = 0.0000 0.0000 0.1667 ( 62262 PWs)   bands (ev):

   -66.1609 -66.1605 -66.1600 -66.1598 -66.1596 -66.1594 -66.1590 -66.1586
   -30.5590 -30.5579 -30.5548 -30.5533 -30.5521 -30.5519 -30.5501 -30.5487
   -30.4913 -30.4901 -30.4893 -30.4891 -30.4677 -30.4631 -30.4596 -30.4568
   -30.4516 -30.4483 -30.4474 -30.4431 -30.4329 -30.4280 -30.4264 -30.4218
   -20.3153 -20.3152 -20.3151 -20.3151 -20.3150 -20.3150 -20.3149 -20.3149
   -20.2932 -20.2927 -20.2926 -20.2920 -20.2919 -20.2916 -20.2912 -20.2907
   -20.2906 -20.2905 -20.2904 -20.2901 -20.2899 -20.2898 -20.2898 -20.2896
   -20.2894 -20.2893 -20.2888 -20.2885 -20.2860 -20.2856 -20.2854 -20.2850
   -20.2848 -20.2843 -20.2840 -20.2837 -20.2829 -20.2828 -20.2819 -20.2818
   -20.2780 -20.2780 -20.2776 -20.2775 -20.2763 -20.2763 -20.2756 -20.2755
   -20.2744 -20.2741 -20.2736 -20.2732 -20.2727 -20.2727 -20.2714 -20.2713
    -9.9854  -9.7717  -9.6013  -9.5290  -9.4266  -9.3588  -9.1731  -9.1571
    -8.9192  -8.7989  -8.7859  -8.7838  -7.9575  -7.9433  -7.8537  -7.8483
    -7.8068  -7.7738  -7.7235  -7.7001  -7.6809  -7.6472  -7.6449  -7.6017
     1.0381   1.0394   1.1040   1.1096   1.3174   1.3329   1.4216   1.5760
     1.7306   1.7417   1.7556   1.8972   2.3061   2.3869   2.5913   2.6692
     2.7091   2.8061   4.0959   4.1165   4.2171   4.2527   4.2569   4.2708
     4.6423   4.6573   4.7167   4.7724   4.8639   5.0985   5.1307   5.2660
     5.2882   5.4535   5.4704   5.5359   5.5936   5.6325   5.6643   5.6864
     5.6866   5.9154   5.9430   5.9750   6.0163   6.0337   6.0923   6.1367
     6.2363   6.3586   6.4232   6.4570   6.7225   6.7692   6.8054   6.8564
     6.8747   6.9169   6.9701   6.9718   7.0145   7.0197   7.0257   7.0454
     7.0548   7.1020   7.8893   7.8953   8.0896   8.1062   8.1486   8.1495
     9.6056   9.6180   9.8180   9.8481  10.1156  10.1427  12.2742  12.3128
    12.4075  12.4178  12.4645  12.4804  12.5606  12.6222  12.9731  12.9871
    13.1069  13.3021  13.4060  13.4973  13.8335  13.9135  13.9876  14.0232
    14.3066  14.4769  14.5247  15.0083  15.3562  15.5276  15.5747  16.2029
    16.5709  16.9140  17.2157  17.4149  17.4195

          k = 0.0000 0.0000 0.3333 ( 62268 PWs)   bands (ev):

   -66.1607 -66.1603 -66.1602 -66.1598 -66.1597 -66.1593 -66.1592 -66.1588
   -30.5561 -30.5532 -30.5529 -30.5498 -30.5388 -30.5374 -30.5338 -30.5322
   -30.4966 -30.4936 -30.4882 -30.4876 -30.4869 -30.4821 -30.4746 -30.4717
   -30.4507 -30.4483 -30.4474 -30.4446 -30.4319 -30.4291 -30.4255 -30.4229
   -20.3152 -20.3152 -20.3151 -20.3151 -20.3150 -20.3150 -20.3149 -20.3149
   -20.2931 -20.2928 -20.2925 -20.2921 -20.2918 -20.2914 -20.2913 -20.2909
   -20.2905 -20.2905 -20.2904 -20.2902 -20.2901 -20.2900 -20.2897 -20.2896
   -20.2895 -20.2894 -20.2887 -20.2886 -20.2860 -20.2856 -20.2856 -20.2852
   -20.2847 -20.2845 -20.2840 -20.2838 -20.2814 -20.2814 -20.2803 -20.2803
   -20.2785 -20.2781 -20.2777 -20.2774 -20.2772 -20.2771 -20.2757 -20.2756
   -20.2752 -20.2751 -20.2741 -20.2739 -20.2724 -20.2724 -20.2717 -20.2716
    -9.8586  -9.6474  -9.6417  -9.4620  -9.3070  -9.0862  -9.0381  -9.0025
    -8.9583  -8.8163  -8.7575  -8.7273  -8.2927  -8.2851  -8.2215  -8.1978
    -7.7936  -7.7542  -7.7420  -7.7004  -7.6899  -7.6591  -7.6366  -7.6112
     1.1084   1.1094   1.1180   1.1182   1.6470   1.6718   1.7169   1.7247
     2.0833   2.1504   2.2577   2.3619   2.5689   2.6084   2.6575   2.6899
     2.9180   3.0360   3.5767   3.6582   3.8966   3.9348   4.1790   4.1800
     4.2332   4.4196   4.4790   4.6970   4.7699   4.8033   4.8055   4.9649
     5.0283   5.0712   5.1522   5.3291   5.3550   5.3983   5.6840   5.8062
     5.8195   5.9082   5.9407   5.9587   6.0703   6.1355   6.1615   6.2509
     6.2744   6.3871   6.4406   6.4540   6.4562   6.5888   6.7096   6.7143
     6.7640   6.9410   6.9919   7.0088   7.0144   7.0160   7.0456   7.0659
     7.2600   7.3203   7.7669   7.7803   7.9510   8.0037   8.1372   8.1509
     9.8077   9.8167  10.3606  10.4187  10.7870  10.8449  11.9238  11.9738
    12.1573  12.4550  12.4717  12.5270  12.6434  12.6779  12.7240  12.8457
    12.9645  13.2891  13.3178  13.3183  13.6172  13.6962  13.9137  13.9248
    14.3899  14.5076  14.7815  15.2571  15.3138  15.7410  16.0636  16.1220
    16.3374  17.4816  17.5678  17.6826  17.7178

          k = 0.0000 0.0000-0.5000 ( 62264 PWs)   bands (ev):

   -66.1604 -66.1604 -66.1600 -66.1600 -66.1594 -66.1594 -66.1590 -66.1590
   -30.5546 -30.5546 -30.5513 -30.5513 -30.5138 -30.5138 -30.5130 -30.5130
   -30.5093 -30.5093 -30.5080 -30.5080 -30.4844 -30.4844 -30.4837 -30.4837
   -30.4495 -30.4495 -30.4461 -30.4461 -30.4306 -30.4305 -30.4242 -30.4242
   -20.3151 -20.3151 -20.3151 -20.3151 -20.3150 -20.3150 -20.3150 -20.3150
   -20.2929 -20.2929 -20.2923 -20.2923 -20.2915 -20.2915 -20.2912 -20.2911
   -20.2904 -20.2904 -20.2903 -20.2903 -20.2903 -20.2903 -20.2896 -20.2895
   -20.2895 -20.2895 -20.2886 -20.2886 -20.2859 -20.2858 -20.2854 -20.2854
   -20.2846 -20.2846 -20.2839 -20.2839 -20.2797 -20.2796 -20.2796 -20.2795
   -20.2785 -20.2785 -20.2785 -20.2785 -20.2771 -20.2771 -20.2769 -20.2769
   -20.2748 -20.2747 -20.2746 -20.2746 -20.2721 -20.2721 -20.2720 -20.2720
    -9.7324  -9.7324  -9.5291  -9.5291  -9.0712  -9.0712  -8.8717  -8.8717
    -8.6979  -8.6979  -8.6761  -8.6760  -8.6215  -8.6215  -8.5492  -8.5492
    -7.7677  -7.7677  -7.7272  -7.7272  -7.6748  -7.6748  -7.6240  -7.6240
     1.1149   1.1149   1.1262   1.1262   1.7004   1.7004   1.7054   1.7054
     2.6401   2.6401   2.9069   2.9069   3.0041   3.0041   3.0558   3.0558
     3.1355   3.1356   3.1702   3.1702   3.3529   3.3529   3.7121   3.7121
     3.8297   3.8297   4.3352   4.3352   4.7116   4.7116   4.9021   4.9021
     5.1576   5.1576   5.1723   5.1723   5.2095   5.2095   5.7977   5.7978
     5.8665   5.8665   6.0451   6.0451   6.0870   6.0870   6.2215   6.2215
     6.2354   6.2354   6.3092   6.3092   6.4622   6.4622   6.5925   6.5925
     6.8090   6.8090   7.0067   7.0067   7.0313   7.0313   7.4643   7.4643
     7.4997   7.4997   7.6812   7.6812   7.7294   7.7294   8.1494   8.1494
     9.8139   9.8139  11.1951  11.1951  11.2546  11.2546  11.5638  11.5638
    11.6826  11.6826  12.5034  12.5034  12.8058  12.8058  12.9523  12.9523
    12.9995  12.9996  13.2110  13.2110  13.4037  13.4037  13.9196  13.9196
    14.4699  14.4699  15.0703  15.0703  15.7676  15.7676  15.9715  15.9716
    16.8681  16.8681  17.9198  17.9198  18.0437

          k = 0.0000 0.1575 0.0000 ( 62231 PWs)   bands (ev):

   -66.1609 -66.1606 -66.1599 -66.1599 -66.1596 -66.1595 -66.1589 -66.1585
   -30.5652 -30.5629 -30.5593 -30.5570 -30.5568 -30.5537 -30.5515 -30.5486
   -30.4869 -30.4867 -30.4862 -30.4846 -30.4610 -30.4563 -30.4529 -30.4527
   -30.4516 -30.4483 -30.4477 -30.4416 -30.4372 -30.4311 -30.4300 -30.4244
   -20.3153 -20.3152 -20.3151 -20.3151 -20.3150 -20.3150 -20.3149 -20.3149
   -20.2931 -20.2926 -20.2925 -20.2920 -20.2918 -20.2917 -20.2912 -20.2907
   -20.2905 -20.2903 -20.2902 -20.2901 -20.2898 -20.2896 -20.2896 -20.2895
   -20.2894 -20.2892 -20.2889 -20.2886 -20.2863 -20.2858 -20.2856 -20.2853
   -20.2848 -20.2843 -20.2842 -20.2838 -20.2835 -20.2833 -20.2825 -20.2824
   -20.2780 -20.2779 -20.2776 -20.2775 -20.2759 -20.2759 -20.2757 -20.2756
   -20.2738 -20.2736 -20.2734 -20.2730 -20.2728 -20.2727 -20.2713 -20.2712
   -10.0188  -9.8391  -9.5941  -9.5661  -9.4600  -9.4215  -9.2139  -9.2000
    -8.8367  -8.7426  -8.7402  -8.7380  -7.8535  -7.8213  -7.7893  -7.7832
    -7.7787  -7.7689  -7.7567  -7.7092  -7.7034  -7.6883  -7.6831  -7.6757
     0.9245   0.9280   1.0528   1.0548   1.1047   1.1066   1.3471   1.4045
     1.9159   1.9705   1.9840   2.0864   2.2216   2.2907   2.6504   2.6532
     2.7847   2.7887   3.9615   3.9973   4.0185   4.0599   4.5652   4.5754
     4.5909   4.6071   4.7470   5.0740   5.0901   5.1084   5.1282   5.2976
     5.3203   5.4507   5.4647   5.6026   5.6116   5.6624   5.6820   5.7384
     5.7842   5.8574   5.8624   5.9788   6.0041   6.0496   6.0933   6.0957
     6.1066   6.2773   6.3256   6.4004   6.4759   6.7521   6.8131   6.8835
     6.9048   6.9209   6.9625   6.9760   7.0012   7.0079   7.1865   7.1938
     7.2276   7.2306   7.9096   7.9204   8.0501   8.0810   8.0895   8.1150
     9.2602   9.2731  10.0185  10.0216  10.0497  10.0501  12.1081  12.1797
    12.2691  12.3017  12.5070  12.5255  12.5457  12.5505  12.9715  13.1741
    13.3125  13.3584  13.3707  13.5086  13.9188  13.9215  14.0501  14.0658
    14.3985  14.6489  14.7250  15.0010  15.4678  15.4829  15.7947  16.1881
    16.1928  16.7197  17.3105  17.3409  17.5217

          k = 0.0000 0.1575 0.1667 ( 62237 PWs)   bands (ev):

   -66.1608 -66.1605 -66.1600 -66.1598 -66.1596 -66.1595 -66.1589 -66.1586
   -30.5589 -30.5579 -30.5547 -30.5534 -30.5519 -30.5519 -30.5502 -30.5489
   -30.4880 -30.4864 -30.4857 -30.4856 -30.4678 -30.4632 -30.4594 -30.4567
   -30.4524 -30.4481 -30.4479 -30.4427 -30.4368 -30.4316 -30.4297 -30.4249
   -20.3153 -20.3152 -20.3151 -20.3151 -20.3150 -20.3150 -20.3149 -20.3149
   -20.2930 -20.2925 -20.2925 -20.2920 -20.2919 -20.2916 -20.2912 -20.2908
   -20.2905 -20.2903 -20.2902 -20.2901 -20.2898 -20.2897 -20.2896 -20.2896
   -20.2894 -20.2893 -20.2888 -20.2886 -20.2863 -20.2859 -20.2857 -20.2853
   -20.2847 -20.2843 -20.2841 -20.2838 -20.2829 -20.2828 -20.2819 -20.2818
   -20.2780 -20.2780 -20.2776 -20.2776 -20.2763 -20.2763 -20.2756 -20.2755
   -20.2744 -20.2742 -20.2736 -20.2733 -20.2727 -20.2727 -20.2714 -20.2713
    -9.9645  -9.7811  -9.5805  -9.5077  -9.4329  -9.3645  -9.1720  -9.1581
    -8.8469  -8.7457  -8.7324  -8.7311  -7.9557  -7.9490  -7.8641  -7.8521
    -7.8169  -7.7757  -7.7741  -7.7709  -7.7428  -7.7021  -7.6946  -7.6828
     1.0382   1.0400   1.1071   1.1098   1.3261   1.3332   1.4909   1.5757
     1.9189   1.9721   1.9810   2.1052   2.3121   2.3813   2.6612   2.7437
     2.7764   2.8767   3.9822   3.9885   4.0456   4.0483   4.2202   4.2536
     4.6341   4.6491   4.7289   4.7450   4.7945   5.0951   5.1181   5.2016
     5.2574   5.2938   5.3750   5.4344   5.5445   5.5650   5.6864   5.7089
     5.7909   5.8326   5.8718   6.0000   6.0118   6.0355   6.0952   6.1221
     6.1997   6.3040   6.4422   6.4704   6.7376   6.7403   6.8137   6.8344
     6.8627   6.8959   6.9280   6.9535   6.9801   6.9857   6.9912   7.0302
     7.0780   7.1088   7.8902   7.8957   8.0489   8.0585   8.0759   8.0838
     9.6204   9.6228  10.0240  10.0553  10.2706  10.3029  12.1641  12.1854
    12.3023  12.3360  12.3997  12.4189  12.5756  12.6075  13.0029  13.0204
    13.1193  13.3128  13.4037  13.4978  13.8900  13.9216  13.9360  13.9531
    14.4624  14.7135  14.8025  15.1155  15.5258  15.5758  15.7653  16.1649
    16.5337  16.8742  17.0188  17.5097  17.5968

          k = 0.0000 0.1575 0.3333 ( 62284 PWs)   bands (ev):

   -66.1607 -66.1603 -66.1601 -66.1598 -66.1596 -66.1593 -66.1591 -66.1588
   -30.5559 -30.5531 -30.5529 -30.5500 -30.5387 -30.5374 -30.5336 -30.5322
   -30.4944 -30.4911 -30.4869 -30.4846 -30.4842 -30.4821 -30.4732 -30.4707
   -30.4515 -30.4491 -30.4470 -30.4443 -30.4358 -30.4328 -30.4287 -30.4260
   -20.3152 -20.3152 -20.3151 -20.3151 -20.3150 -20.3150 -20.3149 -20.3149
   -20.2929 -20.2926 -20.2924 -20.2920 -20.2918 -20.2915 -20.2914 -20.2910
   -20.2904 -20.2903 -20.2902 -20.2902 -20.2899 -20.2898 -20.2897 -20.2895
   -20.2894 -20.2894 -20.2888 -20.2886 -20.2863 -20.2859 -20.2859 -20.2855
   -20.2847 -20.2844 -20.2840 -20.2839 -20.2814 -20.2814 -20.2803 -20.2803
   -20.2785 -20.2782 -20.2777 -20.2774 -20.2772 -20.2771 -20.2757 -20.2756
   -20.2752 -20.2751 -20.2741 -20.2739 -20.2724 -20.2724 -20.2717 -20.2717
    -9.8364  -9.6508  -9.6260  -9.4688  -9.2756  -9.0921  -9.0336  -9.0040
    -8.8877  -8.7656  -8.7088  -8.6848  -8.2969  -8.2817  -8.2283  -8.1943
    -7.8171  -7.7828  -7.7590  -7.7561  -7.7363  -7.7136  -7.7105  -7.7023
     1.1130   1.1140   1.1181   1.1183   1.8390   1.8552   1.9398   1.9675
     2.0828   2.1854   2.2574   2.4009   2.5753   2.6396   2.6874   2.7592
     2.9936   3.1024   3.5782   3.6534   3.8796   3.8810   4.0560   4.0645
     4.2328   4.3125   4.4944   4.6488   4.6748   4.6960   4.7180   4.9566
     4.9651   5.0149   5.1245   5.1984   5.3274   5.4064   5.4206   5.7291
     5.7794   5.8709   5.9110   5.9551   6.0165   6.0709   6.1386   6.1416
     6.2992   6.4242   6.4582   6.4598   6.5520   6.6951   6.7025   6.7823
     6.8571   6.8796   6.9043   6.9393   6.9730   7.0072   7.0556   7.1063
     7.2611   7.3179   7.7721   7.7785   7.9176   7.9477   8.0759   8.0864
    10.0195  10.0299  10.3688  10.4245  10.8938  10.9395  11.9217  11.9722
    12.1101  12.3116  12.4266  12.4972  12.5372  12.6224  12.7453  12.7966
    12.9895  13.2779  13.3018  13.3228  13.5153  13.6372  13.9227  13.9534
    14.6019  14.7031  15.1454  15.4029  15.6698  15.7280  16.0869  16.0897
    16.4407  17.3079  17.4332  17.6227  17.7335

          k = 0.0000 0.1575-0.5000 ( 62234 PWs)   bands (ev):

   -66.1604 -66.1604 -66.1601 -66.1600 -66.1594 -66.1594 -66.1590 -66.1590
   -30.5544 -30.5544 -30.5515 -30.5515 -30.5134 -30.5134 -30.5129 -30.5129
   -30.5087 -30.5087 -30.5079 -30.5079 -30.4814 -30.4814 -30.4807 -30.4806
   -30.4503 -30.4503 -30.4457 -30.4457 -30.4344 -30.4343 -30.4274 -30.4274
   -20.3151 -20.3151 -20.3151 -20.3151 -20.3150 -20.3150 -20.3150 -20.3150
   -20.2928 -20.2927 -20.2922 -20.2922 -20.2916 -20.2916 -20.2912 -20.2912
   -20.2903 -20.2903 -20.2901 -20.2901 -20.2901 -20.2901 -20.2895 -20.2895
   -20.2895 -20.2894 -20.2887 -20.2887 -20.2862 -20.2861 -20.2858 -20.2858
   -20.2846 -20.2846 -20.2840 -20.2840 -20.2796 -20.2796 -20.2796 -20.2796
   -20.2785 -20.2785 -20.2785 -20.2785 -20.2771 -20.2771 -20.2769 -20.2769
   -20.2747 -20.2747 -20.2746 -20.2746 -20.2721 -20.2720 -20.2720 -20.2720
    -9.7101  -9.7101  -9.5370  -9.5370  -9.0148  -9.0148  -8.8389  -8.8389
    -8.7014  -8.7014  -8.6816  -8.6816  -8.6012  -8.6012  -8.5316  -8.5316
    -7.7997  -7.7997  -7.7367  -7.7367  -7.7291  -7.7291  -7.7237  -7.7237
     1.1203   1.1203   1.1263   1.1263   1.8937   1.8937   1.9636   1.9636
     2.7053   2.7053   2.9167   2.9167   2.9996   2.9996   3.0702   3.0702
     3.1332   3.1332   3.2012   3.2012   3.3455   3.3455   3.7329   3.7329
     3.8852   3.8852   4.1654   4.1654   4.5446   4.5446   4.7597   4.7598
     5.1283   5.1283   5.1359   5.1359   5.2022   5.2022   5.5342   5.5342
     5.8102   5.8102   5.9699   5.9699   6.0880   6.0880   6.2089   6.2089
     6.2736   6.2736   6.3550   6.3550   6.4559   6.4559   6.7609   6.7609
     6.8895   6.8895   6.9191   6.9191   6.9599   6.9599   7.4806   7.4806
     7.4955   7.4955   7.6626   7.6626   7.6996   7.6996   8.0850   8.0850
    10.0300  10.0300  11.2003  11.2003  11.2540  11.2540  11.6272  11.6272
    11.7406  11.7406  12.3538  12.3539  12.7771  12.7772  12.8653  12.8653
    13.0167  13.0167  13.1288  13.1288  13.3884  13.3884  13.9303  13.9303
    14.6743  14.6743  15.4548  15.4548  15.8769  15.8769  15.9438  15.9438
    16.9157  16.9157  17.7173  17.7173  18.0664

          k = 0.0000 0.3150 0.0000 ( 62175 PWs)   bands (ev):

   -66.1608 -66.1606 -66.1598 -66.1598 -66.1596 -66.1596 -66.1588 -66.1586
   -30.5647 -30.5634 -30.5588 -30.5574 -30.5561 -30.5543 -30.5509 -30.5492
   -30.4775 -30.4768 -30.4766 -30.4752 -30.4622 -30.4579 -30.4561 -30.4522
   -30.4517 -30.4499 -30.4476 -30.4470 -30.4403 -30.4401 -30.4377 -30.4313
   -20.3153 -20.3152 -20.3151 -20.3151 -20.3150 -20.3150 -20.3149 -20.3149
   -20.2928 -20.2923 -20.2922 -20.2921 -20.2918 -20.2915 -20.2914 -20.2909
   -20.2904 -20.2900 -20.2899 -20.2896 -20.2895 -20.2895 -20.2894 -20.2891
   -20.2889 -20.2888 -20.2888 -20.2886 -20.2872 -20.2868 -20.2865 -20.2862
   -20.2847 -20.2844 -20.2842 -20.2839 -20.2834 -20.2834 -20.2825 -20.2824
   -20.2779 -20.2778 -20.2777 -20.2776 -20.2759 -20.2759 -20.2757 -20.2756
   -20.2737 -20.2736 -20.2733 -20.2731 -20.2728 -20.2728 -20.2713 -20.2712
    -9.9691  -9.8672  -9.5512  -9.5197  -9.4777  -9.4404  -9.2109  -9.2029
    -8.6335  -8.5773  -8.5752  -8.5743  -8.0585  -8.0119  -8.0054  -7.9734
    -7.8174  -7.8114  -7.7919  -7.7878  -7.7048  -7.6930  -7.6922  -7.6807
     0.9251   0.9271   1.0537   1.0555   1.1071   1.1072   1.3856   1.4032
     2.2347   2.2756   2.4787   2.6016   2.6287   2.7475   2.8583   2.8863
     2.9787   3.0052   3.5720   3.6191   3.6322   3.6822   4.1830   4.5044
     4.5297   4.5726   4.5778   4.6143   4.6437   4.8365   5.1856   5.2011
     5.2400   5.2564   5.3962   5.4002   5.6685   5.6808   5.6857   5.7103
     5.8558   5.8730   5.9222   5.9881   5.9986   6.0140   6.0176   6.1111
     6.1145   6.2060   6.2828   6.4649   6.4697   6.5133   6.7299   6.7466
     6.7937   6.8831   7.1430   7.1531   7.1645   7.1673   7.1931   7.2080
     7.2324   7.2479   7.8541   7.8775   7.8867   7.9051   7.9246   7.9282
     9.2668   9.2729  10.5054  10.5398  10.5707  10.5894  11.7117  11.7788
    11.8326  11.8645  12.5266  12.5447  12.5449  12.5504  13.0492  13.1935
    13.3855  13.4089  13.4440  13.5448  13.7691  13.8291  13.8352  13.8476
    15.0182  15.2710  15.2884  15.4676  15.4689  15.4933  16.0569  16.0713
    16.1587  16.8006  17.1549  17.7123  17.7483

          k = 0.0000 0.3150 0.1667 ( 62260 PWs)   bands (ev):

   -66.1608 -66.1606 -66.1599 -66.1597 -66.1597 -66.1595 -66.1589 -66.1587
   -30.5585 -30.5578 -30.5545 -30.5536 -30.5517 -30.5512 -30.5506 -30.5495
   -30.4796 -30.4773 -30.4761 -30.4758 -30.4685 -30.4640 -30.4582 -30.4560
   -30.4557 -30.4509 -30.4472 -30.4467 -30.4414 -30.4410 -30.4373 -30.4321
   -20.3153 -20.3152 -20.3151 -20.3151 -20.3150 -20.3150 -20.3149 -20.3149
   -20.2927 -20.2923 -20.2922 -20.2921 -20.2918 -20.2915 -20.2914 -20.2910
   -20.2903 -20.2900 -20.2900 -20.2897 -20.2896 -20.2895 -20.2893 -20.2891
   -20.2890 -20.2889 -20.2888 -20.2886 -20.2872 -20.2868 -20.2866 -20.2863
   -20.2846 -20.2843 -20.2842 -20.2840 -20.2829 -20.2828 -20.2819 -20.2818
   -20.2779 -20.2779 -20.2777 -20.2777 -20.2763 -20.2763 -20.2755 -20.2755
   -20.2743 -20.2742 -20.2735 -20.2733 -20.2727 -20.2727 -20.2714 -20.2714
    -9.9133  -9.8095  -9.5333  -9.4603  -9.4523  -9.3825  -9.1690  -9.1611
    -8.6432  -8.5835  -8.5712  -8.5689  -8.0630  -8.0316  -8.0051  -7.9875
    -7.9506  -7.9224  -7.8474  -7.8260  -7.7934  -7.7810  -7.7001  -7.6878
     1.0387   1.0400   1.1101   1.1103   1.3330   1.3338   1.5505   1.5741
     2.3244   2.3660   2.4821   2.5836   2.6223   2.7394   2.8651   2.9712
     2.9832   3.1013   3.6165   3.6322   3.6735   3.6746   4.1603   4.2201
     4.2515   4.5296   4.5344   4.6324   4.6831   4.8399   4.8484   4.9581
     5.1293   5.2264   5.2645   5.3047   5.4243   5.4441   5.6309   5.6716
     5.7568   5.7590   5.8411   5.9750   6.0172   6.0299   6.0480   6.1125
     6.2022   6.3138   6.3808   6.4985   6.5397   6.7210   6.7821   6.8739
     6.8919   6.9214   6.9715   6.9863   7.0240   7.0246   7.1540   7.1867
     7.1933   7.2041   7.8506   7.8534   7.8753   7.8773   7.9010   7.9189
     9.6290   9.6290  10.5446  10.5901  10.6897  10.7504  11.7784  11.8060
    11.8643  11.9206  12.4046  12.4168  12.5947  12.6014  13.0852  13.1076
    13.1992  13.3835  13.3909  13.4835  13.6580  13.7541  13.7673  13.8421
    15.1170  15.2719  15.4985  15.5179  15.5595  15.5981  16.0363  16.3205
    16.4007  16.7684  17.2332  17.3614  17.6657

          k = 0.0000 0.3150 0.3333 ( 62269 PWs)   bands (ev):

   -66.1606 -66.1604 -66.1601 -66.1599 -66.1596 -66.1594 -66.1591 -66.1589
   -30.5553 -30.5537 -30.5523 -30.5506 -30.5383 -30.5375 -30.5332 -30.5324
   -30.4901 -30.4869 -30.4861 -30.4822 -30.4749 -30.4746 -30.4681 -30.4662
   -30.4548 -30.4522 -30.4462 -30.4457 -30.4430 -30.4428 -30.4364 -30.4335
   -20.3152 -20.3152 -20.3151 -20.3151 -20.3150 -20.3150 -20.3149 -20.3149
   -20.2926 -20.2922 -20.2921 -20.2920 -20.2917 -20.2916 -20.2916 -20.2911
   -20.2903 -20.2901 -20.2900 -20.2898 -20.2896 -20.2894 -20.2893 -20.2892
   -20.2892 -20.2889 -20.2888 -20.2886 -20.2871 -20.2868 -20.2868 -20.2865
   -20.2846 -20.2843 -20.2842 -20.2840 -20.2814 -20.2814 -20.2803 -20.2803
   -20.2784 -20.2782 -20.2776 -20.2775 -20.2772 -20.2772 -20.2757 -20.2756
   -20.2752 -20.2752 -20.2741 -20.2740 -20.2724 -20.2724 -20.2717 -20.2717
    -9.7828  -9.6782  -9.5765  -9.4898  -9.2076  -9.1110  -9.0244  -9.0085
    -8.6909  -8.6138  -8.5577  -8.5430  -8.3153  -8.2687  -8.2626  -8.1815
    -8.0323  -8.0088  -7.9865  -7.9553  -7.7741  -7.7615  -7.7199  -7.7074
     1.1170   1.1181   1.1182   1.1188   2.0517   2.0812   2.1768   2.2542
     2.4898   2.5667   2.5919   2.6232   2.6281   2.7640   2.8835   2.9541
     3.2264   3.3081   3.5490   3.6301   3.6483   3.6918   3.7134   3.7557
     4.1320   4.2934   4.4038   4.4154   4.4444   4.5655   4.5802   4.6858
     4.7398   4.8973   4.9539   4.9844   5.1821   5.2636   5.2936   5.2997
     5.4203   5.5211   5.7659   5.9380   6.1046   6.1221   6.1481   6.1605
     6.3805   6.4333   6.4800   6.5340   6.5956   6.6923   6.6968   6.7042
     6.8713   6.9579   7.0408   7.0633   7.1090   7.1616   7.1984   7.2338
     7.2593   7.3212   7.7599   7.7658   7.7774   7.7913   7.8767   7.8965
    10.3688  10.3827  10.5589  10.6101  11.1924  11.2388  11.7622  11.8647
    11.9655  11.9767  12.1023  12.1902  12.6235  12.6579  12.7635  12.7665
    13.0193  13.1144  13.2964  13.2979  13.3868  13.5771  13.7649  13.8066
    15.2033  15.2603  15.6781  15.8125  15.9691  15.9915  16.2056  16.6576
    16.7830  16.8027  17.2545  17.5254  17.8052

          k = 0.0000 0.3150-0.5000 ( 62306 PWs)   bands (ev):

   -66.1603 -66.1603 -66.1601 -66.1601 -66.1593 -66.1593 -66.1591 -66.1591
   -30.5538 -30.5537 -30.5521 -30.5521 -30.5127 -30.5127 -30.5127 -30.5127
   -30.5079 -30.5078 -30.5077 -30.5077 -30.4728 -30.4728 -30.4717 -30.4717
   -30.4535 -30.4535 -30.4447 -30.4446 -30.4444 -30.4444 -30.4350 -30.4350
   -20.3151 -20.3151 -20.3151 -20.3151 -20.3150 -20.3150 -20.3150 -20.3150
   -20.2924 -20.2924 -20.2919 -20.2919 -20.2918 -20.2918 -20.2914 -20.2913
   -20.2902 -20.2902 -20.2899 -20.2899 -20.2895 -20.2895 -20.2893 -20.2893
   -20.2891 -20.2891 -20.2887 -20.2887 -20.2870 -20.2870 -20.2867 -20.2867
   -20.2845 -20.2845 -20.2842 -20.2841 -20.2796 -20.2796 -20.2796 -20.2796
   -20.2785 -20.2785 -20.2785 -20.2785 -20.2771 -20.2770 -20.2770 -20.2770
   -20.2747 -20.2747 -20.2746 -20.2746 -20.2721 -20.2721 -20.2720 -20.2720
    -9.6575  -9.6575  -9.5610  -9.5610  -8.8795  -8.8795  -8.7702  -8.7702
    -8.7152  -8.7152  -8.6991  -8.6991  -8.5088  -8.5088  -8.4569  -8.4569
    -8.0229  -8.0229  -7.9758  -7.9758  -7.7469  -7.7469  -7.7344  -7.7343
     1.1251   1.1251   1.1265   1.1265   2.4707   2.4707   2.5934   2.5934
     2.8790   2.8790   2.9476   2.9476   2.9949   2.9949   3.1062   3.1062
     3.1287   3.1287   3.2891   3.2891   3.3188   3.3188   3.6313   3.6313
     4.0153   4.0153   4.0780   4.0780   4.0814   4.0814   4.3325   4.3326
     4.8682   4.8682   5.0078   5.0078   5.1229   5.1229   5.1888   5.1888
     5.3527   5.3527   5.8459   5.8459   6.1984   6.1984   6.2296   6.2296
     6.3653   6.3653   6.4122   6.4122   6.4650   6.4650   6.6758   6.6758
     7.0850   7.0850   7.1037   7.1037   7.1425   7.1425   7.4823   7.4823
     7.5073   7.5074   7.5807   7.5807   7.6058   7.6058   7.8851   7.8851
    10.5601  10.5601  11.2094  11.2094  11.2537  11.2537  11.7125  11.7126
    11.9249  11.9249  12.0510  12.0511  12.5715  12.5715  12.6117  12.6117
    13.0306  13.0306  13.0329  13.0329  13.4217  13.4217  13.7727  13.7727
    15.2384  15.2384  15.8489  15.8489  16.2235  16.2235  16.4321  16.4321
    17.0925  17.0926  17.3121  17.3122  18.0569

          k = 0.0000-0.4725 0.0000 ( 62212 PWs)   bands (ev):

   -66.1607 -66.1607 -66.1597 -66.1597 -66.1597 -66.1597 -66.1587 -66.1587
   -30.5640 -30.5640 -30.5581 -30.5581 -30.5552 -30.5552 -30.5500 -30.5500
   -30.4672 -30.4672 -30.4647 -30.4646 -30.4646 -30.4646 -30.4621 -30.4621
   -30.4514 -30.4514 -30.4488 -30.4488 -30.4441 -30.4441 -30.4373 -30.4373
   -20.3153 -20.3153 -20.3151 -20.3151 -20.3150 -20.3150 -20.3149 -20.3149
   -20.2925 -20.2925 -20.2921 -20.2921 -20.2917 -20.2917 -20.2912 -20.2912
   -20.2902 -20.2902 -20.2898 -20.2898 -20.2893 -20.2893 -20.2889 -20.2889
   -20.2883 -20.2883 -20.2880 -20.2880 -20.2877 -20.2877 -20.2875 -20.2875
   -20.2845 -20.2845 -20.2841 -20.2841 -20.2834 -20.2834 -20.2825 -20.2825
   -20.2778 -20.2778 -20.2777 -20.2777 -20.2759 -20.2759 -20.2756 -20.2756
   -20.2737 -20.2737 -20.2732 -20.2732 -20.2728 -20.2727 -20.2713 -20.2713
    -9.9129  -9.9129  -9.5085  -9.5085  -9.4735  -9.4735  -9.2069  -9.2069
    -8.3519  -8.3519  -8.3155  -8.3155  -8.3112  -8.3111  -8.3020  -8.3020
    -7.8135  -7.8135  -7.7920  -7.7920  -7.6987  -7.6987  -7.6873  -7.6873
     0.9260   0.9260   1.0548   1.0548   1.1076   1.1076   1.3989   1.3989
     2.2552   2.2552   3.1128   3.1128   3.1851   3.1851   3.2238   3.2238
     3.2522   3.2522   3.3781   3.3781   3.5974   3.5974   3.6119   3.6119
     3.7808   3.7808   4.5832   4.5832   4.5885   4.5885   5.2987   5.2987
     5.3287   5.3287   5.4639   5.4639   5.4905   5.4905   5.8049   5.8050
     5.8219   5.8219   5.9129   5.9129   5.9925   5.9925   6.0863   6.0863
     6.1483   6.1483   6.2339   6.2339   6.5798   6.5798   6.5976   6.5976
     6.8380   6.8380   7.1909   7.1909   7.2251   7.2251   7.5251   7.5251
     7.5315   7.5315   7.5627   7.5627   7.5730   7.5730   7.9204   7.9204
     9.2710   9.2710  11.1282  11.1282  11.1845  11.1845  11.2012  11.2012
    11.2687  11.2687  12.5393  12.5393  12.5514  12.5515  13.1449  13.1449
    13.5495  13.5495  13.5504  13.5504  13.6127  13.6127  13.6828  13.6828
    15.4601  15.4601  15.5968  15.5968  15.7762  15.7762  15.7990  15.7990
    16.3816  16.3816  17.9144  17.9144  18.0128

          k = 0.0000-0.4725 0.1667 ( 62246 PWs)   bands (ev):

   -66.1607 -66.1607 -66.1598 -66.1598 -66.1596 -66.1596 -66.1588 -66.1588
   -30.5581 -30.5580 -30.5541 -30.5541 -30.5512 -30.5512 -30.5504 -30.5504
   -30.4716 -30.4716 -30.4679 -30.4679 -30.4642 -30.4642 -30.4618 -30.4618
   -30.4550 -30.4550 -30.4514 -30.4514 -30.4438 -30.4438 -30.4383 -30.4383
   -20.3152 -20.3152 -20.3151 -20.3151 -20.3150 -20.3150 -20.3149 -20.3149
   -20.2924 -20.2924 -20.2920 -20.2920 -20.2917 -20.2917 -20.2912 -20.2912
   -20.2902 -20.2902 -20.2898 -20.2898 -20.2893 -20.2893 -20.2890 -20.2890
   -20.2883 -20.2883 -20.2881 -20.2881 -20.2878 -20.2878 -20.2876 -20.2876
   -20.2845 -20.2845 -20.2841 -20.2841 -20.2829 -20.2829 -20.2819 -20.2819
   -20.2778 -20.2778 -20.2778 -20.2778 -20.2763 -20.2763 -20.2755 -20.2755
   -20.2743 -20.2743 -20.2734 -20.2734 -20.2727 -20.2727 -20.2714 -20.2714
    -9.8557  -9.8557  -9.4862  -9.4862  -9.4145  -9.4145  -9.1650  -9.1650
    -8.3563  -8.3563  -8.3246  -8.3246  -8.3087  -8.3087  -8.3059  -8.3059
    -7.9426  -7.9426  -7.8400  -7.8400  -7.7878  -7.7878  -7.6945  -7.6945
     1.0394   1.0394   1.1107   1.1107   1.3343   1.3343   1.5686   1.5686
     2.3455   2.3455   3.1345   3.1345   3.1831   3.1831   3.2526   3.2526
     3.2904   3.2904   3.3710   3.3710   3.6003   3.6003   3.6392   3.6393
     3.8028   3.8028   4.2345   4.2345   4.6413   4.6413   5.0206   5.0206
     5.2072   5.2072   5.2875   5.2875   5.4865   5.4865   5.5014   5.5014
     5.7559   5.7559   5.7865   5.7865   6.0205   6.0205   6.1178   6.1178
     6.2963   6.2963   6.3581   6.3581   6.5795   6.5795   6.8364   6.8364
     6.9296   6.9296   6.9825   6.9825   7.0457   7.0457   7.5178   7.5178
     7.5345   7.5345   7.5535   7.5535   7.5628   7.5628   7.8997   7.8997
     9.6310   9.6310  11.1860  11.1860  11.2391  11.2391  11.2671  11.2671
    11.3446  11.3446  12.4119  12.4119  12.6013  12.6013  13.1637  13.1637
    13.3665  13.3665  13.4348  13.4348  13.5471  13.5471  13.7072  13.7072
    15.4731  15.4731  15.7599  15.7599  15.8078  15.8078  16.0901  16.0901
    16.4546  16.4546  17.8462  17.8462  17.9915

          k = 0.0000-0.4725 0.3333 ( 62268 PWs)   bands (ev):

   -66.1605 -66.1605 -66.1600 -66.1600 -66.1595 -66.1595 -66.1590 -66.1590
   -30.5545 -30.5545 -30.5514 -30.5514 -30.5379 -30.5379 -30.5327 -30.5327
   -30.4876 -30.4876 -30.4830 -30.4830 -30.4632 -30.4632 -30.4609 -30.4609
   -30.4589 -30.4589 -30.4557 -30.4557 -30.4428 -30.4428 -30.4399 -30.4399
   -20.3152 -20.3152 -20.3151 -20.3151 -20.3150 -20.3150 -20.3149 -20.3149
   -20.2923 -20.2923 -20.2919 -20.2919 -20.2918 -20.2918 -20.2914 -20.2914
   -20.2901 -20.2901 -20.2899 -20.2899 -20.2893 -20.2893 -20.2891 -20.2891
   -20.2883 -20.2882 -20.2880 -20.2880 -20.2879 -20.2879 -20.2877 -20.2877
   -20.2844 -20.2844 -20.2842 -20.2842 -20.2814 -20.2814 -20.2803 -20.2803
   -20.2783 -20.2783 -20.2776 -20.2776 -20.2772 -20.2772 -20.2757 -20.2757
   -20.2752 -20.2752 -20.2740 -20.2740 -20.2724 -20.2724 -20.2717 -20.2717
    -9.7240  -9.7240  -9.5264  -9.5264  -9.1478  -9.1478  -9.0155  -9.0155
    -8.4289  -8.4289  -8.4023  -8.4023  -8.3121  -8.3121  -8.2957  -8.2957
    -8.2147  -8.2147  -8.1388  -8.1388  -7.7685  -7.7685  -7.7142  -7.7142
     1.1182   1.1182   1.1190   1.1190   2.0764   2.0764   2.2413   2.2413
     2.6081   2.6081   3.1499   3.1499   3.2024   3.2024   3.2726   3.2726
     3.3347   3.3347   3.4197   3.4197   3.5692   3.5692   3.6484   3.6484
     3.7449   3.7449   3.8409   3.8409   4.4469   4.4469   4.5876   4.5876
     4.7654   4.7654   4.8330   4.8330   5.0638   5.0638   5.2727   5.2727
     5.5260   5.5260   5.6979   5.6979   6.1357   6.1357   6.1735   6.1735
     6.4410   6.4410   6.4968   6.4968   6.5763   6.5763   6.6997   6.6997
     6.9524   6.9524   7.1838   7.1838   7.1915   7.1915   7.4860   7.4860
     7.5100   7.5100   7.5402   7.5402   7.5596   7.5596   7.7939   7.7939
    10.3896  10.3896  11.1971  11.1971  11.2397  11.2397  11.6400  11.6400
    11.7091  11.7091  11.9668  11.9669  12.7566  12.7566  12.8343  12.8343
    12.8822  12.8822  13.2591  13.2591  13.5443  13.5443  13.6363  13.6363
    15.5445  15.5445  15.7224  15.7224  16.3619  16.3619  16.7585  16.7585
    16.8211  16.8211  17.3146  17.3146  17.8545

          k = 0.0000-0.4725-0.5000 ( 62284 PWs)   bands (ev):

   -66.1602 -66.1602 -66.1602 -66.1602 -66.1592 -66.1592 -66.1592 -66.1592
   -30.5529 -30.5529 -30.5529 -30.5529 -30.5125 -30.5125 -30.5125 -30.5125
   -30.5076 -30.5076 -30.5075 -30.5075 -30.4616 -30.4616 -30.4616 -30.4616
   -30.4584 -30.4584 -30.4584 -30.4584 -30.4414 -30.4414 -30.4414 -30.4414
   -20.3151 -20.3151 -20.3151 -20.3151 -20.3150 -20.3150 -20.3150 -20.3150
   -20.2921 -20.2921 -20.2920 -20.2920 -20.2916 -20.2916 -20.2916 -20.2916
   -20.2900 -20.2900 -20.2900 -20.2900 -20.2892 -20.2892 -20.2892 -20.2892
   -20.2881 -20.2881 -20.2881 -20.2881 -20.2879 -20.2879 -20.2879 -20.2879
   -20.2843 -20.2843 -20.2843 -20.2843 -20.2796 -20.2796 -20.2796 -20.2796
   -20.2785 -20.2785 -20.2785 -20.2785 -20.2770 -20.2770 -20.2770 -20.2770
   -20.2747 -20.2747 -20.2747 -20.2747 -20.2721 -20.2721 -20.2720 -20.2720
    -9.6023  -9.6023  -9.6023  -9.6023  -8.7638  -8.7638  -8.7638  -8.7638
    -8.7249  -8.7249  -8.7249  -8.7249  -8.2988  -8.2988  -8.2987  -8.2987
    -8.2631  -8.2631  -8.2631  -8.2631  -7.7412  -7.7412  -7.7412  -7.7412
     1.1265   1.1265   1.1265   1.1265   2.9269   2.9269   2.9269   2.9269
     3.0400   3.0400   3.0400   3.0400   3.1652   3.1652   3.1652   3.1652
     3.2690   3.2690   3.2690   3.2690   3.4400   3.4400   3.4400   3.4400
     3.6403   3.6403   3.6404   3.6404   4.3120   4.3120   4.3120   4.3120
     4.4189   4.4189   4.4190   4.4190   5.1282   5.1282   5.1282   5.1283
     5.5865   5.5865   5.5865   5.5865   6.2333   6.2333   6.2333   6.2333
     6.4081   6.4081   6.4081   6.4081   6.5326   6.5326   6.5326   6.5326
     7.3125   7.3125   7.3125   7.3125   7.4040   7.4040   7.4040   7.4040
     7.4661   7.4661   7.4661   7.4661   7.6168   7.6168   7.6168   7.6169
    11.1416  11.1416  11.1416  11.1416  11.3096  11.3096  11.3096  11.3096
    12.2196  12.2196  12.2196  12.2196  12.2634  12.2634  12.2634  12.2634
    13.0273  13.0273  13.0273  13.0273  13.5610  13.5610  13.5610  13.5610
    15.6462  15.6462  15.6462  15.6462  16.8304  16.8305  16.8305  16.8305
    17.4761  17.4761  17.4761  17.4762  17.5573

          k = 0.1667 0.0000 0.1667 ( 62234 PWs)   bands (ev):

   -66.1608 -66.1604 -66.1599 -66.1599 -66.1595 -66.1595 -66.1590 -66.1586
   -30.5582 -30.5556 -30.5531 -30.5508 -30.5497 -30.5464 -30.5453 -30.5421
   -30.4908 -30.4902 -30.4898 -30.4894 -30.4674 -30.4634 -30.4601 -30.4584
   -30.4576 -30.4565 -30.4523 -30.4483 -30.4326 -30.4277 -30.4271 -30.4225
   -20.3153 -20.3152 -20.3151 -20.3151 -20.3150 -20.3150 -20.3149 -20.3149
   -20.2932 -20.2927 -20.2927 -20.2921 -20.2919 -20.2916 -20.2912 -20.2908
   -20.2905 -20.2905 -20.2904 -20.2901 -20.2899 -20.2898 -20.2897 -20.2897
   -20.2894 -20.2894 -20.2889 -20.2886 -20.2860 -20.2856 -20.2854 -20.2850
   -20.2842 -20.2838 -20.2836 -20.2833 -20.2828 -20.2827 -20.2820 -20.2819
   -20.2784 -20.2783 -20.2779 -20.2778 -20.2762 -20.2761 -20.2754 -20.2753
   -20.2745 -20.2743 -20.2735 -20.2732 -20.2730 -20.2729 -20.2717 -20.2716
    -9.9316  -9.7136  -9.5438  -9.5199  -9.3700  -9.3324  -9.1329  -9.1165
    -8.9302  -8.7892  -8.7836  -8.7784  -7.9573  -7.9515  -7.9221  -7.9157
    -7.8747  -7.8681  -7.8356  -7.8087  -7.6990  -7.6523  -7.6491  -7.6056
     1.2032   1.2090   1.3189   1.3362   1.3577   1.3832   1.4711   1.6873
     1.7246   1.7487   1.7650   1.9570   2.3972   2.4799   2.6759   2.6822
     2.7871   2.8101   4.0780   4.0854   4.1904   4.2227   4.3163   4.3232
     4.3398   4.3722   4.6727   4.7016   4.7153   4.8378   5.0321   5.2052
     5.2265   5.2948   5.2949   5.5023   5.5553   5.5769   5.5846   5.6896
     5.6954   5.8065   5.8219   5.9421   6.0245   6.0982   6.2086   6.2779
     6.3388   6.4354   6.4912   6.6059   6.6094   6.7392   6.7430   6.7868
     6.8114   6.8569   6.8722   6.8853   6.9004   6.9530   6.9537   7.0258
     7.1125   7.1670   7.8726   7.8738   8.0671   8.1097   8.1175   8.1503
     9.8452   9.8868  10.0733  10.1205  10.1213  10.2061  12.2792  12.3453
    12.4366  12.4416  12.4498  12.4629  12.5379  12.5625  12.8710  13.0000
    13.0713  13.1343  13.4253  13.4755  13.8072  13.8607  13.9851  14.0256
    14.2442  14.4691  14.5512  15.1509  15.3244  15.6480  15.6595  16.5382
    16.5408  17.0810  17.0915  17.3493  17.6209

          k = 0.1667 0.0000 0.3333 ( 62265 PWs)   bands (ev):

   -66.1606 -66.1602 -66.1601 -66.1597 -66.1597 -66.1593 -66.1592 -66.1588
   -30.5494 -30.5466 -30.5465 -30.5432 -30.5382 -30.5370 -30.5341 -30.5325
   -30.4962 -30.4940 -30.4886 -30.4876 -30.4866 -30.4825 -30.4749 -30.4721
   -30.4573 -30.4562 -30.4524 -30.4507 -30.4316 -30.4288 -30.4262 -30.4236
   -20.3152 -20.3152 -20.3151 -20.3151 -20.3151 -20.3150 -20.3149 -20.3149
   -20.2931 -20.2928 -20.2925 -20.2922 -20.2918 -20.2914 -20.2913 -20.2909
   -20.2905 -20.2904 -20.2904 -20.2902 -20.2901 -20.2900 -20.2897 -20.2896
   -20.2895 -20.2894 -20.2888 -20.2886 -20.2860 -20.2856 -20.2856 -20.2852
   -20.2841 -20.2839 -20.2835 -20.2833 -20.2813 -20.2813 -20.2804 -20.2803
   -20.2787 -20.2783 -20.2780 -20.2777 -20.2771 -20.2771 -20.2759 -20.2757
   -20.2751 -20.2750 -20.2741 -20.2738 -20.2727 -20.2727 -20.2720 -20.2719
    -9.7944  -9.5680  -9.5662  -9.3687  -9.3229  -9.0979  -9.0065  -8.9827
    -8.9669  -8.7996  -8.7520  -8.7318  -8.2858  -8.2782  -8.2344  -8.2062
    -7.9204  -7.8954  -7.8672  -7.8420  -7.6901  -7.6627  -7.6407  -7.6152
     1.3564   1.3572   1.3874   1.3929   1.6586   1.6651   1.7105   1.7499
     2.0875   2.1538   2.2513   2.3609   2.6727   2.6968   2.7655   2.7773
     2.9248   3.0319   3.6327   3.7321   3.9079   3.9189   4.1666   4.1966
     4.2021   4.4104   4.4413   4.5180   4.5829   4.6476   4.6705   4.7843
     4.9143   4.9680   4.9764   5.1244   5.1695   5.3180   5.6027   5.6081
     5.7084   5.8449   5.9021   5.9555   5.9654   5.9986   6.0639   6.1349
     6.3892   6.4734   6.5236   6.5620   6.6372   6.6972   6.7076   6.7914
     6.8414   6.8561   6.8613   6.9097   6.9819   7.0588   7.0940   7.1307
     7.2708   7.3386   7.7671   7.7743   7.9655   8.0048   8.1037   8.1122
    10.0841  10.0921  10.5079  10.5699  10.7929  10.8667  11.9871  12.0318
    12.1996  12.4589  12.4766  12.5428  12.5962  12.6057  12.7184  12.7904
    12.8735  13.1042  13.2429  13.3337  13.6015  13.6369  13.8527  13.8804
    14.3660  14.5259  14.7663  15.2279  15.4781  15.9769  16.1659  16.4547
    16.4968  17.4535  17.5373  17.6851  17.7094

          k = 0.1667 0.0000-0.5000 ( 62322 PWs)   bands (ev):

   -66.1604 -66.1604 -66.1600 -66.1600 -66.1595 -66.1595 -66.1591 -66.1591
   -30.5479 -30.5479 -30.5446 -30.5446 -30.5135 -30.5135 -30.5127 -30.5127
   -30.5095 -30.5095 -30.5084 -30.5084 -30.4852 -30.4851 -30.4835 -30.4834
   -30.4565 -30.4565 -30.4520 -30.4519 -30.4302 -30.4302 -30.4249 -30.4249
   -20.3151 -20.3151 -20.3151 -20.3151 -20.3150 -20.3150 -20.3150 -20.3150
   -20.2929 -20.2929 -20.2924 -20.2924 -20.2915 -20.2915 -20.2912 -20.2912
   -20.2904 -20.2903 -20.2903 -20.2903 -20.2903 -20.2903 -20.2896 -20.2896
   -20.2895 -20.2895 -20.2887 -20.2887 -20.2859 -20.2859 -20.2855 -20.2854
   -20.2840 -20.2840 -20.2834 -20.2834 -20.2797 -20.2797 -20.2795 -20.2795
   -20.2786 -20.2786 -20.2785 -20.2785 -20.2773 -20.2773 -20.2772 -20.2772
   -20.2747 -20.2746 -20.2745 -20.2745 -20.2724 -20.2724 -20.2723 -20.2723
    -9.6577  -9.6577  -9.4401  -9.4401  -9.0868  -9.0868  -8.8497  -8.8497
    -8.6984  -8.6984  -8.6812  -8.6811  -8.6131  -8.6131  -8.5525  -8.5525
    -7.8946  -7.8946  -7.8685  -7.8685  -7.6766  -7.6766  -7.6281  -7.6281
     1.3634   1.3634   1.4028   1.4028   1.6955   1.6955   1.7293   1.7293
     2.7208   2.7208   2.9348   2.9348   3.0023   3.0023   3.0857   3.0857
     3.1303   3.1303   3.2528   3.2528   3.3982   3.3982   3.7265   3.7265
     3.8210   3.8210   4.3184   4.3184   4.5757   4.5757   4.7855   4.7855
     4.8682   4.8682   4.9204   4.9204   5.1157   5.1157   5.6857   5.6857
     5.7180   5.7180   5.7890   5.7890   5.9741   5.9741   6.1177   6.1177
     6.3603   6.3603   6.5689   6.5690   6.6163   6.6163   6.7612   6.7612
     6.8479   6.8479   6.8970   6.8970   6.9621   6.9621   7.4986   7.4986
     7.5168   7.5168   7.6925   7.6925   7.7318   7.7319   8.1119   8.1119
    10.0950  10.0950  11.2793  11.2793  11.3410  11.3410  11.5787  11.5787
    11.6960  11.6960  12.5631  12.5631  12.6976  12.6977  12.8774  12.8774
    12.9870  12.9870  13.1806  13.1806  13.2800  13.2800  13.8605  13.8605
    14.4720  14.4720  15.0466  15.0466  15.9333  15.9333  16.2730  16.2730
    16.9868  16.9868  17.9006  17.9007  17.9973

          k = 0.1667 0.1575 0.1667 ( 62255 PWs)   bands (ev):

   -66.1608 -66.1604 -66.1599 -66.1599 -66.1596 -66.1595 -66.1590 -66.1587
   -30.5580 -30.5558 -30.5529 -30.5509 -30.5495 -30.5466 -30.5451 -30.5423
   -30.4875 -30.4868 -30.4866 -30.4856 -30.4675 -30.4635 -30.4601 -30.4588
   -30.4576 -30.4565 -30.4523 -30.4478 -30.4364 -30.4313 -30.4305 -30.4257
   -20.3152 -20.3152 -20.3151 -20.3151 -20.3150 -20.3150 -20.3149 -20.3149
   -20.2930 -20.2926 -20.2925 -20.2920 -20.2919 -20.2917 -20.2912 -20.2908
   -20.2904 -20.2903 -20.2902 -20.2900 -20.2897 -20.2897 -20.2897 -20.2896
   -20.2894 -20.2893 -20.2889 -20.2887 -20.2863 -20.2859 -20.2857 -20.2854
   -20.2842 -20.2838 -20.2836 -20.2833 -20.2828 -20.2827 -20.2820 -20.2819
   -20.2783 -20.2783 -20.2779 -20.2779 -20.2762 -20.2761 -20.2754 -20.2753
   -20.2745 -20.2743 -20.2735 -20.2732 -20.2730 -20.2729 -20.2717 -20.2716
    -9.9099  -9.7230  -9.5223  -9.4966  -9.3759  -9.3388  -9.1318  -9.1175
    -8.8579  -8.7369  -8.7328  -8.7258  -7.9617  -7.9499  -7.9248  -7.9206
    -7.8803  -7.8740  -7.8361  -7.8119  -7.7873  -7.7455  -7.7437  -7.7025
     1.2036   1.2085   1.3286   1.3366   1.3711   1.3841   1.5674   1.6872
     1.9206   1.9704   1.9838   2.1273   2.4031   2.4749   2.7504   2.7542
     2.8596   2.8767   3.9600   3.9779   4.0577   4.0758   4.2795   4.3032
     4.3155   4.3265   4.6439   4.6992   4.7660   4.8440   4.9161   5.1443
     5.1977   5.2554   5.2741   5.3159   5.3415   5.5440   5.5500   5.6604
     5.6998   5.7698   5.9104   5.9278   5.9499   6.0506   6.1891   6.2722
     6.3359   6.3444   6.4662   6.5665   6.6314   6.7206   6.7361   6.7556
     6.7701   6.8586   6.8742   6.9069   6.9556   6.9782   6.9979   7.0365
     7.1208   7.1711   7.8718   7.8747   8.0205   8.0504   8.0640   8.0769
     9.8676   9.8931  10.2358  10.2743  10.2991  10.3544  12.1647  12.2413
    12.3327  12.3534  12.4476  12.4546  12.4875  12.4958  12.9095  13.0331
    13.0729  13.1417  13.4203  13.4704  13.8084  13.8332  13.8891  13.9469
    14.5035  14.7888  14.8188  15.2512  15.6490  15.6571  15.7350  16.4979
    16.5067  16.9848  17.1713  17.1795  17.5599

          k = 0.1667 0.1575 0.3333 ( 62260 PWs)   bands (ev):

   -66.1606 -66.1602 -66.1601 -66.1597 -66.1597 -66.1594 -66.1592 -66.1589
   -30.5492 -30.5467 -30.5463 -30.5434 -30.5381 -30.5370 -30.5339 -30.5325
   -30.4940 -30.4915 -30.4866 -30.4852 -30.4840 -30.4824 -30.4738 -30.4710
   -30.4579 -30.4565 -30.4523 -30.4502 -30.4354 -30.4325 -30.4296 -30.4269
   -20.3152 -20.3152 -20.3151 -20.3151 -20.3150 -20.3150 -20.3149 -20.3149
   -20.2929 -20.2926 -20.2924 -20.2921 -20.2918 -20.2915 -20.2914 -20.2910
   -20.2904 -20.2903 -20.2902 -20.2901 -20.2899 -20.2898 -20.2896 -20.2896
   -20.2894 -20.2894 -20.2888 -20.2887 -20.2863 -20.2860 -20.2859 -20.2856
   -20.2841 -20.2839 -20.2836 -20.2834 -20.2813 -20.2813 -20.2804 -20.2803
   -20.2787 -20.2783 -20.2780 -20.2777 -20.2771 -20.2771 -20.2759 -20.2757
   -20.2751 -20.2750 -20.2740 -20.2738 -20.2727 -20.2727 -20.2720 -20.2719
    -9.7706  -9.5759  -9.5437  -9.3756  -9.2913  -9.1040  -9.0034  -8.9808
    -8.8998  -8.7512  -8.7036  -8.6896  -8.2900  -8.2748  -8.2416  -8.2025
    -7.9205  -7.9012  -7.8679  -7.8483  -7.7808  -7.7551  -7.7373  -7.7122
     1.3714   1.3730   1.3887   1.3929   1.8406   1.8529   1.9321   1.9728
     2.0872   2.1876   2.2511   2.3965   2.6794   2.7437   2.7843   2.8480
     2.9992   3.0978   3.6319   3.7266   3.8626   3.9063   4.0518   4.1025
     4.2267   4.3187   4.4216   4.4914   4.5637   4.6038   4.6638   4.7688
     4.8301   4.8450   4.8911   5.1062   5.1156   5.1461   5.3622   5.5810
     5.6774   5.7156   5.7900   5.9019   5.9344   5.9833   6.0290   6.0478
     6.3142   6.4860   6.5438   6.6790   6.6915   6.7216   6.7304   6.7434
     6.8268   6.8914   6.9283   6.9793   6.9903   7.0811   7.0923   7.1482
     7.2676   7.3363   7.7692   7.7718   7.9211   7.9484   8.0470   8.0533
    10.2465  10.2689  10.5236  10.5798  10.9000  10.9560  11.9851  12.0284
    12.1639  12.3810  12.4084  12.4935  12.5253  12.6098  12.6526  12.7127
    12.9108  13.0878  13.2198  13.3405  13.4964  13.5546  13.8249  13.8430
    14.6584  14.7957  15.1325  15.5381  15.6617  15.9690  16.1798  16.4205
    16.5842  17.3581  17.4093  17.5943  17.7275

          k = 0.1667 0.1575-0.5000 ( 62292 PWs)   bands (ev):

   -66.1603 -66.1603 -66.1600 -66.1600 -66.1595 -66.1594 -66.1591 -66.1591
   -30.5477 -30.5477 -30.5448 -30.5448 -30.5131 -30.5131 -30.5126 -30.5126
   -30.5090 -30.5090 -30.5083 -30.5083 -30.4823 -30.4823 -30.4804 -30.4804
   -30.4570 -30.4570 -30.4516 -30.4515 -30.4340 -30.4340 -30.4283 -30.4283
   -20.3151 -20.3151 -20.3151 -20.3151 -20.3150 -20.3150 -20.3150 -20.3150
   -20.2928 -20.2927 -20.2922 -20.2922 -20.2916 -20.2916 -20.2913 -20.2912
   -20.2903 -20.2903 -20.2901 -20.2901 -20.2901 -20.2901 -20.2895 -20.2895
   -20.2895 -20.2895 -20.2887 -20.2887 -20.2862 -20.2861 -20.2858 -20.2858
   -20.2840 -20.2840 -20.2835 -20.2835 -20.2797 -20.2797 -20.2795 -20.2795
   -20.2786 -20.2786 -20.2786 -20.2785 -20.2773 -20.2773 -20.2772 -20.2772
   -20.2747 -20.2746 -20.2745 -20.2745 -20.2724 -20.2724 -20.2723 -20.2723
    -9.6331  -9.6331  -9.4481  -9.4481  -9.0309  -9.0309  -8.8193  -8.8193
    -8.7027  -8.7027  -8.6837  -8.6837  -8.5945  -8.5945  -8.5350  -8.5350
    -7.8959  -7.8959  -7.8735  -7.8735  -7.7685  -7.7685  -7.7250  -7.7249
     1.3831   1.3832   1.4025   1.4025   1.8966   1.8966   1.9628   1.9628
     2.7843   2.7843   2.9470   2.9470   3.0083   3.0083   3.0933   3.0933
     3.1338   3.1338   3.2752   3.2752   3.3915   3.3915   3.7492   3.7492
     3.8767   3.8767   4.1760   4.1760   4.5029   4.5029   4.6807   4.6807
     4.8177   4.8177   4.8900   4.8900   4.9801   4.9801   5.4853   5.4853
     5.6782   5.6782   5.7570   5.7570   5.8500   5.8500   6.0111   6.0111
     6.4592   6.4593   6.6238   6.6238   6.6786   6.6786   6.7829   6.7830
     6.8121   6.8121   6.9314   6.9314   7.0242   7.0242   7.5027   7.5027
     7.5131   7.5131   7.6678   7.6678   7.7015   7.7015   8.0526   8.0526
    10.2708  10.2708  11.2850  11.2850  11.3417  11.3417  11.6431  11.6431
    11.7532  11.7532  12.4145  12.4146  12.6916  12.6916  12.8294  12.8294
    12.9690  12.9690  13.0859  13.0859  13.2424  13.2424  13.8227  13.8227
    14.7531  14.7531  15.4344  15.4345  16.0262  16.0262  16.2476  16.2476
    17.0227  17.0227  17.7358  17.7359  17.9779

          k = 0.1667 0.3150 0.1667 ( 62249 PWs)   bands (ev):

   -66.1607 -66.1605 -66.1598 -66.1598 -66.1596 -66.1596 -66.1589 -66.1587
   -30.5575 -30.5562 -30.5524 -30.5512 -30.5488 -30.5471 -30.5444 -30.5428
   -30.4792 -30.4780 -30.4776 -30.4754 -30.4682 -30.4643 -30.4610 -30.4597
   -30.4575 -30.4564 -30.4516 -30.4469 -30.4460 -30.4406 -30.4391 -30.4337
   -20.3152 -20.3152 -20.3151 -20.3151 -20.3150 -20.3150 -20.3149 -20.3149
   -20.2927 -20.2923 -20.2922 -20.2921 -20.2918 -20.2916 -20.2914 -20.2910
   -20.2903 -20.2900 -20.2899 -20.2896 -20.2896 -20.2895 -20.2893 -20.2892
   -20.2890 -20.2889 -20.2888 -20.2887 -20.2872 -20.2869 -20.2866 -20.2863
   -20.2841 -20.2838 -20.2837 -20.2834 -20.2828 -20.2827 -20.2820 -20.2819
   -20.2782 -20.2782 -20.2780 -20.2780 -20.2762 -20.2761 -20.2754 -20.2754
   -20.2744 -20.2743 -20.2735 -20.2733 -20.2730 -20.2729 -20.2717 -20.2716
    -9.8571  -9.7515  -9.4741  -9.4445  -9.3944  -9.3585  -9.1287  -9.1205
    -8.6541  -8.5766  -8.5749  -8.5671  -8.0710  -8.0291  -8.0246  -8.0009
    -7.9450  -7.9264  -7.9135  -7.9040  -7.8634  -7.8360  -7.8244  -7.8127
     1.2044   1.2072   1.3360   1.3373   1.3816   1.3846   1.6537   1.6852
     2.4157   2.4544   2.4867   2.5796   2.5989   2.7196   2.9725   2.9895
     3.0703   3.0982   3.6107   3.6494   3.6869   3.7372   4.1532   4.2696
     4.2882   4.2945   4.3185   4.5369   4.5656   4.8106   4.8283   4.9283
     4.9666   4.9912   5.1078   5.1475   5.3148   5.3726   5.4445   5.4475
     5.7060   5.7139   5.7397   5.7592   5.8703   5.8744   6.1972   6.2316
     6.3539   6.3867   6.4297   6.5817   6.6420   6.6711   6.7694   6.7920
     6.8724   6.8824   6.9728   6.9944   7.0703   7.0721   7.1650   7.1659
     7.2226   7.2313   7.8272   7.8479   7.8558   7.8737   7.8825   7.9055
     9.8889   9.8970  10.6759  10.7110  10.7613  10.7838  11.7983  11.8672
    11.9287  11.9470  12.4513  12.4598  12.4758  12.4817  13.0179  13.1002
    13.1574  13.2172  13.3982  13.4399  13.5995  13.6543  13.6956  13.7680
    15.2726  15.4563  15.4953  15.6331  15.6630  15.6653  16.3595  16.3759
    16.4335  16.7376  17.2874  17.4610  17.4630

          k = 0.1667 0.3150 0.3333 ( 62265 PWs)   bands (ev):

   -66.1605 -66.1603 -66.1600 -66.1598 -66.1596 -66.1594 -66.1591 -66.1589
   -30.5486 -30.5472 -30.5456 -30.5440 -30.5377 -30.5371 -30.5335 -30.5327
   -30.4898 -30.4866 -30.4864 -30.4825 -30.4764 -30.4741 -30.4698 -30.4661
   -30.4601 -30.4582 -30.4510 -30.4484 -30.4458 -30.4424 -30.4382 -30.4352
   -20.3152 -20.3152 -20.3151 -20.3151 -20.3150 -20.3150 -20.3149 -20.3149
   -20.2926 -20.2922 -20.2921 -20.2920 -20.2917 -20.2916 -20.2916 -20.2912
   -20.2902 -20.2900 -20.2899 -20.2897 -20.2896 -20.2895 -20.2893 -20.2893
   -20.2892 -20.2889 -20.2888 -20.2887 -20.2871 -20.2869 -20.2868 -20.2865
   -20.2840 -20.2838 -20.2837 -20.2835 -20.2813 -20.2813 -20.2804 -20.2804
   -20.2786 -20.2784 -20.2780 -20.2778 -20.2771 -20.2771 -20.2758 -20.2757
   -20.2751 -20.2750 -20.2740 -20.2739 -20.2727 -20.2727 -20.2720 -20.2719
    -9.7136  -9.6041  -9.4893  -9.3971  -9.2225  -9.1236  -8.9967  -8.9842
    -8.7045  -8.6041  -8.5535  -8.5491  -8.3092  -8.2773  -8.2622  -8.1888
    -8.0314  -8.0179  -7.9936  -7.9663  -7.9047  -7.8853  -7.8519  -7.8359
     1.3805   1.3814   1.3925   1.3940   2.0554   2.0854   2.1714   2.2487
     2.4906   2.5724   2.5959   2.6719   2.7005   2.7899   2.9884   3.0584
     3.2284   3.3030   3.5868   3.6592   3.6804   3.7134   3.7623   3.8238
     4.1226   4.2878   4.3820   4.3951   4.4213   4.4506   4.5655   4.5985
     4.6044   4.7981   4.8374   4.8701   4.9516   4.9988   5.0720   5.1702
     5.3061   5.3856   5.4808   5.6919   5.7333   5.8713   6.0111   6.0312
     6.4411   6.5320   6.5950   6.7301   6.7598   6.7742   6.8822   6.8947
     6.9471   7.0176   7.0451   7.0680   7.1167   7.1777   7.2213   7.2412
     7.2762   7.3341   7.7503   7.7663   7.7709   7.7849   7.8594   7.8805
    10.5087  10.5283  10.7413  10.7792  11.2024  11.2480  11.8454  11.9233
    12.0112  12.0722  12.1097  12.1887  12.5969  12.6389  12.6671  12.6770
    12.9847  13.0981  13.1104  13.2558  13.3509  13.4198  13.6375  13.6720
    15.3979  15.4586  15.8985  15.9350  15.9859  16.2246  16.3288  16.6287
    16.8622  16.8704  17.2470  17.5486  17.7314

          k = 0.1667 0.3150-0.5000 ( 62264 PWs)   bands (ev):

   -66.1603 -66.1603 -66.1601 -66.1601 -66.1594 -66.1594 -66.1592 -66.1592
   -30.5470 -30.5470 -30.5454 -30.5454 -30.5124 -30.5124 -30.5123 -30.5123
   -30.5082 -30.5081 -30.5080 -30.5080 -30.4744 -30.4744 -30.4714 -30.4713
   -30.4591 -30.4591 -30.4500 -30.4499 -30.4443 -30.4443 -30.4368 -30.4368
   -20.3151 -20.3151 -20.3151 -20.3151 -20.3150 -20.3150 -20.3150 -20.3150
   -20.2924 -20.2924 -20.2919 -20.2919 -20.2918 -20.2918 -20.2914 -20.2914
   -20.2901 -20.2901 -20.2899 -20.2898 -20.2895 -20.2895 -20.2894 -20.2894
   -20.2891 -20.2891 -20.2888 -20.2887 -20.2870 -20.2870 -20.2867 -20.2867
   -20.2839 -20.2839 -20.2836 -20.2836 -20.2797 -20.2796 -20.2796 -20.2796
   -20.2786 -20.2786 -20.2786 -20.2786 -20.2773 -20.2773 -20.2772 -20.2772
   -20.2746 -20.2746 -20.2745 -20.2745 -20.2724 -20.2724 -20.2723 -20.2723
    -9.5757  -9.5757  -9.4730  -9.4730  -8.8971  -8.8971  -8.7609  -8.7609
    -8.7167  -8.7167  -8.6921  -8.6921  -8.5044  -8.5044  -8.4609  -8.4609
    -8.0240  -8.0240  -7.9887  -7.9887  -7.8790  -7.8790  -7.8602  -7.8602
     1.3972   1.3972   1.4023   1.4023   2.4731   2.4731   2.5702   2.5703
     2.9277   2.9277   2.9858   2.9858   3.0386   3.0386   3.1166   3.1166
     3.1570   3.1570   3.3425   3.3425   3.3670   3.3671   3.6738   3.6738
     4.0203   4.0203   4.0696   4.0696   4.0777   4.0777   4.3418   4.3419
     4.7314   4.7314   4.8114   4.8115   4.9502   4.9502   5.0365   5.0365
     5.0817   5.0817   5.5529   5.5529   5.8012   5.8012   5.8917   5.8918
     6.5944   6.5944   6.7106   6.7106   6.7407   6.7407   6.8041   6.8042
     7.0629   7.0629   7.1138   7.1138   7.1944   7.1944   7.4975   7.4975
     7.5174   7.5174   7.5806   7.5806   7.6086   7.6086   7.8666   7.8666
    10.7264  10.7264  11.2947  11.2947  11.3445  11.3445  11.7693  11.7693
    11.9368  11.9368  12.0820  12.0820  12.5597  12.5598  12.6039  12.6039
    12.9064  12.9064  12.9780  12.9780  13.2578  13.2578  13.6308  13.6309
    15.4391  15.4391  16.1485  16.1485  16.3085  16.3085  16.4267  16.4267
    17.1602  17.1602  17.3602  17.3602  17.9339

          k = 0.1667-0.4725 0.1667 ( 62220 PWs)   bands (ev):

   -66.1606 -66.1606 -66.1597 -66.1597 -66.1597 -66.1597 -66.1588 -66.1588
   -30.5569 -30.5568 -30.5518 -30.5518 -30.5479 -30.5479 -30.5436 -30.5436
   -30.4714 -30.4713 -30.4689 -30.4686 -30.4672 -30.4671 -30.4615 -30.4615
   -30.4589 -30.4589 -30.4512 -30.4510 -30.4477 -30.4476 -30.4416 -30.4416
   -20.3152 -20.3152 -20.3151 -20.3151 -20.3150 -20.3150 -20.3149 -20.3149
   -20.2924 -20.2924 -20.2920 -20.2920 -20.2917 -20.2917 -20.2913 -20.2913
   -20.2901 -20.2901 -20.2898 -20.2898 -20.2893 -20.2893 -20.2890 -20.2890
   -20.2883 -20.2883 -20.2881 -20.2881 -20.2878 -20.2878 -20.2876 -20.2876
   -20.2840 -20.2840 -20.2836 -20.2836 -20.2828 -20.2828 -20.2819 -20.2819
   -20.2781 -20.2781 -20.2781 -20.2781 -20.2762 -20.2761 -20.2754 -20.2754
   -20.2744 -20.2744 -20.2734 -20.2734 -20.2730 -20.2729 -20.2717 -20.2717
    -9.7983  -9.7983  -9.4273  -9.4272  -9.3939  -9.3938  -9.1246  -9.1246
    -8.3646  -8.3641  -8.3223  -8.3216  -8.3176  -8.3172  -8.3076  -8.3066
    -7.9394  -7.9384  -7.9171  -7.9169  -7.8562  -7.8561  -7.8197  -7.8195
     1.2053   1.2061   1.3372   1.3380   1.3841   1.3846   1.6777   1.6784
     2.4368   2.4377   3.1446   3.1465   3.1858   3.2033   3.2498   3.2595
     3.3412   3.3417   3.3731   3.3835   3.6280   3.6315   3.6412   3.6469
     3.8170   3.8189   4.2747   4.2946   4.3058   4.3180   4.9628   4.9789
     5.0624   5.0696   5.1859   5.2163   5.2174   5.2411   5.4334   5.4421
     5.5063   5.5075   5.7228   5.7531   5.7573   5.7764   6.2304   6.2332
     6.3928   6.4056   6.5155   6.5173   6.6264   6.6402   6.8267   6.8300
     6.8341   6.8483   7.0194   7.0219   7.1054   7.1090   7.5137   7.5142
     7.5224   7.5300   7.5412   7.5560   7.5628   7.5666   7.8804   7.8814
     9.8957   9.8968  11.2379  11.2582  11.2807  11.3102  11.3400  11.3503
    11.3900  11.3912  12.4534  12.4627  12.4751  12.4815  13.1370  13.1382
    13.3412  13.3550  13.3676  13.3683  13.3954  13.4090  13.6428  13.6444
    15.6388  15.6420  15.8674  15.8777  16.0490  16.0643  16.0746  16.0821
    16.5140  16.5159  17.8284  17.8376  17.8843

          k = 0.1667-0.4725 0.3333 ( 62252 PWs)   bands (ev):

   -66.1604 -66.1604 -66.1599 -66.1599 -66.1595 -66.1595 -66.1590 -66.1590
   -30.5478 -30.5478 -30.5448 -30.5448 -30.5374 -30.5373 -30.5330 -30.5330
   -30.4873 -30.4873 -30.4833 -30.4833 -30.4663 -30.4663 -30.4632 -30.4631
   -30.4599 -30.4599 -30.4553 -30.4553 -30.4469 -30.4468 -30.4437 -30.4437
   -20.3152 -20.3152 -20.3151 -20.3151 -20.3150 -20.3150 -20.3149 -20.3149
   -20.2923 -20.2923 -20.2919 -20.2919 -20.2918 -20.2918 -20.2914 -20.2914
   -20.2901 -20.2901 -20.2899 -20.2898 -20.2893 -20.2893 -20.2891 -20.2891
   -20.2883 -20.2883 -20.2881 -20.2881 -20.2879 -20.2879 -20.2878 -20.2878
   -20.2839 -20.2839 -20.2837 -20.2837 -20.2813 -20.2813 -20.2804 -20.2804
   -20.2785 -20.2785 -20.2779 -20.2779 -20.2771 -20.2771 -20.2758 -20.2758
   -20.2751 -20.2751 -20.2740 -20.2739 -20.2727 -20.2727 -20.2720 -20.2720
    -9.6518  -9.6518  -9.4354  -9.4353  -9.1617  -9.1614  -8.9899  -8.9898
    -8.4452  -8.4440  -8.3974  -8.3937  -8.3140  -8.3108  -8.3022  -8.3002
    -8.2107  -8.2091  -8.1446  -8.1432  -7.9001  -7.8996  -7.8475  -7.8473
     1.3821   1.3824   1.3935   1.3950   2.0799   2.0812   2.2367   2.2367
     2.7077   2.7116   3.1626   3.1771   3.2170   3.2170   3.2645   3.2918
     3.3409   3.3458   3.4541   3.4616   3.5995   3.6127   3.6709   3.7076
     3.7694   3.7697   3.8601   3.8611   4.4005   4.4094   4.5010   4.5131
     4.6113   4.6690   4.7988   4.8125   4.9589   4.9666   4.9909   5.0729
     5.2175   5.2652   5.3264   5.4355   5.7540   5.7732   6.0101   6.0276
     6.5120   6.5164   6.6691   6.6920   6.7939   6.8048   6.9017   6.9212
     6.9822   7.0381   7.1716   7.1819   7.2088   7.2227   7.4862   7.4889
     7.5021   7.5068   7.5345   7.5412   7.5465   7.5685   7.7842   7.7903
    10.5357  10.5361  11.3087  11.3115  11.3595  11.3601  11.6490  11.6508
    11.6971  11.7166  12.0138  12.0517  12.6071  12.6642  12.8268  12.8521
    12.8664  12.9064  13.1275  13.2033  13.3625  13.3804  13.4908  13.5456
    15.8043  15.8147  16.0031  16.0080  16.4206  16.4400  16.7583  16.7888
    16.8148  16.8230  17.3569  17.3717  17.7885

          k = 0.1667-0.4725-0.5000 ( 62232 PWs)   bands (ev):

   -66.1602 -66.1602 -66.1602 -66.1602 -66.1593 -66.1593 -66.1593 -66.1593
   -30.5462 -30.5462 -30.5462 -30.5462 -30.5122 -30.5122 -30.5122 -30.5122
   -30.5079 -30.5079 -30.5079 -30.5079 -30.4649 -30.4649 -30.4649 -30.4649
   -30.4581 -30.4581 -30.4581 -30.4581 -30.4455 -30.4455 -30.4455 -30.4455
   -20.3151 -20.3151 -20.3151 -20.3151 -20.3150 -20.3150 -20.3150 -20.3150
   -20.2921 -20.2921 -20.2920 -20.2920 -20.2916 -20.2916 -20.2916 -20.2916
   -20.2900 -20.2900 -20.2900 -20.2900 -20.2893 -20.2893 -20.2892 -20.2892
   -20.2881 -20.2881 -20.2881 -20.2881 -20.2880 -20.2880 -20.2879 -20.2879
   -20.2838 -20.2838 -20.2838 -20.2838 -20.2796 -20.2796 -20.2796 -20.2796
   -20.2786 -20.2786 -20.2786 -20.2786 -20.2773 -20.2773 -20.2773 -20.2773
   -20.2746 -20.2746 -20.2746 -20.2746 -20.2724 -20.2724 -20.2723 -20.2723
    -9.5165  -9.5165  -9.5164  -9.5164  -8.7839  -8.7839  -8.7821  -8.7821
    -8.7091  -8.7091  -8.7068  -8.7068  -8.2980  -8.2980  -8.2948  -8.2948
    -8.2703  -8.2703  -8.2671  -8.2671  -7.8739  -7.8739  -7.8735  -7.8735
     1.4008   1.4008   1.4016   1.4016   2.9363   2.9363   2.9410   2.9410
     3.0376   3.0376   3.0743   3.0743   3.1705   3.1705   3.2138   3.2138
     3.3082   3.3082   3.3210   3.3210   3.4613   3.4613   3.4652   3.4652
     3.6628   3.6628   3.6808   3.6808   4.3097   4.3097   4.3130   4.3130
     4.4033   4.4033   4.4150   4.4150   4.7864   4.7864   4.8884   4.8884
     5.2159   5.2159   5.3275   5.3275   5.8088   5.8088   5.8312   5.8312
     6.6644   6.6644   6.6860   6.6860   6.7849   6.7849   6.8028   6.8028
     7.2957   7.2957   7.3544   7.3544   7.3925   7.3925   7.4098   7.4098
     7.4598   7.4598   7.4885   7.4885   7.6010   7.6010   7.6317   7.6317
    11.2113  11.2113  11.2586  11.2586  11.3856  11.3856  11.4565  11.4565
    12.2203  12.2203  12.2298  12.2298  12.2523  12.2523  12.2734  12.2734
    12.8925  12.8925  12.9651  12.9651  13.3746  13.3746  13.4295  13.4295
    15.9264  15.9264  15.9376  15.9376  16.8887  16.8887  16.8919  16.8919
    17.4616  17.4616  17.4911  17.4911  17.5523

          k = 0.3333 0.0000 0.3333 ( 62316 PWs)   bands (ev):

   -66.1604 -66.1600 -66.1599 -66.1599 -66.1595 -66.1595 -66.1594 -66.1590
   -30.5384 -30.5364 -30.5355 -30.5337 -30.5308 -30.5284 -30.5266 -30.5249
   -30.4964 -30.4945 -30.4929 -30.4858 -30.4856 -30.4835 -30.4799 -30.4760
   -30.4752 -30.4717 -30.4676 -30.4636 -30.4306 -30.4278 -30.4276 -30.4250
   -20.3152 -20.3151 -20.3151 -20.3151 -20.3150 -20.3150 -20.3150 -20.3149
   -20.2930 -20.2927 -20.2927 -20.2924 -20.2917 -20.2915 -20.2913 -20.2911
   -20.2905 -20.2904 -20.2903 -20.2901 -20.2901 -20.2900 -20.2898 -20.2896
   -20.2895 -20.2893 -20.2890 -20.2888 -20.2859 -20.2857 -20.2856 -20.2853
   -20.2828 -20.2825 -20.2823 -20.2820 -20.2812 -20.2811 -20.2805 -20.2804
   -20.2795 -20.2791 -20.2789 -20.2786 -20.2770 -20.2769 -20.2762 -20.2761
   -20.2748 -20.2747 -20.2738 -20.2736 -20.2735 -20.2733 -20.2727 -20.2725
    -9.6367  -9.3828  -9.3746  -9.3592  -9.1360  -9.1036  -9.0184  -8.8998
    -8.8800  -8.7456  -8.7337  -8.7281  -8.3373  -8.2709  -8.2623  -8.2517
    -8.2386  -8.2358  -8.1552  -8.1327  -7.6815  -7.6545  -7.6519  -7.6259
     1.6176   1.6485   1.6510   1.6962   1.9644   1.9674   2.0955   2.1276
     2.1635   2.1909   2.3756   2.4906   2.9254   2.9315   2.9498   2.9753
     3.0673   3.0859   3.7152   3.7786   3.8148   3.9026   3.9391   3.9604
     4.1394   4.1431   4.1746   4.2797   4.3132   4.3161   4.4415   4.4749
     4.6980   4.7677   4.8379   4.9063   4.9166   4.9250   5.0554   5.3237
     5.3475   5.3779   5.4230   5.7091   6.0572   6.0578   6.0921   6.1486
     6.4995   6.5307   6.5430   6.5939   6.6336   6.6551   6.6645   6.6677
     6.9859   7.0901   7.0964   7.1397   7.1477   7.1666   7.2684   7.2734
     7.2964   7.4576   7.6992   7.7012   7.9248   7.9830   8.0076   8.0343
    10.6896  10.7471  10.7600  10.8168  11.0050  11.1300  12.1313  12.1583
    12.1853  12.2342  12.2486  12.2999  12.4772  12.5047  12.7381  12.7671
    12.8015  12.8853  12.9593  13.1062  13.5036  13.5652  13.5955  13.6861
    14.4674  14.7160  14.7207  15.1357  15.8887  16.5748  16.6054  16.8835
    16.8911  17.4008  17.4171  17.8288  17.8568

          k = 0.3333 0.0000-0.5000 ( 62288 PWs)   bands (ev):

   -66.1602 -66.1602 -66.1598 -66.1598 -66.1597 -66.1597 -66.1593 -66.1593
   -30.5298 -30.5298 -30.5267 -30.5266 -30.5127 -30.5127 -30.5116 -30.5116
   -30.5102 -30.5101 -30.5093 -30.5093 -30.4898 -30.4898 -30.4819 -30.4819
   -30.4754 -30.4754 -30.4667 -30.4667 -30.4292 -30.4292 -30.4263 -30.4263
   -20.3151 -20.3151 -20.3151 -20.3151 -20.3150 -20.3150 -20.3150 -20.3150
   -20.2928 -20.2928 -20.2925 -20.2925 -20.2915 -20.2915 -20.2913 -20.2913
   -20.2903 -20.2903 -20.2903 -20.2903 -20.2902 -20.2901 -20.2897 -20.2897
   -20.2894 -20.2893 -20.2889 -20.2889 -20.2858 -20.2858 -20.2856 -20.2855
   -20.2827 -20.2827 -20.2821 -20.2821 -20.2800 -20.2800 -20.2796 -20.2796
   -20.2787 -20.2787 -20.2786 -20.2786 -20.2779 -20.2779 -20.2778 -20.2778
   -20.2744 -20.2743 -20.2742 -20.2742 -20.2731 -20.2731 -20.2730 -20.2730
    -9.4661  -9.4661  -9.1943  -9.1943  -9.1410  -9.1410  -8.7733  -8.7733
    -8.7345  -8.7345  -8.6520  -8.6520  -8.5968  -8.5968  -8.5606  -8.5606
    -8.2142  -8.2142  -8.2076  -8.2076  -7.6681  -7.6681  -7.6391  -7.6390
     1.6365   1.6366   1.6801   1.6801   2.1343   2.1344   2.1787   2.1788
     2.9034   2.9034   2.9793   2.9793   3.0134   3.0134   3.1137   3.1137
     3.1711   3.1711   3.4597   3.4598   3.5895   3.5895   3.7696   3.7696
     3.7939   3.7939   4.0112   4.0112   4.1405   4.1405   4.2540   4.2540
     4.5638   4.5638   4.8153   4.8153   4.8976   4.8976   4.9975   4.9975
     5.1588   5.1588   5.5317   5.5317   6.0952   6.0952   6.1472   6.1472
     6.4778   6.4778   6.5231   6.5231   6.5977   6.5977   6.6477   6.6477
     7.1343   7.1343   7.1808   7.1808   7.2691   7.2691   7.5068   7.5068
     7.5186   7.5186   7.6880   7.6880   7.7477   7.7478   7.9920   7.9920
    10.7564  10.7564  11.4891  11.4891  11.5702  11.5703  11.6483  11.6483
[...]
   -20.4824 -20.4824 -20.4821 -20.4821 -20.4801 -20.4801 -20.4797 -20.4797
   -20.4750 -20.4750 -20.4749 -20.4749 -20.4727 -20.4727 -20.4727 -20.4727
   -20.4723 -20.4722 -20.4722 -20.4722 -20.4692 -20.4692 -20.4691 -20.4691
   -20.4676 -20.4676 -20.4675 -20.4675 -20.4658 -20.4658 -20.4655 -20.4655
    -9.6282  -9.6282  -9.4748  -9.4748  -9.1171  -9.1171  -8.8957  -8.8957
    -8.7451  -8.7450  -8.6994  -8.6993  -8.6402  -8.6401  -8.5904  -8.5904
    -8.2856  -8.2856  -8.2575  -8.2575  -7.9726  -7.9726  -7.9573  -7.9573
     1.3874   1.3874   1.3969   1.3969   2.1779   2.1779   2.2793   2.2793
     2.8616   2.8616   2.9310   2.9310   2.9654   2.9654   3.0920   3.0920
     3.1244   3.1244   3.3245   3.3245   3.3491   3.3491   3.5739   3.5739
     3.8209   3.8210   3.8685   3.8685   4.0346   4.0346   4.2249   4.2250
     4.5540   4.5540   4.6576   4.6576   4.8143   4.8143   4.8392   4.8392
     4.9425   4.9425   5.3493   5.3493   5.6862   5.6862   5.7433   5.7433
     6.5056   6.5056   6.6227   6.6227   6.6671   6.6671   6.6959   6.6959
     6.8883   6.8883   6.9467   6.9467   7.0361   7.0361   7.3762   7.3762
     7.3958   7.3958   7.4601   7.4601   7.4854   7.4854   7.7246   7.7246
    10.5553  10.5553  11.0764  11.0764  11.1197  11.1197  11.5333  11.5333
    11.7295  11.7295  11.9589  11.9589  12.4295  12.4295  12.4529  12.4529
    12.6562  12.6562  12.7520  12.7520  12.9744  12.9744  13.4397  13.4397
    15.2305  15.2305  15.7275  15.7275  16.2265  16.2265  16.3981  16.3981
    16.7456  16.7456  17.1810  17.1810  17.7304

          k = 0.3302 0.4776 0.1649 ( 62866 PWs)   bands (ev):

   -66.3437 -66.3437 -66.3433 -66.3433 -66.3430 -66.3430 -66.3426 -66.3426
   -30.6946 -30.6945 -30.6913 -30.6912 -30.6880 -30.6879 -30.6830 -30.6830
   -30.6798 -30.6797 -30.6743 -30.6743 -30.6579 -30.6578 -30.6556 -30.6555
   -30.6163 -30.6162 -30.6135 -30.6135 -30.6010 -30.6010 -30.5983 -30.5983
   -20.5090 -20.5090 -20.5089 -20.5089 -20.5087 -20.5087 -20.5087 -20.5087
   -20.4864 -20.4864 -20.4861 -20.4861 -20.4856 -20.4856 -20.4854 -20.4854
   -20.4832 -20.4832 -20.4828 -20.4828 -20.4827 -20.4827 -20.4823 -20.4823
   -20.4816 -20.4816 -20.4814 -20.4813 -20.4812 -20.4812 -20.4810 -20.4810
   -20.4752 -20.4752 -20.4748 -20.4748 -20.4742 -20.4742 -20.4739 -20.4739
   -20.4712 -20.4712 -20.4709 -20.4709 -20.4696 -20.4696 -20.4685 -20.4685
   -20.4679 -20.4679 -20.4671 -20.4670 -20.4659 -20.4659 -20.4654 -20.4654
    -9.6597  -9.6597  -9.4554  -9.4552  -9.1738  -9.1737  -8.9715  -8.9715
    -8.7130  -8.7121  -8.6328  -8.6320  -8.5925  -8.5913  -8.5843  -8.5842
    -8.2993  -8.2991  -8.2368  -8.2360  -7.9900  -7.9900  -7.9403  -7.9401
     1.3821   1.3849   1.3895   1.3918   2.0832   2.0841   2.2250   2.2281
     2.7786   2.7821   2.9765   2.9814   3.0377   3.0502   3.0975   3.1156
     3.1619   3.1738   3.2923   3.3218   3.3945   3.4141   3.5601   3.5625
     3.6220   3.6329   3.7513   3.8015   4.2045   4.2258   4.4092   4.4212
     4.4807   4.5305   4.6636   4.6815   4.7566   4.8367   4.8370   4.8537
     4.9568   5.0044   5.2033   5.2661   5.6175   5.6340   5.9370   5.9421
     6.4798   6.4940   6.5381   6.5448   6.6879   6.6891   6.8206   6.8478
     6.9320   6.9479   7.0029   7.0351   7.0795   7.0809   7.3184   7.3264
     7.3464   7.3689   7.3837   7.4003   7.4099   7.4128   7.6953   7.6992
    10.3468  10.3509  11.1439  11.1603  11.1809  11.1850  11.5483  11.5569
    11.5715  11.5864  11.7624  11.8112  12.3383  12.3859  12.5722  12.5903
    12.6618  12.6810  12.9304  13.0273  13.1208  13.1581  13.1752  13.2528
    15.4200  15.4344  15.6776  15.6893  16.1221  16.1361  16.5192  16.5420
    16.7386  16.7451  17.2488  17.2889  17.7169

          k =-0.4953 0.4776 0.1649 ( 62868 PWs)   bands (ev):

   -66.3435 -66.3435 -66.3435 -66.3435 -66.3428 -66.3428 -66.3428 -66.3428
   -30.6928 -30.6928 -30.6924 -30.6924 -30.6853 -30.6853 -30.6846 -30.6846
   -30.6765 -30.6765 -30.6761 -30.6761 -30.6385 -30.6385 -30.6376 -30.6376
   -30.6355 -30.6355 -30.6346 -30.6346 -30.5999 -30.5999 -30.5998 -30.5998
   -20.5090 -20.5090 -20.5089 -20.5089 -20.5087 -20.5087 -20.5087 -20.5087
   -20.4863 -20.4863 -20.4863 -20.4863 -20.4855 -20.4855 -20.4855 -20.4855
   -20.4829 -20.4829 -20.4829 -20.4829 -20.4826 -20.4826 -20.4826 -20.4826
   -20.4815 -20.4815 -20.4814 -20.4814 -20.4811 -20.4811 -20.4810 -20.4810
   -20.4750 -20.4750 -20.4750 -20.4750 -20.4726 -20.4726 -20.4726 -20.4726
   -20.4724 -20.4724 -20.4723 -20.4723 -20.4692 -20.4692 -20.4691 -20.4691
   -20.4676 -20.4676 -20.4675 -20.4675 -20.4657 -20.4657 -20.4657 -20.4657
    -9.5370  -9.5370  -9.5328  -9.5328  -8.8850  -8.8850  -8.8670  -8.8670
    -8.7551  -8.7551  -8.7391  -8.7391  -8.5591  -8.5591  -8.5306  -8.5306
    -8.5113  -8.5113  -8.4849  -8.4849  -7.9654  -7.9654  -7.9653  -7.9653
     1.3933   1.3933   1.3976   1.3976   2.8206   2.8207   2.9092   2.9092
     2.9517   2.9517   2.9820   2.9820   3.0744   3.0744   3.0784   3.0785
     3.1988   3.1988   3.2750   3.2750   3.3323   3.3323   3.3866   3.3866
     3.3905   3.3905   3.6308   3.6308   4.0926   4.0926   4.1508   4.1508
     4.1715   4.1715   4.2533   4.2533   4.6924   4.6925   4.8115   4.8115
     5.0042   5.0042   5.1165   5.1165   5.6914   5.6914   5.7087   5.7087
     6.5804   6.5804   6.6374   6.6374   6.6746   6.6746   6.7164   6.7164
     7.1395   7.1395   7.1599   7.1599   7.2275   7.2275   7.2894   7.2895
     7.3186   7.3186   7.4016   7.4016   7.4778   7.4778   7.5133   7.5133
    11.0387  11.0387  11.0880  11.0880  11.1671  11.1671  11.2402  11.2402
    12.0122  12.0122  12.0418  12.0418  12.1232  12.1232  12.1364  12.1364
    12.6357  12.6357  12.7058  12.7058  13.1321  13.1321  13.1881  13.1881
    15.5735  15.5735  15.5886  15.5886  16.7131  16.7131  16.7810  16.7810
    17.2678  17.2679  17.3273  17.3277  17.3968

          k =-0.4953 0.0000 0.3298 ( 62884 PWs)   bands (ev):

   -66.3436 -66.3436 -66.3432 -66.3432 -66.3431 -66.3431 -66.3427 -66.3427
   -30.7196 -30.7196 -30.7172 -30.7172 -30.6709 -30.6709 -30.6622 -30.6622
   -30.6579 -30.6579 -30.6555 -30.6555 -30.6392 -30.6392 -30.6391 -30.6391
   -30.6334 -30.6334 -30.6290 -30.6290 -30.6150 -30.6150 -30.6145 -30.6145
   -20.5089 -20.5089 -20.5089 -20.5089 -20.5088 -20.5088 -20.5087 -20.5087
   -20.4867 -20.4867 -20.4863 -20.4863 -20.4858 -20.4858 -20.4853 -20.4853
   -20.4843 -20.4843 -20.4839 -20.4839 -20.4831 -20.4831 -20.4829 -20.4829
   -20.4824 -20.4824 -20.4822 -20.4822 -20.4787 -20.4787 -20.4784 -20.4784
   -20.4739 -20.4739 -20.4738 -20.4738 -20.4729 -20.4729 -20.4726 -20.4726
   -20.4720 -20.4720 -20.4719 -20.4719 -20.4702 -20.4702 -20.4700 -20.4700
   -20.4674 -20.4674 -20.4671 -20.4671 -20.4664 -20.4664 -20.4660 -20.4660
    -9.6311  -9.6311  -9.4262  -9.4262  -9.2011  -9.2011  -8.9295  -8.9294
    -8.7506  -8.7506  -8.6784  -8.6783  -8.6374  -8.6373  -8.6178  -8.6177
    -8.2804  -8.2804  -8.2684  -8.2684  -7.9148  -7.9148  -7.8919  -7.8919
     1.2854   1.2854   1.3160   1.3160   2.1025   2.1025   2.1449   2.1449
     2.7853   2.7853   2.8931   2.8931   2.9204   2.9204   3.0613   3.0613
     3.1374   3.1374   3.4504   3.4504   3.5603   3.5603   3.6443   3.6443
     3.6947   3.6947   3.8571   3.8571   4.0150   4.0150   4.2364   4.2364
     4.5411   4.5411   4.7657   4.7658   4.8850   4.8850   4.9083   4.9083
     5.1359   5.1359   5.4180   5.4180   5.8486   5.8486   5.9302   5.9302
     6.2604   6.2604   6.2870   6.2870   6.3797   6.3797   6.4354   6.4354
     6.9861   6.9861   7.1116   7.1116   7.1804   7.1805   7.3966   7.3966
     7.4246   7.4246   7.5243   7.5243   7.5684   7.5685   7.8509   7.8509
    10.5776  10.5776  11.2239  11.2239  11.2920  11.2920  11.4116  11.4116
    11.5672  11.5672  12.0670  12.0670  12.3011  12.3011  12.4269  12.4269
    12.6747  12.6747  13.0276  13.0276  13.0581  13.0581  13.4562  13.4562
    14.6196  14.6196  14.9907  14.9907  16.1271  16.1272  16.5875  16.5875
    16.9112  16.9112  17.2717  17.2717  17.8179

          k =-0.4953-0.1592 0.3298 ( 62878 PWs)   bands (ev):

   -66.3436 -66.3435 -66.3431 -66.3431 -66.3431 -66.3431 -66.3427 -66.3427
   -30.7154 -30.7154 -30.7129 -30.7129 -30.6719 -30.6719 -30.6624 -30.6624
   -30.6611 -30.6611 -30.6574 -30.6574 -30.6391 -30.6391 -30.6389 -30.6389
   -30.6340 -30.6340 -30.6305 -30.6305 -30.6151 -30.6151 -30.6149 -30.6149
   -20.5089 -20.5089 -20.5089 -20.5089 -20.5088 -20.5088 -20.5087 -20.5087
   -20.4866 -20.4866 -20.4862 -20.4862 -20.4858 -20.4858 -20.4853 -20.4853
   -20.4840 -20.4840 -20.4836 -20.4836 -20.4831 -20.4831 -20.4829 -20.4829
   -20.4824 -20.4824 -20.4822 -20.4822 -20.4790 -20.4790 -20.4788 -20.4788
   -20.4739 -20.4739 -20.4738 -20.4738 -20.4729 -20.4729 -20.4726 -20.4726
   -20.4721 -20.4720 -20.4720 -20.4720 -20.4702 -20.4702 -20.4700 -20.4700
   -20.4674 -20.4674 -20.4671 -20.4671 -20.4664 -20.4664 -20.4660 -20.4660
    -9.5784  -9.5784  -9.3550  -9.3550  -9.2116  -9.2116  -8.9048  -8.9048
    -8.7601  -8.7601  -8.6749  -8.6749  -8.6347  -8.6347  -8.6156  -8.6156
    -8.2785  -8.2785  -8.2734  -8.2734  -8.0183  -8.0183  -7.9955  -7.9955
     1.5212   1.5212   1.5556   1.5556   2.1021   2.1021   2.1531   2.1531
     2.8456   2.8456   2.9173   2.9173   2.9422   2.9423   3.0692   3.0692
     3.1400   3.1400   3.4761   3.4761   3.5715   3.5715   3.6783   3.6783
     3.6946   3.6946   3.8988   3.8988   3.9977   3.9977   4.2439   4.2439
     4.4114   4.4115   4.5612   4.5612   4.8190   4.8190   4.8588   4.8588
     4.8972   4.8972   5.1771   5.1771   5.5938   5.5938   5.7051   5.7051
     6.4179   6.4179   6.4452   6.4452   6.5106   6.5106   6.6326   6.6326
     6.9950   6.9950   7.1066   7.1066   7.1840   7.1840   7.3939   7.3939
     7.4190   7.4190   7.5090   7.5090   7.5513   7.5513   7.7997   7.7997
    10.6865  10.6865  11.2582  11.2582  11.3458  11.3458  11.4369  11.4369
    11.6084  11.6084  12.0985  12.0985  12.2977  12.2978  12.4406  12.4406
    12.5252  12.5252  12.8981  12.8981  12.9267  12.9267  13.3382  13.3382
    14.9913  14.9913  15.3788  15.3788  16.2092  16.2092  16.5876  16.5876
    16.9193  16.9193  17.2986  17.2986  17.6538

          k =-0.4953-0.3184 0.3298 ( 62838 PWs)   bands (ev):

   -66.3435 -66.3435 -66.3432 -66.3432 -66.3430 -66.3430 -66.3428 -66.3428
   -30.7042 -30.7042 -30.7014 -30.7014 -30.6772 -30.6772 -30.6711 -30.6711
   -30.6626 -30.6626 -30.6611 -30.6611 -30.6385 -30.6385 -30.6382 -30.6382
   -30.6353 -30.6353 -30.6334 -30.6334 -30.6155 -30.6155 -30.6154 -30.6154
   -20.5089 -20.5089 -20.5089 -20.5089 -20.5088 -20.5088 -20.5087 -20.5087
   -20.4863 -20.4863 -20.4860 -20.4860 -20.4859 -20.4859 -20.4855 -20.4855
   -20.4832 -20.4832 -20.4830 -20.4830 -20.4829 -20.4829 -20.4828 -20.4828
   -20.4824 -20.4824 -20.4822 -20.4822 -20.4801 -20.4801 -20.4798 -20.4798
   -20.4738 -20.4738 -20.4738 -20.4738 -20.4728 -20.4728 -20.4726 -20.4726
   -20.4722 -20.4722 -20.4721 -20.4721 -20.4701 -20.4701 -20.4700 -20.4700
   -20.4673 -20.4673 -20.4672 -20.4672 -20.4663 -20.4663 -20.4661 -20.4661
    -9.4504  -9.4504  -9.2478  -9.2478  -9.1622  -9.1622  -8.8251  -8.8251
    -8.7942  -8.7941  -8.6698  -8.6698  -8.6219  -8.6218  -8.5982  -8.5981
    -8.3203  -8.3203  -8.2770  -8.2770  -8.2665  -8.2665  -8.2097  -8.2097
     2.0149   2.0149   2.1003   2.1003   2.1881   2.1881   2.3177   2.3177
     2.9248   2.9248   2.9647   2.9647   3.0445   3.0445   3.1019   3.1019
     3.1787   3.1787   3.5108   3.5108   3.5564   3.5564   3.6529   3.6529
     3.7978   3.7978   3.9002   3.9003   4.0206   4.0206   4.0548   4.0548
     4.1666   4.1666   4.3242   4.3242   4.4371   4.4371   4.6758   4.6758
     4.7549   4.7549   4.8515   4.8515   4.8708   4.8708   5.1712   5.1712
     6.7315   6.7315   6.7902   6.7902   6.8563   6.8563   6.8951   6.8951
     7.0191   7.0191   7.1002   7.1002   7.2066   7.2066   7.3621   7.3621
     7.3946   7.3946   7.4686   7.4687   7.4918   7.4918   7.6495   7.6495
    11.0018  11.0018  11.3146  11.3146  11.3941  11.3941  11.6082  11.6082
    11.7773  11.7773  12.1144  12.1144  12.1938  12.1938  12.2718  12.2718
    12.4915  12.4915  12.5915  12.5915  12.6106  12.6106  13.0505  13.0505
    15.8312  15.8312  16.3100  16.3100  16.4659  16.4659  16.5810  16.5810
    16.9657  16.9657  17.2587  17.2587  17.4475

          k =-0.4953 0.4776 0.3298 ( 62828 PWs)   bands (ev):

   -66.3433 -66.3433 -66.3433 -66.3433 -66.3429 -66.3429 -66.3429 -66.3429
   -30.6898 -30.6898 -30.6892 -30.6892 -30.6863 -30.6863 -30.6856 -30.6856
   -30.6627 -30.6627 -30.6625 -30.6625 -30.6381 -30.6380 -30.6374 -30.6374
   -30.6361 -30.6361 -30.6351 -30.6351 -30.6157 -30.6157 -30.6156 -30.6156
   -20.5089 -20.5089 -20.5089 -20.5089 -20.5087 -20.5087 -20.5087 -20.5087
   -20.4861 -20.4861 -20.4861 -20.4861 -20.4857 -20.4857 -20.4857 -20.4857
   -20.4829 -20.4829 -20.4829 -20.4828 -20.4826 -20.4826 -20.4826 -20.4826
   -20.4815 -20.4815 -20.4814 -20.4814 -20.4813 -20.4813 -20.4812 -20.4812
   -20.4738 -20.4738 -20.4738 -20.4738 -20.4727 -20.4727 -20.4726 -20.4726
   -20.4722 -20.4722 -20.4721 -20.4721 -20.4701 -20.4701 -20.4701 -20.4701
   -20.4673 -20.4673 -20.4673 -20.4673 -20.4662 -20.4662 -20.4662 -20.4662
    -9.3273  -9.3273  -9.3208  -9.3208  -8.9413  -8.9413  -8.9242  -8.9242
    -8.7026  -8.7026  -8.6868  -8.6868  -8.5523  -8.5523  -8.5319  -8.5319
    -8.5094  -8.5093  -8.4926  -8.4926  -8.2618  -8.2618  -8.2610  -8.2610
     2.0879   2.0879   2.0967   2.0967   2.8395   2.8395   2.8880   2.8881
     2.9708   2.9708   2.9823   2.9823   3.0807   3.0807   3.1028   3.1028
     3.2662   3.2662   3.3012   3.3012   3.4667   3.4667   3.5197   3.5197
     3.6261   3.6261   3.7427   3.7427   4.0762   4.0762   4.0899   4.0899
     4.1369   4.1369   4.1997   4.1997   4.2899   4.2899   4.3647   4.3647
     4.5136   4.5136   4.6268   4.6268   4.8819   4.8819   4.9021   4.9021
     6.8594   6.8594   6.9434   6.9434   7.0095   7.0095   7.0182   7.0182
     7.1278   7.1278   7.1839   7.1839   7.2549   7.2549   7.2588   7.2588
     7.3373   7.3373   7.4175   7.4175   7.4654   7.4654   7.5117   7.5117
    11.2937  11.2937  11.3372  11.3372  11.4962  11.4962  11.5864  11.5864
    11.9997  11.9997  12.0512  12.0512  12.0852  12.0852  12.1501  12.1501
    12.2991  12.2991  12.4362  12.4362  12.6922  12.6922  12.7762  12.7762
    16.3733  16.3733  16.4178  16.4178  16.8976  16.8976  16.9480  16.9480
    17.2412  17.2412  17.3367  17.3370  17.3877

     the Fermi energy is     8.8333 ev

!    total energy              =   -6261.10936317 Ry
     Harris-Foulkes estimate   =   -6261.10936317 Ry
     estimated scf accuracy    <          1.1E-11 Ry

     The total energy is the sum of the following terms:

     one-electron contribution =   -4759.77241731 Ry
     hartree contribution      =    2614.41281493 Ry
     xc contribution           =    -965.66878837 Ry
     ewald contribution        =   -3150.08097242 Ry
     smearing contrib. (-TS)   =      -0.00000000 Ry

     convergence has been achieved in  15 iterations

     Forces acting on atoms (cartesian axes, Ry/au):

     atom    1 type  1   force =    -0.00457508    0.00809971    0.00377009
     atom    2 type  1   force =     0.00457508   -0.00809971   -0.00377009
     atom    3 type  1   force =     0.00457508   -0.00809971    0.00377009
     atom    4 type  1   force =    -0.00457508    0.00809971   -0.00377009
     atom    5 type  1   force =     0.00457508    0.00809971   -0.00377009
     atom    6 type  1   force =    -0.00457508   -0.00809971    0.00377009
     atom    7 type  1   force =    -0.00457508   -0.00809971   -0.00377009
     atom    8 type  1   force =     0.00457508    0.00809971    0.00377009
     atom    9 type  2   force =    -0.00019135   -0.00403118   -0.00017160
     atom   10 type  2   force =     0.00019135    0.00403118    0.00017160
     atom   11 type  2   force =     0.00019135    0.00403118   -0.00017160
     atom   12 type  2   force =    -0.00019135   -0.00403118    0.00017160
     atom   13 type  2   force =     0.00019135   -0.00403118    0.00017160
     atom   14 type  2   force =    -0.00019135    0.00403118   -0.00017160
     atom   15 type  2   force =    -0.00019135    0.00403118    0.00017160
     atom   16 type  2   force =     0.00019135   -0.00403118   -0.00017160
     atom   17 type  2   force =    -0.00244277   -0.00038978   -0.00050584
     atom   18 type  2   force =     0.00244277    0.00038978    0.00050584
     atom   19 type  2   force =     0.00244277    0.00038978   -0.00050584
     atom   20 type  2   force =    -0.00244277   -0.00038978    0.00050584
     atom   21 type  2   force =     0.00244277   -0.00038978    0.00050584
     atom   22 type  2   force =    -0.00244277    0.00038978   -0.00050584
     atom   23 type  2   force =    -0.00244277    0.00038978    0.00050584
     atom   24 type  2   force =     0.00244277   -0.00038978   -0.00050584
     atom   25 type  2   force =    -0.00154179   -0.00001184    0.00280292
     atom   26 type  2   force =     0.00154179    0.00001184   -0.00280292
     atom   27 type  2   force =     0.00154179    0.00001184    0.00280292
     atom   28 type  2   force =    -0.00154179   -0.00001184   -0.00280292
     atom   29 type  2   force =     0.00154179   -0.00001184   -0.00280292
     atom   30 type  2   force =    -0.00154179    0.00001184    0.00280292
     atom   31 type  2   force =    -0.00154179    0.00001184   -0.00280292
     atom   32 type  2   force =     0.00154179   -0.00001184    0.00280292

     Total force =     0.000000     Total SCF correction =     0.000000


     Computing stress (Cartesian axis) and pressure

          total   stress  (Ry/bohr**3)                   (kbar)     P=    0.38
   0.00000384   0.00000000   0.00000000          0.56      0.00      0.00
   0.00000000  -0.00000038   0.00000000          0.00     -0.06      0.00
   0.00000000   0.00000000   0.00000433          0.00      0.00      0.64


     Writing output data file Landau_18.save
 
     init_run     :    103.83s CPU    107.24s WALL (       2 calls)
     electrons    :  12847.65s CPU  13128.98s WALL (       7 calls)
     update_pot   :    112.44s CPU    112.88s WALL (       5 calls)
     forces       :    235.09s CPU    238.60s WALL (       7 calls)
     stress       :   1417.46s CPU   1440.23s WALL (       7 calls)

     Called by init_run:
     wfcinit      :     83.37s CPU     86.43s WALL (       2 calls)
     potinit      :      8.66s CPU      8.75s WALL (       2 calls)

     Called by electrons:
     c_bands      :  11623.27s CPU  11889.40s WALL (      92 calls)
     sum_band     :   1155.01s CPU   1164.35s WALL (      92 calls)
     v_of_rho     :      9.83s CPU     10.04s WALL (      97 calls)
     mix_rho      :     17.91s CPU     22.32s WALL (      92 calls)

     Called by c_bands:
     init_us_2    :     76.71s CPU     81.23s WALL (     400 calls)
     cegterg      :   9681.00s CPU   9930.15s WALL (     184 calls)

     Called by sum_band:

     Called by *egterg:
     h_psi        :   6913.79s CPU   6963.09s WALL (     755 calls)
     g_psi        :     10.81s CPU     10.91s WALL (     567 calls)
     cdiaghg      :    120.04s CPU    120.56s WALL (     737 calls)

     Called by h_psi:
     h_psi:pot    :   6881.79s CPU   6929.74s WALL (     755 calls)
     h_psi:calbec :   1103.62s CPU   1129.11s WALL (     755 calls)
     vloc_psi     :   4640.22s CPU   4655.40s WALL (     755 calls)
     add_vuspsi   :   1137.94s CPU   1145.21s WALL (     755 calls)

     General routines
     calbec       :   1272.08s CPU   1298.28s WALL (     825 calls)
     fft          :      9.23s CPU      9.26s WALL (     446 calls)
     fftw         :   4940.80s CPU   4954.37s WALL (  237500 calls)
 
     Parallel routines
 
     PWSCF        :     4h 5m CPU        4h10m WALL

 
   This run was terminated on:  19:49:54  13Mar2020            

=------------------------------------------------------------------------------=
   JOB DONE.
=------------------------------------------------------------------------------=
