
     Program PWSCF v.6.2 (svn rev. 14038) starts on  8Mar2020 at 20:29:31 

     This program is part of the open-source Quantum ESPRESSO suite
     for quantum simulation of materials; please cite
         "P. Giannozzi et al., J. Phys.:Condens. Matter 21 395502 (2009);
         "P. Giannozzi et al., J. Phys.:Condens. Matter 29 465901 (2017);
          URL http://www.quantum-espresso.org", 
     in publications or presentations arising from this work. More details at
     http://www.quantum-espresso.org/quote

     Parallel version (MPI), running on    40 processors

     MPI processes distributed on     4 nodes
     K-points division:     npool     =      40
     Reading input from rscf.in

     Current dimensions of program PWSCF are:
     Max number of different atomic species (ntypx) = 10
     Max number of k-points (npk) =  40000
     Max angular momentum in pseudopotentials (lmaxx) =  3

     Subspace diagonalization in iterative solution of the eigenvalue problem:
     a serial algorithm will be used

 
     G-vector sticks info
     --------------------
     sticks:   dense  smooth     PW     G-vecs:    dense   smooth      PW
     Sum        7305    7305   1941               498127   498127   69057
 


     bravais-lattice index     =            0
     lattice parameter (alat)  =      13.8397  a.u.
     unit-cell volume          =    2804.9816 (a.u.)^3
     number of atoms/cell      =           32
     number of atomic types    =            2
     number of electrons       =       368.00
     number of Kohn-Sham states=          221
     kinetic-energy cutoff     =     120.0000  Ry
     charge density cutoff     =     480.0000  Ry
     convergence threshold     =      1.0E-08
     mixing beta               =       0.7000
     number of iterations used =            8  plain     mixing
     Exchange-correlation      = SLA PW NOGX NOGC ( 1  4  0  0 0 0)
     nstep                     =           50


     celldm(1)=  13.839685  celldm(2)=   0.000000  celldm(3)=   0.000000
     celldm(4)=   0.000000  celldm(5)=   0.000000  celldm(6)=   0.000000

     crystal axes: (cart. coord. in units of alat)
               a(1) = (   1.000000   0.000000   0.000000 )  
               a(2) = (   0.000000   1.000000   0.000000 )  
               a(3) = (   0.000000   0.000000   1.058160 )  

     reciprocal axes: (cart. coord. in units 2 pi/alat)
               b(1) = (  1.000000  0.000000  0.000000 )  
               b(2) = (  0.000000  1.000000  0.000000 )  
               b(3) = (  0.000000  0.000000  0.945037 )  


     PseudoPot. # 1 for W  read from file:
     /cluster/scratch/mnoe/QE/pps/W_ONCV_LDA-4.0.upf
     MD5 check sum: ba0307d5d4cd419d6f1d13dc49d7c13a
     Pseudo is Norm-conserving + core correction, Zval = 28.0
     Generated using ONCVPSP code by D. R. Hamann
     Using radial grid of 1380 points,  8 beta functions with: 
                l(1) =   0
                l(2) =   0
                l(3) =   1
                l(4) =   1
                l(5) =   2
                l(6) =   2
                l(7) =   3
                l(8) =   3

     PseudoPot. # 2 for O  read from file:
     /cluster/scratch/mnoe/QE/pps/O_ONCV_LDA-3.0.upf
     MD5 check sum: a1bd6164e7280c17a38c229939bfbd54
     Pseudo is Norm-conserving + core correction, Zval =  6.0
     Generated using ONCVPSP code by D. R. Hamann
     Using radial grid of  926 points,  5 beta functions with: 
                l(1) =   0
                l(2) =   0
                l(3) =   1
                l(4) =   1
                l(5) =   2

     atomic species   valence    mass     pseudopotential
        W             28.00   183.84000     W ( 1.00)
        O              6.00    15.99940     O ( 1.00)

      8 Sym. Ops. (no inversion) found ( 4 have fractional translation)



   Cartesian axes

     site n.     atom                  positions (alat units)
         1           W   tau(   1) = (   0.2435000   0.2431600   0.2308059  )
         2           W   tau(   2) = (   0.7565000   0.7568400   0.2308059  )
         3           W   tau(   3) = (   0.2431600   0.7565000   0.8273542  )
         4           W   tau(   4) = (   0.7568400   0.2435000   0.8273542  )
         5           W   tau(   5) = (   0.2565000   0.7431600   0.2982742  )
         6           W   tau(   6) = (   0.7435000   0.2568400   0.2982742  )
         7           W   tau(   7) = (   0.2568400   0.2565000   0.7598859  )
         8           W   tau(   8) = (   0.7431600   0.7435000   0.7598859  )
         9           O   tau(   9) = (   0.2361400   0.2362100   0.5202656  )
        10           O   tau(  10) = (   0.7638600   0.7637900   0.5202656  )
        11           O   tau(  11) = (   0.2362100   0.7638600   0.5378945  )
        12           O   tau(  12) = (   0.7637900   0.2361400   0.5378945  )
        13           O   tau(  13) = (   0.2638600   0.7362100   0.0088145  )
        14           O   tau(  14) = (   0.7361400   0.2637900   0.0088145  )
        15           O   tau(  15) = (   0.2637900   0.2638600   1.0493456  )
        16           O   tau(  16) = (   0.7362100   0.7361400   1.0493456  )
        17           O   tau(  17) = (   0.1994100   0.4981100   0.2769416  )
        18           O   tau(  18) = (   0.8005900   0.5018900   0.2769416  )
        19           O   tau(  19) = (   0.4981100   0.8005900   0.7812184  )
        20           O   tau(  20) = (   0.5018900   0.1994100   0.7812184  )
        21           O   tau(  21) = (   0.3005900   0.9981100   0.2521384  )
        22           O   tau(  22) = (   0.6994100   0.0018900   0.2521384  )
        23           O   tau(  23) = (   0.0018900   0.3005900   0.8060217  )
        24           O   tau(  24) = (   0.9981100   0.6994100   0.8060217  )
        25           O   tau(  25) = (   0.9971100   0.1994100   0.2470275  )
        26           O   tau(  26) = (   0.0028900   0.8005900   0.2470275  )
        27           O   tau(  27) = (   0.1994100   0.0028900   0.8111326  )
        28           O   tau(  28) = (   0.8005900   0.9971100   0.8111326  )
        29           O   tau(  29) = (   0.5028900   0.6994100   0.2820526  )
        30           O   tau(  30) = (   0.4971100   0.3005900   0.2820526  )
        31           O   tau(  31) = (   0.3005900   0.5028900   0.7761075  )
        32           O   tau(  32) = (   0.6994100   0.4971100   0.7761075  )

     number of k points=    40  gaussian smearing, width (Ry)=  0.0007
                       cart. coord. in units 2pi/alat
        k(    1) = (   0.0000000   0.0000000   0.0000000), wk =   0.0092593
        k(    2) = (   0.0000000   0.0000000   0.1575061), wk =   0.0185185
        k(    3) = (   0.0000000   0.0000000   0.3150122), wk =   0.0185185
        k(    4) = (   0.0000000   0.0000000  -0.4725183), wk =   0.0092593
        k(    5) = (   0.0000000   0.1666667   0.0000000), wk =   0.0370370
        k(    6) = (   0.0000000   0.1666667   0.1575061), wk =   0.0740741
        k(    7) = (   0.0000000   0.1666667   0.3150122), wk =   0.0740741
        k(    8) = (   0.0000000   0.1666667  -0.4725183), wk =   0.0370370
        k(    9) = (   0.0000000   0.3333333   0.0000000), wk =   0.0370370
        k(   10) = (   0.0000000   0.3333333   0.1575061), wk =   0.0740741
        k(   11) = (   0.0000000   0.3333333   0.3150122), wk =   0.0740741
        k(   12) = (   0.0000000   0.3333333  -0.4725183), wk =   0.0370370
        k(   13) = (   0.0000000  -0.5000000   0.0000000), wk =   0.0185185
        k(   14) = (   0.0000000  -0.5000000   0.1575061), wk =   0.0370370
        k(   15) = (   0.0000000  -0.5000000   0.3150122), wk =   0.0370370
        k(   16) = (   0.0000000  -0.5000000  -0.4725183), wk =   0.0185185
        k(   17) = (   0.1666667   0.1666667   0.0000000), wk =   0.0370370
        k(   18) = (   0.1666667   0.1666667   0.1575061), wk =   0.0740741
        k(   19) = (   0.1666667   0.1666667   0.3150122), wk =   0.0740741
        k(   20) = (   0.1666667   0.1666667  -0.4725183), wk =   0.0370370
        k(   21) = (   0.1666667   0.3333333   0.0000000), wk =   0.0740741
        k(   22) = (   0.1666667   0.3333333   0.1575061), wk =   0.1481481
        k(   23) = (   0.1666667   0.3333333   0.3150122), wk =   0.1481481
        k(   24) = (   0.1666667   0.3333333  -0.4725183), wk =   0.0740741
        k(   25) = (   0.1666667  -0.5000000   0.0000000), wk =   0.0370370
        k(   26) = (   0.1666667  -0.5000000   0.1575061), wk =   0.0740741
        k(   27) = (   0.1666667  -0.5000000   0.3150122), wk =   0.0740741
        k(   28) = (   0.1666667  -0.5000000  -0.4725183), wk =   0.0370370
        k(   29) = (   0.3333333   0.3333333   0.0000000), wk =   0.0370370
        k(   30) = (   0.3333333   0.3333333   0.1575061), wk =   0.0740741
        k(   31) = (   0.3333333   0.3333333   0.3150122), wk =   0.0740741
        k(   32) = (   0.3333333   0.3333333  -0.4725183), wk =   0.0370370
        k(   33) = (   0.3333333  -0.5000000   0.0000000), wk =   0.0370370
        k(   34) = (   0.3333333  -0.5000000   0.1575061), wk =   0.0740741
        k(   35) = (   0.3333333  -0.5000000   0.3150122), wk =   0.0740741
        k(   36) = (   0.3333333  -0.5000000  -0.4725183), wk =   0.0370370
        k(   37) = (  -0.5000000  -0.5000000   0.0000000), wk =   0.0092593
        k(   38) = (  -0.5000000  -0.5000000   0.1575061), wk =   0.0185185
        k(   39) = (  -0.5000000  -0.5000000   0.3150122), wk =   0.0185185
        k(   40) = (  -0.5000000  -0.5000000  -0.4725183), wk =   0.0092593

     Dense  grid:   498127 G-vectors     FFT dimensions: ( 100, 100, 108)

     Estimated max dynamical RAM per process >       2.74 GB

     Estimated total dynamical RAM >     109.40 GB

     Initial potential from superposition of free atoms

     starting charge  367.99656, renormalised to  368.00000
     Starting wfc are  232 randomized atomic wfcs

     total cpu time spent up to now is       46.0 secs

     Self-consistent Calculation

     iteration #  1     ecut=   120.00 Ry     beta= 0.70
     Davidson diagonalization with overlap
     ethr =  1.00E-02,  avg # of iterations =  5.0

     total cpu time spent up to now is      135.1 secs

     total energy              =   -6253.93534046 Ry
     Harris-Foulkes estimate   =   -6264.58173405 Ry
     estimated scf accuracy    <      13.47203722 Ry

     iteration #  2     ecut=   120.00 Ry     beta= 0.70
     Davidson diagonalization with overlap
     ethr =  3.66E-03,  avg # of iterations =  3.4

     total cpu time spent up to now is      221.7 secs

     total energy              =   -6250.58529174 Ry
     Harris-Foulkes estimate   =   -6271.01003058 Ry
     estimated scf accuracy    <      55.29918658 Ry

     iteration #  3     ecut=   120.00 Ry     beta= 0.70
     Davidson diagonalization with overlap
     ethr =  3.66E-03,  avg # of iterations =  3.4

     total cpu time spent up to now is      303.3 secs

     total energy              =   -6261.08160692 Ry
     Harris-Foulkes estimate   =   -6261.39795967 Ry
     estimated scf accuracy    <       1.03327715 Ry

     iteration #  4     ecut=   120.00 Ry     beta= 0.70
     Davidson diagonalization with overlap
     ethr =  2.81E-04,  avg # of iterations =  2.6

     total cpu time spent up to now is      370.8 secs

     total energy              =   -6261.09888477 Ry
     Harris-Foulkes estimate   =   -6261.17520777 Ry
     estimated scf accuracy    <       0.26791575 Ry

     iteration #  5     ecut=   120.00 Ry     beta= 0.70
     Davidson diagonalization with overlap
     ethr =  7.28E-05,  avg # of iterations =  4.9

     total cpu time spent up to now is      441.5 secs

     total energy              =   -6261.08923089 Ry
     Harris-Foulkes estimate   =   -6261.12824470 Ry
     estimated scf accuracy    <       0.08503506 Ry

     iteration #  6     ecut=   120.00 Ry     beta= 0.70
     Davidson diagonalization with overlap
     ethr =  2.31E-05,  avg # of iterations =  5.2

     total cpu time spent up to now is      517.3 secs

     total energy              =   -6261.10828231 Ry
     Harris-Foulkes estimate   =   -6261.11015796 Ry
     estimated scf accuracy    <       0.00532037 Ry

     iteration #  7     ecut=   120.00 Ry     beta= 0.70
     Davidson diagonalization with overlap
     ethr =  1.45E-06,  avg # of iterations =  5.2

     total cpu time spent up to now is      588.3 secs

     total energy              =   -6261.10886023 Ry
     Harris-Foulkes estimate   =   -6261.10897214 Ry
     estimated scf accuracy    <       0.00026338 Ry

     iteration #  8     ecut=   120.00 Ry     beta= 0.70
     Davidson diagonalization with overlap
     ethr =  7.16E-08,  avg # of iterations =  3.1

     total cpu time spent up to now is      665.1 secs

     total energy              =   -6261.10892005 Ry
     Harris-Foulkes estimate   =   -6261.10893206 Ry
     estimated scf accuracy    <       0.00002696 Ry

     iteration #  9     ecut=   120.00 Ry     beta= 0.70
     Davidson diagonalization with overlap
     ethr =  7.33E-09,  avg # of iterations =  2.9

     total cpu time spent up to now is      740.0 secs

     total energy              =   -6261.10892625 Ry
     Harris-Foulkes estimate   =   -6261.10892934 Ry
     estimated scf accuracy    <       0.00001221 Ry

     iteration # 10     ecut=   120.00 Ry     beta= 0.70
     Davidson diagonalization with overlap
     ethr =  3.32E-09,  avg # of iterations =  2.0

     total cpu time spent up to now is      804.5 secs

     total energy              =   -6261.10892563 Ry
     Harris-Foulkes estimate   =   -6261.10892731 Ry
     estimated scf accuracy    <       0.00000373 Ry

     iteration # 11     ecut=   120.00 Ry     beta= 0.70
     Davidson diagonalization with overlap
     ethr =  1.01E-09,  avg # of iterations =  2.9

     total cpu time spent up to now is      875.9 secs

     total energy              =   -6261.10892643 Ry
     Harris-Foulkes estimate   =   -6261.10892646 Ry
     estimated scf accuracy    <       0.00000008 Ry

     iteration # 12     ecut=   120.00 Ry     beta= 0.70
     Davidson diagonalization with overlap
     ethr =  2.26E-11,  avg # of iterations =  2.0

     total cpu time spent up to now is      953.2 secs

     total energy              =   -6261.10892644 Ry
     Harris-Foulkes estimate   =   -6261.10892645 Ry
     estimated scf accuracy    <       0.00000002 Ry

     iteration # 13     ecut=   120.00 Ry     beta= 0.70
     Davidson diagonalization with overlap
     ethr =  5.48E-12,  avg # of iterations =  2.0

     total cpu time spent up to now is     1016.8 secs

     End of self-consistent calculation

          k = 0.0000 0.0000 0.0000 ( 62239 PWs)   bands (ev):

   -66.1868 -66.1864 -66.1858 -66.1858 -66.1854 -66.1854 -66.1848 -66.1844
   -30.5578 -30.5505 -30.5505 -30.5426 -30.5414 -30.5333 -30.5327 -30.5317
   -30.5317 -30.5253 -30.5243 -30.5243 -30.4878 -30.4863 -30.4863 -30.4844
   -30.4379 -30.4379 -30.4344 -30.4339 -30.4298 -30.4298 -30.4262 -30.4248
   -20.3532 -20.3530 -20.3529 -20.3529 -20.3528 -20.3528 -20.3526 -20.3525
   -20.3324 -20.3322 -20.3317 -20.3317 -20.3313 -20.3312 -20.3312 -20.3310
   -20.3308 -20.3308 -20.3306 -20.3305 -20.3295 -20.3287 -20.3287 -20.3285
   -20.3280 -20.3280 -20.3280 -20.3275 -20.3247 -20.3243 -20.3243 -20.3240
   -20.3196 -20.3194 -20.3190 -20.3190 -20.3184 -20.3184 -20.3182 -20.3182
   -20.3128 -20.3127 -20.3127 -20.3125 -20.3124 -20.3124 -20.3115 -20.3113
   -20.3113 -20.3110 -20.3101 -20.3101 -20.3090 -20.3090 -20.3082 -20.3079
    -9.9402  -9.6799  -9.4826  -9.4826  -9.2447  -9.2447  -9.0546  -9.0411
    -8.9835  -8.8160  -8.7963  -8.7963  -7.8675  -7.8059  -7.7935  -7.7838
    -7.7674  -7.7609  -7.7609  -7.6959  -7.6553  -7.6553  -7.6309  -7.6309
     1.2051   1.2070   1.2972   1.2972   1.3056   1.3056   1.4439   1.6457
     1.7211   1.7211   1.7253   1.8975   2.3747   2.4512   2.6149   2.6281
     2.7722   2.7722   4.1710   4.1710   4.3690   4.3909   4.8090   4.8090
     4.8118   4.8441   4.8441   4.9218   5.1035   5.1035   5.1702   5.4727
     5.4937   5.5269   5.5269   5.5539   5.5539   5.6177   5.6177   5.8633
     5.8633   5.8750   5.8794   5.8969   5.9460   5.9532   6.0400   6.0946
     6.0998   6.2338   6.2585   6.5522   6.5522   6.8214   6.8735   6.8735
     6.8941   6.8963   6.9802   6.9941   7.0557   7.0557   7.3216   7.3216
     7.3916   7.3916   7.7351   7.7521   8.0500   8.0500   8.0860   8.1369
     9.3310   9.3390   9.9686  10.0243  10.0243  10.0374  12.1812  12.1812
    12.2435  12.2435  12.3617  12.3617  12.4846  12.4907  12.6147  12.7744
    13.1042  13.3016  13.3016  13.3162  13.5929  13.8885  13.8885  14.0657
    14.2472  14.4756  14.4756  14.9094  15.3529  15.4080  15.4284  16.0109
    16.0109  16.7255  16.9593  16.9593  17.5046

          k = 0.0000 0.0000 0.1575 ( 62231 PWs)   bands (ev):

   -66.1868 -66.1865 -66.1858 -66.1858 -66.1854 -66.1854 -66.1848 -66.1844
   -30.5554 -30.5478 -30.5478 -30.5417 -30.5389 -30.5331 -30.5328 -30.5315
   -30.5315 -30.5240 -30.5236 -30.5236 -30.4914 -30.4898 -30.4898 -30.4880
   -30.4378 -30.4378 -30.4343 -30.4339 -30.4299 -30.4299 -30.4262 -30.4251
   -20.3532 -20.3531 -20.3529 -20.3529 -20.3528 -20.3528 -20.3526 -20.3525
   -20.3324 -20.3322 -20.3317 -20.3317 -20.3312 -20.3312 -20.3311 -20.3310
   -20.3306 -20.3306 -20.3306 -20.3302 -20.3295 -20.3287 -20.3287 -20.3284
   -20.3281 -20.3278 -20.3278 -20.3274 -20.3250 -20.3246 -20.3246 -20.3243
   -20.3196 -20.3194 -20.3190 -20.3190 -20.3185 -20.3184 -20.3182 -20.3182
   -20.3128 -20.3127 -20.3127 -20.3125 -20.3124 -20.3124 -20.3115 -20.3113
   -20.3113 -20.3110 -20.3101 -20.3101 -20.3090 -20.3090 -20.3082 -20.3079
    -9.9145  -9.6910  -9.4524  -9.4524  -9.2519  -9.2519  -9.0537  -9.0420
    -8.9121  -8.7683  -8.7536  -8.7536  -7.9260  -7.8522  -7.8522  -7.8111
    -7.8060  -7.7982  -7.7936  -7.7730  -7.6585  -7.6585  -7.6322  -7.6322
     1.2051   1.2067   1.3010   1.3010   1.3056   1.3056   1.5388   1.6450
     1.8937   1.9511   1.9511   2.0993   2.3797   2.4460   2.6852   2.6989
     2.8383   2.8383   4.0423   4.0424   4.1181   4.1360   4.7165   4.8067
     4.8067   4.8377   4.8377   4.9823   5.0458   5.0458   5.0951   5.3372
     5.3372   5.4790   5.4791   5.6258   5.6258   5.6329   5.6475   5.6759
     5.8132   5.8237   5.9199   5.9355   5.9355   5.9709   6.0439   6.0764
     6.1015   6.2396   6.2508   6.5775   6.5775   6.8023   6.8466   6.8919
     6.8919   6.9100   6.9167   6.9732   6.9744   6.9744   7.3300   7.3300
     7.3936   7.3936   7.7384   7.7515   8.0173   8.0173   8.0267   8.0583
     9.3351   9.3413  10.1698  10.1967  10.1967  10.2299  12.1300  12.1300
    12.2039  12.2039  12.3299  12.3326  12.3504  12.3504  12.6282  12.7697
    13.1409  13.3042  13.3042  13.3448  13.7598  13.8765  13.8765  13.9803
    14.3098  14.6676  14.6676  15.0526  15.4081  15.4241  15.7490  15.9769
    15.9769  16.4640  17.0842  17.0842  17.5109

          k = 0.0000 0.0000 0.3150 ( 62175 PWs)   bands (ev):

   -66.1867 -66.1865 -66.1857 -66.1857 -66.1855 -66.1855 -66.1847 -66.1845
   -30.5500 -30.5428 -30.5421 -30.5421 -30.5329 -30.5328 -30.5310 -30.5310
   -30.5288 -30.5203 -30.5203 -30.5191 -30.5014 -30.4992 -30.4992 -30.4974
   -30.4378 -30.4378 -30.4341 -30.4339 -30.4301 -30.4301 -30.4262 -30.4255
   -20.3531 -20.3531 -20.3529 -20.3529 -20.3528 -20.3528 -20.3526 -20.3525
   -20.3323 -20.3322 -20.3317 -20.3317 -20.3313 -20.3313 -20.3309 -20.3307
   -20.3306 -20.3300 -20.3300 -20.3298 -20.3296 -20.3290 -20.3290 -20.3283
   -20.3278 -20.3273 -20.3273 -20.3269 -20.3258 -20.3255 -20.3255 -20.3251
   -20.3195 -20.3194 -20.3189 -20.3189 -20.3185 -20.3184 -20.3183 -20.3183
   -20.3127 -20.3127 -20.3127 -20.3125 -20.3124 -20.3124 -20.3115 -20.3114
   -20.3113 -20.3111 -20.3101 -20.3101 -20.3090 -20.3090 -20.3081 -20.3080
    -9.8516  -9.7249  -9.3841  -9.3841  -9.2749  -9.2749  -9.0512  -9.0444
    -8.7113  -8.6219  -8.6156  -8.6156  -8.1444  -8.0919  -8.0919  -8.0604
    -7.8186  -7.8086  -7.7911  -7.7786  -7.6584  -7.6584  -7.6349  -7.6348
     1.2053   1.2062   1.3041   1.3041   1.3056   1.3056   1.6154   1.6427
     2.3933   2.4240   2.4483   2.5895   2.5895   2.7510   2.8902   2.9077
     3.0301   3.0301   3.6656   3.6866   3.7201   3.7201   4.1458   4.4857
     4.4857   4.7781   4.8096   4.8096   4.8534   4.8534   5.1454   5.1535
     5.1535   5.1826   5.4143   5.4143   5.6357   5.6467   5.6750   5.6750
     5.8550   5.8939   5.8939   5.8999   5.9745   6.0025   6.0436   6.0830
     6.1251   6.2136   6.2276   6.4971   6.6286   6.6286   6.8350   6.8350
     6.8794   6.9499   7.1068   7.1123   7.1383   7.1383   7.3406   7.3406
     7.3994   7.3994   7.7283   7.7482   7.8308   7.8330   7.8602   7.8602
     9.3407   9.3437  10.6512  10.6512  10.6765  10.7199  11.7772  11.7772
    11.9029  11.9174  12.2174  12.2174  12.3514  12.3514  12.6645  12.7491
    13.2559  13.3592  13.3592  13.4237  13.6860  13.7195  13.7195  13.7792
    14.7975  15.1771  15.1771  15.4082  15.4153  15.5976  15.8619  15.8619
    15.9408  16.7196  17.1854  17.5185  17.5185

          k = 0.0000 0.0000-0.4725 ( 62212 PWs)   bands (ev):

   -66.1866 -66.1866 -66.1856 -66.1856 -66.1856 -66.1856 -66.1846 -66.1846
   -30.5453 -30.5453 -30.5394 -30.5394 -30.5328 -30.5328 -30.5307 -30.5307
   -30.5151 -30.5151 -30.5120 -30.5120 -30.5105 -30.5105 -30.5093 -30.5093
   -30.4378 -30.4377 -30.4340 -30.4340 -30.4303 -30.4303 -30.4260 -30.4260
   -20.3531 -20.3531 -20.3529 -20.3529 -20.3528 -20.3528 -20.3525 -20.3525
   -20.3322 -20.3322 -20.3317 -20.3317 -20.3313 -20.3313 -20.3308 -20.3308
   -20.3301 -20.3301 -20.3295 -20.3295 -20.3294 -20.3294 -20.3289 -20.3289
   -20.3269 -20.3269 -20.3266 -20.3266 -20.3264 -20.3264 -20.3262 -20.3262
   -20.3195 -20.3195 -20.3189 -20.3189 -20.3185 -20.3185 -20.3183 -20.3183
   -20.3127 -20.3127 -20.3126 -20.3126 -20.3125 -20.3125 -20.3114 -20.3114
   -20.3112 -20.3112 -20.3101 -20.3101 -20.3090 -20.3090 -20.3080 -20.3080
    -9.7810  -9.7810  -9.3244  -9.3244  -9.3126  -9.3126  -9.0478  -9.0478
    -8.4298  -8.4298  -8.3790  -8.3790  -8.3787  -8.3787  -8.3742  -8.3742
    -7.8141  -7.8141  -7.7853  -7.7853  -7.6574  -7.6574  -7.6364  -7.6364
     1.2056   1.2056   1.3050   1.3050   1.3055   1.3055   1.6360   1.6360
     2.4120   2.4120   3.1463   3.1463   3.2387   3.2387   3.2754   3.2754
     3.3002   3.3002   3.3511   3.3511   3.5573   3.5573   3.5769   3.5769
     3.7403   3.7403   4.8092   4.8092   4.8440   4.8440   5.2683   5.2683
     5.3145   5.3145   5.3819   5.3819   5.4052   5.4052   5.7561   5.7561
     5.7590   5.7590   5.9370   5.9370   6.0096   6.0096   6.0897   6.0897
     6.1665   6.1665   6.2711   6.2711   6.7025   6.7025   6.7300   6.7300
     6.9155   6.9155   7.3276   7.3276   7.3765   7.3765   7.4643   7.4643
     7.4845   7.4845   7.5550   7.5550   7.5575   7.5575   7.7540   7.7540
     9.3435   9.3435  11.2237  11.2237  11.2455  11.2455  11.2959  11.2959
    11.3474  11.3474  12.2229  12.2229  12.3539  12.3539  12.7107  12.7107
    13.4502  13.4502  13.4959  13.4959  13.5222  13.5222  13.5720  13.5720
    15.3540  15.3540  15.4256  15.4256  15.5999  15.5999  15.6359  15.6359
    16.4551  16.4551  17.9048  17.9048  18.0582

          k = 0.0000 0.1667 0.0000 ( 62262 PWs)   bands (ev):

   -66.1868 -66.1864 -66.1859 -66.1857 -66.1855 -66.1853 -66.1849 -66.1845
   -30.5568 -30.5508 -30.5495 -30.5430 -30.5389 -30.5321 -30.5311 -30.5288
   -30.5272 -30.5246 -30.5207 -30.5180 -30.4884 -30.4870 -30.4855 -30.4837
   -30.4443 -30.4403 -30.4376 -30.4370 -30.4343 -30.4313 -30.4295 -30.4257
   -20.3531 -20.3530 -20.3529 -20.3529 -20.3528 -20.3527 -20.3526 -20.3525
   -20.3324 -20.3321 -20.3318 -20.3317 -20.3313 -20.3312 -20.3312 -20.3310
   -20.3309 -20.3308 -20.3307 -20.3305 -20.3294 -20.3287 -20.3286 -20.3285
   -20.3280 -20.3280 -20.3279 -20.3275 -20.3247 -20.3243 -20.3243 -20.3240
   -20.3195 -20.3190 -20.3190 -20.3185 -20.3184 -20.3182 -20.3180 -20.3177
   -20.3132 -20.3130 -20.3128 -20.3127 -20.3125 -20.3123 -20.3117 -20.3114
   -20.3112 -20.3112 -20.3101 -20.3100 -20.3093 -20.3089 -20.3084 -20.3080
    -9.8921  -9.6265  -9.5004  -9.4159  -9.2596  -9.1563  -9.0154  -8.9999
    -8.9931  -8.8063  -8.8012  -8.7721  -7.9457  -7.9096  -7.8380  -7.8057
    -7.7805  -7.7700  -7.7654  -7.7563  -7.7328  -7.6996  -7.6646  -7.6406
     1.2872   1.2954   1.3005   1.3115   1.5114   1.5151   1.5624   1.7131
     1.7181   1.7597   1.8174   2.0004   2.4624   2.5422   2.6305   2.7113
     2.7634   2.8596   4.1111   4.1664   4.3597   4.3627   4.4020   4.4558
     4.6830   4.8308   4.8623   4.8687   4.8909   5.0928   5.1429   5.2851
     5.3821   5.4679   5.5129   5.5378   5.6098   5.6205   5.6346   5.6478
     5.7006   5.8214   5.8579   5.9207   5.9848   6.0333   6.0902   6.0976
     6.2688   6.3632   6.4499   6.5349   6.7421   6.7669   6.7757   6.8239
     6.8857   6.8873   6.9259   6.9829   7.0159   7.0655   7.1300   7.1545
     7.1660   7.2328   7.7561   7.7625   8.0124   8.0626   8.0665   8.1258
     9.6584   9.6838  10.0030  10.0221  10.2567  10.3041  12.1232  12.1968
    12.2283  12.2801  12.2979  12.4011  12.4902  12.5791  12.6658  12.8052
    12.9873  13.1891  13.2655  13.3034  13.6511  13.8377  13.8873  13.9819
    14.2379  14.4693  14.5138  15.0266  15.3192  15.4369  15.4717  15.9827
    16.3025  16.7269  16.8898  17.1484  17.5671

          k = 0.0000 0.1667 0.1575 ( 62237 PWs)   bands (ev):

   -66.1867 -66.1864 -66.1859 -66.1857 -66.1855 -66.1854 -66.1848 -66.1845
   -30.5543 -30.5481 -30.5465 -30.5393 -30.5391 -30.5319 -30.5311 -30.5285
   -30.5272 -30.5240 -30.5198 -30.5175 -30.4920 -30.4905 -30.4889 -30.4871
   -30.4443 -30.4403 -30.4375 -30.4371 -30.4343 -30.4314 -30.4296 -30.4259
   -20.3531 -20.3530 -20.3529 -20.3529 -20.3528 -20.3527 -20.3526 -20.3525
   -20.3323 -20.3321 -20.3318 -20.3317 -20.3313 -20.3312 -20.3310 -20.3310
   -20.3307 -20.3306 -20.3306 -20.3302 -20.3295 -20.3288 -20.3287 -20.3283
   -20.3281 -20.3279 -20.3278 -20.3274 -20.3250 -20.3247 -20.3246 -20.3243
   -20.3195 -20.3190 -20.3190 -20.3185 -20.3184 -20.3182 -20.3180 -20.3178
   -20.3132 -20.3130 -20.3129 -20.3127 -20.3125 -20.3123 -20.3117 -20.3114
   -20.3112 -20.3112 -20.3101 -20.3100 -20.3093 -20.3089 -20.3083 -20.3081
    -9.8656  -9.6377  -9.4702  -9.3819  -9.2669  -9.1636  -9.0142  -9.0009
    -8.9217  -8.7599  -8.7586  -8.7333  -7.9578  -7.9208  -7.8918  -7.8554
    -7.8468  -7.8141  -7.7983  -7.7787  -7.7689  -7.7512  -7.6682  -7.6419
     1.2908   1.2950   1.3058   1.3115   1.5381   1.5580   1.6536   1.8138
     1.9016   1.9446   1.9638   2.1414   2.4682   2.5368   2.7006   2.7840
     2.8301   2.9259   4.0103   4.0540   4.1137   4.1639   4.3866   4.4516
     4.6563   4.7655   4.8515   4.8612   4.8886   5.0509   5.0574   5.2654
     5.2817   5.3219   5.3556   5.4950   5.5723   5.5798   5.6269   5.7250
     5.7316   5.7869   5.8635   5.8753   5.9152   6.0497   6.0801   6.0997
     6.2418   6.3491   6.4288   6.5634   6.7290   6.7956   6.8050   6.8281
     6.8598   6.9098   6.9328   6.9630   6.9902   7.0122   7.1324   7.1636
     7.1800   7.2344   7.7567   7.7622   7.9822   8.0058   8.0204   8.0511
     9.6676   9.6881  10.1953  10.1989  10.4184  10.4479  12.0978  12.1479
    12.2028  12.2372  12.2601  12.3335  12.3580  12.4571  12.6836  12.8021
    13.0228  13.1908  13.2849  13.3040  13.7347  13.7929  13.8760  13.9192
    14.3597  14.6612  14.7615  15.1556  15.4368  15.4700  15.7154  15.9503
    16.2664  16.6206  16.8491  17.2528  17.5707

          k = 0.0000 0.1667 0.3150 ( 62260 PWs)   bands (ev):

   -66.1867 -66.1865 -66.1858 -66.1856 -66.1856 -66.1854 -66.1848 -66.1846
   -30.5485 -30.5425 -30.5405 -30.5389 -30.5314 -30.5311 -30.5293 -30.5283
   -30.5269 -30.5207 -30.5163 -30.5153 -30.5019 -30.4998 -30.4980 -30.4963
   -30.4442 -30.4402 -30.4375 -30.4373 -30.4344 -30.4316 -30.4299 -30.4261
   -20.3531 -20.3531 -20.3529 -20.3528 -20.3528 -20.3528 -20.3526 -20.3525
   -20.3323 -20.3321 -20.3317 -20.3316 -20.3313 -20.3312 -20.3309 -20.3307
   -20.3306 -20.3301 -20.3300 -20.3297 -20.3296 -20.3290 -20.3289 -20.3284
   -20.3278 -20.3274 -20.3273 -20.3270 -20.3258 -20.3255 -20.3255 -20.3252
   -20.3195 -20.3190 -20.3190 -20.3185 -20.3184 -20.3183 -20.3180 -20.3178
   -20.3132 -20.3130 -20.3129 -20.3127 -20.3125 -20.3124 -20.3117 -20.3114
   -20.3113 -20.3113 -20.3102 -20.3100 -20.3093 -20.3089 -20.3083 -20.3081
    -9.8007  -9.6716  -9.4015  -9.3053  -9.2905  -9.1872  -9.0111  -9.0035
    -8.7205  -8.6213  -8.6168  -8.6036  -8.1454  -8.1033  -8.0891  -8.0690
    -7.9274  -7.9035  -7.8019  -7.7858  -7.7729  -7.7589  -7.6682  -7.6446
     1.2929   1.2946   1.3097   1.3114   1.5533   1.5584   1.7754   1.8118
     2.4422   2.4825   2.5229   2.5624   2.5911   2.7353   2.9057   3.0048
     3.0226   3.1255   3.6757   3.7090   3.7218   3.7629   4.1358   4.4019
     4.4080   4.5039   4.5165   4.7740   4.8188   4.8888   4.9025   4.9689
     5.1408   5.1692   5.2118   5.3112   5.4519   5.4756   5.6174   5.6425
     5.6985   5.7431   5.7840   5.8755   6.0223   6.0512   6.0717   6.0939
     6.2580   6.3705   6.3860   6.5645   6.6195   6.8174   6.8591   6.9108
     6.9528   6.9604   7.0754   7.0855   7.0982   7.1073   7.1652   7.1764
     7.2413   7.2609   7.7388   7.7561   7.8171   7.8369   7.8385   7.8512
     9.6787   9.6923  10.6554  10.6933  10.8269  10.8655  11.7737  11.8671
    11.9133  11.9826  12.1470  12.2537  12.2749  12.4006  12.7258  12.7922
    13.1353  13.2323  13.3479  13.3562  13.5782  13.6218  13.7170  13.7438
    14.9168  15.1688  15.3377  15.4434  15.4726  15.6708  15.8361  16.1023
    16.1436  16.6837  17.2190  17.2820  17.6313

          k = 0.0000 0.1667-0.4725 ( 62246 PWs)   bands (ev):

   -66.1866 -66.1866 -66.1857 -66.1857 -66.1855 -66.1855 -66.1847 -66.1847
   -30.5447 -30.5414 -30.5397 -30.5350 -30.5311 -30.5311 -30.5286 -30.5267
   -30.5156 -30.5155 -30.5125 -30.5109 -30.5094 -30.5086 -30.5075 -30.5071
   -30.4442 -30.4402 -30.4375 -30.4374 -30.4344 -30.4317 -30.4300 -30.4263
   -20.3531 -20.3531 -20.3529 -20.3528 -20.3528 -20.3528 -20.3526 -20.3526
   -20.3322 -20.3322 -20.3317 -20.3316 -20.3313 -20.3313 -20.3308 -20.3308
   -20.3301 -20.3301 -20.3295 -20.3294 -20.3294 -20.3293 -20.3289 -20.3289
   -20.3269 -20.3269 -20.3267 -20.3266 -20.3264 -20.3264 -20.3262 -20.3262
   -20.3194 -20.3190 -20.3189 -20.3186 -20.3183 -20.3183 -20.3180 -20.3179
   -20.3131 -20.3130 -20.3129 -20.3126 -20.3125 -20.3124 -20.3117 -20.3113
   -20.3113 -20.3113 -20.3102 -20.3101 -20.3093 -20.3089 -20.3083 -20.3081
    -9.7290  -9.7278  -9.3410  -9.3293  -9.2393  -9.2273  -9.0080  -9.0064
    -8.4352  -8.4352  -8.3879  -8.3876  -8.3764  -8.3759  -8.3712  -8.3707
    -7.9277  -7.9072  -7.8012  -7.7857  -7.7743  -7.7608  -7.6672  -7.6461
     1.2933   1.2944   1.3109   1.3112   1.5567   1.5578   1.8020   1.8052
     2.5018   2.5022   3.1508   3.1555   3.2219   3.2355   3.2812   3.2952
     3.3337   3.3528   3.3580   3.3597   3.5535   3.5745   3.6075   3.6201
     3.7651   3.7657   4.4241   4.4379   4.8143   4.8893   5.0142   5.0819
     5.1962   5.1976   5.2385   5.2788   5.4036   5.4093   5.4984   5.5017
     5.7253   5.7270   5.7505   5.7510   6.0556   6.0765   6.0912   6.0915
     6.3558   6.3564   6.4020   6.4056   6.6893   6.7184   6.8857   6.9174
     6.9850   6.9901   7.1155   7.1513   7.1519   7.1963   7.4584   7.4724
     7.4823   7.4924   7.5303   7.5352   7.5441   7.5492   7.7696   7.7712
     9.6826   9.6936  11.2274  11.2493  11.3005  11.3021  11.3666  11.3695
    11.4308  11.4550  12.1495  12.2544  12.2762  12.3999  12.7602  12.7785
    13.3060  13.3264  13.3626  13.3705  13.4926  13.5176  13.5513  13.5561
    15.3556  15.4002  15.5580  15.5860  15.5902  15.6368  15.8624  15.8776
    16.5135  16.5153  17.8182  17.8193  17.9171

          k = 0.0000 0.3333 0.0000 ( 62268 PWs)   bands (ev):

   -66.1866 -66.1862 -66.1861 -66.1857 -66.1856 -66.1852 -66.1851 -66.1847
   -30.5551 -30.5519 -30.5476 -30.5441 -30.5363 -30.5331 -30.5287 -30.5257
   -30.5153 -30.5129 -30.5042 -30.5014 -30.4908 -30.4897 -30.4823 -30.4807
   -30.4611 -30.4573 -30.4533 -30.4495 -30.4368 -30.4344 -30.4287 -30.4266
   -20.3531 -20.3530 -20.3529 -20.3528 -20.3528 -20.3527 -20.3527 -20.3526
   -20.3322 -20.3320 -20.3319 -20.3316 -20.3315 -20.3312 -20.3312 -20.3311
   -20.3309 -20.3308 -20.3308 -20.3306 -20.3293 -20.3289 -20.3285 -20.3284
   -20.3282 -20.3281 -20.3279 -20.3276 -20.3247 -20.3245 -20.3243 -20.3241
   -20.3194 -20.3191 -20.3184 -20.3183 -20.3178 -20.3172 -20.3168 -20.3165
   -20.3144 -20.3139 -20.3138 -20.3134 -20.3126 -20.3122 -20.3121 -20.3114
   -20.3111 -20.3110 -20.3104 -20.3099 -20.3098 -20.3089 -20.3088 -20.3082
    -9.7749  -9.5549  -9.5024  -9.3046  -9.2540  -9.0268  -8.9165  -8.8992
    -8.8558  -8.8155  -8.7528  -8.6757  -8.2328  -8.2143  -8.1196  -8.0959
    -7.8144  -7.7779  -7.7579  -7.7418  -7.7349  -7.7097  -7.6900  -7.6672
     1.3095   1.3242   1.3272   1.3507   1.6426   1.6688   1.6972   1.7028
     2.2414   2.2783   2.4524   2.5281   2.6526   2.7203   2.7497   2.8075
     2.9528   3.0882   3.7427   3.8211   3.8925   3.9545   4.2179   4.2688
     4.3094   4.5148   4.5386   4.7752   4.8189   4.8553   4.9378   5.0721
     5.1662   5.1978   5.2519   5.3870   5.4556   5.4778   5.6835   5.6886
     5.7779   5.7849   5.8376   5.9815   6.0116   6.1349   6.1828   6.2416
     6.3309   6.4141   6.5242   6.5272   6.5771   6.5985   6.6211   6.7314
     6.8199   6.8757   6.8784   6.9683   7.0005   7.0625   7.0630   7.1184
     7.3121   7.3553   7.7074   7.7261   7.8910   7.9486   8.1001   8.1197
     9.9867  10.0153  10.3606  10.4334  10.8463  10.9599  11.7819  11.8641
    12.0342  12.3676  12.4123  12.4502  12.5082  12.5762  12.6421  12.7791
    12.8300  13.0240  13.1295  13.3172  13.5648  13.6156  13.8850  13.8851
    14.3122  14.4485  14.7301  15.2113  15.3018  15.5719  15.8469  15.8971
    16.2287  17.1144  17.3498  17.4175  17.7190

          k = 0.0000 0.3333 0.1575 ( 62284 PWs)   bands (ev):

   -66.1865 -66.1862 -66.1860 -66.1857 -66.1855 -66.1852 -66.1850 -66.1847
   -30.5524 -30.5492 -30.5442 -30.5404 -30.5362 -30.5329 -30.5283 -30.5251
   -30.5156 -30.5136 -30.5039 -30.5014 -30.4941 -30.4929 -30.4851 -30.4837
   -30.4612 -30.4573 -30.4537 -30.4497 -30.4367 -30.4344 -30.4288 -30.4267
   -20.3531 -20.3530 -20.3529 -20.3528 -20.3528 -20.3527 -20.3527 -20.3526
   -20.3322 -20.3320 -20.3319 -20.3315 -20.3315 -20.3312 -20.3312 -20.3309
   -20.3308 -20.3307 -20.3305 -20.3303 -20.3293 -20.3289 -20.3286 -20.3283
   -20.3282 -20.3280 -20.3277 -20.3275 -20.3250 -20.3248 -20.3246 -20.3244
   -20.3194 -20.3191 -20.3184 -20.3183 -20.3178 -20.3171 -20.3168 -20.3166
   -20.3144 -20.3139 -20.3138 -20.3134 -20.3126 -20.3122 -20.3121 -20.3115
   -20.3111 -20.3110 -20.3104 -20.3099 -20.3098 -20.3089 -20.3088 -20.3083
    -9.7464  -9.5247  -9.5130  -9.3126  -9.2067  -8.9565  -8.9157  -8.8966
    -8.8573  -8.7738  -8.7181  -8.6502  -8.2346  -8.2158  -8.1293  -8.0954
    -7.8887  -7.8632  -7.8303  -7.8042  -7.7696  -7.7438  -7.6949  -7.6686
     1.3178   1.3271   1.3376   1.3505   1.8335   1.8591   1.9347   1.9411
     2.2417   2.2936   2.4542   2.5491   2.7121   2.7384   2.7906   2.8252
     3.0266   3.1479   3.7436   3.8123   3.8866   3.9114   4.1236   4.1512
     4.2653   4.3960   4.5261   4.7224   4.7302   4.8139   4.8358   4.9696
     5.0873   5.1576   5.1818   5.2148   5.4079   5.4264   5.4791   5.6537
     5.7218   5.7784   5.8429   5.8938   5.9531   6.1098   6.1549   6.1920
     6.3435   6.5059   6.5248   6.5996   6.6098   6.6740   6.7163   6.7656
     6.8423   6.8536   6.9262   6.9318   6.9709   7.0119   7.0921   7.1118
     7.3165   7.3553   7.7090   7.7238   7.8675   7.9042   8.0379   8.0498
    10.1740  10.1957  10.3744  10.4396  10.9584  11.0514  11.7821  11.8637
    12.0067  12.3409  12.3648  12.4095  12.4768  12.5083  12.5844  12.7254
    12.7846  13.0210  13.1339  13.3090  13.4853  13.5457  13.8748  13.8872
    14.5109  14.6423  15.0534  15.3954  15.5658  15.6107  15.8675  15.8732
    16.3474  17.0694  17.1126  17.4028  17.7551

          k = 0.0000 0.3333 0.3150 ( 62269 PWs)   bands (ev):

   -66.1865 -66.1863 -66.1860 -66.1858 -66.1855 -66.1853 -66.1850 -66.1848
   -30.5466 -30.5435 -30.5364 -30.5349 -30.5324 -30.5305 -30.5265 -30.5219
   -30.5170 -30.5162 -30.5037 -30.5028 -30.5016 -30.5011 -30.4920 -30.4909
   -30.4613 -30.4572 -30.4544 -30.4501 -30.4367 -30.4344 -30.4291 -30.4269
   -20.3531 -20.3530 -20.3529 -20.3528 -20.3528 -20.3527 -20.3526 -20.3526
   -20.3322 -20.3320 -20.3319 -20.3315 -20.3315 -20.3312 -20.3311 -20.3309
   -20.3304 -20.3302 -20.3299 -20.3297 -20.3295 -20.3292 -20.3288 -20.3285
   -20.3277 -20.3275 -20.3273 -20.3271 -20.3258 -20.3256 -20.3254 -20.3253
   -20.3194 -20.3191 -20.3185 -20.3183 -20.3177 -20.3171 -20.3168 -20.3166
   -20.3144 -20.3139 -20.3138 -20.3135 -20.3126 -20.3122 -20.3121 -20.3115
   -20.3111 -20.3110 -20.3104 -20.3099 -20.3098 -20.3089 -20.3088 -20.3083
    -9.6774  -9.5460  -9.4550  -9.3382  -9.0961  -8.9391  -8.8822  -8.8615
    -8.7574  -8.6413  -8.5949  -8.5546  -8.2591  -8.2304  -8.1958  -8.1044
    -8.0979  -8.0775  -8.0531  -7.9988  -7.7711  -7.7469  -7.6952  -7.6714
     1.3240   1.3268   1.3460   1.3501   2.1862   2.2283   2.3204   2.4386
     2.4631   2.5580   2.6014   2.7320   2.7789   2.7960   2.9269   3.0073
     3.2477   3.3239   3.6496   3.6723   3.7529   3.7925   3.8327   3.8511
     4.1082   4.2986   4.4629   4.4867   4.5170   4.5527   4.5908   4.7706
     4.8112   4.8678   5.0400   5.1415   5.1897   5.2379   5.2574   5.3806
     5.4109   5.5710   5.7087   5.8429   6.0984   6.1428   6.1641   6.2093
     6.4204   6.5436   6.5750   6.6303   6.6634   6.7827   6.7844   6.8084
     6.9312   6.9637   7.0307   7.0619   7.0795   7.1242   7.1521   7.2119
     7.3221   7.3626   7.6874   7.7197   7.7530   7.7627   7.8352   7.8476
    10.3759  10.4130  10.6681  10.7040  11.2613  11.3262  11.7291  11.8250
    11.8615  11.9424  12.1477  12.1852  12.4583  12.5497  12.5883  12.5939
    12.7891  13.0136  13.1014  13.2708  13.3529  13.4383  13.7118  13.7240
    15.0584  15.1457  15.5013  15.7584  15.8329  15.8589  15.9736  16.5582
    16.6178  16.7646  16.9192  17.4448  17.5656

          k = 0.0000 0.3333-0.4725 ( 62268 PWs)   bands (ev):

   -66.1864 -66.1864 -66.1859 -66.1859 -66.1854 -66.1854 -66.1849 -66.1849
   -30.5434 -30.5407 -30.5362 -30.5322 -30.5263 -30.5236 -30.5220 -30.5191
   -30.5170 -30.5166 -30.5140 -30.5122 -30.5012 -30.4989 -30.4986 -30.4953
   -30.4614 -30.4572 -30.4547 -30.4502 -30.4367 -30.4343 -30.4292 -30.4271
   -20.3530 -20.3530 -20.3529 -20.3529 -20.3528 -20.3527 -20.3526 -20.3526
   -20.3321 -20.3320 -20.3318 -20.3315 -20.3314 -20.3312 -20.3310 -20.3310
   -20.3299 -20.3299 -20.3296 -20.3296 -20.3293 -20.3292 -20.3290 -20.3290
   -20.3269 -20.3268 -20.3267 -20.3265 -20.3265 -20.3264 -20.3263 -20.3262
   -20.3193 -20.3190 -20.3185 -20.3184 -20.3177 -20.3171 -20.3168 -20.3167
   -20.3144 -20.3139 -20.3138 -20.3135 -20.3125 -20.3122 -20.3121 -20.3115
   -20.3111 -20.3110 -20.3104 -20.3099 -20.3098 -20.3089 -20.3088 -20.3083
    -9.6051  -9.6002  -9.3912  -9.3803  -9.0014  -8.9890  -8.8730  -8.8666
    -8.4774  -8.4753  -8.4261  -8.4243  -8.3732  -8.3727  -8.3532  -8.3526
    -8.1948  -8.1801  -8.0762  -8.0613  -7.7701  -7.7487  -7.6942  -7.6730
     1.3260   1.3262   1.3479   1.3497   2.2245   2.2280   2.4261   2.4345
     2.7614   2.7630   3.1559   3.1689   3.2075   3.2373   3.2812   3.2945
     3.3468   3.3603   3.4302   3.4484   3.5329   3.5600   3.7476   3.7513
     3.7992   3.8089   3.8367   3.8428   4.4798   4.4963   4.6527   4.6766
     4.7753   4.8106   4.8588   4.9012   5.2097   5.2169   5.3081   5.3168
     5.4495   5.4496   5.6593   5.6654   6.1403   6.1413   6.1884   6.2255
     6.5059   6.5109   6.5784   6.6414   6.6749   6.6876   6.8071   6.8322
     7.0044   7.0222   7.1644   7.1683   7.1712   7.1908   7.4395   7.4606
     7.4997   7.5041   7.5121   7.5135   7.5351   7.5373   7.7297   7.7335
    10.3884  10.4168  11.2356  11.2612  11.2912  11.2999  11.7209  11.7221
    11.7517  11.7824  11.8164  11.8668  12.4511  12.5503  12.6355  12.6753
    12.8596  12.8699  13.1039  13.1109  13.4875  13.4984  13.5216  13.5330
    15.3719  15.4100  15.5304  15.5614  16.1917  16.2080  16.5340  16.5499
    16.7055  16.7083  17.3686  17.3843  17.7099

          k = 0.0000-0.5000 0.0000 ( 62264 PWs)   bands (ev):

   -66.1863 -66.1863 -66.1859 -66.1859 -66.1853 -66.1853 -66.1849 -66.1849
   -30.5534 -30.5534 -30.5457 -30.5457 -30.5346 -30.5346 -30.5271 -30.5271
   -30.4983 -30.4983 -30.4973 -30.4973 -30.4819 -30.4819 -30.4802 -30.4802
   -30.4721 -30.4721 -30.4703 -30.4703 -30.4356 -30.4356 -30.4276 -30.4276
   -20.3530 -20.3530 -20.3529 -20.3529 -20.3527 -20.3527 -20.3526 -20.3526
   -20.3321 -20.3321 -20.3317 -20.3317 -20.3314 -20.3314 -20.3310 -20.3310
   -20.3310 -20.3310 -20.3307 -20.3307 -20.3290 -20.3290 -20.3283 -20.3283
   -20.3283 -20.3283 -20.3277 -20.3277 -20.3246 -20.3246 -20.3242 -20.3242
   -20.3193 -20.3193 -20.3183 -20.3183 -20.3161 -20.3161 -20.3154 -20.3154
   -20.3152 -20.3152 -20.3150 -20.3150 -20.3124 -20.3124 -20.3118 -20.3118
   -20.3107 -20.3107 -20.3105 -20.3105 -20.3095 -20.3095 -20.3085 -20.3085
    -9.6487  -9.6487  -9.3838  -9.3838  -9.1046  -9.1046  -8.8421  -8.8421
    -8.5810  -8.5810  -8.5492  -8.5492  -8.5271  -8.5270  -8.4435  -8.4435
    -7.7958  -7.7958  -7.7265  -7.7265  -7.7212  -7.7212  -7.7041  -7.7041
     1.3204   1.3204   1.3457   1.3457   1.6800   1.6800   1.6880   1.6880
     2.6852   2.6852   2.9666   2.9666   3.0923   3.0923   3.1573   3.1573
     3.2748   3.2748   3.2934   3.2934   3.4833   3.4833   3.7765   3.7765
     3.9060   3.9060   4.4579   4.4579   4.7684   4.7684   4.9551   4.9552
     5.2810   5.2810   5.3190   5.3191   5.3519   5.3519   5.7363   5.7363
     5.7740   5.7740   5.9734   5.9734   6.1415   6.1415   6.2381   6.2381
     6.2868   6.2868   6.4105   6.4105   6.5063   6.5063   6.5514   6.5514
     6.7790   6.7790   6.8757   6.8757   7.0399   7.0399   7.4615   7.4615
     7.5117   7.5117   7.6669   7.6669   7.7146   7.7146   8.1158   8.1158
    10.0039  10.0039  11.1294  11.1294  11.2128  11.2128  11.5178  11.5178
    11.7320  11.7320  12.5158  12.5158  12.5915  12.5915  12.7374  12.7374
    12.8737  12.8737  13.2023  13.2023  13.3858  13.3858  13.8848  13.8848
    14.4034  14.4034  15.0121  15.0121  15.7020  15.7020  15.7614  15.7614
    16.6011  16.6011  17.8550  17.8550  18.1169

          k = 0.0000-0.5000 0.1575 ( 62234 PWs)   bands (ev):

   -66.1863 -66.1863 -66.1859 -66.1859 -66.1853 -66.1853 -66.1849 -66.1849
   -30.5507 -30.5507 -30.5421 -30.5421 -30.5344 -30.5344 -30.5265 -30.5265
   -30.5003 -30.5003 -30.4994 -30.4994 -30.4823 -30.4823 -30.4802 -30.4802
   -30.4735 -30.4735 -30.4713 -30.4713 -30.4356 -30.4356 -30.4278 -30.4278
   -20.3530 -20.3530 -20.3529 -20.3529 -20.3527 -20.3527 -20.3526 -20.3526
   -20.3321 -20.3321 -20.3317 -20.3317 -20.3314 -20.3314 -20.3310 -20.3310
   -20.3308 -20.3308 -20.3304 -20.3304 -20.3291 -20.3291 -20.3284 -20.3284
   -20.3281 -20.3281 -20.3276 -20.3276 -20.3249 -20.3249 -20.3245 -20.3245
   -20.3193 -20.3193 -20.3183 -20.3183 -20.3161 -20.3161 -20.3154 -20.3154
   -20.3152 -20.3152 -20.3150 -20.3150 -20.3124 -20.3124 -20.3118 -20.3118
   -20.3107 -20.3107 -20.3105 -20.3105 -20.3095 -20.3095 -20.3085 -20.3085
    -9.6188  -9.6188  -9.3931  -9.3931  -9.0402  -9.0402  -8.8063  -8.8063
    -8.5838  -8.5838  -8.5475  -8.5475  -8.5290  -8.5290  -8.4350  -8.4350
    -7.8776  -7.8776  -7.8186  -7.8186  -7.7319  -7.7319  -7.7058  -7.7058
     1.3327   1.3327   1.3456   1.3456   1.8636   1.8636   1.9455   1.9455
     2.7508   2.7508   2.9794   2.9794   3.0868   3.0868   3.1865   3.1866
     3.2838   3.2838   3.2988   3.2988   3.4751   3.4751   3.7847   3.7847
     3.9564   3.9564   4.2730   4.2730   4.6435   4.6435   4.8141   4.8141
     5.1396   5.1396   5.3007   5.3007   5.3160   5.3160   5.5229   5.5229
     5.7323   5.7323   5.8711   5.8711   6.1343   6.1343   6.2463   6.2463
     6.3510   6.3510   6.4376   6.4376   6.5282   6.5282   6.6967   6.6967
     6.8440   6.8440   6.8882   6.8882   6.9612   6.9612   7.4709   7.4709
     7.5053   7.5053   7.6541   7.6541   7.6928   7.6928   8.0481   8.0481
    10.1932  10.1932  11.1359  11.1359  11.2112  11.2112  11.5819  11.5819
    11.7920  11.7920  12.3942  12.3942  12.5736  12.5736  12.7414  12.7414
    12.8170  12.8170  13.1038  13.1038  13.3525  13.3525  13.8769  13.8769
    14.6036  14.6036  15.3673  15.3673  15.7320  15.7320  15.8385  15.8385
    16.6408  16.6408  17.6620  17.6620  18.0874

          k = 0.0000-0.5000 0.3150 ( 62306 PWs)   bands (ev):

   -66.1862 -66.1862 -66.1860 -66.1860 -66.1852 -66.1852 -66.1850 -66.1850
   -30.5449 -30.5449 -30.5341 -30.5341 -30.5323 -30.5323 -30.5237 -30.5237
   -30.5075 -30.5075 -30.5059 -30.5059 -30.4831 -30.4831 -30.4800 -30.4800
   -30.4764 -30.4764 -30.4729 -30.4729 -30.4356 -30.4356 -30.4280 -30.4280
   -20.3530 -20.3530 -20.3529 -20.3529 -20.3527 -20.3527 -20.3527 -20.3527
   -20.3320 -20.3320 -20.3317 -20.3317 -20.3313 -20.3313 -20.3311 -20.3311
   -20.3303 -20.3303 -20.3298 -20.3298 -20.3293 -20.3293 -20.3287 -20.3287
   -20.3276 -20.3276 -20.3272 -20.3272 -20.3257 -20.3257 -20.3254 -20.3254
   -20.3192 -20.3192 -20.3184 -20.3184 -20.3161 -20.3161 -20.3153 -20.3153
   -20.3152 -20.3152 -20.3151 -20.3151 -20.3124 -20.3124 -20.3118 -20.3118
   -20.3107 -20.3107 -20.3105 -20.3105 -20.3095 -20.3095 -20.3085 -20.3085
    -9.5482  -9.5482  -9.4223  -9.4223  -8.8688  -8.8688  -8.7091  -8.7091
    -8.5938  -8.5938  -8.5740  -8.5740  -8.4948  -8.4948  -8.4007  -8.4007
    -8.0984  -8.0984  -8.0535  -8.0535  -7.7328  -7.7327  -7.7087  -7.7087
     1.3409   1.3409   1.3455   1.3455   2.4399   2.4399   2.5762   2.5762
     2.9325   2.9325   3.0167   3.0167   3.0756   3.0757   3.2325   3.2325
     3.2804   3.2804   3.3606   3.3606   3.4459   3.4459   3.6740   3.6740
     4.0633   4.0633   4.1125   4.1125   4.1967   4.1967   4.4098   4.4098
     4.8340   4.8340   4.9664   4.9664   5.2082   5.2082   5.2942   5.2942
     5.4182   5.4182   5.7795   5.7795   6.2191   6.2191   6.2621   6.2621
     6.4622   6.4622   6.4926   6.4926   6.5449   6.5449   6.7406   6.7406
     7.0596   7.0596   7.0677   7.0677   7.1011   7.1011   7.4737   7.4737
     7.4974   7.4974   7.5884   7.5884   7.6152   7.6152   7.8416   7.8416
    10.6699  10.6699  11.1510  11.1510  11.2080  11.2080  11.6692  11.6692
    11.9734  11.9734  12.1120  12.1120  12.4889  12.4889  12.5999  12.5999
    12.7566  12.7566  12.9013  12.9013  13.3628  13.3628  13.7123  13.7123
    15.1099  15.1099  15.6395  15.6395  16.2135  16.2135  16.3361  16.3361
    16.7795  16.7795  17.2963  17.2963  17.8301

          k = 0.0000-0.5000-0.4725 ( 62284 PWs)   bands (ev):

   -66.1861 -66.1861 -66.1861 -66.1861 -66.1851 -66.1851 -66.1851 -66.1851
   -30.5420 -30.5420 -30.5338 -30.5338 -30.5203 -30.5203 -30.5187 -30.5187
   -30.5171 -30.5171 -30.5144 -30.5144 -30.4835 -30.4835 -30.4795 -30.4795
   -30.4779 -30.4779 -30.4735 -30.4735 -30.4355 -30.4355 -30.4281 -30.4281
   -20.3530 -20.3530 -20.3529 -20.3529 -20.3527 -20.3527 -20.3527 -20.3527
   -20.3320 -20.3320 -20.3318 -20.3318 -20.3312 -20.3312 -20.3311 -20.3311
   -20.3298 -20.3298 -20.3297 -20.3297 -20.3292 -20.3292 -20.3291 -20.3291
   -20.3268 -20.3268 -20.3267 -20.3267 -20.3264 -20.3264 -20.3263 -20.3263
   -20.3192 -20.3192 -20.3184 -20.3184 -20.3161 -20.3160 -20.3153 -20.3153
   -20.3153 -20.3153 -20.3151 -20.3151 -20.3124 -20.3124 -20.3118 -20.3118
   -20.3107 -20.3107 -20.3105 -20.3105 -20.3095 -20.3095 -20.3085 -20.3085
    -9.4798  -9.4798  -9.4700  -9.4700  -8.6885  -8.6885  -8.6642  -8.6642
    -8.6312  -8.6312  -8.6136  -8.6136  -8.3631  -8.3631  -8.3291  -8.3291
    -8.3074  -8.3073  -8.2734  -8.2734  -7.7318  -7.7318  -7.7104  -7.7104
     1.3428   1.3428   1.3454   1.3454   2.9571   2.9571   3.0167   3.0167
     3.1253   3.1253   3.1742   3.1742   3.1958   3.1958   3.2431   3.2431
     3.2890   3.2890   3.3551   3.3551   3.4551   3.4551   3.5313   3.5313
     3.5650   3.5650   3.7837   3.7837   4.2915   4.2915   4.3745   4.3746
     4.4185   4.4186   4.4954   4.4954   5.2425   5.2425   5.2816   5.2816
     5.5193   5.5193   5.5676   5.5676   6.2522   6.2522   6.2639   6.2639
     6.4966   6.4966   6.5120   6.5120   6.6028   6.6028   6.6476   6.6476
     7.2487   7.2487   7.2916   7.2916   7.3191   7.3191   7.4262   7.4262
     7.4863   7.4864   7.5297   7.5297   7.5673   7.5674   7.5828   7.5828
    11.1044  11.1044  11.1834  11.1834  11.2891  11.2891  11.3269  11.3269
    12.1660  12.1660  12.2135  12.2135  12.2990  12.2990  12.3365  12.3365
    12.7629  12.7629  12.8155  12.8155  13.4865  13.4865  13.5140  13.5140
    15.4492  15.4492  15.4823  15.4823  16.8594  16.8594  16.9015  16.9016
    17.1539  17.1540  17.2130  17.2130  17.2901

          k = 0.1667 0.1667 0.0000 ( 62234 PWs)   bands (ev):

   -66.1867 -66.1863 -66.1858 -66.1858 -66.1854 -66.1854 -66.1849 -66.1845
   -30.5558 -30.5499 -30.5497 -30.5434 -30.5350 -30.5282 -30.5274 -30.5270
   -30.5253 -30.5193 -30.5190 -30.5171 -30.4891 -30.4863 -30.4861 -30.4829
   -30.4442 -30.4439 -30.4411 -30.4411 -30.4357 -30.4354 -30.4329 -30.4311
   -20.3531 -20.3530 -20.3529 -20.3529 -20.3528 -20.3528 -20.3526 -20.3525
   -20.3323 -20.3321 -20.3318 -20.3317 -20.3313 -20.3313 -20.3312 -20.3311
   -20.3309 -20.3308 -20.3307 -20.3305 -20.3294 -20.3287 -20.3287 -20.3285
   -20.3281 -20.3280 -20.3280 -20.3276 -20.3247 -20.3244 -20.3244 -20.3240
   -20.3191 -20.3190 -20.3185 -20.3185 -20.3180 -20.3180 -20.3177 -20.3177
   -20.3134 -20.3132 -20.3129 -20.3129 -20.3126 -20.3126 -20.3120 -20.3115
   -20.3113 -20.3111 -20.3101 -20.3101 -20.3092 -20.3092 -20.3085 -20.3082
    -9.8416  -9.5683  -9.4342  -9.4334  -9.1719  -9.1709  -9.0036  -8.9775
    -8.9633  -8.7977  -8.7775  -8.7768  -7.9518  -7.9160  -7.9064  -7.8896
    -7.8277  -7.8274  -7.7917  -7.7705  -7.7494  -7.7405  -7.7336  -7.7031
     1.4598   1.4602   1.5094   1.5144   1.5202   1.5689   1.5695   1.7105
     1.7554   1.7596   1.9021   2.0716   2.5533   2.6379   2.7125   2.7267
     2.8377   2.8665   4.1037   4.1129   4.3224   4.3261   4.4855   4.4885
     4.5105   4.5240   4.6637   4.7360   4.7867   4.8733   5.1120   5.2310
     5.2809   5.3125   5.3799   5.5328   5.5332   5.6003   5.6257   5.6786
     5.7113   5.7405   5.7423   5.8033   5.8570   6.0168   6.2694   6.3141
     6.4181   6.4728   6.5007   6.6626   6.6979   6.7197   6.7485   6.7652
     6.7966   6.8248   6.8681   6.8901   6.8912   6.9581   6.9886   7.0983
     7.2590   7.3217   7.7603   7.7621   8.0128   8.0513   8.0573   8.1012
     9.8794   9.9354  10.2101  10.2559  10.3011  10.3642  12.1711  12.1752
    12.2369  12.2508  12.3189  12.3490  12.5691  12.5743  12.6995  12.8478
    12.9201  13.1088  13.1753  13.2564  13.6795  13.8036  13.8639  13.9166
    14.2183  14.5010  14.5090  15.1556  15.2868  15.5111  15.5263  16.2694
    16.2703  16.8978  16.9016  17.0341  17.6207

          k = 0.1667 0.1667 0.1575 ( 62255 PWs)   bands (ev):

   -66.1867 -66.1863 -66.1858 -66.1858 -66.1854 -66.1854 -66.1849 -66.1846
   -30.5531 -30.5470 -30.5467 -30.5397 -30.5353 -30.5281 -30.5274 -30.5269
   -30.5253 -30.5186 -30.5186 -30.5164 -30.4926 -30.4896 -30.4895 -30.4863
   -30.4441 -30.4439 -30.4411 -30.4410 -30.4358 -30.4355 -30.4329 -30.4314
   -20.3531 -20.3530 -20.3529 -20.3529 -20.3528 -20.3528 -20.3526 -20.3525
   -20.3323 -20.3321 -20.3317 -20.3317 -20.3313 -20.3313 -20.3311 -20.3310
   -20.3307 -20.3306 -20.3306 -20.3303 -20.3294 -20.3287 -20.3287 -20.3283
   -20.3282 -20.3278 -20.3278 -20.3274 -20.3250 -20.3247 -20.3247 -20.3244
   -20.3191 -20.3190 -20.3185 -20.3185 -20.3180 -20.3180 -20.3178 -20.3177
   -20.3133 -20.3132 -20.3129 -20.3129 -20.3126 -20.3126 -20.3120 -20.3116
   -20.3113 -20.3112 -20.3101 -20.3101 -20.3092 -20.3092 -20.3085 -20.3083
    -9.8139  -9.5795  -9.4003  -9.3995  -9.1794  -9.1784  -8.9766  -8.9652
    -8.9312  -8.7522  -8.7386  -8.7380  -7.9671  -7.9223  -7.9084  -7.9060
    -7.8767  -7.8559  -7.8445  -7.8317  -7.7976  -7.7721  -7.7592  -7.7509
     1.4600   1.4607   1.5395   1.5455   1.5608   1.5688   1.6874   1.8972
     1.9030   1.9586   1.9597   2.1798   2.5601   2.6328   2.7842   2.7993
     2.9077   2.9296   4.0083   4.0334   4.1359   4.1474   4.4498   4.4518
     4.5121   4.5230   4.6302   4.7397   4.7876   4.8234   4.9689   5.2069
     5.2094   5.2877   5.2881   5.3519   5.3557   5.5620   5.5825   5.6113
     5.7217   5.7412   5.8145   5.8214   5.8331   5.9080   6.2617   6.2863
     6.4095   6.4440   6.4542   6.6756   6.6782   6.7294   6.7706   6.7809
     6.8099   6.8630   6.8967   6.9034   6.9541   6.9601   6.9964   7.1038
     7.2669   7.3201   7.7594   7.7624   7.9701   7.9984   8.0116   8.0284
     9.8990   9.9394  10.3781  10.4038  10.4587  10.4970  12.1556  12.1632
    12.1861  12.2079  12.2880  12.2964  12.4309  12.4321  12.7215  12.8380
    12.9557  13.1121  13.1863  13.2560  13.7195  13.7486  13.8257  13.8289
    14.4136  14.7534  14.7543  15.2713  15.5125  15.5238  15.6862  16.2344
    16.2369  16.7475  17.0026  17.0091  17.6251

          k = 0.1667 0.1667 0.3150 ( 62249 PWs)   bands (ev):

   -66.1866 -66.1864 -66.1857 -66.1857 -66.1855 -66.1855 -66.1848 -66.1846
   -30.5465 -30.5402 -30.5396 -30.5365 -30.5298 -30.5279 -30.5277 -30.5266
   -30.5254 -30.5164 -30.5159 -30.5135 -30.5024 -30.4986 -30.4984 -30.4952
   -30.4440 -30.4439 -30.4410 -30.4410 -30.4360 -30.4359 -30.4328 -30.4320
   -20.3531 -20.3530 -20.3529 -20.3529 -20.3528 -20.3528 -20.3526 -20.3526
   -20.3322 -20.3321 -20.3317 -20.3317 -20.3313 -20.3313 -20.3310 -20.3308
   -20.3305 -20.3301 -20.3300 -20.3296 -20.3296 -20.3290 -20.3290 -20.3284
   -20.3278 -20.3274 -20.3274 -20.3270 -20.3258 -20.3255 -20.3255 -20.3252
   -20.3190 -20.3190 -20.3185 -20.3185 -20.3180 -20.3180 -20.3178 -20.3178
   -20.3133 -20.3132 -20.3129 -20.3129 -20.3126 -20.3126 -20.3119 -20.3117
   -20.3113 -20.3112 -20.3101 -20.3101 -20.3092 -20.3092 -20.3084 -20.3083
    -9.7464  -9.6138  -9.3235  -9.3226  -9.2037  -9.2026  -8.9741  -8.9673
    -8.7304  -8.6117  -8.6095  -8.6089  -8.1482  -8.1002  -8.0997  -8.0773
    -7.9219  -7.9142  -7.8979  -7.8852  -7.8080  -7.7953  -7.7635  -7.7547
     1.4600   1.4605   1.5561   1.5610   1.5631   1.5683   1.8510   1.8969
     2.4451   2.5620   2.5649   2.5775   2.6102   2.7255   3.0000   3.0202
     3.1132   3.1246   3.7053   3.7248   3.7355   3.7765   4.1269   4.4301
     4.4324   4.4586   4.4821   4.5501   4.5756   4.7777   4.8350   4.9247
     4.9493   4.9922   5.1395   5.1552   5.3520   5.3818   5.4483   5.4549
     5.6625   5.6769   5.7107   5.7286   5.8067   5.8103   6.2846   6.3080
     6.4317   6.4386   6.4726   6.6269   6.7286   6.7677   6.8474   6.8568
     6.9123   6.9165   7.0059   7.0061   7.1115   7.1165   7.1461   7.1588
     7.3049   7.3280   7.7379   7.7585   7.8057   7.8223   7.8253   7.8494
     9.9245   9.9413  10.8042  10.8167  10.8840  10.8840  11.8441  11.8823
    11.9767  11.9889  12.2054  12.2072  12.3063  12.3067  12.7719  12.8237
    13.0806  13.1632  13.2356  13.2876  13.5491  13.5528  13.6270  13.6581
    15.0504  15.3348  15.3433  15.5220  15.5243  15.7459  16.1114  16.1158
    16.2323  16.6501  17.2752  17.3517  17.3814

          k = 0.1667 0.1667-0.4725 ( 62220 PWs)   bands (ev):

   -66.1865 -66.1865 -66.1856 -66.1856 -66.1856 -66.1856 -66.1847 -66.1847
   -30.5405 -30.5405 -30.5353 -30.5353 -30.5282 -30.5282 -30.5260 -30.5259
   -30.5160 -30.5160 -30.5098 -30.5098 -30.5088 -30.5088 -30.5058 -30.5058
   -30.4439 -30.4439 -30.4410 -30.4410 -30.4361 -30.4361 -30.4325 -30.4325
   -20.3531 -20.3531 -20.3528 -20.3528 -20.3528 -20.3528 -20.3526 -20.3526
   -20.3322 -20.3322 -20.3316 -20.3316 -20.3313 -20.3313 -20.3309 -20.3309
   -20.3300 -20.3300 -20.3295 -20.3295 -20.3294 -20.3294 -20.3289 -20.3289
   -20.3269 -20.3269 -20.3266 -20.3266 -20.3264 -20.3264 -20.3262 -20.3262
   -20.3190 -20.3190 -20.3185 -20.3185 -20.3180 -20.3180 -20.3179 -20.3179
   -20.3132 -20.3132 -20.3129 -20.3129 -20.3126 -20.3126 -20.3118 -20.3118
   -20.3112 -20.3112 -20.3101 -20.3101 -20.3092 -20.3092 -20.3084 -20.3084
    -9.6718  -9.6718  -9.2562  -9.2562  -9.2443  -9.2442  -8.9707  -8.9707
    -8.4428  -8.4428  -8.3851  -8.3851  -8.3802  -8.3802  -8.3707  -8.3706
    -7.9199  -7.9199  -7.8933  -7.8933  -7.8031  -7.8030  -7.7597  -7.7597
     1.4602   1.4602   1.5603   1.5603   1.5671   1.5671   1.8872   1.8872
     2.5954   2.5954   3.1594   3.1595   3.2327   3.2327   3.2853   3.2853
     3.3572   3.3572   3.4029   3.4029   3.6032   3.6032   3.6180   3.6181
     3.7842   3.7842   4.4636   4.4636   4.5178   4.5178   4.9787   4.9787
     5.0615   5.0615   5.1761   5.1761   5.2274   5.2274   5.4344   5.4344
     5.4792   5.4792   5.7222   5.7222   5.7637   5.7637   6.3176   6.3176
     6.4659   6.4659   6.5337   6.5337   6.7545   6.7545   6.8856   6.8856
     6.9122   6.9122   7.0597   7.0597   7.2497   7.2497   7.4632   7.4632
     7.4844   7.4844   7.5177   7.5177   7.5578   7.5579   7.7717   7.7717
     9.9372   9.9372  11.3286  11.3286  11.3809  11.3809  11.4157  11.4157
    11.4643  11.4643  12.2038  12.2038  12.3030  12.3030  12.8123  12.8123
    13.2794  13.2794  13.3257  13.3257  13.3339  13.3339  13.5012  13.5012
    15.5015  15.5015  15.6561  15.6561  15.8451  15.8451  15.8694  15.8694
    16.5701  16.5701  17.7857  17.7857  17.8914

          k = 0.1667 0.3333 0.0000 ( 62265 PWs)   bands (ev):

   -66.1865 -66.1861 -66.1860 -66.1856 -66.1856 -66.1852 -66.1851 -66.1847
   -30.5540 -30.5509 -30.5479 -30.5445 -30.5310 -30.5282 -30.5223 -30.5197
   -30.5147 -30.5130 -30.5039 -30.5016 -30.4914 -30.4889 -30.4830 -30.4800
   -30.4608 -30.4576 -30.4533 -30.4501 -30.4428 -30.4404 -30.4350 -30.4328
   -20.3531 -20.3530 -20.3529 -20.3528 -20.3528 -20.3527 -20.3527 -20.3526
   -20.3322 -20.3320 -20.3319 -20.3316 -20.3315 -20.3313 -20.3312 -20.3311
   -20.3309 -20.3308 -20.3308 -20.3306 -20.3292 -20.3288 -20.3285 -20.3284
   -20.3282 -20.3281 -20.3279 -20.3277 -20.3247 -20.3245 -20.3243 -20.3241
   -20.3189 -20.3187 -20.3180 -20.3179 -20.3177 -20.3172 -20.3167 -20.3165
   -20.3144 -20.3140 -20.3137 -20.3135 -20.3129 -20.3125 -20.3125 -20.3119
   -20.3110 -20.3109 -20.3103 -20.3099 -20.3098 -20.3090 -20.3090 -20.3085
    -9.7181  -9.4891  -9.4310  -9.2714  -9.2174  -9.0385  -8.9219  -8.8748
    -8.8327  -8.7911  -8.7482  -8.6822  -8.2224  -8.2036  -8.1352  -8.1088
    -7.9008  -7.8701  -7.8303  -7.8024  -7.7738  -7.7502  -7.7391  -7.7131
     1.5071   1.5093   1.5823   1.5990   1.6596   1.6945   1.7019   1.7536
     2.2486   2.2853   2.4337   2.5155   2.7392   2.8145   2.8470   2.9211
     2.9594   3.0906   3.7904   3.8666   3.9237   3.9353   4.2039   4.2773
     4.3010   4.4949   4.5159   4.5922   4.6502   4.7314   4.7533   4.8899
     5.0411   5.0623   5.1267   5.1864   5.2945   5.4107   5.5862   5.6443
     5.7206   5.7475   5.7994   5.8672   5.8777   6.0140   6.1064   6.1340
     6.4110   6.4773   6.5256   6.5678   6.5934   6.6926   6.7084   6.7371
     6.7709   6.8619   6.8790   6.8946   7.0714   7.1061   7.1499   7.2229
     7.3320   7.3727   7.7148   7.7297   7.9105   7.9506   8.0703   8.0838
    10.2359  10.2456  10.5094  10.5715  10.8570  10.9817  11.8388  11.9117
    12.0787  12.3248  12.3902  12.4255  12.5106  12.5720  12.7007  12.7596
    12.8138  13.0012  13.0118  13.2050  13.5519  13.5826  13.8186  13.8354
    14.3060  14.4764  14.7164  15.1830  15.4570  15.7479  15.9166  16.1758
    16.3838  17.0810  17.3929  17.4473  17.4899

          k = 0.1667 0.3333 0.1575 ( 62260 PWs)   bands (ev):

   -66.1865 -66.1861 -66.1860 -66.1856 -66.1856 -66.1853 -66.1851 -66.1847
   -30.5511 -30.5478 -30.5445 -30.5408 -30.5312 -30.5283 -30.5221 -30.5193
   -30.5150 -30.5136 -30.5036 -30.5016 -30.4947 -30.4920 -30.4858 -30.4830
   -30.4609 -30.4576 -30.4537 -30.4503 -30.4428 -30.4404 -30.4351 -30.4330
   -20.3531 -20.3530 -20.3529 -20.3528 -20.3528 -20.3527 -20.3527 -20.3526
   -20.3322 -20.3320 -20.3318 -20.3316 -20.3315 -20.3312 -20.3312 -20.3309
   -20.3309 -20.3307 -20.3306 -20.3304 -20.3293 -20.3289 -20.3286 -20.3283
   -20.3282 -20.3279 -20.3278 -20.3275 -20.3250 -20.3248 -20.3247 -20.3245
   -20.3189 -20.3186 -20.3180 -20.3179 -20.3176 -20.3171 -20.3168 -20.3166
   -20.3144 -20.3140 -20.3138 -20.3135 -20.3129 -20.3125 -20.3125 -20.3119
   -20.3110 -20.3109 -20.3103 -20.3099 -20.3098 -20.3090 -20.3090 -20.3085
    -9.6877  -9.4556  -9.4418  -9.2269  -9.2232  -8.9687  -8.9291  -8.8666
    -8.8336  -8.7528  -8.7133  -8.6563  -8.2241  -8.2056  -8.1458  -8.1077
    -7.9121  -7.8895  -7.8618  -7.8574  -7.8253  -7.8201  -7.8017  -7.7802
     1.5513   1.5670   1.5829   1.5986   1.8434   1.8586   1.9271   1.9516
     2.2489   2.3003   2.4354   2.5343   2.8053   2.8383   2.8984   2.9233
     3.0319   3.1480   3.7888   3.8524   3.9000   3.9247   4.1209   4.1871
     4.2669   4.4011   4.4870   4.5966   4.6523   4.6881   4.7312   4.8157
     4.9208   4.9555   4.9677   5.1774   5.1971   5.2392   5.3518   5.6126
     5.6376   5.6720   5.7479   5.8066   5.8599   5.8824   6.0888   6.1261
     6.3795   6.5136   6.5421   6.6399   6.7051   6.7214   6.7308   6.7841
     6.8490   6.8668   6.9223   6.9567   7.0681   7.1012   7.1527   7.2264
     7.3300   7.3745   7.7151   7.7272   7.8746   7.9060   8.0124   8.0188
    10.3651  10.4013  10.5397  10.5891  10.9679  11.0692  11.8388  11.9107
    12.0598  12.3163  12.3704  12.4203  12.4502  12.4838  12.6234  12.7021
    12.7755  12.9809  13.0195  13.2006  13.4673  13.4996  13.7735  13.7897
    14.5715  14.7301  15.0435  15.4977  15.6264  15.7454  15.9321  16.1476
    16.4834  17.0423  17.1753  17.4471  17.5064

          k = 0.1667 0.3333 0.3150 ( 62265 PWs)   bands (ev):

   -66.1864 -66.1862 -66.1859 -66.1857 -66.1855 -66.1853 -66.1850 -66.1848
   -30.5440 -30.5407 -30.5357 -30.5319 -30.5309 -30.5284 -30.5212 -30.5174
   -30.5167 -30.5154 -30.5041 -30.5023 -30.5013 -30.5002 -30.4924 -30.4903
   -30.4610 -30.4576 -30.4543 -30.4506 -30.4428 -30.4404 -30.4354 -30.4333
   -20.3530 -20.3530 -20.3529 -20.3528 -20.3528 -20.3527 -20.3527 -20.3526
   -20.3321 -20.3320 -20.3318 -20.3315 -20.3315 -20.3312 -20.3311 -20.3309
   -20.3304 -20.3301 -20.3300 -20.3297 -20.3295 -20.3291 -20.3289 -20.3285
   -20.3277 -20.3275 -20.3273 -20.3271 -20.3258 -20.3256 -20.3255 -20.3253
   -20.3189 -20.3186 -20.3180 -20.3180 -20.3176 -20.3171 -20.3168 -20.3166
   -20.3144 -20.3139 -20.3138 -20.3135 -20.3128 -20.3125 -20.3125 -20.3120
   -20.3110 -20.3109 -20.3103 -20.3099 -20.3098 -20.3090 -20.3089 -20.3085
    -9.6142  -9.4759  -9.3780  -9.2521  -9.1146  -8.9558  -8.8540  -8.8392
    -8.7681  -8.6278  -8.5903  -8.5603  -8.2495  -8.2383  -8.1948  -8.1136
    -8.0973  -8.0809  -8.0563  -8.0043  -7.8875  -7.8641  -7.8136  -7.7913
     1.5730   1.5793   1.5923   1.5981   2.1921   2.2352   2.3091   2.4224
     2.4619   2.5605   2.5767   2.7310   2.8518   2.9196   3.0257   3.1054
     3.2492   3.3217   3.6762   3.7086   3.7529   3.7962   3.8751   3.9582
     4.1023   4.3054   4.4473   4.4715   4.4982   4.5207   4.5746   4.6605
     4.7375   4.8358   4.8508   4.9128   4.9531   5.0191   5.1442   5.1727
     5.3337   5.3626   5.4877   5.6429   5.7410   5.8113   6.1137   6.1266
     6.5258   6.6006   6.6207   6.7317   6.8034   6.8308   6.9003   6.9853
     6.9987   7.0197   7.0525   7.0696   7.1285   7.1532   7.2046   7.2540
     7.3333   7.3826   7.6910   7.7256   7.7406   7.7646   7.8179   7.8381
    10.5029  10.5438  10.8407  10.8713  11.2740  11.3393  11.8017  11.8784
    11.9020  12.0433  12.1471  12.1804  12.3898  12.4906  12.5910  12.6113
    12.7894  12.9687  13.0425  13.2172  13.2623  13.3206  13.5776  13.6078
    15.2274  15.3249  15.6808  15.8439  15.9135  16.0106  16.0622  16.5314
    16.6767  16.8156  16.9333  17.4784  17.6137

          k = 0.1667 0.3333-0.4725 ( 62252 PWs)   bands (ev):

   -66.1863 -66.1863 -66.1858 -66.1858 -66.1854 -66.1854 -66.1849 -66.1849
   -30.5390 -30.5362 -30.5336 -30.5289 -30.5265 -30.5224 -30.5199 -30.5177
   -30.5171 -30.5168 -30.5110 -30.5101 -30.5007 -30.4987 -30.4985 -30.4953
   -30.4611 -30.4576 -30.4546 -30.4507 -30.4428 -30.4404 -30.4356 -30.4334
   -20.3530 -20.3530 -20.3529 -20.3528 -20.3528 -20.3527 -20.3526 -20.3526
   -20.3321 -20.3320 -20.3318 -20.3315 -20.3315 -20.3313 -20.3311 -20.3310
   -20.3299 -20.3299 -20.3296 -20.3295 -20.3294 -20.3293 -20.3291 -20.3290
   -20.3269 -20.3268 -20.3267 -20.3266 -20.3266 -20.3264 -20.3263 -20.3263
   -20.3189 -20.3186 -20.3181 -20.3180 -20.3176 -20.3171 -20.3168 -20.3167
   -20.3143 -20.3139 -20.3138 -20.3136 -20.3128 -20.3126 -20.3125 -20.3120
   -20.3110 -20.3109 -20.3103 -20.3099 -20.3098 -20.3090 -20.3089 -20.3085
    -9.5371  -9.5331  -9.3079  -9.2969  -9.0195  -9.0073  -8.8471  -8.8422
    -8.4906  -8.4884  -8.4182  -8.4155  -8.3732  -8.3705  -8.3581  -8.3574
    -8.1857  -8.1707  -8.0852  -8.0709  -7.8871  -7.8672  -7.8130  -7.7935
     1.5776   1.5786   1.5957   1.5974   2.2317   2.2351   2.4116   2.4190
     2.8656   2.8687   3.1631   3.1717   3.2259   3.2440   3.2773   3.2987
     3.3532   3.3664   3.4777   3.5034   3.5775   3.6067   3.7288   3.7404
     3.8195   3.8217   3.8844   3.9562   4.4379   4.4913   4.6016   4.6598
     4.6902   4.7430   4.7927   4.8397   4.9965   5.0039   5.0306   5.1262
     5.2054   5.2643   5.3360   5.4331   5.7473   5.7685   6.1195   6.1284
     6.5908   6.6136   6.6857   6.7042   6.8409   6.8633   6.9726   7.0256
     7.0889   7.1102   7.1634   7.1900   7.1953   7.2057   7.4401   7.4642
     7.4828   7.4900   7.5039   7.5204   7.5404   7.5581   7.7335   7.7384
    10.5255  10.5455  11.3494  11.3765  11.4099  11.4131  11.7286  11.7298
    11.7493  11.7813  11.8731  11.9370  12.3791  12.4671  12.6547  12.6895
    12.8603  12.8874  13.0277  13.0887  13.3195  13.3438  13.3824  13.4387
    15.5929  15.6212  15.7833  15.8021  16.2306  16.2521  16.5137  16.5469
    16.7496  16.7504  17.4054  17.4318  17.6730

          k = 0.1667-0.5000 0.0000 ( 62322 PWs)   bands (ev):

   -66.1863 -66.1863 -66.1859 -66.1858 -66.1854 -66.1854 -66.1850 -66.1850
   -30.5523 -30.5523 -30.5461 -30.5461 -30.5294 -30.5294 -30.5208 -30.5208
   -30.4983 -30.4983 -30.4970 -30.4970 -30.4817 -30.4817 -30.4803 -30.4803
   -30.4722 -30.4722 -30.4704 -30.4704 -30.4418 -30.4418 -30.4339 -30.4339
   -20.3530 -20.3530 -20.3529 -20.3529 -20.3528 -20.3528 -20.3526 -20.3526
   -20.3321 -20.3321 -20.3317 -20.3317 -20.3314 -20.3314 -20.3311 -20.3311
   -20.3310 -20.3310 -20.3307 -20.3307 -20.3290 -20.3290 -20.3284 -20.3284
   -20.3282 -20.3282 -20.3278 -20.3278 -20.3246 -20.3246 -20.3243 -20.3243
   -20.3188 -20.3188 -20.3179 -20.3179 -20.3160 -20.3160 -20.3155 -20.3155
   -20.3152 -20.3152 -20.3150 -20.3150 -20.3128 -20.3128 -20.3122 -20.3122
   -20.3106 -20.3106 -20.3104 -20.3104 -20.3095 -20.3095 -20.3088 -20.3088
    -9.5858  -9.5858  -9.3009  -9.3009  -9.1191  -9.1191  -8.8155  -8.8155
    -8.5776  -8.5776  -8.5670  -8.5670  -8.5121  -8.5121  -8.4462  -8.4462
    -7.8668  -7.8668  -7.8325  -7.8325  -7.7656  -7.7656  -7.7265  -7.7265
     1.5080   1.5080   1.6014   1.6014   1.6790   1.6790   1.7475   1.7475
     2.7632   2.7632   2.9834   2.9834   3.0709   3.0709   3.1966   3.1967
     3.2731   3.2731   3.3868   3.3868   3.5337   3.5337   3.7932   3.7932
     3.8983   3.8983   4.4255   4.4255   4.5856   4.5856   4.8856   4.8856
     5.0323   5.0323   5.0557   5.0557   5.2782   5.2782   5.6679   5.6679
     5.7604   5.7604   5.8181   5.8181   5.8671   5.8671   6.0177   6.0177
     6.3593   6.3593   6.4832   6.4832   6.6784   6.6784   6.7333   6.7333
     6.8288   6.8288   6.9369   6.9369   7.0008   7.0008   7.4972   7.4972
     7.5355   7.5355   7.6849   7.6849   7.7195   7.7195   8.0807   8.0807
    10.2553  10.2553  11.2063  11.2063  11.2878  11.2878  11.5389  11.5389
    11.7464  11.7464  12.5431  12.5431  12.5844  12.5844  12.6604  12.6604
    12.8517  12.8517  13.1839  13.1839  13.2863  13.2863  13.8214  13.8214
    14.4170  14.4170  14.9908  14.9908  15.8663  15.8663  16.0023  16.0023
    16.6868  16.6868  17.8433  17.8434  17.9368

          k = 0.1667-0.5000 0.1575 ( 62292 PWs)   bands (ev):

   -66.1862 -66.1862 -66.1859 -66.1859 -66.1853 -66.1853 -66.1850 -66.1850
   -30.5493 -30.5493 -30.5425 -30.5425 -30.5294 -30.5294 -30.5205 -30.5204
   -30.5005 -30.5005 -30.4989 -30.4989 -30.4820 -30.4820 -30.4804 -30.4804
   -30.4736 -30.4736 -30.4715 -30.4715 -30.4418 -30.4418 -30.4341 -30.4341
   -20.3530 -20.3530 -20.3529 -20.3529 -20.3527 -20.3527 -20.3527 -20.3527
   -20.3320 -20.3320 -20.3317 -20.3317 -20.3314 -20.3314 -20.3311 -20.3311
   -20.3308 -20.3308 -20.3305 -20.3305 -20.3291 -20.3291 -20.3284 -20.3284
   -20.3281 -20.3281 -20.3276 -20.3276 -20.3249 -20.3249 -20.3246 -20.3246
   -20.3188 -20.3188 -20.3179 -20.3179 -20.3160 -20.3160 -20.3154 -20.3154
   -20.3152 -20.3152 -20.3150 -20.3150 -20.3127 -20.3127 -20.3122 -20.3122
   -20.3106 -20.3106 -20.3104 -20.3104 -20.3095 -20.3095 -20.3088 -20.3088
    -9.5531  -9.5531  -9.3105  -9.3105  -9.0553  -9.0553  -8.7823  -8.7823
    -8.5789  -8.5789  -8.5699  -8.5699  -8.5105  -8.5105  -8.4381  -8.4381
    -7.8925  -7.8925  -7.8498  -7.8498  -7.8297  -7.8297  -7.8054  -7.8054
     1.5648   1.5648   1.6008   1.6008   1.8704   1.8704   1.9506   1.9506
     2.8273   2.8273   2.9979   2.9979   3.0777   3.0777   3.2143   3.2143
     3.2757   3.2757   3.3991   3.3991   3.5264   3.5264   3.8030   3.8030
     3.9486   3.9486   4.2784   4.2784   4.5677   4.5677   4.7214   4.7214
     4.9459   4.9459   5.0130   5.0130   5.1212   5.1212   5.4706   5.4706
     5.7094   5.7094   5.7442   5.7442   5.8518   5.8518   5.8848   5.8848
     6.4821   6.4821   6.6146   6.6146   6.6784   6.6784   6.7799   6.7799
     6.8948   6.8948   6.9135   6.9135   7.0341   7.0341   7.4991   7.4991
     7.5297   7.5298   7.6655   7.6655   7.6967   7.6967   8.0180   8.0180
    10.4134  10.4134  11.2141  11.2141  11.2872  11.2872  11.6046  11.6046
    11.8054  11.8054  12.4568  12.4568  12.5409  12.5409  12.6426  12.6426
    12.8321  12.8321  13.0810  13.0810  13.2288  13.2288  13.7746  13.7746
    14.6801  14.6801  15.3525  15.3525  15.9586  15.9586  15.9974  15.9974
    16.7192  16.7192  17.6735  17.6736  17.9394

          k = 0.1667-0.5000 0.3150 ( 62264 PWs)   bands (ev):

   -66.1862 -66.1861 -66.1860 -66.1859 -66.1853 -66.1853 -66.1851 -66.1851
   -30.5422 -30.5422 -30.5328 -30.5328 -30.5298 -30.5298 -30.5187 -30.5187
   -30.5078 -30.5078 -30.5048 -30.5048 -30.4828 -30.4828 -30.4802 -30.4802
   -30.4763 -30.4763 -30.4732 -30.4732 -30.4418 -30.4418 -30.4344 -30.4344
   -20.3530 -20.3530 -20.3529 -20.3529 -20.3527 -20.3527 -20.3527 -20.3527
   -20.3320 -20.3320 -20.3317 -20.3317 -20.3313 -20.3313 -20.3311 -20.3311
   -20.3303 -20.3303 -20.3299 -20.3299 -20.3293 -20.3293 -20.3287 -20.3287
   -20.3276 -20.3276 -20.3272 -20.3272 -20.3257 -20.3257 -20.3254 -20.3254
   -20.3187 -20.3187 -20.3180 -20.3180 -20.3160 -20.3160 -20.3154 -20.3154
   -20.3152 -20.3152 -20.3151 -20.3151 -20.3127 -20.3127 -20.3123 -20.3123
   -20.3106 -20.3106 -20.3104 -20.3104 -20.3095 -20.3095 -20.3088 -20.3088
    -9.4758  -9.4758  -9.3408  -9.3408  -8.8862  -8.8862  -8.6929  -8.6929
    -8.5929  -8.5929  -8.5811  -8.5811  -8.4842  -8.4842  -8.4046  -8.4046
    -8.0962  -8.0962  -8.0606  -8.0606  -7.8506  -7.8506  -7.8274  -7.8274
     1.5913   1.5913   1.6001   1.6001   2.4429   2.4429   2.5545   2.5545
     2.9841   2.9841   3.0454   3.0454   3.0979   3.0979   3.2536   3.2536
     3.2869   3.2869   3.4413   3.4414   3.4977   3.4977   3.7158   3.7158
     4.0606   4.0606   4.1153   4.1153   4.1921   4.1921   4.4154   4.4154
     4.7577   4.7577   4.8512   4.8512   5.0153   5.0153   5.0713   5.0713
     5.1375   5.1375   5.5597   5.5597   5.8417   5.8417   5.8696   5.8696
     6.6516   6.6516   6.7702   6.7702   6.8128   6.8128   6.8567   6.8567
     7.0371   7.0371   7.0785   7.0786   7.1739   7.1739   7.4927   7.4927
     7.5179   7.5180   7.5909   7.5909   7.6220   7.6220   7.8256   7.8256
    10.8253  10.8253  11.2313  11.2313  11.2885  11.2885  11.7254  11.7254
    11.9848  11.9848  12.1512  12.1512  12.4772  12.4772  12.5636  12.5636
    12.7334  12.7334  12.8629  12.8629  13.2098  13.2098  13.5817  13.5817
    15.2902  15.2902  15.8880  15.8880  16.2438  16.2438  16.3745  16.3745
    16.8357  16.8357  17.3312  17.3313  17.7995

          k = 0.1667-0.5000-0.4725 ( 62232 PWs)   bands (ev):

   -66.1861 -66.1861 -66.1860 -66.1860 -66.1852 -66.1852 -66.1852 -66.1852
   -30.5375 -30.5375 -30.5305 -30.5305 -30.5206 -30.5206 -30.5190 -30.5190
   -30.5139 -30.5139 -30.5123 -30.5123 -30.4832 -30.4832 -30.4798 -30.4798
   -30.4777 -30.4777 -30.4738 -30.4738 -30.4418 -30.4418 -30.4345 -30.4345
   -20.3530 -20.3530 -20.3529 -20.3529 -20.3527 -20.3527 -20.3527 -20.3527
   -20.3319 -20.3319 -20.3317 -20.3317 -20.3313 -20.3313 -20.3312 -20.3312
   -20.3297 -20.3297 -20.3297 -20.3297 -20.3292 -20.3292 -20.3291 -20.3291
   -20.3268 -20.3268 -20.3267 -20.3267 -20.3265 -20.3265 -20.3264 -20.3264
   -20.3187 -20.3187 -20.3180 -20.3180 -20.3160 -20.3160 -20.3153 -20.3153
   -20.3153 -20.3153 -20.3151 -20.3151 -20.3127 -20.3127 -20.3123 -20.3123
   -20.3106 -20.3106 -20.3104 -20.3104 -20.3095 -20.3095 -20.3088 -20.3088
    -9.4014  -9.4014  -9.3916  -9.3916  -8.7115  -8.7114  -8.6900  -8.6900
    -8.6095  -8.6095  -8.5928  -8.5928  -8.3600  -8.3600  -8.3276  -8.3276
    -8.3090  -8.3090  -8.2770  -8.2770  -7.8500  -7.8500  -7.8301  -7.8301
     1.5959   1.5959   1.5996   1.5996   2.9644   2.9644   3.0165   3.0165
     3.1217   3.1217   3.1683   3.1683   3.2242   3.2242   3.2796   3.2796
     3.3078   3.3078   3.4276   3.4276   3.5036   3.5036   3.5584   3.5584
     3.6134   3.6134   3.8086   3.8087   4.2943   4.2943   4.3682   4.3682
     4.4158   4.4158   4.4857   4.4857   4.8940   4.8940   5.0670   5.0670
     5.1834   5.1834   5.3449   5.3449   5.8412   5.8412   5.8594   5.8594
     6.7256   6.7256   6.7646   6.7646   6.8460   6.8460   6.8878   6.8878
     7.2511   7.2512   7.2797   7.2797   7.3608   7.3608   7.4304   7.4304
     7.4767   7.4767   7.5307   7.5307   7.5756   7.5756   7.6054   7.6054
    11.1790  11.1790  11.2473  11.2473  11.4013  11.4013  11.4641  11.4641
    12.1720  12.1720  12.2178  12.2178  12.2968  12.2968  12.3440  12.3440
    12.7003  12.7003  12.7703  12.7703  13.3280  13.3280  13.3787  13.3787
    15.6974  15.6974  15.7217  15.7217  16.9080  16.9081  16.9517  16.9518
    17.1660  17.1660  17.2239  17.2240  17.2961

          k = 0.3333 0.3333 0.0000 ( 62316 PWs)   bands (ev):

   -66.1863 -66.1859 -66.1858 -66.1858 -66.1854 -66.1854 -66.1853 -66.1849
   -30.5522 -30.5491 -30.5488 -30.5456 -30.5190 -30.5151 -30.5134 -30.5100
   -30.5079 -30.5039 -30.5021 -30.4995 -30.4934 -30.4862 -30.4854 -30.4776
   -30.4616 -30.4602 -30.4597 -30.4580 -30.4519 -30.4509 -30.4507 -30.4473
   -20.3530 -20.3529 -20.3529 -20.3529 -20.3528 -20.3528 -20.3527 -20.3526
   -20.3321 -20.3319 -20.3317 -20.3317 -20.3315 -20.3314 -20.3313 -20.3311
   -20.3310 -20.3308 -20.3308 -20.3307 -20.3290 -20.3287 -20.3286 -20.3283
   -20.3283 -20.3280 -20.3280 -20.3278 -20.3247 -20.3245 -20.3244 -20.3243
   -20.3178 -20.3177 -20.3173 -20.3173 -20.3168 -20.3168 -20.3166 -20.3163
   -20.3145 -20.3145 -20.3138 -20.3137 -20.3137 -20.3135 -20.3133 -20.3128
   -20.3108 -20.3106 -20.3101 -20.3101 -20.3096 -20.3096 -20.3092 -20.3090
    -9.5780  -9.3280  -9.3253  -9.2507  -9.0787  -8.9733  -8.9691  -8.7606
    -8.7459  -8.7294  -8.7005  -8.6964  -8.2535  -8.1976  -8.1938  -8.1760
    -8.1751  -8.1642  -8.0670  -8.0446  -7.7768  -7.7497  -7.7496  -7.7233
     1.6004   1.6372   1.6392   1.6768   2.1501   2.1586   2.2577   2.2772
     2.2896   2.3159   2.5076   2.6073   2.9557   2.9837   3.0153   3.0448
     3.2169   3.2266   3.7902   3.8132   3.9106   3.9239   4.1000   4.1060
     4.1660   4.1883   4.2669   4.3397   4.3740   4.4559   4.5063   4.5363
     4.7685   4.8521   4.9624   5.0218   5.0355   5.0533   5.1925   5.4279
     5.4524   5.4891   5.4935   5.6749   5.9282   5.9316   5.9348   6.0600
     6.5050   6.5070   6.5121   6.5277   6.5353   6.5686   6.5708   6.6102
     7.0036   7.1595   7.1704   7.1744   7.1955   7.2761   7.3460   7.3569
     7.3904   7.4834   7.6833   7.6883   7.8874   7.9367   7.9808   8.0012
    10.7165  10.8280  10.8321  10.8832  11.0015  11.1945  12.0037  12.0222
    12.0574  12.0846  12.1345  12.2337  12.4541  12.4573  12.7215  12.7687
    12.7902  12.7930  12.9290  12.9928  13.4831  13.5274  13.5635  13.6425
    14.4217  14.6700  14.6701  15.0908  15.8615  16.2313  16.2651  16.7246
    16.7456  17.0881  17.0997  17.6779  17.7303

          k = 0.3333 0.3333 0.1575 ( 62283 PWs)   bands (ev):

   -66.1863 -66.1859 -66.1858 -66.1858 -66.1854 -66.1854 -66.1853 -66.1849
   -30.5489 -30.5457 -30.5454 -30.5419 -30.5198 -30.5157 -30.5140 -30.5099
   -30.5080 -30.5039 -30.5019 -30.4992 -30.4965 -30.4886 -30.4878 -30.4804
   -30.4615 -30.4603 -30.4597 -30.4582 -30.4521 -30.4511 -30.4509 -30.4479
   -20.3530 -20.3529 -20.3529 -20.3529 -20.3528 -20.3528 -20.3527 -20.3526
   -20.3321 -20.3319 -20.3317 -20.3317 -20.3314 -20.3314 -20.3313 -20.3310
   -20.3308 -20.3306 -20.3306 -20.3304 -20.3291 -20.3288 -20.3287 -20.3284
   -20.3281 -20.3279 -20.3279 -20.3276 -20.3250 -20.3248 -20.3248 -20.3246
   -20.3177 -20.3177 -20.3173 -20.3173 -20.3168 -20.3168 -20.3166 -20.3164
   -20.3145 -20.3145 -20.3138 -20.3137 -20.3137 -20.3135 -20.3133 -20.3128
   -20.3107 -20.3107 -20.3101 -20.3101 -20.3096 -20.3096 -20.3092 -20.3090
    -9.5422  -9.2833  -9.2799  -9.2617  -9.0109  -8.9813  -8.9778  -8.7598
    -8.7454  -8.6928  -8.6737  -8.6700  -8.2668  -8.1985  -8.1957  -8.1758
    -8.1734  -8.1668  -8.0661  -8.0459  -7.8660  -7.8402  -7.8399  -7.8139
     1.8162   1.8476   1.8496   1.8938   2.1506   2.1596   2.2591   2.2763
     2.3036   2.3298   2.5098   2.6199   3.0216   3.0544   3.0838   3.0879
     3.2239   3.2389   3.7893   3.7951   3.8950   3.9168   4.0928   4.0958
     4.2023   4.2091   4.2783   4.3088   4.3397   4.4114   4.5158   4.5180
     4.6993   4.7766   4.8530   4.8999   4.9005   4.9282   5.0019   5.2238
     5.2371   5.4552   5.4685   5.5633   5.6926   5.8005   5.8128   5.8489
     6.5038   6.5172   6.5651   6.6002   6.7170   6.7615   6.7818   6.7832
     7.0271   7.1554   7.1776   7.1829   7.1907   7.2693   7.3405   7.3530
     7.3938   7.4804   7.6837   7.6847   7.8441   7.8978   7.9245   7.9554
    10.7738  10.8986  10.9394  10.9736  11.0516  11.2483  12.0027  12.0248
    12.0571  12.0858  12.1401  12.2502  12.4957  12.5020  12.6534  12.6557
    12.6901  12.7182  12.8334  12.9806  13.3852  13.4424  13.4609  13.5601
    14.7589  15.0044  15.0060  15.4636  15.9629  16.2359  16.2623  16.7634
    16.7786  17.0804  17.0936  17.4105  17.7443

          k = 0.3333 0.3333 0.3150 ( 62263 PWs)   bands (ev):

   -66.1862 -66.1860 -66.1857 -66.1857 -66.1855 -66.1855 -66.1852 -66.1850
   -30.5405 -30.5368 -30.5364 -30.5321 -30.5232 -30.5184 -30.5170 -30.5096
   -30.5085 -30.5058 -30.5033 -30.5012 -30.4981 -30.4943 -30.4936 -30.4871
   -30.4612 -30.4606 -30.4595 -30.4587 -30.4523 -30.4518 -30.4508 -30.4491
   -20.3530 -20.3529 -20.3529 -20.3528 -20.3528 -20.3528 -20.3527 -20.3527
   -20.3320 -20.3319 -20.3317 -20.3316 -20.3314 -20.3314 -20.3313 -20.3311
   -20.3303 -20.3301 -20.3300 -20.3298 -20.3293 -20.3290 -20.3290 -20.3287
   -20.3277 -20.3274 -20.3274 -20.3272 -20.3258 -20.3256 -20.3256 -20.3254
   -20.3177 -20.3177 -20.3174 -20.3174 -20.3168 -20.3167 -20.3167 -20.3165
   -20.3144 -20.3144 -20.3138 -20.3138 -20.3136 -20.3135 -20.3132 -20.3130
   -20.3107 -20.3107 -20.3101 -20.3101 -20.3096 -20.3096 -20.3091 -20.3091
    -9.4557  -9.2988  -9.1756  -9.1722  -9.0119  -9.0073  -8.8227  -8.7575
    -8.7422  -8.5777  -8.5748  -8.5724  -8.3377  -8.2230  -8.2187  -8.1759
    -8.1706  -8.1651  -8.0891  -8.0689  -8.0497  -8.0469  -8.0383  -8.0097
     2.1463   2.1473   2.2000   2.2213   2.2398   2.2736   2.3253   2.4705
[...]
   -20.2128 -20.2128 -20.2125 -20.2125 -20.2100 -20.2100 -20.2097 -20.2097
   -20.2023 -20.2023 -20.2014 -20.2014 -20.2006 -20.2006 -20.2002 -20.2002
   -20.1998 -20.1998 -20.1996 -20.1996 -20.1985 -20.1984 -20.1979 -20.1979
   -20.1950 -20.1950 -20.1949 -20.1949 -20.1943 -20.1943 -20.1940 -20.1940
    -9.3322  -9.3322  -9.0806  -9.0806  -8.9827  -8.9827  -8.6367  -8.6367
    -8.5356  -8.5355  -8.4546  -8.4546  -8.3924  -8.3924  -8.3544  -8.3543
    -8.0485  -8.0485  -8.0317  -8.0317  -7.7964  -7.7964  -7.7706  -7.7706
     1.8388   1.8388   1.8788   1.8788   2.3791   2.3791   2.4144   2.4144
     3.0391   3.0391   3.1192   3.1192   3.1634   3.1634   3.3143   3.3143
     3.4039   3.4039   3.6775   3.6775   3.8196   3.8196   3.9332   3.9332
     3.9892   3.9893   4.1647   4.1647   4.2780   4.2780   4.4526   4.4526
     4.6758   4.6758   4.8129   4.8129   5.0741   5.0741   5.1288   5.1288
     5.1812   5.1812   5.4116   5.4116   5.7979   5.7979   5.8765   5.8765
     6.6127   6.6127   6.6543   6.6543   6.7221   6.7221   6.8379   6.8379
     7.2521   7.2521   7.3657   7.3657   7.4545   7.4545   7.6152   7.6152
     7.6468   7.6468   7.7528   7.7528   7.7922   7.7922   8.0055   8.0055
    11.0591  11.0591  11.5435  11.5435  11.6346  11.6346  11.7545  11.7545
    11.9780  11.9780  12.3303  12.3303  12.4750  12.4750  12.7224  12.7224
    12.8344  12.8345  13.1788  13.1788  13.2160  13.2160  13.6129  13.6129
    15.1347  15.1347  15.5159  15.5159  16.4889  16.4889  16.7677  16.7677
    17.1200  17.1200  17.6209  17.6209  17.9219

          k = 0.3334-0.5000 0.3167 ( 61914 PWs)   bands (ev):

   -66.0761 -66.0761 -66.0759 -66.0759 -66.0756 -66.0756 -66.0754 -66.0754
   -30.4529 -30.4529 -30.4498 -30.4498 -30.4266 -30.4266 -30.4213 -30.4213
   -30.3993 -30.3993 -30.3937 -30.3937 -30.3764 -30.3764 -30.3744 -30.3744
   -30.3700 -30.3700 -30.3676 -30.3676 -30.3513 -30.3513 -30.3442 -30.3442
   -20.2379 -20.2379 -20.2378 -20.2378 -20.2377 -20.2377 -20.2377 -20.2377
   -20.2167 -20.2167 -20.2165 -20.2165 -20.2163 -20.2163 -20.2161 -20.2161
   -20.2154 -20.2154 -20.2152 -20.2152 -20.2140 -20.2140 -20.2137 -20.2137
   -20.2124 -20.2124 -20.2121 -20.2121 -20.2108 -20.2108 -20.2105 -20.2105
   -20.2022 -20.2022 -20.2014 -20.2014 -20.2006 -20.2006 -20.2002 -20.2002
   -20.1999 -20.1999 -20.1996 -20.1996 -20.1984 -20.1984 -20.1980 -20.1980
   -20.1950 -20.1950 -20.1949 -20.1949 -20.1943 -20.1943 -20.1940 -20.1940
    -9.2155  -9.2155  -9.0207  -9.0207  -8.9023  -8.9023  -8.5889  -8.5889
    -8.5370  -8.5370  -8.4482  -8.4482  -8.3820  -8.3820  -8.3344  -8.3344
    -8.0812  -8.0812  -8.0511  -8.0511  -8.0136  -8.0136  -7.9685  -7.9685
     2.2997   2.2997   2.3611   2.3611   2.4858   2.4858   2.5920   2.5920
     3.1105   3.1105   3.1625   3.1625   3.2656   3.2656   3.3467   3.3467
     3.4377   3.4377   3.7041   3.7041   3.7883   3.7883   3.8880   3.8880
     4.0932   4.0932   4.1861   4.1861   4.2312   4.2312   4.3494   4.3494
     4.4242   4.4242   4.5656   4.5656   4.7122   4.7122   4.9384   4.9384
     5.0474   5.0474   5.0965   5.0965   5.1486   5.1486   5.3849   5.3849
     6.9229   6.9229   6.9871   6.9871   7.0583   7.0583   7.1202   7.1202
     7.2725   7.2725   7.3560   7.3560   7.4582   7.4582   7.5900   7.5900
     7.6251   7.6251   7.6866   7.6866   7.7261   7.7261   7.8602   7.8602
    11.3384  11.3385  11.5799  11.5799  11.6711  11.6711  11.9311  11.9311
    12.1397  12.1397  12.3782  12.3782  12.4436  12.4436  12.4818  12.4818
    12.7784  12.7784  12.8932  12.8932  12.9687  12.9687  13.3613  13.3613
    15.9399  15.9399  16.4213  16.4213  16.7183  16.7183  16.7741  16.7741
    17.1584  17.1584  17.5009  17.5009  17.7909

          k = 0.3334-0.5000-0.4751 ( 61856 PWs)   bands (ev):

   -66.0760 -66.0760 -66.0760 -66.0760 -66.0755 -66.0755 -66.0755 -66.0755
   -30.4398 -30.4398 -30.4386 -30.4386 -30.4357 -30.4357 -30.4349 -30.4349
   -30.3993 -30.3993 -30.3943 -30.3943 -30.3764 -30.3764 -30.3744 -30.3744
   -30.3705 -30.3705 -30.3679 -30.3679 -30.3513 -30.3513 -30.3445 -30.3444
   -20.2379 -20.2378 -20.2378 -20.2378 -20.2377 -20.2377 -20.2377 -20.2377
   -20.2167 -20.2167 -20.2166 -20.2166 -20.2163 -20.2163 -20.2162 -20.2162
   -20.2146 -20.2146 -20.2146 -20.2146 -20.2144 -20.2144 -20.2143 -20.2143
   -20.2117 -20.2117 -20.2117 -20.2117 -20.2115 -20.2115 -20.2114 -20.2114
   -20.2022 -20.2022 -20.2015 -20.2015 -20.2006 -20.2006 -20.2001 -20.2001
   -20.1999 -20.1999 -20.1997 -20.1997 -20.1983 -20.1983 -20.1981 -20.1981
   -20.1950 -20.1950 -20.1949 -20.1949 -20.1943 -20.1943 -20.1940 -20.1940
    -9.1016  -9.1015  -9.0920  -9.0920  -8.7046  -8.7046  -8.6864  -8.6864
    -8.4632  -8.4631  -8.4477  -8.4477  -8.3051  -8.3051  -8.2818  -8.2817
    -8.2494  -8.2494  -8.2283  -8.2283  -8.0305  -8.0305  -8.0148  -8.0148
     2.3593   2.3593   2.3669   2.3669   3.0555   3.0555   3.0886   3.0886
     3.1923   3.1923   3.2280   3.2280   3.3301   3.3301   3.3597   3.3597
     3.4705   3.4705   3.5428   3.5428   3.7128   3.7128   3.7532   3.7532
     3.8650   3.8650   3.9897   3.9897   4.3158   4.3158   4.3622   4.3622
     4.4262   4.4262   4.4839   4.4839   4.5674   4.5674   4.6612   4.6612
     4.7465   4.7465   4.9072   4.9072   5.1492   5.1492   5.1709   5.1709
     7.0701   7.0701   7.1447   7.1447   7.2491   7.2491   7.2706   7.2706
     7.3493   7.3493   7.3839   7.3839   7.4751   7.4751   7.5012   7.5012
     7.5737   7.5737   7.6405   7.6405   7.6881   7.6882   7.7238   7.7238
    11.5299  11.5299  11.5762  11.5762  11.8589  11.8589  11.9359  11.9359
    12.2616  12.2616  12.3104  12.3104  12.3906  12.3906  12.4661  12.4661
    12.5918  12.5918  12.6921  12.6921  13.0426  13.0426  13.1196  13.1196
    16.5280  16.5280  16.5680  16.5680  17.1548  17.1548  17.2229  17.2230
    17.3538  17.3538  17.4439  17.4440  17.5169

          k =-0.5000-0.5000 0.0000 ( 61972 PWs)   bands (ev):

   -66.0760 -66.0760 -66.0760 -66.0760 -66.0756 -66.0756 -66.0756 -66.0756
   -30.4658 -30.4658 -30.4657 -30.4657 -30.4109 -30.4109 -30.4102 -30.4102
   -30.3797 -30.3797 -30.3792 -30.3792 -30.3780 -30.3780 -30.3758 -30.3758
   -30.3694 -30.3694 -30.3672 -30.3672 -30.3637 -30.3637 -30.3617 -30.3617
   -20.2378 -20.2378 -20.2378 -20.2378 -20.2377 -20.2377 -20.2377 -20.2377
   -20.2168 -20.2168 -20.2166 -20.2166 -20.2166 -20.2166 -20.2163 -20.2163
   -20.2161 -20.2161 -20.2161 -20.2161 -20.2134 -20.2134 -20.2134 -20.2134
   -20.2128 -20.2128 -20.2127 -20.2127 -20.2096 -20.2096 -20.2095 -20.2095
   -20.2011 -20.2011 -20.2006 -20.2006 -20.2005 -20.2005 -20.2004 -20.2004
   -20.1998 -20.1998 -20.1995 -20.1995 -20.1993 -20.1993 -20.1989 -20.1989
   -20.1947 -20.1947 -20.1946 -20.1946 -20.1945 -20.1945 -20.1945 -20.1945
    -9.2381  -9.2380  -9.2351  -9.2351  -8.6907  -8.6907  -8.6808  -8.6808
    -8.4974  -8.4974  -8.4860  -8.4860  -8.3259  -8.3259  -8.3135  -8.3134
    -8.3003  -8.3003  -8.2876  -8.2876  -7.6893  -7.6893  -7.6891  -7.6891
     1.6325   1.6325   1.6350   1.6350   2.9914   2.9914   3.0275   3.0275
     3.1334   3.1334   3.1579   3.1579   3.2216   3.2216   3.2713   3.2713
     3.4053   3.4054   3.4586   3.4586   3.8333   3.8333   3.8872   3.8872
     3.9016   3.9016   3.9397   3.9397   4.2953   4.2953   4.3050   4.3050
     4.3861   4.3861   4.3946   4.3946   5.0276   5.0276   5.0510   5.0511
     5.4516   5.4517   5.4832   5.4832   6.0933   6.0933   6.0988   6.0988
     6.4799   6.4799   6.4874   6.4874   6.5225   6.5225   6.5251   6.5251
     7.5313   7.5313   7.5455   7.5455   7.5588   7.5588   7.6105   7.6105
     7.7001   7.7001   7.7054   7.7054   7.8723   7.8723   7.9155   7.9155
    11.6014  11.6014  11.6035  11.6035  11.6987  11.6987  11.7246  11.7246
    12.0641  12.0641  12.0673  12.0673  12.2546  12.2546  12.2562  12.2562
    13.2216  13.2216  13.2260  13.2260  13.3740  13.3740  13.3844  13.3844
    15.0049  15.0049  15.0061  15.0061  16.8493  16.8493  16.8815  16.8815
    17.7247  17.7247  17.7297  17.7297  17.8884

          k =-0.5000-0.5000 0.1584 ( 61964 PWs)   bands (ev):

   -66.0760 -66.0760 -66.0760 -66.0760 -66.0756 -66.0756 -66.0756 -66.0756
   -30.4619 -30.4619 -30.4618 -30.4618 -30.4141 -30.4141 -30.4135 -30.4135
   -30.3796 -30.3796 -30.3792 -30.3792 -30.3779 -30.3779 -30.3759 -30.3759
   -30.3693 -30.3693 -30.3671 -30.3671 -30.3646 -30.3646 -30.3625 -30.3625
   -20.2378 -20.2378 -20.2378 -20.2378 -20.2377 -20.2377 -20.2377 -20.2377
   -20.2167 -20.2167 -20.2166 -20.2166 -20.2165 -20.2164 -20.2163 -20.2163
   -20.2160 -20.2160 -20.2159 -20.2159 -20.2135 -20.2135 -20.2135 -20.2135
   -20.2126 -20.2126 -20.2126 -20.2126 -20.2099 -20.2099 -20.2099 -20.2099
   -20.2010 -20.2010 -20.2006 -20.2006 -20.2006 -20.2006 -20.2004 -20.2004
   -20.1998 -20.1998 -20.1995 -20.1995 -20.1994 -20.1994 -20.1990 -20.1990
   -20.1947 -20.1947 -20.1946 -20.1946 -20.1946 -20.1946 -20.1945 -20.1945
    -9.1782  -9.1782  -9.1749  -9.1749  -8.7033  -8.7032  -8.6935  -8.6935
    -8.4819  -8.4819  -8.4707  -8.4707  -8.3250  -8.3250  -8.3129  -8.3128
    -8.3009  -8.3009  -8.2880  -8.2880  -7.7849  -7.7849  -7.7847  -7.7847
     1.8622   1.8622   1.8646   1.8646   3.0065   3.0065   3.0441   3.0441
     3.1404   3.1404   3.1729   3.1729   3.2336   3.2336   3.2968   3.2968
     3.3988   3.3989   3.4519   3.4519   3.8761   3.8761   3.9254   3.9254
     3.9458   3.9458   3.9867   3.9867   4.2854   4.2854   4.2883   4.2883
     4.3878   4.3878   4.3956   4.3956   4.8092   4.8092   4.8292   4.8292
     5.2165   5.2165   5.2416   5.2417   5.8172   5.8172   5.8247   5.8247
     6.6534   6.6534   6.6709   6.6709   6.7194   6.7194   6.7240   6.7240
     7.5257   7.5257   7.5415   7.5415   7.5509   7.5509   7.6050   7.6050
     7.6877   7.6877   7.6897   7.6897   7.8516   7.8516   7.8826   7.8826
    11.6596  11.6596  11.6663  11.6663  11.7531  11.7531  11.7843  11.7843
    12.0681  12.0681  12.0708  12.0708  12.2765  12.2765  12.2782  12.2782
    13.0946  13.0946  13.0996  13.0996  13.2576  13.2576  13.2664  13.2664
    15.3755  15.3755  15.3768  15.3768  16.9125  16.9125  16.9391  16.9392
    17.6804  17.6804  17.6988  17.6989  17.8946

          k =-0.5000-0.5000 0.3167 ( 61884 PWs)   bands (ev):

   -66.0759 -66.0759 -66.0759 -66.0759 -66.0757 -66.0757 -66.0757 -66.0757
   -30.4514 -30.4514 -30.4512 -30.4512 -30.4235 -30.4235 -30.4231 -30.4231
   -30.3795 -30.3795 -30.3793 -30.3793 -30.3774 -30.3774 -30.3763 -30.3763
   -30.3690 -30.3690 -30.3667 -30.3667 -30.3663 -30.3663 -30.3642 -30.3642
   -20.2378 -20.2378 -20.2378 -20.2378 -20.2377 -20.2377 -20.2377 -20.2377
   -20.2166 -20.2166 -20.2165 -20.2165 -20.2164 -20.2164 -20.2163 -20.2163
   -20.2154 -20.2154 -20.2153 -20.2153 -20.2139 -20.2139 -20.2138 -20.2138
   -20.2123 -20.2123 -20.2122 -20.2122 -20.2107 -20.2107 -20.2107 -20.2107
   -20.2009 -20.2009 -20.2007 -20.2007 -20.2005 -20.2005 -20.2004 -20.2004
   -20.1997 -20.1997 -20.1995 -20.1995 -20.1994 -20.1994 -20.1991 -20.1991
   -20.1946 -20.1946 -20.1946 -20.1946 -20.1946 -20.1946 -20.1946 -20.1946
    -9.0237  -9.0237  -9.0189  -9.0189  -8.7485  -8.7485  -8.7399  -8.7399
    -8.4253  -8.4253  -8.4147  -8.4147  -8.3232  -8.3232  -8.3120  -8.3120
    -8.3004  -8.3004  -8.2875  -8.2875  -8.0164  -8.0164  -8.0155  -8.0155
     2.4727   2.4727   2.4732   2.4732   3.0385   3.0385   3.0807   3.0807
     3.1492   3.1492   3.1765   3.1765   3.2895   3.2895   3.3719   3.3719
     3.3787   3.3787   3.4246   3.4246   3.9913   3.9913   4.0098   4.0098
     4.0594   4.0594   4.1053   4.1053   4.1752   4.1752   4.2068   4.2068
     4.3877   4.3877   4.4076   4.4076   4.4548   4.4548   4.4887   4.4887
     4.8086   4.8087   4.8287   4.8287   5.1217   5.1217   5.1314   5.1314
     6.9785   6.9785   7.0028   7.0028   7.0942   7.0942   7.1064   7.1064
     7.4839   7.4839   7.5039   7.5039   7.5218   7.5218   7.5730   7.5730
     7.6551   7.6551   7.6655   7.6655   7.7742   7.7742   7.7930   7.7930
    11.8015  11.8015  11.8122  11.8122  11.8829  11.8829  11.9159  11.9159
    12.1108  12.1108  12.1210  12.1210  12.3595  12.3595  12.3742  12.3742
    12.7725  12.7725  12.7849  12.7849  12.9575  12.9575  12.9688  12.9688
    16.2886  16.2886  16.2944  16.2944  17.0894  17.0894  17.0930  17.0930
    17.5278  17.5279  17.5897  17.5897  17.9128

          k =-0.5000-0.5000-0.4751 ( 61896 PWs)   bands (ev):

   -66.0758 -66.0758 -66.0758 -66.0758 -66.0758 -66.0758 -66.0758 -66.0758
   -30.4377 -30.4377 -30.4369 -30.4369 -30.4369 -30.4369 -30.4366 -30.4366
   -30.3793 -30.3793 -30.3793 -30.3793 -30.3769 -30.3769 -30.3767 -30.3767
   -30.3685 -30.3685 -30.3675 -30.3675 -30.3657 -30.3657 -30.3657 -30.3657
   -20.2378 -20.2378 -20.2378 -20.2378 -20.2378 -20.2378 -20.2378 -20.2378
   -20.2165 -20.2165 -20.2164 -20.2164 -20.2164 -20.2164 -20.2164 -20.2164
   -20.2145 -20.2145 -20.2145 -20.2145 -20.2145 -20.2145 -20.2144 -20.2144
   -20.2116 -20.2116 -20.2116 -20.2116 -20.2116 -20.2116 -20.2116 -20.2116
   -20.2008 -20.2008 -20.2008 -20.2008 -20.2005 -20.2005 -20.2005 -20.2005
   -20.1996 -20.1996 -20.1996 -20.1996 -20.1993 -20.1993 -20.1992 -20.1992
   -20.1946 -20.1946 -20.1946 -20.1946 -20.1946 -20.1946 -20.1946 -20.1946
    -8.8660  -8.8660  -8.8466  -8.8466  -8.8466  -8.8466  -8.8410  -8.8409
    -8.3389  -8.3388  -8.3306  -8.3306  -8.3306  -8.3306  -8.3168  -8.3167
    -8.2624  -8.2623  -8.2451  -8.2451  -8.2451  -8.2451  -8.2185  -8.2185
     3.0270   3.0270   3.0270   3.0270   3.0604   3.0604   3.0892   3.0893
     3.2364   3.2364   3.2400   3.2401   3.2944   3.2944   3.2944   3.2944
     3.4248   3.4248   3.5447   3.5447   3.5447   3.5447   3.6204   3.6204
     4.2147   4.2147   4.2426   4.2426   4.2426   4.2426   4.2840   4.2840
     4.4499   4.4499   4.4628   4.4628   4.4663   4.4663   4.4663   4.4663
     4.5376   4.5376   4.5660   4.5660   4.5660   4.5660   4.6017   4.6017
     7.1710   7.1710   7.2647   7.2647   7.2647   7.2647   7.3728   7.3728
     7.4338   7.4338   7.4338   7.4338   7.4507   7.4507   7.4542   7.4542
     7.6620   7.6621   7.6771   7.6771   7.6771   7.6771   7.7278   7.7278
    11.9113  11.9113  11.9190  11.9190  11.9206  11.9206  11.9206  11.9206
    12.2866  12.2866  12.3659  12.3659  12.3659  12.3659  12.4411  12.4411
    12.5888  12.5888  12.6313  12.6313  12.6313  12.6313  12.6710  12.6710
    17.1590  17.1590  17.2326  17.2326  17.2407  17.2407  17.2407  17.2408
    17.4573  17.4573  17.4574  17.4574  17.5117

     the Fermi energy is     9.0421 ev

!    total energy              =   -6261.11075609 Ry
     Harris-Foulkes estimate   =   -6261.11075609 Ry
     estimated scf accuracy    <          2.7E-11 Ry

     The total energy is the sum of the following terms:

     one-electron contribution =   -4695.76942867 Ry
     hartree contribution      =    2585.84623538 Ry
     xc contribution           =    -965.66858696 Ry
     ewald contribution        =   -3185.51897584 Ry
     smearing contrib. (-TS)   =      -0.00000000 Ry

     convergence has been achieved in  15 iterations

     Forces acting on atoms (cartesian axes, Ry/au):

     atom    1 type  1   force =    -0.00102344   -0.00056995    0.00134182
     atom    2 type  1   force =     0.00102344    0.00056995    0.00134182
     atom    3 type  1   force =    -0.00056995    0.00102344   -0.00134182
     atom    4 type  1   force =     0.00056995   -0.00102344   -0.00134182
     atom    5 type  1   force =     0.00102344   -0.00056995   -0.00134182
     atom    6 type  1   force =    -0.00102344    0.00056995   -0.00134182
     atom    7 type  1   force =     0.00056995    0.00102344    0.00134182
     atom    8 type  1   force =    -0.00056995   -0.00102344    0.00134182
     atom    9 type  2   force =    -0.00001680   -0.00047798   -0.00056468
     atom   10 type  2   force =     0.00001680    0.00047798   -0.00056468
     atom   11 type  2   force =    -0.00047798    0.00001680    0.00056468
     atom   12 type  2   force =     0.00047798   -0.00001680    0.00056468
     atom   13 type  2   force =     0.00001680   -0.00047798    0.00056468
     atom   14 type  2   force =    -0.00001680    0.00047798    0.00056468
     atom   15 type  2   force =     0.00047798    0.00001680   -0.00056468
     atom   16 type  2   force =    -0.00047798   -0.00001680   -0.00056468
     atom   17 type  2   force =    -0.00024543    0.00033708   -0.00074833
     atom   18 type  2   force =     0.00024543   -0.00033708   -0.00074833
     atom   19 type  2   force =     0.00033708    0.00024543    0.00074833
     atom   20 type  2   force =    -0.00033708   -0.00024543    0.00074833
     atom   21 type  2   force =     0.00024543    0.00033708    0.00074833
     atom   22 type  2   force =    -0.00024543   -0.00033708    0.00074833
     atom   23 type  2   force =    -0.00033708    0.00024543   -0.00074833
     atom   24 type  2   force =     0.00033708   -0.00024543   -0.00074833
     atom   25 type  2   force =     0.00004669    0.00149701   -0.00035142
     atom   26 type  2   force =    -0.00004669   -0.00149701   -0.00035142
     atom   27 type  2   force =     0.00149701   -0.00004669    0.00035142
     atom   28 type  2   force =    -0.00149701    0.00004669    0.00035142
     atom   29 type  2   force =    -0.00004669    0.00149701    0.00035142
     atom   30 type  2   force =     0.00004669   -0.00149701    0.00035142
     atom   31 type  2   force =    -0.00149701   -0.00004669   -0.00035142
     atom   32 type  2   force =     0.00149701    0.00004669   -0.00035142

     Total force =     0.000000     Total SCF correction =     0.000000


     Computing stress (Cartesian axis) and pressure

          total   stress  (Ry/bohr**3)                   (kbar)     P=   -0.10
  -0.00000045   0.00000000   0.00000000         -0.07      0.00      0.00
   0.00000000  -0.00000045   0.00000000          0.00     -0.07      0.00
   0.00000000   0.00000000  -0.00000121          0.00      0.00     -0.18


     Writing output data file Landau_15.save
 
     init_run     :     66.43s CPU     68.14s WALL (       2 calls)
     electrons    :   6330.50s CPU   6439.99s WALL (       6 calls)
     update_pot   :    115.69s CPU    115.85s WALL (       4 calls)
     forces       :    149.48s CPU    151.53s WALL (       6 calls)
     stress       :   1001.48s CPU   1014.46s WALL (       6 calls)

     Called by init_run:
     wfcinit      :     43.18s CPU     44.62s WALL (       2 calls)
     potinit      :     10.07s CPU     10.13s WALL (       2 calls)

     Called by electrons:
     c_bands      :   5520.36s CPU   5621.91s WALL (      84 calls)
     sum_band     :    749.03s CPU    752.14s WALL (      84 calls)
     v_of_rho     :     12.49s CPU     12.64s WALL (      88 calls)
     mix_rho      :     28.32s CPU     31.72s WALL (      84 calls)

     Called by c_bands:
     init_us_2    :     60.73s CPU     62.78s WALL (     170 calls)
     cegterg      :   4591.68s CPU   4691.99s WALL (      84 calls)

     Called by sum_band:

     Called by *egterg:
     h_psi        :   3510.62s CPU   3522.86s WALL (     343 calls)
     g_psi        :     14.69s CPU     14.70s WALL (     257 calls)
     cdiaghg      :     48.87s CPU     48.97s WALL (     335 calls)

     Called by h_psi:
     h_psi:pot    :   3486.17s CPU   3498.07s WALL (     343 calls)
     h_psi:calbec :    426.09s CPU    434.10s WALL (     343 calls)
     vloc_psi     :   2617.96s CPU   2620.36s WALL (     343 calls)
     add_vuspsi   :    442.11s CPU    443.61s WALL (     343 calls)

     General routines
     calbec       :    486.91s CPU    495.68s WALL (     373 calls)
     fft          :      8.51s CPU      8.53s WALL (     402 calls)
     fftw         :   2577.41s CPU   2578.86s WALL (  108598 calls)
 
     Parallel routines
 
     PWSCF        :     2h 7m CPU        2h10m WALL

 
   This run was terminated on:  22:39:32   8Mar2020            

=------------------------------------------------------------------------------=
   JOB DONE.
=------------------------------------------------------------------------------=
