
     Program PWSCF v.6.4.1 starts on 16Dec2019 at 21:49:50 

     This program is part of the open-source Quantum ESPRESSO suite
     for quantum simulation of materials; please cite
         "P. Giannozzi et al., J. Phys.:Condens. Matter 21 395502 (2009);
         "P. Giannozzi et al., J. Phys.:Condens. Matter 29 465901 (2017);
          URL http://www.quantum-espresso.org", 
     in publications or presentations arising from this work. More details at
     http://www.quantum-espresso.org/quote

     Parallel version (MPI), running on    40 processors

     MPI processes distributed on     2 nodes
     K-points division:     npool     =      40
     Reading input from scf.in

     Current dimensions of program PWSCF are:
     Max number of different atomic species (ntypx) = 10
     Max number of k-points (npk) =  40000
     Max angular momentum in pseudopotentials (lmaxx) =  3

     Subspace diagonalization in iterative solution of the eigenvalue problem:
     a serial algorithm will be used

     Message from routine setup:
     using ibrav=0 with symmetry is DISCOURAGED, use correct ibrav instead
 
     G-vector sticks info
     --------------------
     sticks:   dense  smooth     PW     G-vecs:    dense   smooth      PW
     Sum        3729    3729   1005               249037   249037   35153
 


     bravais-lattice index     =            0
     lattice parameter (alat)  =       9.8781  a.u.
     unit-cell volume          =    1402.7542 (a.u.)^3
     number of atoms/cell      =           16
     number of atomic types    =            2
     number of electrons       =       184.40
     number of Kohn-Sham states=          111
     kinetic-energy cutoff     =     120.0000  Ry
     charge density cutoff     =     480.0000  Ry
     convergence threshold     =      1.0E-08
     mixing beta               =       0.7000
     number of iterations used =            8  plain     mixing
     Exchange-correlation      = SLA PW NOGX NOGC ( 1  4  0  0 0 0)

     celldm(1)=   9.878093  celldm(2)=   0.000000  celldm(3)=   0.000000
     celldm(4)=   0.000000  celldm(5)=   0.000000  celldm(6)=   0.000000

     crystal axes: (cart. coord. in units of alat)
               a(1) = (   1.000000   0.000000   0.000000 )  
               a(2) = (   0.000000   1.000000   0.000000 )  
               a(3) = (   0.000000   0.000000   1.455332 )  

     reciprocal axes: (cart. coord. in units 2 pi/alat)
               b(1) = (  1.000000  0.000000  0.000000 )  
               b(2) = (  0.000000  1.000000  0.000000 )  
               b(3) = (  0.000000  0.000000  0.687128 )  


     PseudoPot. # 1 for W  read from file:
     /cluster/scratch/mnoe/QE/pps/W_ONCV_LDA-4.0.upf
     MD5 check sum: ba0307d5d4cd419d6f1d13dc49d7c13a
     Pseudo is Norm-conserving + core correction, Zval = 28.0
     Generated using ONCVPSP code by D. R. Hamann
     Using radial grid of 1380 points,  8 beta functions with: 
                l(1) =   0
                l(2) =   0
                l(3) =   1
                l(4) =   1
                l(5) =   2
                l(6) =   2
                l(7) =   3
                l(8) =   3

     PseudoPot. # 2 for O  read from file:
     /cluster/scratch/mnoe/QE/pps/O_ONCV_LDA-3.0.upf
     MD5 check sum: b55cdb4f45ae2203d24ad12cf8d61a31
     Pseudo is Norm-conserving + core correction, Zval =  6.0
     Generated using ONCVPSP code by D. R. Hamann
     Using radial grid of  926 points,  5 beta functions with: 
                l(1) =   0
                l(2) =   0
                l(3) =   1
                l(4) =   1
                l(5) =   2

     atomic species   valence    mass     pseudopotential
        W             28.00   183.84000     W ( 1.00)
        O              6.00    15.99940     O ( 1.00)

     16 Sym. Ops., with inversion, found (14 have fractional translation)



   Cartesian axes

     site n.     atom                  positions (alat units)
         1           W   tau(   1) = (   0.2500000   0.2500000   0.2976739  )
         2           W   tau(   2) = (   0.7500000   0.7500000   1.1576585  )
         3           W   tau(   3) = (   0.7500000   0.7500000   0.4299923  )
         4           W   tau(   4) = (   0.2500000   0.2500000   1.0253401  )
         5           O   tau(   5) = (   0.2500000   0.2500000   0.6781432  )
         6           O   tau(   6) = (   0.7500000   0.7500000   0.7771892  )
         7           O   tau(   7) = (   0.7500000   0.7500000   0.0495230  )
         8           O   tau(   8) = (   0.2500000   0.2500000   1.4058094  )
         9           O   tau(   9) = (   0.5196265   0.4803734   0.3638331  )
        10           O   tau(  10) = (   0.4803735   0.5196266   1.0914993  )
        11           O   tau(  11) = (  -0.0196265   1.0196266   0.3638331  )
        12           O   tau(  12) = (   1.0196265  -0.0196265   1.0914993  )
        13           O   tau(  13) = (   1.0196266   0.5196265   0.3638331  )
        14           O   tau(  14) = (  -0.0196265   0.4803735   1.0914993  )
        15           O   tau(  15) = (   0.4803734  -0.0196265   0.3638331  )
        16           O   tau(  16) = (   0.5196266   1.0196265   1.0914993  )

     number of k points=    60  gaussian smearing, width (Ry)=  0.0007
                       cart. coord. in units 2pi/alat
        k(    1) = (   0.0000000   0.0000000   0.0000000), wk =   0.0041152
        k(    2) = (   0.0000000   0.0000000   0.1145214), wk =   0.0082305
        k(    3) = (   0.0000000   0.0000000   0.2290428), wk =   0.0082305
        k(    4) = (   0.0000000   0.0000000  -0.3435641), wk =   0.0041152
        k(    5) = (   0.0000000   0.1111111   0.0000000), wk =   0.0164609
        k(    6) = (   0.0000000   0.1111111   0.1145214), wk =   0.0329218
        k(    7) = (   0.0000000   0.1111111   0.2290428), wk =   0.0329218
        k(    8) = (   0.0000000   0.1111111  -0.3435641), wk =   0.0164609
        k(    9) = (   0.0000000   0.2222222   0.0000000), wk =   0.0164609
        k(   10) = (   0.0000000   0.2222222   0.1145214), wk =   0.0329218
        k(   11) = (   0.0000000   0.2222222   0.2290428), wk =   0.0329218
        k(   12) = (   0.0000000   0.2222222  -0.3435641), wk =   0.0164609
        k(   13) = (   0.0000000   0.3333333   0.0000000), wk =   0.0164609
        k(   14) = (   0.0000000   0.3333333   0.1145214), wk =   0.0329218
        k(   15) = (   0.0000000   0.3333333   0.2290428), wk =   0.0329218
        k(   16) = (   0.0000000   0.3333333  -0.3435641), wk =   0.0164609
        k(   17) = (   0.0000000   0.4444444   0.0000000), wk =   0.0164609
        k(   18) = (   0.0000000   0.4444444   0.1145214), wk =   0.0329218
        k(   19) = (   0.0000000   0.4444444   0.2290428), wk =   0.0329218
        k(   20) = (   0.0000000   0.4444444  -0.3435641), wk =   0.0164609
        k(   21) = (   0.1111111   0.1111111   0.0000000), wk =   0.0164609
        k(   22) = (   0.1111111   0.1111111   0.1145214), wk =   0.0329218
        k(   23) = (   0.1111111   0.1111111   0.2290428), wk =   0.0329218
        k(   24) = (   0.1111111   0.1111111  -0.3435641), wk =   0.0164609
        k(   25) = (   0.1111111   0.2222222   0.0000000), wk =   0.0329218
        k(   26) = (   0.1111111   0.2222222   0.1145214), wk =   0.0658436
        k(   27) = (   0.1111111   0.2222222   0.2290428), wk =   0.0658436
        k(   28) = (   0.1111111   0.2222222  -0.3435641), wk =   0.0329218
        k(   29) = (   0.1111111   0.3333333   0.0000000), wk =   0.0329218
        k(   30) = (   0.1111111   0.3333333   0.1145214), wk =   0.0658436
        k(   31) = (   0.1111111   0.3333333   0.2290428), wk =   0.0658436
        k(   32) = (   0.1111111   0.3333333  -0.3435641), wk =   0.0329218
        k(   33) = (   0.1111111   0.4444444   0.0000000), wk =   0.0329218
        k(   34) = (   0.1111111   0.4444444   0.1145214), wk =   0.0658436
        k(   35) = (   0.1111111   0.4444444   0.2290428), wk =   0.0658436
        k(   36) = (   0.1111111   0.4444444  -0.3435641), wk =   0.0329218
        k(   37) = (   0.2222222   0.2222222   0.0000000), wk =   0.0164609
        k(   38) = (   0.2222222   0.2222222   0.1145214), wk =   0.0329218
        k(   39) = (   0.2222222   0.2222222   0.2290428), wk =   0.0329218
        k(   40) = (   0.2222222   0.2222222  -0.3435641), wk =   0.0164609
        k(   41) = (   0.2222222   0.3333333   0.0000000), wk =   0.0329218
        k(   42) = (   0.2222222   0.3333333   0.1145214), wk =   0.0658436
        k(   43) = (   0.2222222   0.3333333   0.2290428), wk =   0.0658436
        k(   44) = (   0.2222222   0.3333333  -0.3435641), wk =   0.0329218
        k(   45) = (   0.2222222   0.4444444   0.0000000), wk =   0.0329218
        k(   46) = (   0.2222222   0.4444444   0.1145214), wk =   0.0658436
        k(   47) = (   0.2222222   0.4444444   0.2290428), wk =   0.0658436
        k(   48) = (   0.2222222   0.4444444  -0.3435641), wk =   0.0329218
        k(   49) = (   0.3333333   0.3333333   0.0000000), wk =   0.0164609
        k(   50) = (   0.3333333   0.3333333   0.1145214), wk =   0.0329218
        k(   51) = (   0.3333333   0.3333333   0.2290428), wk =   0.0329218
        k(   52) = (   0.3333333   0.3333333  -0.3435641), wk =   0.0164609
        k(   53) = (   0.3333333   0.4444444   0.0000000), wk =   0.0329218
        k(   54) = (   0.3333333   0.4444444   0.1145214), wk =   0.0658436
        k(   55) = (   0.3333333   0.4444444   0.2290428), wk =   0.0658436
        k(   56) = (   0.3333333   0.4444444  -0.3435641), wk =   0.0329218
        k(   57) = (   0.4444444   0.4444444   0.0000000), wk =   0.0164609
        k(   58) = (   0.4444444   0.4444444   0.1145214), wk =   0.0329218
        k(   59) = (   0.4444444   0.4444444   0.2290428), wk =   0.0329218
        k(   60) = (   0.4444444   0.4444444  -0.3435641), wk =   0.0164609

     Dense  grid:   249037 G-vectors     FFT dimensions: (  72,  72, 108)

     Estimated max dynamical RAM per process >     887.45 MB

     Estimated total dynamical RAM >      34.67 GB

     Initial potential from superposition of free atoms

     starting charge  183.99828, renormalised to  184.40000
     Starting wfcs are  116 randomized atomic wfcs

     total cpu time spent up to now is        7.7 secs

     Self-consistent Calculation

     iteration #  1     ecut=   120.00 Ry     beta= 0.70
     Davidson diagonalization with overlap
     ethr =  1.00E-02,  avg # of iterations =  4.9

     total cpu time spent up to now is       32.8 secs

     total energy              =   -3126.38784088 Ry
     Harris-Foulkes estimate   =   -3132.06849525 Ry
     estimated scf accuracy    <       7.13211707 Ry

     iteration #  2     ecut=   120.00 Ry     beta= 0.70
     Davidson diagonalization with overlap
     ethr =  3.87E-03,  avg # of iterations =  3.4

     total cpu time spent up to now is       57.3 secs

     total energy              =   -3124.73197864 Ry
     Harris-Foulkes estimate   =   -3135.39517809 Ry
     estimated scf accuracy    <      28.63534440 Ry

     iteration #  3     ecut=   120.00 Ry     beta= 0.70
     Davidson diagonalization with overlap
     ethr =  3.87E-03,  avg # of iterations =  3.2

     total cpu time spent up to now is       79.9 secs

     total energy              =   -3130.18958275 Ry
     Harris-Foulkes estimate   =   -3130.32602376 Ry
     estimated scf accuracy    <       0.48171777 Ry

     iteration #  4     ecut=   120.00 Ry     beta= 0.70
     Davidson diagonalization with overlap
     ethr =  2.61E-04,  avg # of iterations =  2.5

     total cpu time spent up to now is       98.9 secs

     total energy              =   -3130.17155279 Ry
     Harris-Foulkes estimate   =   -3130.21885539 Ry
     estimated scf accuracy    <       0.12927709 Ry

     iteration #  5     ecut=   120.00 Ry     beta= 0.70
     Davidson diagonalization with overlap
     ethr =  7.01E-05,  avg # of iterations =  4.2

     total cpu time spent up to now is      119.6 secs

     total energy              =   -3130.18247162 Ry
     Harris-Foulkes estimate   =   -3130.19426668 Ry
     estimated scf accuracy    <       0.02784206 Ry

     iteration #  6     ecut=   120.00 Ry     beta= 0.70
     Davidson diagonalization with overlap
     ethr =  1.51E-05,  avg # of iterations =  4.5

     total cpu time spent up to now is      141.0 secs

     total energy              =   -3130.18781034 Ry
     Harris-Foulkes estimate   =   -3130.18960510 Ry
     estimated scf accuracy    <       0.00492901 Ry

     iteration #  7     ecut=   120.00 Ry     beta= 0.70
     Davidson diagonalization with overlap
     ethr =  2.67E-06,  avg # of iterations =  3.6

     total cpu time spent up to now is      161.3 secs

     total energy              =   -3130.18837618 Ry
     Harris-Foulkes estimate   =   -3130.18846066 Ry
     estimated scf accuracy    <       0.00014049 Ry

     iteration #  8     ecut=   120.00 Ry     beta= 0.70
     Davidson diagonalization with overlap
     ethr =  7.62E-08,  avg # of iterations =  3.2

     total cpu time spent up to now is      185.3 secs

     total energy              =   -3130.18843898 Ry
     Harris-Foulkes estimate   =   -3130.18845279 Ry
     estimated scf accuracy    <       0.00006222 Ry

     iteration #  9     ecut=   120.00 Ry     beta= 0.70
     Davidson diagonalization with overlap
     ethr =  3.37E-08,  avg # of iterations =  1.1

     total cpu time spent up to now is      202.8 secs

     total energy              =   -3130.18843403 Ry
     Harris-Foulkes estimate   =   -3130.18844192 Ry
     estimated scf accuracy    <       0.00002063 Ry

     iteration # 10     ecut=   120.00 Ry     beta= 0.70
     Davidson diagonalization with overlap
     ethr =  1.12E-08,  avg # of iterations =  3.0

     total cpu time spent up to now is      222.2 secs

     total energy              =   -3130.18843754 Ry
     Harris-Foulkes estimate   =   -3130.18843764 Ry
     estimated scf accuracy    <       0.00000018 Ry

     iteration # 11     ecut=   120.00 Ry     beta= 0.70
     Davidson diagonalization with overlap
     ethr =  9.65E-11,  avg # of iterations =  2.8

     total cpu time spent up to now is      245.8 secs

     total energy              =   -3130.18843761 Ry
     Harris-Foulkes estimate   =   -3130.18843762 Ry
     estimated scf accuracy    <       0.00000003 Ry

     iteration # 12     ecut=   120.00 Ry     beta= 0.70
     Davidson diagonalization with overlap
     ethr =  1.70E-11,  avg # of iterations =  2.0

     total cpu time spent up to now is      266.4 secs

     End of self-consistent calculation

          k = 0.0000 0.0000 0.0000 ( 31095 PWs)   bands (ev):

   -66.0349 -66.0344 -66.0336 -66.0330 -30.4079 -30.4048 -30.3682 -30.3682
   -30.3636 -30.3636 -30.3308 -30.3292 -30.2879 -30.2879 -30.2844 -30.2844
   -20.1893 -20.1892 -20.1892 -20.1891 -20.1779 -20.1774 -20.1765 -20.1764
   -20.1759 -20.1758 -20.1724 -20.1724 -20.1722 -20.1722 -20.1705 -20.1701
   -20.1683 -20.1683 -20.1679 -20.1679 -20.1655 -20.1655 -20.1649 -20.1649
   -20.1625 -20.1625 -20.1624 -20.1624  -9.9845  -9.5295  -9.1884  -8.8545
    -8.8296  -8.7429  -7.6930  -7.6498  -7.6498  -7.6275  -7.6275  -7.5411
     1.2151   1.2971   1.3019   1.4023   1.6557   1.6962   2.5064   2.5064
     2.6089   2.7273   4.0246   4.0246   4.9752   4.9752   5.1087   5.7049
     5.7049   6.0266   6.0266   6.0909   6.1005   6.1005   6.1685   6.6951
     6.6951   6.9853   7.2657   7.3293   7.3293   7.3677   7.3677   7.4316
     8.4541   8.4587   8.5195   8.5195   9.1201   9.1341   9.6755   9.6755
    12.5970  12.5970  13.4496  13.4496  13.5828  13.5960  13.6088  14.3392
    14.3392  14.5418  14.5435  14.8558  15.7673  16.4735  17.2149

          k = 0.0000 0.0000 0.1145 ( 31166 PWs)   bands (ev):

   -66.0349 -66.0344 -66.0335 -66.0330 -30.4028 -30.3998 -30.3679 -30.3679
   -30.3640 -30.3640 -30.3361 -30.3343 -30.2877 -30.2877 -30.2846 -30.2846
   -20.1893 -20.1892 -20.1892 -20.1891 -20.1774 -20.1770 -20.1765 -20.1764
   -20.1759 -20.1758 -20.1724 -20.1724 -20.1722 -20.1722 -20.1711 -20.1707
   -20.1683 -20.1683 -20.1680 -20.1680 -20.1655 -20.1655 -20.1649 -20.1649
   -20.1625 -20.1625 -20.1625 -20.1625  -9.9400  -9.5476  -9.1026  -8.8528
    -8.8313  -8.6995  -7.8117  -7.6687  -7.6483  -7.6483  -7.6290  -7.6290
     1.2974   1.3016   1.4525   1.6143   1.6545   1.7949   2.5775   2.5775
     2.6166   2.7191   3.8669   3.8669   4.8653   5.0243   5.0243   5.6962
     5.6962   5.7672   5.8113   5.8113   6.1371   6.3896   6.3896   6.6727
     6.6727   7.0035   7.2208   7.2464   7.3304   7.3304   7.3595   7.3595
     8.4427   8.4427   8.4545   8.4590   9.1213   9.1335   9.9240   9.9240
    12.4262  12.4262  13.4763  13.4763  13.5837  13.5951  13.8581  14.2405
    14.2405  14.5423  14.5437  15.1178  16.1559  16.1965  17.3014

          k = 0.0000 0.0000 0.2290 ( 31214 PWs)   bands (ev):

   -66.0348 -66.0345 -66.0334 -66.0331 -30.3888 -30.3861 -30.3670 -30.3670
   -30.3648 -30.3648 -30.3503 -30.3482 -30.2870 -30.2870 -30.2853 -30.2853
   -20.1893 -20.1892 -20.1892 -20.1891 -20.1765 -20.1764 -20.1761 -20.1759
   -20.1758 -20.1757 -20.1725 -20.1724 -20.1724 -20.1723 -20.1723 -20.1720
   -20.1682 -20.1682 -20.1680 -20.1680 -20.1653 -20.1653 -20.1650 -20.1650
   -20.1625 -20.1625 -20.1625 -20.1625  -9.8286  -9.6042  -8.8589  -8.8483
    -8.8358  -8.5598  -8.1162  -7.9773  -7.6443  -7.6443  -7.6331  -7.6331
     1.2984   1.3008   1.6262   1.6507   2.2194   2.5067   2.6378   2.6970
     2.7848   2.7848   3.5028   3.5028   4.1621   4.7803   5.1877   5.1877
     5.6040   5.6040   5.7835   5.7835   6.1320   6.1320   6.2745   6.8294
     7.0537   7.1713   7.1713   7.1939   7.3332   7.3332   7.3547   7.3547
     8.1809   8.1809   8.4556   8.4584   9.1245   9.1315  10.5331  10.5331
    11.9483  11.9483  13.5731  13.5731  13.5860  13.5926  14.0061  14.0061
    14.3690  14.5433  14.5441  15.5682  15.8280  17.1747  17.2628

          k = 0.0000 0.0000-0.3436 ( 31170 PWs)   bands (ev):

   -66.0346 -66.0346 -66.0333 -66.0333 -30.3696 -30.3696 -30.3672 -30.3672
   -30.3659 -30.3659 -30.3659 -30.3659 -30.2861 -30.2861 -30.2861 -30.2861
   -20.1892 -20.1892 -20.1891 -20.1891 -20.1764 -20.1764 -20.1759 -20.1759
   -20.1743 -20.1743 -20.1739 -20.1739 -20.1723 -20.1723 -20.1723 -20.1723
   -20.1681 -20.1681 -20.1681 -20.1681 -20.1651 -20.1651 -20.1651 -20.1651
   -20.1626 -20.1626 -20.1626 -20.1626  -9.7022  -9.7022  -8.8421  -8.8421
    -8.5020  -8.5020  -8.3106  -8.3105  -7.6387  -7.6387  -7.6387  -7.6387
     1.2996   1.2996   1.6435   1.6436   2.6672   2.6672   3.1084   3.1084
     3.1084   3.1084   3.1833   3.1833   3.5935   3.5935   5.4224   5.4224
     5.4224   5.4224   5.8800   5.8800   5.8800   5.8800   6.5030   6.5030
     7.1232   7.1232   7.3361   7.3361   7.3361   7.3361   7.7410   7.7410
     7.7410   7.7410   8.4571   8.4571   9.1282   9.1282  11.2684  11.2684
    11.2684  11.2684  13.5892  13.5892  13.7564  13.7564  13.7564  13.7564
    14.5441  14.5441  14.9496  14.9496  16.6370  16.6370  17.7107

          k = 0.0000 0.1111 0.0000 ( 31141 PWs)   bands (ev):

   -66.0349 -66.0343 -66.0336 -66.0331 -30.4082 -30.4051 -30.3663 -30.3658
   -30.3613 -30.3609 -30.3303 -30.3297 -30.2903 -30.2900 -30.2868 -30.2867
   -20.1893 -20.1892 -20.1892 -20.1891 -20.1779 -20.1775 -20.1765 -20.1764
   -20.1761 -20.1759 -20.1724 -20.1721 -20.1720 -20.1720 -20.1706 -20.1700
   -20.1684 -20.1683 -20.1680 -20.1680 -20.1655 -20.1654 -20.1648 -20.1648
   -20.1626 -20.1625 -20.1625 -20.1625  -9.9485  -9.4835  -9.1982  -8.8246
    -8.7998  -8.7320  -7.7468  -7.7118  -7.6951  -7.6727  -7.6417  -7.5445
     1.2230   1.3937   1.4055   1.4120   1.7716   1.8063   2.5391   2.5406
     2.6893   2.8031   4.0061   4.0248   4.7862   4.8529   5.1024   5.5675
     5.5918   5.9082   5.9779   6.1069   6.1098   6.1976   6.3115   6.6370
     6.6392   6.9734   7.0174   7.1108   7.1252   7.2767   7.3406   7.3473
     8.3931   8.4084   8.4974   8.5101   9.4423   9.4750   9.8274   9.8749
    12.6196  12.6330  13.2868  13.3278  13.5843  13.6466  13.7589  14.2605
    14.2612  14.6768  14.6973  14.9393  15.7370  16.6248  17.2475

          k = 0.0000 0.1111 0.1145 ( 31152 PWs)   bands (ev):

   -66.0348 -66.0344 -66.0336 -66.0331 -30.4031 -30.4001 -30.3660 -30.3655
   -30.3616 -30.3612 -30.3355 -30.3347 -30.2901 -30.2898 -30.2870 -30.2869
   -20.1893 -20.1892 -20.1892 -20.1891 -20.1774 -20.1771 -20.1765 -20.1764
   -20.1761 -20.1759 -20.1725 -20.1721 -20.1720 -20.1720 -20.1711 -20.1705
   -20.1683 -20.1683 -20.1680 -20.1680 -20.1654 -20.1654 -20.1649 -20.1649
   -20.1626 -20.1626 -20.1625 -20.1625  -9.9028  -9.5017  -9.1126  -8.8229
    -8.8015  -8.6899  -7.8341  -7.7101  -7.6938  -7.6919  -7.6742  -7.6544
     1.4060   1.4116   1.4733   1.6319   1.7703   1.8636   2.6087   2.6110
     2.6993   2.7954   3.8587   3.8775   4.8386   4.8573   4.9029   5.5674
     5.5884   5.6834   5.7429   5.7959   6.3306   6.3573   6.3589   6.6230
     6.6358   6.9878   6.9882   7.1219   7.1721   7.1955   7.2960   7.3424
     8.3871   8.4014   8.4254   8.4367   9.4477   9.4717  10.0482  10.0889
    12.4519  12.4666  13.3076  13.3591  13.5789  13.6523  14.0075  14.1588
    14.1708  14.6776  14.6914  15.1938  16.1656  16.2900  17.3586

          k = 0.0000 0.1111 0.2290 ( 31155 PWs)   bands (ev):

   -66.0347 -66.0345 -66.0335 -66.0332 -30.3894 -30.3863 -30.3657 -30.3646
   -30.3624 -30.3618 -30.3492 -30.3486 -30.2895 -30.2892 -30.2877 -30.2876
   -20.1893 -20.1892 -20.1892 -20.1891 -20.1765 -20.1764 -20.1761 -20.1760
   -20.1760 -20.1758 -20.1727 -20.1725 -20.1721 -20.1720 -20.1720 -20.1716
   -20.1683 -20.1682 -20.1681 -20.1681 -20.1652 -20.1652 -20.1649 -20.1649
   -20.1626 -20.1626 -20.1626 -20.1626  -9.7882  -9.5588  -8.8693  -8.8184
    -8.8060  -8.5536  -8.1278  -7.9803  -7.7055  -7.6896  -7.6890  -7.6784
     1.4072   1.4105   1.7347   1.7661   2.2221   2.4852   2.7099   2.7698
     2.8243   2.8365   3.5072   3.5271   4.1584   4.7787   5.0162   5.0711
     5.5004   5.5116   5.6515   5.6614   6.0043   6.0147   6.4708   6.8828
     6.9904   7.0148   7.1368   7.1589   7.1843   7.2084   7.3039   7.3457
     8.1547   8.1689   8.4038   8.4098   9.4552   9.4670  10.6110  10.6422
    11.9809  11.9993  13.3833  13.4588  13.5588  13.6769  13.9165  13.9585
    14.5180  14.6790  14.6841  15.7021  15.8983  17.2275  17.2474

          k = 0.0000 0.1111-0.3436 ( 31170 PWs)   bands (ev):

   -66.0346 -66.0346 -66.0333 -66.0333 -30.3716 -30.3716 -30.3675 -30.3675
   -30.3635 -30.3635 -30.3615 -30.3615 -30.2886 -30.2886 -30.2884 -30.2884
   -20.1892 -20.1892 -20.1891 -20.1891 -20.1765 -20.1765 -20.1760 -20.1760
   -20.1743 -20.1743 -20.1741 -20.1741 -20.1720 -20.1720 -20.1720 -20.1720
   -20.1682 -20.1682 -20.1682 -20.1682 -20.1651 -20.1651 -20.1651 -20.1651
   -20.1627 -20.1627 -20.1626 -20.1626  -9.6585  -9.6585  -8.8122  -8.8122
    -8.5128  -8.5128  -8.3085  -8.3085  -7.6985  -7.6985  -7.6840  -7.6840
     1.4089   1.4089   1.7577   1.7577   2.7415   2.7415   3.1100   3.1100
     3.1408   3.1408   3.1854   3.1854   3.6081   3.6081   5.2818   5.2818
     5.3206   5.3206   5.7327   5.7327   5.7507   5.7507   6.6571   6.6571
     6.9943   6.9943   7.1948   7.1948   7.3042   7.3042   7.7234   7.7235
     7.7393   7.7393   8.4067   8.4067   9.4616   9.4616  11.3157  11.3158
    11.3399  11.3399  13.4894  13.4894  13.6526  13.6526  13.7675  13.7675
    14.6807  14.6807  15.0917  15.0917  16.7108  16.7108  17.7399

          k = 0.0000 0.2222 0.0000 ( 31130 PWs)   bands (ev):

   -66.0348 -66.0342 -66.0337 -66.0332 -30.4087 -30.4058 -30.3609 -30.3588
   -30.3544 -30.3534 -30.3311 -30.3288 -30.2974 -30.2959 -30.2937 -30.2933
   -20.1893 -20.1892 -20.1892 -20.1891 -20.1779 -20.1777 -20.1766 -20.1765
   -20.1764 -20.1763 -20.1724 -20.1716 -20.1714 -20.1714 -20.1709 -20.1697
   -20.1686 -20.1685 -20.1682 -20.1680 -20.1653 -20.1652 -20.1647 -20.1647
   -20.1628 -20.1628 -20.1627 -20.1627  -9.8465  -9.3486  -9.2301  -8.7369
    -8.7123  -8.6964  -7.9370  -7.8791  -7.8212  -7.7986  -7.6393  -7.5543
     1.2393   1.3710   1.7145   1.7283   2.0924   2.1143   2.6318   2.6455
     2.9264   3.0333   3.9341   3.9843   4.4446   4.5671   5.0840   5.1994
     5.2344   5.6251   5.8154   6.1325   6.1403   6.2015   6.2895   6.3086
     6.5086   6.5983   6.7481   6.7486   7.0938   7.2828   7.3421   7.3786
     8.2467   8.2633   8.4138   8.4634  10.0704  10.1450  10.2226  10.3659
    12.6717  12.7187  13.0179  13.0474  13.3741  13.4442  14.0473  14.0685
    14.1126  15.1895  15.2289  15.2440  15.6445  17.0235  17.3948

          k = 0.0000 0.2222 0.1145 ( 31153 PWs)   bands (ev):

   -66.0347 -66.0342 -66.0337 -66.0332 -30.4037 -30.4008 -30.3610 -30.3586
   -30.3547 -30.3536 -30.3360 -30.3336 -30.2971 -30.2958 -30.2940 -30.2935
   -20.1893 -20.1892 -20.1892 -20.1891 -20.1775 -20.1772 -20.1766 -20.1766
   -20.1764 -20.1763 -20.1725 -20.1715 -20.1715 -20.1714 -20.1712 -20.1701
   -20.1686 -20.1685 -20.1682 -20.1681 -20.1652 -20.1652 -20.1647 -20.1647
   -20.1629 -20.1628 -20.1628 -20.1627  -9.7969  -9.3670  -9.1453  -8.7352
    -8.7140  -8.6584  -7.9757  -7.8766  -7.8197  -7.8001  -7.7325  -7.6696
     1.5005   1.6313   1.7155   1.7274   2.0907   2.1338   2.7058   2.7121
     2.9349   3.0262   3.8193   3.8758   4.4971   4.6181   4.8350   5.2059
     5.2395   5.4105   5.5535   5.8069   6.1226   6.2066   6.3005   6.3392
     6.5654   6.6045   6.7817   6.9992   7.0920   7.2677   7.3563   7.3885
     8.2450   8.2571   8.3399   8.3898  10.0883  10.1337  10.3922  10.5125
    12.5269  12.5793  13.0237  13.0581  13.3675  13.4488  13.9372  13.9721
    14.3857  15.2293  15.2407  15.4168  16.0705  16.6386  17.4133

          k = 0.0000 0.2222 0.2290 ( 31131 PWs)   bands (ev):

   -66.0346 -66.0343 -66.0336 -66.0333 -30.3903 -30.3871 -30.3625 -30.3577
   -30.3555 -30.3539 -30.3496 -30.3454 -30.2965 -30.2955 -30.2946 -30.2941
   -20.1892 -20.1892 -20.1892 -20.1891 -20.1766 -20.1766 -20.1764 -20.1763
   -20.1762 -20.1760 -20.1730 -20.1727 -20.1715 -20.1714 -20.1713 -20.1709
   -20.1685 -20.1684 -20.1683 -20.1683 -20.1651 -20.1650 -20.1648 -20.1648
   -20.1629 -20.1629 -20.1628 -20.1628  -9.6721  -9.4259  -8.9045  -8.7308
    -8.7185  -8.5328  -8.1881  -7.9871  -7.8689  -7.8171  -7.8154  -7.8043
     1.7181   1.7250   2.0164   2.0850   2.2306   2.4642   2.8895   2.9384
     2.9738   3.0116   3.5131   3.5798   4.1489   4.6883   4.7410   4.8046
     5.2125   5.2350   5.3165   5.3486   5.6854   5.7585   6.2770   6.2931
     6.8425   7.0459   7.1185   7.1501   7.2114   7.2532   7.4058   7.4104
     8.0894   8.1246   8.2613   8.2776  10.1075  10.1265  10.8450  10.9445
    12.0845  12.1494  13.1011  13.1511  13.3412  13.4645  13.6809  13.7515
    14.9183  15.2303  15.2355  16.0618  16.0940  17.1177  17.4375

          k = 0.0000 0.2222-0.3436 ( 31100 PWs)   bands (ev):

   -66.0345 -66.0345 -66.0334 -66.0334 -30.3730 -30.3730 -30.3683 -30.3683
   -30.3566 -30.3566 -30.3531 -30.3531 -30.2955 -30.2955 -30.2949 -30.2949
   -20.1892 -20.1892 -20.1891 -20.1891 -20.1766 -20.1766 -20.1763 -20.1763
   -20.1744 -20.1744 -20.1743 -20.1743 -20.1714 -20.1714 -20.1713 -20.1713
   -20.1684 -20.1684 -20.1683 -20.1683 -20.1649 -20.1649 -20.1649 -20.1649
   -20.1629 -20.1629 -20.1629 -20.1629  -9.5315  -9.5315  -8.7247  -8.7247
    -8.5539  -8.5539  -8.3008  -8.3008  -7.8540  -7.8540  -7.8099  -7.8099
     1.7216   1.7216   2.0720   2.0721   2.9567   2.9567   3.1218   3.1218
     3.1933   3.1933   3.2282   3.2282   3.6441   3.6441   4.9837   4.9837
     5.0596   5.0596   5.3797   5.3797   5.4079   5.4079   6.2857   6.2857
     6.9507   6.9507   7.2276   7.2276   7.3980   7.3980   7.6916   7.6916
     7.7332   7.7332   8.2652   8.2652  10.1188  10.1188  11.4651  11.4651
    11.5474  11.5474  13.2247  13.2247  13.3750  13.3750  13.5725  13.5725
    15.2318  15.2318  15.4778  15.4778  16.9133  16.9133  17.7754

          k = 0.0000 0.3333 0.0000 ( 31148 PWs)   bands (ev):

   -66.0346 -66.0340 -66.0339 -66.0334 -30.4089 -30.4067 -30.3531 -30.3482
   -30.3440 -30.3425 -30.3337 -30.3259 -30.3081 -30.3044 -30.3043 -30.3035
   -20.1893 -20.1892 -20.1892 -20.1891 -20.1780 -20.1778 -20.1768 -20.1767
   -20.1767 -20.1766 -20.1723 -20.1713 -20.1709 -20.1706 -20.1705 -20.1693
   -20.1689 -20.1688 -20.1685 -20.1682 -20.1650 -20.1649 -20.1645 -20.1645
   -20.1632 -20.1631 -20.1630 -20.1630  -9.6976  -9.2913  -9.1341  -8.6270
    -8.5976  -8.5733  -8.2186  -8.1040  -8.0032  -7.9803  -7.6257  -7.5693
     1.2591   1.3413   2.1720   2.2109   2.5311   2.5371   2.7675   2.8051
     3.3285   3.4267   3.7650   3.7986   4.1285   4.2429   4.6767   4.7101
     5.0769   5.2624   5.5014   5.5269   5.6487   6.1811   6.1912   6.3271
     6.3290   6.4058   6.4844   6.8569   7.2039   7.3636   7.4440   7.6893
     8.0414   8.0462   8.2496   8.3620  10.7450  10.7557  10.8765  10.9978
    12.4871  12.4976  12.9152  12.9360  12.9719  13.0017  13.7481  13.8100
    14.5470  15.4857  15.6130  16.1071  16.1097  17.4288  17.4750

          k = 0.0000 0.3333 0.1145 ( 31155 PWs)   bands (ev):

   -66.0345 -66.0341 -66.0339 -66.0334 -30.4040 -30.4017 -30.3539 -30.3479
   -30.3442 -30.3426 -30.3382 -30.3300 -30.3078 -30.3047 -30.3046 -30.3037
   -20.1893 -20.1892 -20.1892 -20.1891 -20.1775 -20.1774 -20.1768 -20.1767
   -20.1767 -20.1766 -20.1725 -20.1717 -20.1709 -20.1706 -20.1706 -20.1696
   -20.1689 -20.1688 -20.1686 -20.1683 -20.1649 -20.1649 -20.1645 -20.1645
   -20.1632 -20.1632 -20.1631 -20.1631  -9.6408  -9.2089  -9.1531  -8.5962
    -8.5960  -8.5749  -8.2443  -8.0989  -8.0017  -7.9818  -7.7316  -7.6842
     1.5232   1.6061   2.1750   2.2088   2.5365   2.5400   2.8411   2.8639
     3.3335   3.4197   3.7004   3.7478   4.1856   4.2969   4.6879   4.7242
     4.8148   5.0804   5.3363   5.4757   5.4989   5.8299   5.8510   6.1325
     6.5849   6.6414   6.8474   6.9676   7.2171   7.3549   7.4547   7.6814
     8.0401   8.0408   8.1891   8.2990  10.7802  10.8150  10.9241  11.0808
    12.4991  12.5271  12.7995  12.8557  12.9146  12.9777  13.6259  13.6980
    14.8692  15.7858  15.9054  16.1068  16.1093  17.0593  17.5657

          k = 0.0000 0.3333 0.2290 ( 31108 PWs)   bands (ev):

   -66.0344 -66.0342 -66.0338 -66.0335 -30.3906 -30.3881 -30.3589 -30.3512
   -30.3472 -30.3450 -30.3429 -30.3383 -30.3071 -30.3053 -30.3050 -30.3042
   -20.1892 -20.1892 -20.1892 -20.1891 -20.1767 -20.1767 -20.1767 -20.1766
   -20.1763 -20.1762 -20.1732 -20.1729 -20.1708 -20.1706 -20.1706 -20.1702
   -20.1689 -20.1687 -20.1686 -20.1686 -20.1648 -20.1647 -20.1645 -20.1645
   -20.1633 -20.1632 -20.1632 -20.1632  -9.4964  -9.2155  -8.9777  -8.5917
    -8.5793  -8.4907  -8.3665  -8.0813  -7.9986  -7.9880  -7.9860  -7.9149
     2.1830   2.2024   2.2303   2.2612   2.5289   2.6115   3.0342   3.0722
     3.3380   3.3977   3.4981   3.5743   4.1415   4.3831   4.4633   4.6023
     4.7527   4.7740   4.9993   5.0848   5.3123   5.4815   5.5070   5.5073
     7.0863   7.1355   7.1584   7.2158   7.2576   7.3361   7.5051   7.6475
     7.9738   7.9940   8.0643   8.1340  10.8192  10.8390  11.2266  11.3832
    12.2615  12.3808  12.7113  12.7132  12.9139  13.0083  13.3367  13.4308
    15.4768  16.1060  16.1077  16.3796  16.5487  16.9201  17.5601

          k = 0.0000 0.3333-0.3436 ( 31100 PWs)   bands (ev):

   -66.0343 -66.0343 -66.0336 -66.0336 -30.3731 -30.3731 -30.3695 -30.3695
   -30.3461 -30.3461 -30.3423 -30.3423 -30.3062 -30.3062 -30.3048 -30.3048
   -20.1892 -20.1892 -20.1892 -20.1892 -20.1767 -20.1767 -20.1766 -20.1766
   -20.1746 -20.1746 -20.1745 -20.1745 -20.1706 -20.1706 -20.1705 -20.1705
   -20.1688 -20.1687 -20.1687 -20.1687 -20.1646 -20.1646 -20.1646 -20.1646
   -20.1633 -20.1633 -20.1632 -20.1632  -9.3337  -9.3336  -8.6544  -8.6544
    -8.5846  -8.5846  -8.2831  -8.2831  -8.0379  -8.0379  -7.9917  -7.9917
     2.1932   2.1932   2.5025   2.5025   3.0798   3.0798   3.2173   3.2173
     3.2826   3.2826   3.4086   3.4086   3.6635   3.6635   4.6750   4.6750
     4.7391   4.7391   4.9123   4.9123   5.0100   5.0100   5.4972   5.4972
     7.2070   7.2070   7.3039   7.3039   7.5448   7.5448   7.6423   7.6423
     7.7195   7.7195   8.0664   8.0664  10.8353  10.8353  11.7262  11.7262
    11.8693  11.8693  12.7925  12.7925  12.9946  12.9946  13.1797  13.1797
    16.0151  16.0151  16.1117  16.1117  17.1853  17.1853  17.6743

          k = 0.0000 0.4444 0.0000 ( 31158 PWs)   bands (ev):

   -66.0344 -66.0341 -66.0338 -66.0336 -30.4086 -30.4078 -30.3447 -30.3380
   -30.3352 -30.3311 -30.3295 -30.3212 -30.3211 -30.3173 -30.3160 -30.3135
   -20.1893 -20.1892 -20.1892 -20.1891 -20.1780 -20.1779 -20.1769 -20.1768
   -20.1768 -20.1768 -20.1721 -20.1717 -20.1702 -20.1700 -20.1699 -20.1693
   -20.1693 -20.1690 -20.1688 -20.1685 -20.1646 -20.1645 -20.1644 -20.1643
   -20.1635 -20.1634 -20.1633 -20.1633  -9.5339  -9.3918  -8.8566  -8.5415
    -8.5087  -8.4150  -8.3956  -8.3265  -8.2108  -8.1873  -7.6075  -7.5878
     1.2827   1.3106   2.6535   2.7952   2.8522   2.8626   2.8983   3.0710
     3.3805   3.4702   3.9012   3.9730   4.0049   4.0089   4.1521   4.2338
     4.6160   4.7131   5.0884   5.1799   5.6948   5.9508   6.2498   6.2580
     6.3267   6.3282   6.4976   6.6490   7.5494   7.5605   7.6810   7.7911
     7.8058   7.9747   8.0000   8.1996  11.3454  11.3949  11.5847  11.6817
    11.9790  11.9904  12.3100  12.3576  13.1390  13.2347  13.4264  13.5195
    14.9425  15.2544  16.1993  16.8283  17.1220  17.2141  17.6017

          k = 0.0000 0.4444 0.1145 ( 31139 PWs)   bands (ev):

   -66.0343 -66.0341 -66.0338 -66.0336 -30.4036 -30.4028 -30.3469 -30.3416
   -30.3349 -30.3313 -30.3297 -30.3238 -30.3210 -30.3176 -30.3162 -30.3148
   -20.1892 -20.1892 -20.1892 -20.1891 -20.1775 -20.1775 -20.1769 -20.1768
   -20.1768 -20.1768 -20.1723 -20.1720 -20.1702 -20.1699 -20.1699 -20.1694
   -20.1693 -20.1690 -20.1690 -20.1686 -20.1646 -20.1645 -20.1643 -20.1643
   -20.1635 -20.1635 -20.1634 -20.1634  -9.4672  -9.3154  -8.8765  -8.5629
    -8.4878  -8.4137  -8.3966  -8.3158  -8.2093  -8.1889  -7.7181  -7.7011
     1.5476   1.5757   2.6668   2.7896   2.8843   2.8891   2.9578   3.0668
     3.3597   3.4401   3.9044   3.9838   4.0482   4.0615   4.1861   4.2645
     4.5917   4.7112   4.8414   4.9289   5.3269   5.5288   5.9072   6.0012
     6.6466   6.7268   6.7350   6.8405   7.5417   7.5645   7.6701   7.7825
     7.8075   7.9495   7.9616   8.1536  11.4043  11.4412  11.5987  11.7202
    12.0257  12.0345  12.3159  12.3739  12.9874  13.0913  13.2888  13.3913
    15.3171  15.6594  16.3114  16.8828  17.1158  17.2246  17.4037

          k = 0.0000 0.4444 0.2290 ( 31134 PWs)   bands (ev):

   -66.0342 -66.0340 -66.0339 -66.0337 -30.3902 -30.3893 -30.3558 -30.3533
   -30.3341 -30.3321 -30.3300 -30.3281 -30.3202 -30.3183 -30.3166 -30.3165
   -20.1892 -20.1892 -20.1892 -20.1892 -20.1768 -20.1768 -20.1768 -20.1768
   -20.1763 -20.1763 -20.1732 -20.1730 -20.1701 -20.1698 -20.1698 -20.1696
   -20.1693 -20.1692 -20.1691 -20.1690 -20.1644 -20.1643 -20.1642 -20.1642
   -20.1637 -20.1636 -20.1636 -20.1635  -9.2927  -9.1073  -8.9460  -8.6469
    -8.4129  -8.4100  -8.3999  -8.2759  -8.2052  -8.1931  -7.9795  -7.9581
     2.2542   2.2721   2.7000   2.7705   2.9530   2.9542   3.0810   3.1297
     3.2946   3.3327   3.9079   3.9725   4.1580   4.2221   4.2294   4.3081
     4.3450   4.3751   4.6735   4.7075   4.8590   5.0157   5.1570   5.2814
     7.1513   7.1715   7.1723   7.1998   7.5166   7.5547   7.6558   7.7421
     7.7880   7.8598   7.8734   8.0166  11.5125  11.5140  11.7210  11.9013
    12.1264  12.1587  12.3536  12.4578  12.6094  12.7241  12.9520  13.0730
    16.0797  16.5729  16.7455  17.0195  17.0341  17.1265  17.2964

          k = 0.0000 0.4444-0.3436 ( 31116 PWs)   bands (ev):

   -66.0341 -66.0341 -66.0338 -66.0338 -30.3722 -30.3722 -30.3709 -30.3709
   -30.3331 -30.3331 -30.3299 -30.3299 -30.3193 -30.3193 -30.3169 -30.3169
   -20.1892 -20.1892 -20.1892 -20.1892 -20.1768 -20.1768 -20.1768 -20.1768
   -20.1747 -20.1747 -20.1746 -20.1746 -20.1699 -20.1699 -20.1698 -20.1698
   -20.1693 -20.1693 -20.1692 -20.1692 -20.1642 -20.1642 -20.1642 -20.1641
   -20.1638 -20.1638 -20.1637 -20.1637  -9.0893  -9.0893  -8.8420  -8.8420
    -8.4049  -8.4049  -8.2478  -8.2478  -8.1982  -8.1982  -8.1735  -8.1735
     2.7386   2.7386   2.8897   2.8897   3.0519   3.0519   3.1791   3.1791
     3.3185   3.3185   3.5360   3.5360   3.9628   3.9628   4.4510   4.4510
     4.5314   4.5314   4.5817   4.5817   4.6888   4.6888   4.7511   4.7511
     7.4042   7.4042   7.4541   7.4541   7.5563   7.5563   7.5764   7.5764
     7.7480   7.7480   7.8732   7.8732  11.5360  11.5360  12.0435  12.0435
    12.2462  12.2462  12.3005  12.3005  12.5610  12.5610  12.7245  12.7245
    16.6167  16.6167  17.0489  17.0489  17.2410  17.2410  17.6225

          k = 0.1111 0.1111 0.0000 ( 31149 PWs)   bands (ev):

   -66.0348 -66.0343 -66.0336 -66.0331 -30.4083 -30.4053 -30.3687 -30.3642
   -30.3594 -30.3534 -30.3302 -30.3298 -30.2971 -30.2940 -30.2874 -30.2839
   -20.1893 -20.1892 -20.1892 -20.1891 -20.1779 -20.1776 -20.1766 -20.1765
   -20.1762 -20.1761 -20.1725 -20.1723 -20.1719 -20.1714 -20.1707 -20.1699
   -20.1686 -20.1682 -20.1682 -20.1679 -20.1655 -20.1652 -20.1649 -20.1646
   -20.1628 -20.1627 -20.1624 -20.1624  -9.9174  -9.4459  -9.2088  -8.8053
    -8.7642  -8.7082  -7.8692  -7.8432  -7.6579  -7.6577  -7.6351  -7.5476
     1.2238   1.3869   1.4093   1.4170   1.9852   2.0024   2.5003   2.6381
     2.7696   2.8772   3.9724   4.0078   4.5016   4.9732   5.0961   5.2515
     5.6563   5.7577   5.9691   6.0798   6.1542   6.2203   6.3590   6.4881
     6.6956   6.8497   6.9264   6.9501   7.0982   7.1862   7.2535   7.3863
     8.3187   8.3509   8.4344   8.5329   9.6892   9.7213   9.7616  10.2782
    12.5718  12.7323  12.9904  13.4499  13.5246  13.5632  13.8564  14.0662
    14.3405  14.8005  14.8699  15.0302  15.7032  16.8108  17.2797

          k = 0.1111 0.1111 0.1145 ( 31151 PWs)   bands (ev):

   -66.0348 -66.0343 -66.0336 -66.0331 -30.4033 -30.4003 -30.3684 -30.3645
   -30.3593 -30.3536 -30.3352 -30.3347 -30.2969 -30.2942 -30.2872 -30.2841
   -20.1893 -20.1892 -20.1892 -20.1891 -20.1774 -20.1771 -20.1765 -20.1765
   -20.1761 -20.1761 -20.1725 -20.1723 -20.1720 -20.1714 -20.1712 -20.1703
   -20.1686 -20.1682 -20.1682 -20.1679 -20.1655 -20.1652 -20.1649 -20.1647
   -20.1629 -20.1628 -20.1625 -20.1624  -9.8708  -9.4640  -9.1234  -8.7986
    -8.7661  -8.6722  -7.9078  -7.8413  -7.7458  -7.6685  -7.6562  -7.6367
     1.3867   1.4089   1.5093   1.6523   1.9836   2.0272   2.5710   2.7022
     2.7838   2.8697   3.8520   3.8626   4.5440   4.8487   5.0290   5.2613
     5.4982   5.6708   5.7459   5.8019   6.1907   6.3799   6.4029   6.5992
     6.6391   6.8975   6.9235   6.9830   7.1006   7.2309   7.2394   7.2664
     8.3156   8.3462   8.3746   8.4471   9.7259   9.7515   9.9445  10.4369
    12.4152  12.5685  13.0149  13.4708  13.5168  13.5764  13.9711  14.0840
    14.2421  14.7944  14.8829  15.2802  16.1305  16.4484  17.4281

          k = 0.1111 0.1111 0.2290 ( 31133 PWs)   bands (ev):

   -66.0347 -66.0344 -66.0335 -66.0332 -30.3895 -30.3866 -30.3676 -30.3653
   -30.3602 -30.3542 -30.3489 -30.3473 -30.2965 -30.2949 -30.2865 -30.2848
   -20.1892 -20.1892 -20.1892 -20.1891 -20.1765 -20.1765 -20.1762 -20.1761
   -20.1761 -20.1757 -20.1726 -20.1725 -20.1724 -20.1723 -20.1713 -20.1710
   -20.1685 -20.1683 -20.1681 -20.1679 -20.1653 -20.1650 -20.1650 -20.1647
   -20.1629 -20.1629 -20.1625 -20.1625  -9.7537  -9.5211  -8.8810  -8.7879
    -8.7712  -8.5447  -8.1489  -7.9840  -7.8356  -7.8049  -7.6522  -7.6409
     1.4022   1.4075   1.9339   1.9785   2.2256   2.4840   2.7725   2.7830
     2.8545   2.9410   3.5033   3.5454   4.1547   4.7260   4.7674   5.1934
     5.2950   5.3096   5.6042   5.6716   5.7734   6.1153   6.5087   6.8874
     6.9034   6.9170   7.0576   7.0887   7.1572   7.1944   7.3026   7.3135
     8.1223   8.1617   8.3449   8.3561   9.7346   9.7491  10.5465  10.8833
    11.9495  12.1164  13.1170  13.4517  13.5713  13.5944  13.7703  14.0086
    14.5124  14.7781  14.9599  15.8684  15.9817  17.1850  17.3325

          k = 0.1111 0.1111-0.3436 ( 31180 PWs)   bands (ev):

   -66.0346 -66.0346 -66.0334 -66.0334 -30.3714 -30.3714 -30.3678 -30.3678
   -30.3665 -30.3665 -30.3542 -30.3542 -30.2957 -30.2957 -30.2857 -30.2857
   -20.1892 -20.1892 -20.1891 -20.1891 -20.1765 -20.1765 -20.1761 -20.1761
   -20.1744 -20.1744 -20.1741 -20.1741 -20.1724 -20.1724 -20.1713 -20.1713
   -20.1684 -20.1684 -20.1680 -20.1680 -20.1651 -20.1651 -20.1649 -20.1649
   -20.1629 -20.1629 -20.1625 -20.1625  -9.6218  -9.6218  -8.7788  -8.7788
    -8.5266  -8.5266  -8.3058  -8.3058  -7.8257  -7.8257  -7.6466  -7.6466
     1.4053   1.4053   1.9681   1.9681   2.8134   2.8134   3.1080   3.1080
     3.1588   3.1588   3.1961   3.1961   3.6219   3.6219   5.0251   5.0251
     5.3559   5.3559   5.4818   5.4818   5.8358   5.8358   6.6816   6.6816
     6.9098   6.9098   7.0814   7.0814   7.3089   7.3089   7.7196   7.7196
     7.7266   7.7266   8.3496   8.3496   9.7428   9.7428  11.2759  11.2759
    11.4992  11.4992  13.2945  13.2945  13.6288  13.6288  13.7656  13.7656
    14.7323  14.7323  15.3078  15.3078  16.7971  16.7972  17.7747

          k = 0.1111 0.2222 0.0000 ( 31114 PWs)   bands (ev):

   -66.0347 -66.0342 -66.0337 -66.0332 -30.4085 -30.4059 -30.3671 -30.3621
   -30.3499 -30.3422 -30.3319 -30.3278 -30.3070 -30.3048 -30.2892 -30.2858
   -20.1893 -20.1892 -20.1892 -20.1891 -20.1779 -20.1777 -20.1766 -20.1766
   -20.1764 -20.1763 -20.1725 -20.1722 -20.1714 -20.1710 -20.1706 -20.1695
   -20.1690 -20.1685 -20.1682 -20.1679 -20.1655 -20.1649 -20.1649 -20.1644
   -20.1632 -20.1631 -20.1625 -20.1624  -9.8289  -9.3356  -9.2428  -8.7615
    -8.6604  -8.6237  -8.0988  -8.0442  -7.7166  -7.7076  -7.6382  -7.5568
     1.2388   1.3680   1.5424   1.5511   2.4283   2.4369   2.5418   2.7797
     3.0018   3.1025   3.8017   3.9403   4.2364   4.7436   4.8172   5.0809
     5.4663   5.5204   5.7829   6.0750   6.2119   6.2523   6.3067   6.3644
     6.4926   6.5594   6.6212   6.6499   7.0680   7.1808   7.2756   7.5548
     8.1511   8.1876   8.3068   8.5162   9.8632  10.3134  10.3658  10.8406
    12.4339  12.7343  12.8948  13.2906  13.3067  13.4002  13.7860  14.0557
    14.2634  15.1932  15.2706  15.4709  15.6000  17.2765  17.3723

          k = 0.1111 0.2222 0.1145 ( 31115 PWs)   bands (ev):

   -66.0347 -66.0342 -66.0337 -66.0332 -30.4035 -30.4009 -30.3668 -30.3624
   -30.3504 -30.3424 -30.3366 -30.3321 -30.3071 -30.3051 -30.2890 -30.2861
   -20.1893 -20.1892 -20.1892 -20.1891 -20.1775 -20.1773 -20.1766 -20.1766
   -20.1763 -20.1763 -20.1725 -20.1722 -20.1715 -20.1714 -20.1706 -20.1698
   -20.1690 -20.1686 -20.1682 -20.1679 -20.1654 -20.1649 -20.1649 -20.1644
   -20.1633 -20.1631 -20.1625 -20.1625  -9.7790  -9.3534  -9.1587  -8.7418
    -8.6627  -8.6040  -8.1205  -8.0411  -7.7654  -7.7151  -7.6955  -7.6687
     1.4691   1.5418   1.5617   1.6612   2.4379   2.4403   2.6076   2.8427
     3.0119   3.0953   3.7309   3.8511   4.2334   4.7597   4.8266   4.8803
     5.2456   5.4725   5.5992   5.8249   5.9538   6.3039   6.3588   6.3907
     6.6019   6.6182   6.6740   6.8430   7.0751   7.1893   7.2231   7.5525
     8.1518   8.1824   8.2521   8.4296  10.0729  10.3188  10.3703  10.9507
    12.3888  12.6556  12.7470  13.2809  13.3047  13.4196  13.6806  14.1640
    14.2980  15.1817  15.4175  15.5786  16.0224  16.8299  17.4887

          k = 0.1111 0.2222 0.2290 ( 31125 PWs)   bands (ev):

   -66.0346 -66.0343 -66.0336 -66.0333 -30.3900 -30.3872 -30.3663 -30.3631
   -30.3551 -30.3499 -30.3429 -30.3406 -30.3070 -30.3057 -30.2884 -30.2867
   -20.1892 -20.1892 -20.1892 -20.1891 -20.1766 -20.1766 -20.1765 -20.1763
   -20.1762 -20.1759 -20.1729 -20.1727 -20.1722 -20.1720 -20.1705 -20.1703
   -20.1689 -20.1687 -20.1681 -20.1680 -20.1652 -20.1649 -20.1647 -20.1644
   -20.1633 -20.1632 -20.1626 -20.1625  -9.6540  -9.4106  -8.9208  -8.7049
    -8.6698  -8.5112  -8.2530  -8.0307  -7.9936  -7.9240  -7.7106  -7.6972
     1.5312   1.5398   2.2221   2.2815   2.4340   2.5538   2.8157   2.9898
     3.0757   3.0856   3.5020   3.5446   4.1471   4.4017   4.6762   4.8187
     5.0558   5.0948   5.3627   5.4560   5.5520   5.9741   6.3533   6.3697
     6.7262   6.9608   7.0359   7.0672   7.1440   7.2090   7.3614   7.5363
     8.0336   8.1083   8.1858   8.2296  10.3244  10.3377  10.6574  11.2827
    11.9887  12.3325  12.7279  13.1969  13.3182  13.4651  13.5116  13.9282
    14.7301  15.1398  15.5495  16.2236  16.2896  17.0509  17.5542

          k = 0.1111 0.2222-0.3436 ( 31136 PWs)   bands (ev):

   -66.0345 -66.0344 -66.0335 -66.0335 -30.3724 -30.3724 -30.3685 -30.3685
   -30.3636 -30.3636 -30.3431 -30.3431 -30.3064 -30.3064 -30.2876 -30.2876
   -20.1892 -20.1892 -20.1892 -20.1891 -20.1766 -20.1766 -20.1764 -20.1764
   -20.1744 -20.1744 -20.1743 -20.1743 -20.1721 -20.1721 -20.1705 -20.1705
   -20.1688 -20.1688 -20.1681 -20.1681 -20.1651 -20.1651 -20.1646 -20.1646
   -20.1633 -20.1633 -20.1626 -20.1626  -9.5143  -9.5143  -8.6826  -8.6824
    -8.5791  -8.5786  -8.2957  -8.2954  -8.0069  -8.0066  -7.7045  -7.7044
     1.5364   1.5369   2.4137   2.4142   3.0107   3.0145   3.1178   3.1343
     3.1777   3.1779   3.2391   3.2540   3.6371   3.6392   4.7080   4.7254
     4.9658   4.9755   5.2781   5.3306   5.6209   5.6696   6.3626   6.3663
     6.8455   6.8691   7.0442   7.0596   7.4613   7.4641   7.6844   7.6907
     7.7087   7.7143   8.1925   8.1932  10.3358  10.3368  11.3372  11.3443
    11.7840  11.7906  12.9419  12.9685  13.3290  13.4061  13.6520  13.7030
    15.0162  15.0278  15.8150  15.8295  17.0386  17.0400  17.8215

          k = 0.1111 0.3333 0.0000 ( 31129 PWs)   bands (ev):

   -66.0346 -66.0340 -66.0339 -66.0334 -30.4086 -30.4068 -30.3613 -30.3553
   -30.3400 -30.3356 -30.3290 -30.3234 -30.3179 -30.3177 -30.2953 -30.2923
   -20.1893 -20.1892 -20.1892 -20.1891 -20.1780 -20.1778 -20.1768 -20.1767
   -20.1766 -20.1765 -20.1724 -20.1717 -20.1713 -20.1707 -20.1699 -20.1695
   -20.1691 -20.1689 -20.1683 -20.1679 -20.1653 -20.1648 -20.1645 -20.1640
   -20.1636 -20.1634 -20.1627 -20.1626  -9.6973  -9.3073  -9.1595  -8.6997
    -8.4973  -8.4746  -8.3733  -8.2633  -7.8629  -7.8586  -7.6246  -7.5709
     1.2607   1.3415   1.8630   1.8645   2.6198   2.8318   2.8768   3.0063
     3.4071   3.4102   3.5052   3.8516   4.1132   4.2313   4.5007   5.0110
     5.0936   5.2793   5.4113   5.6931   5.9162   6.0969   6.2019   6.2865
     6.2994   6.3805   6.5617   6.9955   7.0051   7.2037   7.2913   7.8626
     7.9297   7.9476   8.1027   8.4460  10.2851  10.9870  11.0444  11.4505
    11.9810  12.7722  12.8388  12.9067  13.0325  13.2363  13.4696  14.0644
    14.4080  15.4210  15.6911  15.8691  16.2840  17.4998  17.5768

          k = 0.1111 0.3333 0.1145 ( 31126 PWs)   bands (ev):

   -66.0345 -66.0340 -66.0339 -66.0334 -30.4037 -30.4018 -30.3613 -30.3556
   -30.3420 -30.3394 -30.3292 -30.3261 -30.3186 -30.3182 -30.2952 -30.2925
   -20.1893 -20.1892 -20.1892 -20.1891 -20.1775 -20.1774 -20.1767 -20.1767
   -20.1766 -20.1765 -20.1725 -20.1718 -20.1716 -20.1709 -20.1699 -20.1695
   -20.1693 -20.1690 -20.1683 -20.1680 -20.1652 -20.1648 -20.1644 -20.1640
   -20.1637 -20.1635 -20.1627 -20.1627  -9.6415  -9.2265  -9.1769  -8.6747
    -8.5005  -8.4664  -8.3910  -8.2569  -7.8715  -7.8611  -7.7274  -7.6854
     1.5223   1.6018   1.8633   1.8763   2.6901   2.8529   2.9203   3.0049
     3.3837   3.4122   3.4987   3.8161   4.0801   4.2643   4.5655   4.8031
     5.0307   5.1006   5.2249   5.6833   5.7088   5.7780   5.8768   6.2410
     6.5514   6.6782   6.7431   7.0288   7.0682   7.1897   7.3140   7.8398
     7.9282   7.9422   8.0619   8.3677  10.4424  10.9906  11.0452  11.5281
    12.0372  12.6103  12.8287  12.8984  13.0088  13.1555  13.3435  13.9572
    14.6935  15.8263  15.8507  15.8640  16.3261  17.2235  17.6265

          k = 0.1111 0.3333 0.2290 ( 31144 PWs)   bands (ev):

   -66.0344 -66.0341 -66.0338 -66.0335 -30.3902 -30.3882 -30.3621 -30.3561
   -30.3516 -30.3503 -30.3297 -30.3295 -30.3195 -30.3187 -30.2947 -30.2931
   -20.1892 -20.1892 -20.1892 -20.1891 -20.1767 -20.1767 -20.1767 -20.1766
   -20.1762 -20.1761 -20.1731 -20.1729 -20.1716 -20.1713 -20.1698 -20.1696
   -20.1695 -20.1692 -20.1683 -20.1681 -20.1651 -20.1648 -20.1643 -20.1641
   -20.1638 -20.1636 -20.1628 -20.1628  -9.5010  -9.2347  -9.0020  -8.6032
    -8.5115  -8.4744  -8.4226  -8.2337  -8.0123  -7.9754  -7.8557  -7.8277
     1.8400   1.8599   2.2409   2.3391   2.8694   2.9215   2.9860   3.0818
     3.2995   3.4082   3.4809   3.5708   4.1542   4.2063   4.3782   4.5025
     4.7508   5.0074   5.0410   5.1331   5.1932   5.6231   5.7039   5.7836
     6.9799   7.0924   7.1127   7.1320   7.1778   7.2260   7.4251   7.7602
     7.8814   7.9145   7.9725   8.1449  10.8505  10.9986  11.0750  11.7708
    12.0811  12.2997  12.6191  12.8319  12.8904  13.0767  13.2193  13.7000
    15.2109  15.7754  16.2220  16.6496  16.7910  16.8222  17.6424

          k = 0.1111 0.3333-0.3436 ( 31134 PWs)   bands (ev):

   -66.0343 -66.0343 -66.0336 -66.0336 -30.3728 -30.3727 -30.3697 -30.3697
   -30.3562 -30.3562 -30.3301 -30.3301 -30.3193 -30.3193 -30.2940 -30.2940
   -20.1892 -20.1892 -20.1892 -20.1892 -20.1767 -20.1767 -20.1766 -20.1766
   -20.1745 -20.1745 -20.1745 -20.1745 -20.1715 -20.1715 -20.1697 -20.1697
   -20.1694 -20.1694 -20.1682 -20.1682 -20.1649 -20.1649 -20.1641 -20.1641
   -20.1638 -20.1638 -20.1628 -20.1628  -9.3453  -9.3453  -8.7015  -8.7009
    -8.5377  -8.5365  -8.2695  -8.2681  -8.1704  -8.1692  -7.8471  -7.8468
     1.8534   1.8544   2.8804   2.8818   3.0614   3.0625   3.1708   3.1971
     3.2572   3.2855   3.4641   3.4663   3.5882   3.5940   4.5156   4.5412
     4.6200   4.6299   4.9267   5.0443   5.1955   5.2947   5.7105   5.7116
     7.0785   7.0901   7.1633   7.1744   7.5719   7.5814   7.6212   7.6355
     7.6782   7.6918   7.9792   7.9853  10.9941  11.0031  11.5115  11.5400
    12.1595  12.1760  12.5281  12.5769  12.8815  12.9885  13.3926  13.4498
    15.5710  15.5988  16.4449  16.4777  17.3544  17.3969  17.6627

          k = 0.1111 0.4444 0.0000 ( 31141 PWs)   bands (ev):

   -66.0343 -66.0341 -66.0338 -66.0336 -30.4083 -30.4077 -30.3525 -30.3447
   -30.3427 -30.3324 -30.3318 -30.3262 -30.3152 -30.3151 -30.3046 -30.3025
   -20.1892 -20.1892 -20.1892 -20.1891 -20.1780 -20.1779 -20.1768 -20.1768
   -20.1767 -20.1767 -20.1722 -20.1718 -20.1709 -20.1703 -20.1699 -20.1695
   -20.1692 -20.1689 -20.1683 -20.1681 -20.1650 -20.1648 -20.1640 -20.1639
   -20.1638 -20.1637 -20.1629 -20.1629  -9.5473  -9.4098  -8.9290  -8.6605
    -8.6041  -8.4595  -8.2899  -8.2775  -8.0661  -8.0627  -7.6071  -7.5884
     1.2852   1.3126   2.3056   2.3372   2.7298   2.7772   2.8792   2.9229
     3.4726   3.8002   3.9699   3.9720   4.0431   4.1803   4.3131   4.4838
     4.6664   4.9734   5.1287   5.2772   5.7443   5.9166   6.1411   6.2038
     6.3700   6.4424   6.5538   6.7471   7.3860   7.4024   7.5068   7.6685
     7.6737   7.8210   8.1234   8.3171  10.8301  11.4090  11.6616  11.7272
    12.0439  12.2982  12.3713  12.6061  12.9381  13.1753  13.4860  13.7890
    14.8104  15.1586  16.2567  16.6861  16.9827  17.1898  17.5042

          k = 0.1111 0.4444 0.1145 ( 31141 PWs)   bands (ev):

   -66.0343 -66.0341 -66.0338 -66.0336 -30.4034 -30.4027 -30.3530 -30.3450
   -30.3447 -30.3357 -30.3320 -30.3287 -30.3160 -30.3154 -30.3047 -30.3027
   -20.1892 -20.1892 -20.1892 -20.1891 -20.1775 -20.1775 -20.1768 -20.1768
   -20.1767 -20.1767 -20.1723 -20.1721 -20.1709 -20.1704 -20.1700 -20.1696
   -20.1692 -20.1690 -20.1684 -20.1682 -20.1650 -20.1648 -20.1640 -20.1639
   -20.1638 -20.1638 -20.1630 -20.1629  -9.4829  -9.3360  -8.9461  -8.6775
    -8.5835  -8.4468  -8.2945  -8.2734  -8.0730  -8.0602  -7.7171  -7.7013
     1.5497   1.5773   2.3122   2.3346   2.7494   2.8436   2.8784   2.9712
     3.4485   3.7358   3.9586   3.9949   4.0875   4.2405   4.3334   4.4921
     4.6199   4.8780   4.9837   5.0378   5.4127   5.5090   5.9559   6.0825
     6.5682   6.6282   6.8134   6.9372   7.3906   7.3984   7.5102   7.6610
     7.6752   7.8012   8.0801   8.2539  10.9411  11.4851  11.6637  11.7293
    12.0986  12.2991  12.3703  12.6505  12.7799  13.0301  13.3514  13.6688
    15.1514  15.5432  16.3775  16.6684  17.0362  17.2136  17.4220

          k = 0.1111 0.4444 0.2290 ( 31152 PWs)   bands (ev):

   -66.0342 -66.0340 -66.0339 -66.0337 -30.3900 -30.3892 -30.3574 -30.3540
   -30.3454 -30.3430 -30.3325 -30.3322 -30.3168 -30.3160 -30.3046 -30.3033
   -20.1892 -20.1892 -20.1892 -20.1892 -20.1768 -20.1768 -20.1767 -20.1767
   -20.1763 -20.1762 -20.1731 -20.1730 -20.1709 -20.1706 -20.1701 -20.1698
   -20.1692 -20.1690 -20.1686 -20.1684 -20.1648 -20.1646 -20.1641 -20.1640
   -20.1638 -20.1637 -20.1632 -20.1631  -9.3172  -9.1382  -9.0059  -8.7429
    -8.5116  -8.3993  -8.3132  -8.2574  -8.1172  -8.0522  -7.9731  -7.9382
     2.2096   2.2546   2.3264   2.3968   2.8000   2.8552   3.0495   3.1269
     3.3611   3.5199   3.9568   3.9966   4.2311   4.2567   4.3685   4.4200
     4.4279   4.5468   4.6302   4.9720   5.0026   5.1015   5.2413   5.4499
     7.0744   7.1118   7.1858   7.2127   7.3737   7.4099   7.5424   7.6357
     7.6656   7.7501   7.9429   8.0633  11.2627  11.6560  11.6891  11.7778
    12.2495  12.2865  12.3793  12.3866  12.6753  12.7902  13.0180  13.3755
    15.8189  16.3793  16.5641  16.7629  17.1844  17.2612  17.3490

          k = 0.1111 0.4444-0.3436 ( 31114 PWs)   bands (ev):

   -66.0341 -66.0341 -66.0339 -66.0338 -30.3721 -30.3721 -30.3710 -30.3710
   -30.3456 -30.3456 -30.3329 -30.3329 -30.3166 -30.3166 -30.3040 -30.3040
   -20.1892 -20.1892 -20.1892 -20.1892 -20.1768 -20.1768 -20.1767 -20.1767
   -20.1746 -20.1746 -20.1746 -20.1746 -20.1708 -20.1708 -20.1700 -20.1700
   -20.1690 -20.1690 -20.1686 -20.1685 -20.1646 -20.1646 -20.1642 -20.1642
   -20.1637 -20.1637 -20.1632 -20.1632  -9.1313  -9.1311  -8.9007  -8.9004
    -8.3864  -8.3851  -8.2813  -8.2812  -8.1936  -8.1935  -8.0333  -8.0326
     2.3107   2.3118   2.8006   2.8009   3.0936   3.0953   3.1336   3.1446
     3.4308   3.4391   3.5430   3.5441   3.9836   4.0066   4.4310   4.4534
     4.5518   4.6383   4.6614   4.6924   4.8181   4.8924   5.0692   5.0701
     7.2890   7.2963   7.3632   7.3678   7.4944   7.5089   7.5288   7.5494
     7.7118   7.7273   7.8037   7.8175  11.5886  11.6619  11.7942  11.8837
    12.0983  12.1684  12.2982  12.4465  12.6071  12.6467  13.0245  13.0737
    16.2735  16.3230  16.8932  17.0114  17.1042  17.2881  17.5482

          k = 0.2222 0.2222 0.0000 ( 31108 PWs)   bands (ev):

   -66.0346 -66.0341 -66.0338 -66.0333 -30.4082 -30.4063 -30.3701 -30.3656
   -30.3402 -30.3351 -30.3285 -30.3237 -30.3184 -30.3177 -30.2862 -30.2827
   -20.1893 -20.1892 -20.1892 -20.1891 -20.1779 -20.1778 -20.1767 -20.1766
   -20.1763 -20.1763 -20.1727 -20.1725 -20.1712 -20.1712 -20.1698 -20.1696
   -20.1691 -20.1689 -20.1680 -20.1677 -20.1655 -20.1650 -20.1644 -20.1640
   -20.1637 -20.1635 -20.1623 -20.1623  -9.7759  -9.2885  -9.2831  -8.7657
    -8.5182  -8.4813  -8.3491  -8.2545  -7.6781  -7.6544  -7.6433  -7.5642
     1.2422   1.3581   1.4411   1.4628   2.4794   2.8582   2.8800   3.0394
     3.2145   3.2974   3.4376   3.8567   4.1728   4.2436   4.9468   5.0755
     5.4238   5.4607   5.6815   6.0350   6.1465   6.2480   6.3316   6.3518
     6.3731   6.4293   6.5363   6.7063   6.7741   6.9821   7.3888   7.8483
     7.9108   7.9769   8.1122   8.5403   9.7182  10.8082  10.8662  11.4389
    11.9611  12.6465  13.1274  13.1318  13.1479  13.4651  13.4884  14.0298
    14.3442  15.2200  15.4627  15.5225  16.0096  17.4565  17.6452

          k = 0.2222 0.2222 0.1145 ( 31128 PWs)   bands (ev):

   -66.0346 -66.0341 -66.0338 -66.0333 -30.4032 -30.4013 -30.3698 -30.3659
   -30.3427 -30.3389 -30.3287 -30.3262 -30.3188 -30.3186 -30.2859 -30.2829
   -20.1893 -20.1892 -20.1892 -20.1891 -20.1775 -20.1773 -20.1767 -20.1766
   -20.1763 -20.1763 -20.1727 -20.1725 -20.1716 -20.1715 -20.1698 -20.1696
   -20.1693 -20.1690 -20.1680 -20.1677 -20.1655 -20.1650 -20.1644 -20.1640
   -20.1637 -20.1635 -20.1624 -20.1623  -9.7250  -9.3050  -9.2016  -8.7368
    -8.5222  -8.4720  -8.3653  -8.2486  -7.7540  -7.6844  -7.6761  -7.6560
     1.4045   1.4406   1.5465   1.6503   2.5510   2.8806   2.9274   3.0298
     3.2214   3.2868   3.4149   3.8242   4.0861   4.2768   4.8115   4.9866
     5.1523   5.4560   5.5453   5.7549   5.8737   6.2588   6.3721   6.4002
     6.5141   6.5631   6.6663   6.7403   6.7914   7.0713   7.2508   7.8260
     7.9247   7.9712   8.0736   8.4485   9.9625  10.8119  10.8650  11.5161
    12.0165  12.4815  12.9994  13.0970  13.1559  13.3800  13.4816  14.2425
    14.2588  15.1995  15.7010  15.8671  16.1047  17.1602  17.6829

          k = 0.2222 0.2222 0.2290 ( 31154 PWs)   bands (ev):

   -66.0345 -66.0342 -66.0337 -66.0334 -30.3895 -30.3877 -30.3690 -30.3667
   -30.3531 -30.3510 -30.3292 -30.3292 -30.3199 -30.3192 -30.2853 -30.2836
   -20.1892 -20.1892 -20.1892 -20.1891 -20.1767 -20.1766 -20.1766 -20.1763
   -20.1762 -20.1757 -20.1728 -20.1726 -20.1725 -20.1725 -20.1697 -20.1696
   -20.1695 -20.1693 -20.1680 -20.1678 -20.1653 -20.1650 -20.1643 -20.1640
   -20.1638 -20.1636 -20.1624 -20.1624  -9.5980  -9.3588  -8.9746  -8.6533
    -8.5361  -8.4418  -8.4279  -8.2268  -8.0073  -7.9644  -7.6722  -7.6603
     1.4315   1.4390   2.2363   2.3698   2.7587   2.9486   2.9997   3.0602
     3.2381   3.2466   3.3518   3.5162   4.1565   4.1964   4.3902   4.5000
     5.0586   5.1139   5.2148   5.4430   5.5345   6.0438   6.3691   6.3742
     6.6536   6.6738   6.7681   7.0041   7.1250   7.2238   7.3379   7.7472
     7.8931   7.9403   7.9909   8.1901  10.5471  10.8209  10.8704  11.7583
    11.9388  12.2749  12.6262  12.9064  13.1687  13.2292  13.5741  14.0103
    14.6623  15.1259  16.0055  16.5987  16.7036  16.8403  17.8794

          k = 0.2222 0.2222-0.3436 ( 31114 PWs)   bands (ev):

   -66.0344 -66.0344 -66.0336 -66.0336 -30.3709 -30.3709 -30.3692 -30.3692
   -30.3679 -30.3679 -30.3297 -30.3297 -30.3198 -30.3198 -30.2844 -30.2844
   -20.1892 -20.1892 -20.1892 -20.1892 -20.1766 -20.1766 -20.1764 -20.1764
   -20.1745 -20.1745 -20.1742 -20.1742 -20.1726 -20.1726 -20.1696 -20.1696
   -20.1695 -20.1695 -20.1679 -20.1679 -20.1651 -20.1651 -20.1641 -20.1641
   -20.1638 -20.1638 -20.1624 -20.1624  -9.4589  -9.4589  -8.6692  -8.6691
    -8.5704  -8.5704  -8.2733  -8.2732  -8.1649  -8.1649  -7.6663  -7.6663
     1.4363   1.4363   2.9162   2.9162   3.0822   3.0822   3.0938   3.0938
     3.2437   3.2437   3.3170   3.3170   3.5546   3.5546   4.5248   4.5248
     4.6352   4.6352   5.3654   5.3654   5.6939   5.6939   6.3753   6.3753
     6.7301   6.7301   6.8122   6.8122   7.5664   7.5664   7.6484   7.6484
     7.6716   7.6716   8.0060   8.0061  10.8262  10.8262  11.3005  11.3005
    12.1590  12.1590  12.5567  12.5567  13.1856  13.1856  13.7589  13.7589
    14.9618  14.9618  16.3017  16.3017  17.3806  17.3806  17.8520

          k = 0.2222 0.3333 0.0000 ( 31140 PWs)   bands (ev):

   -66.0345 -66.0340 -66.0339 -66.0334 -30.4079 -30.4069 -30.3687 -30.3637
   -30.3430 -30.3343 -30.3327 -30.3248 -30.3147 -30.3143 -30.2878 -30.2844
   -20.1893 -20.1892 -20.1892 -20.1891 -20.1779 -20.1778 -20.1767 -20.1766
   -20.1764 -20.1764 -20.1727 -20.1724 -20.1716 -20.1708 -20.1704 -20.1694
   -20.1692 -20.1687 -20.1679 -20.1677 -20.1655 -20.1651 -20.1640 -20.1639
   -20.1638 -20.1635 -20.1623 -20.1623  -9.6894  -9.3554  -9.1939  -8.7420
    -8.6080  -8.4462  -8.3165  -8.2927  -7.7392  -7.7255  -7.6236  -7.5757
     1.2638   1.3405   1.5520   1.5682   2.5098   2.7301   2.8820   2.9363
     3.5051   3.6652   3.6746   4.0366   4.0455   4.2990   4.8094   5.0970
     5.1844   5.2914   5.4324   6.0109   6.0204   6.0473   6.0538   6.2359
     6.3956   6.4698   6.6579   6.7211   6.8055   7.0117   7.2602   7.6400
     7.6776   7.8404   8.1092   8.5162   9.8921  11.3838  11.4053  11.4448
    12.0335  12.6659  12.8547  12.8612  13.1884  13.2696  13.5213  14.1808
    14.2699  15.2254  15.5246  15.9165  16.6677  17.4851  17.7308

          k = 0.2222 0.3333 0.1145 ( 31129 PWs)   bands (ev):

   -66.0345 -66.0340 -66.0339 -66.0335 -30.4029 -30.4019 -30.3684 -30.3640
   -30.3446 -30.3386 -30.3329 -30.3280 -30.3154 -30.3145 -30.2876 -30.2847
   -20.1892 -20.1892 -20.1892 -20.1891 -20.1775 -20.1774 -20.1767 -20.1766
   -20.1764 -20.1764 -20.1727 -20.1724 -20.1719 -20.1711 -20.1703 -20.1696
   -20.1692 -20.1688 -20.1679 -20.1677 -20.1654 -20.1651 -20.1641 -20.1639
   -20.1638 -20.1635 -20.1624 -20.1623  -9.6356  -9.2797  -9.2092  -8.7112
    -8.6226  -8.4345  -8.3224  -8.2880  -7.7641  -7.7376  -7.7070  -7.6867
     1.4804   1.5514   1.5699   1.6604   2.5828   2.7469   2.8745   2.9950
     3.4947   3.6509   3.6601   3.9109   4.0961   4.2926   4.8451   4.8642
     5.1442   5.1671   5.2288   5.5931   5.9506   6.0003   6.0258   6.3589
     6.4507   6.5850   6.7335   6.8112   6.8261   7.0777   7.2004   7.6446
     7.6709   7.8194   8.0651   8.4267  10.1081  11.3860  11.4343  11.4964
    12.0906  12.4950  12.8341  12.8581  13.0626  13.2580  13.4335  14.1683
    14.4270  15.4970  15.6044  16.0866  16.7517  17.3633  17.7663

          k = 0.2222 0.3333 0.2290 ( 31143 PWs)   bands (ev):

   -66.0344 -66.0341 -66.0338 -66.0336 -30.3893 -30.3883 -30.3678 -30.3647
   -30.3532 -30.3512 -30.3334 -30.3327 -30.3160 -30.3150 -30.2870 -30.2853
   -20.1892 -20.1892 -20.1892 -20.1891 -20.1767 -20.1766 -20.1766 -20.1764
   -20.1762 -20.1759 -20.1730 -20.1729 -20.1724 -20.1720 -20.1703 -20.1700
   -20.1691 -20.1689 -20.1680 -20.1678 -20.1652 -20.1650 -20.1642 -20.1640
   -20.1637 -20.1636 -20.1625 -20.1624  -9.5020  -9.2601  -9.0758  -8.6805
    -8.6089  -8.3897  -8.3474  -8.2698  -8.0165  -7.9710  -7.7329  -7.7187
     1.5398   1.5495   2.2451   2.3617   2.7864   2.8121   2.8496   3.1635
     3.4229   3.4993   3.6425   3.6665   4.2485   4.2739   4.3707   4.4455
     4.9288   5.0158   5.1866   5.2296   5.2564   5.8457   6.0316   6.1046
     6.6784   6.7952   6.8344   7.0618   7.0848   7.2288   7.3332   7.6471
     7.6608   7.7556   7.9223   8.1654  10.6544  11.3905  11.4320  11.7314
    12.0412  12.2757  12.5906  12.8573  12.9213  12.9967  13.4727  13.9250
    14.8766  15.4038  16.3943  16.5278  17.0739  17.1365  17.6386

          k = 0.2222 0.3333-0.3436 ( 31136 PWs)   bands (ev):

   -66.0342 -66.0342 -66.0337 -66.0337 -30.3717 -30.3717 -30.3701 -30.3701
   -30.3647 -30.3647 -30.3338 -30.3338 -30.3157 -30.3157 -30.2862 -30.2862
   -20.1892 -20.1892 -20.1892 -20.1892 -20.1767 -20.1767 -20.1765 -20.1765
   -20.1745 -20.1745 -20.1743 -20.1743 -20.1724 -20.1724 -20.1702 -20.1702
   -20.1689 -20.1689 -20.1679 -20.1679 -20.1651 -20.1651 -20.1642 -20.1642
   -20.1636 -20.1636 -20.1625 -20.1625  -9.3587  -9.3587  -8.8324  -8.8322
    -8.4439  -8.4431  -8.2663  -8.2655  -8.2021  -8.2017  -7.7265  -7.7263
     1.5460   1.5465   2.7923   2.7926   3.0957   3.0990   3.1242   3.1394
     3.3930   3.4002   3.5059   3.5258   3.6495   3.6501   4.5182   4.5224
     4.6567   4.6574   5.1018   5.1715   5.4430   5.5164   6.0448   6.0491
     6.7549   6.7662   6.9385   6.9473   7.5068   7.5171   7.5515   7.5643
     7.6611   7.6701   7.8189   7.8295  11.2801  11.3130  11.4436  11.4871
    12.1463  12.1583  12.5904  12.5927  12.8763  12.9044  13.6522  13.6740
    15.2042  15.2180  16.7521  16.7585  17.2313  17.2582  17.7683

          k = 0.2222 0.4444 0.0000 ( 31131 PWs)   bands (ev):

   -66.0343 -66.0341 -66.0338 -66.0336 -30.4077 -30.4074 -30.3628 -30.3568
   -30.3535 -30.3460 -30.3312 -30.3285 -30.3036 -30.3012 -30.2940 -30.2909
   -20.1892 -20.1892 -20.1891 -20.1891 -20.1779 -20.1778 -20.1767 -20.1766
   -20.1766 -20.1765 -20.1725 -20.1722 -20.1718 -20.1711 -20.1703 -20.1699
   -20.1688 -20.1686 -20.1678 -20.1677 -20.1654 -20.1652 -20.1642 -20.1641
   -20.1634 -20.1633 -20.1625 -20.1624  -9.5776  -9.4586  -9.0456  -8.8466
    -8.6873  -8.5920  -8.0913  -8.0826  -7.8851  -7.8812  -7.6065  -7.5903
     1.2911   1.3172   1.8641   1.8671   2.3026   2.3318   2.6142   2.7753
     3.8473   4.0352   4.1224   4.1621   4.2442   4.5124   4.6701   4.7493
     4.8762   5.2929   5.4638   5.5012   5.8772   5.9216   6.0290   6.0569
     6.4805   6.5621   6.6763   6.9245   7.0647   7.0650   7.1906   7.3497
     7.3780   7.5056   8.3070   8.4405  10.3073  10.8410  11.9463  11.9929
    12.4487  12.4650  12.5932  12.7625  12.9359  13.0155  13.7957  14.0712
    14.5078  14.8920  16.1093  16.4280  16.8829  17.0620  17.3497

          k = 0.2222 0.4444 0.1145 ( 31122 PWs)   bands (ev):

   -66.0343 -66.0341 -66.0338 -66.0336 -30.4028 -30.4024 -30.3627 -30.3571
   -30.3539 -30.3462 -30.3358 -30.3329 -30.3036 -30.3015 -30.2938 -30.2911
   -20.1892 -20.1892 -20.1892 -20.1891 -20.1774 -20.1774 -20.1767 -20.1766
   -20.1766 -20.1765 -20.1726 -20.1723 -20.1718 -20.1711 -20.1707 -20.1701
   -20.1687 -20.1686 -20.1679 -20.1678 -20.1653 -20.1652 -20.1643 -20.1642
   -20.1634 -20.1632 -20.1625 -20.1625  -9.5183  -9.3912  -9.0601  -8.8608
    -8.6602  -8.5722  -8.0996  -8.0798  -7.8939  -7.8832  -7.7139  -7.7020
     1.5513   1.5775   1.8630   1.8820   2.3094   2.3290   2.6886   2.8479
     3.7942   3.9074   4.1049   4.1599   4.2770   4.5580   4.6725   4.7119
     4.8879   5.0693   5.1943   5.4872   5.5195   5.6683   6.0893   6.2472
     6.4587   6.4877   6.8986   7.0179   7.0690   7.0952   7.2145   7.3405
     7.3751   7.5036   8.2426   8.3604  10.4687  10.9561  11.9467  11.9899
    12.4473  12.4615  12.5974  12.6340  12.7839  13.0540  13.6733  13.9611
    14.7947  15.2281  16.0764  16.5662  16.8440  17.1575  17.4157

          k = 0.2222 0.4444 0.2290 ( 31155 PWs)   bands (ev):

   -66.0342 -66.0340 -66.0339 -66.0337 -30.3893 -30.3889 -30.3631 -30.3576
   -30.3572 -30.3482 -30.3467 -30.3427 -30.3034 -30.3021 -30.2933 -30.2917
   -20.1892 -20.1892 -20.1892 -20.1892 -20.1767 -20.1766 -20.1766 -20.1765
   -20.1762 -20.1761 -20.1731 -20.1730 -20.1718 -20.1714 -20.1711 -20.1707
   -20.1686 -20.1685 -20.1680 -20.1679 -20.1651 -20.1650 -20.1645 -20.1644
   -20.1632 -20.1631 -20.1627 -20.1626  -9.3699  -9.2178  -9.1098  -8.9121
    -8.5635  -8.4976  -8.1538  -8.0712  -8.0437  -7.9468  -7.8775  -7.8460
     1.8378   1.8596   2.1954   2.3200   2.3397   2.3984   2.9145   3.0668
     3.5564   3.5782   4.0818   4.1194   4.4232   4.4494   4.4631   4.6103
     4.6782   4.8362   4.9323   5.1019   5.4574   5.4910   5.5273   5.7683
     6.8345   6.9781   7.0215   7.1255   7.1612   7.2185   7.3161   7.3571
     7.4103   7.5035   8.0433   8.1203  10.9120  11.2916  11.9366  11.9756
    12.1676  12.3054  12.4514  12.5248  12.7762  13.1751  13.3761  13.6948
    15.3383  15.9110  15.9670  16.6928  16.9579  17.4226  17.5740

          k = 0.2222 0.4444-0.3436 ( 31182 PWs)   bands (ev):

   -66.0341 -66.0340 -66.0339 -66.0339 -30.3718 -30.3718 -30.3711 -30.3711
   -30.3572 -30.3572 -30.3467 -30.3467 -30.3028 -30.3028 -30.2926 -30.2926
   -20.1892 -20.1892 -20.1892 -20.1892 -20.1766 -20.1766 -20.1766 -20.1766
   -20.1745 -20.1745 -20.1745 -20.1745 -20.1717 -20.1717 -20.1710 -20.1710
   -20.1684 -20.1684 -20.1681 -20.1681 -20.1649 -20.1649 -20.1646 -20.1646
   -20.1631 -20.1631 -20.1627 -20.1627  -9.2125  -9.2124  -9.0289  -9.0288
    -8.3676  -8.3668  -8.3212  -8.3209  -8.0496  -8.0492  -7.8682  -7.8679
     1.8530   1.8538   2.3040   2.3045   3.1180   3.1222   3.1331   3.1419
     3.4609   3.4704   3.5386   3.5394   4.0820   4.1183   4.5636   4.6018
     4.8455   4.8548   5.0281   5.0436   5.1433   5.1866   5.5680   5.5721
     6.9603   6.9661   7.1749   7.1752   7.2409   7.2609   7.3905   7.3956
     7.7065   7.7154   7.7449   7.7562  11.4977  11.5206  11.7768  11.7999
    11.9637  12.0143  12.4516  12.5021  13.0203  13.0437  13.3916  13.4177
    15.7271  15.7525  16.4074  16.4470  17.2700  17.3432  17.6461

          k = 0.3333 0.3333 0.0000 ( 31124 PWs)   bands (ev):

   -66.0344 -66.0341 -66.0339 -66.0335 -30.4073 -30.4069 -30.3718 -30.3672
   -30.3540 -30.3465 -30.3321 -30.3277 -30.3031 -30.3007 -30.2848 -30.2813
   -20.1892 -20.1892 -20.1891 -20.1891 -20.1779 -20.1778 -20.1766 -20.1765
   -20.1763 -20.1763 -20.1729 -20.1728 -20.1720 -20.1712 -20.1707 -20.1698
   -20.1687 -20.1684 -20.1676 -20.1675 -20.1656 -20.1653 -20.1643 -20.1641
   -20.1633 -20.1631 -20.1621 -20.1621  -9.6606  -9.4318  -9.1890  -8.8263
    -8.7509  -8.5872  -8.0995  -8.0899  -7.7008  -7.6760  -7.6233  -7.5835
     1.2703   1.3344   1.4396   1.4671   2.2994   2.3281   2.4653   2.7791
     3.8704   3.9772   4.0446   4.1410   4.2153   4.8534   4.9581   5.1188
     5.2034   5.3100   5.4980   5.8783   5.9193   5.9578   6.1373   6.2951
     6.4923   6.5407   6.5609   6.5909   6.7138   6.9371   7.2526   7.3166
     7.3966   7.5056   8.3038   8.5386   9.7428  10.8388  11.8368  11.8874
    12.5719  12.6267  12.7489  12.7545  12.9549  13.3946  13.8062  14.0927
    14.3490  14.9107  15.4133  16.2607  16.9059  17.1102  17.6839

          k = 0.3333 0.3333 0.1145 ( 31148 PWs)   bands (ev):

   -66.0344 -66.0340 -66.0339 -66.0336 -30.4022 -30.4020 -30.3715 -30.3675
   -30.3543 -30.3468 -30.3370 -30.3323 -30.3032 -30.3010 -30.2845 -30.2815
   -20.1892 -20.1892 -20.1892 -20.1891 -20.1774 -20.1773 -20.1766 -20.1765
   -20.1763 -20.1762 -20.1729 -20.1728 -20.1721 -20.1712 -20.1711 -20.1701
   -20.1687 -20.1684 -20.1677 -20.1675 -20.1655 -20.1653 -20.1644 -20.1642
   -20.1633 -20.1631 -20.1622 -20.1622  -9.6074  -9.3638  -9.2030  -8.8397
    -8.7175  -8.5676  -8.1079  -8.0871  -7.7387  -7.7009  -7.6981  -7.6777
     1.4073   1.4391   1.5668   1.6364   2.3062   2.3251   2.5390   2.8532
     3.8503   3.9336   3.9724   3.9788   4.2836   4.8572   5.0019   5.0548
     5.1406   5.1575   5.2250   5.5105   6.0272   6.0727   6.1438   6.2467
     6.3821   6.5203   6.6209   6.6530   6.8210   7.0419   7.2630   7.2924
     7.3073   7.5030   8.2391   8.4451   9.9879  10.9554  11.8383  11.8848
    12.4544  12.6159  12.6959  12.7560  12.8503  13.4228  13.6889  14.2486
    14.3280  15.2440  15.3847  16.4324  16.8640  17.2037  17.8023

          k = 0.3333 0.3333 0.2290 ( 31151 PWs)   bands (ev):

   -66.0343 -66.0340 -66.0339 -66.0337 -30.3885 -30.3884 -30.3706 -30.3683
   -30.3572 -30.3506 -30.3472 -30.3425 -30.3029 -30.3016 -30.2839 -30.2822
   -20.1892 -20.1892 -20.1892 -20.1891 -20.1766 -20.1766 -20.1765 -20.1763
   -20.1761 -20.1757 -20.1730 -20.1729 -20.1728 -20.1724 -20.1712 -20.1707
   -20.1685 -20.1684 -20.1678 -20.1677 -20.1653 -20.1651 -20.1645 -20.1644
   -20.1632 -20.1631 -20.1623 -20.1622  -9.4771  -9.2495  -9.1892  -8.8884
    -8.6028  -8.4930  -8.1634  -8.0780  -8.0172  -7.9487  -7.6947  -7.6823
     1.4307   1.4377   2.1907   2.3164   2.3685   2.3978   2.7546   3.0773
     3.5159   3.6275   3.9195   3.9568   4.4256   4.4715   4.4865   4.8869
     5.0185   5.1127   5.1274   5.2828   5.4683   5.9107   6.1500   6.2258
     6.4329   6.5374   6.7078   6.9811   7.0296   7.2091   7.2723   7.2962
     7.3920   7.4935   8.0378   8.1705  10.5816  11.2923  11.8274  11.8776
    11.9993  12.3273  12.7529  12.7762  12.7928  13.3468  13.5709  14.0085
    14.7649  15.2886  15.9297  16.7293  16.8350  17.5332  17.5948

          k = 0.3333 0.3333-0.3436 ( 31150 PWs)   bands (ev):

   -66.0341 -66.0341 -66.0338 -66.0338 -30.3707 -30.3707 -30.3695 -30.3695
   -30.3695 -30.3695 -30.3471 -30.3471 -30.3023 -30.3023 -30.2830 -30.2830
   -20.1892 -20.1892 -20.1892 -20.1892 -20.1766 -20.1766 -20.1764 -20.1764
   -20.1745 -20.1745 -20.1741 -20.1741 -20.1728 -20.1728 -20.1711 -20.1711
   -20.1684 -20.1684 -20.1678 -20.1678 -20.1651 -20.1651 -20.1646 -20.1646
   -20.1631 -20.1631 -20.1623 -20.1623  -9.3409  -9.3409  -9.0013  -9.0013
    -8.3858  -8.3858  -8.3121  -8.3121  -8.0557  -8.0557  -7.6885  -7.6885
     1.4353   1.4353   2.3002   2.3002   3.0939   3.0939   3.1474   3.1475
     3.3949   3.3949   3.5551   3.5552   3.9381   3.9381   4.7887   4.7887
     4.9855   4.9855   5.1455   5.1455   5.5757   5.5757   6.1694   6.1694
     6.5039   6.5039   6.8453   6.8453   7.2172   7.2172   7.4009   7.4009
     7.6948   7.6948   7.7594   7.7594  11.2932  11.2932  11.7970  11.7970
    11.8718  11.8718  12.7772  12.7772  13.0223  13.0223  13.7509  13.7509
    15.0956  15.0956  16.4551  16.4551  17.2082  17.2082  18.0122

          k = 0.3333 0.4444 0.0000 ( 31129 PWs)   bands (ev):

   -66.0343 -66.0342 -66.0337 -66.0336 -30.4070 -30.4069 -30.3701 -30.3651
   -30.3638 -30.3578 -30.3306 -30.3293 -30.2931 -30.2900 -30.2866 -30.2832
   -20.1892 -20.1892 -20.1891 -20.1891 -20.1778 -20.1778 -20.1765 -20.1764
   -20.1763 -20.1763 -20.1729 -20.1728 -20.1724 -20.1720 -20.1704 -20.1701
   -20.1685 -20.1684 -20.1675 -20.1674 -20.1656 -20.1655 -20.1644 -20.1643
   -20.1629 -20.1628 -20.1621 -20.1621  -9.6032  -9.5216  -9.1266  -9.0037
    -8.7310  -8.6795  -7.8992  -7.8945  -7.7588  -7.7422  -7.6078  -7.5941
     1.2955   1.3198   1.5473   1.5665   1.8587   1.8629   2.4997   2.6109
     4.1460   4.1733   4.3447   4.3788   4.5245   4.7811   4.8467   4.8885
     5.4607   5.5465   5.5614   5.8578   5.9021   5.9067   5.9585   6.1694
     6.5805   6.6216   6.6475   6.6685   6.7781   6.8978   6.9159   7.1341
     7.1344   7.3179   8.4367   8.5130   9.9096  10.3142  12.2426  12.2840
    12.5504  12.5770  12.6572  12.7660  13.0120  13.3018  14.0770  14.2252
    14.2753  14.5380  15.6454  16.1820  16.6878  17.1730  17.5451

          k = 0.3333 0.4444 0.1145 ( 31134 PWs)   bands (ev):

   -66.0343 -66.0341 -66.0338 -66.0337 -30.4020 -30.4019 -30.3698 -30.3654
   -30.3637 -30.3580 -30.3357 -30.3342 -30.2929 -30.2902 -30.2864 -30.2835
   -20.1892 -20.1892 -20.1891 -20.1891 -20.1773 -20.1773 -20.1765 -20.1764
   -20.1763 -20.1763 -20.1729 -20.1728 -20.1724 -20.1720 -20.1709 -20.1705
   -20.1684 -20.1683 -20.1675 -20.1675 -20.1655 -20.1654 -20.1645 -20.1644
   -20.1629 -20.1628 -20.1621 -20.1621  -9.5482  -9.4613  -9.1399  -9.0167
    -8.6988  -8.6523  -7.9065  -7.8972  -7.7661  -7.7571  -7.7077  -7.7012
     1.4880   1.5467   1.5668   1.6565   1.8575   1.8782   2.5747   2.6869
     3.9692   3.9976   4.3272   4.3770   4.5845   4.7811   4.8433   4.9307
     5.2728   5.2870   5.4671   5.6165   5.8775   5.9214   6.2478   6.2709
     6.3475   6.4706   6.6415   6.7650   6.8726   6.9247   6.9878   7.1457
     7.1514   7.2369   8.3559   8.4224  10.1263  10.4770  12.2430  12.2805
    12.4882  12.5346  12.5577  12.6358  13.0495  13.3363  13.9655  14.1719
    14.4760  14.8242  15.6146  16.1477  16.8562  17.3252  17.6239

          k = 0.3333 0.4444 0.2290 ( 31155 PWs)   bands (ev):

   -66.0342 -66.0340 -66.0339 -66.0338 -30.3885 -30.3882 -30.3692 -30.3660
   -30.3639 -30.3585 -30.3494 -30.3473 -30.2924 -30.2908 -30.2858 -30.2841
   -20.1892 -20.1892 -20.1892 -20.1891 -20.1765 -20.1765 -20.1764 -20.1763
   -20.1761 -20.1759 -20.1730 -20.1730 -20.1726 -20.1721 -20.1720 -20.1715
   -20.1682 -20.1682 -20.1677 -20.1677 -20.1653 -20.1652 -20.1647 -20.1646
   -20.1628 -20.1627 -20.1623 -20.1622  -9.4134  -9.3119  -9.1845  -9.0619
    -8.5854  -8.5525  -8.0545  -8.0252  -7.8914  -7.8575  -7.7523  -7.7373
     1.5359   1.5450   1.8327   1.8541   2.3338   2.3546   2.7984   2.9186
     3.5496   3.6017   4.3317   4.3623   4.4772   4.4912   4.7360   4.7861
     4.8798   5.1200   5.4329   5.4908   5.7435   5.7805   5.9383   6.0794
     6.4970   6.6130   6.7414   6.8538   6.9119   7.0885   7.1511   7.1776
     7.2481   7.2880   8.1117   8.1537  10.6743  10.9224  12.0040  12.1276
    12.2593  12.2815  12.5637  12.5889  13.1731  13.4476  13.6959  13.9228
    14.9496  15.3812  15.5127  16.0343  17.2614  17.7006  17.8219

          k = 0.3333 0.4444-0.3436 ( 31156 PWs)   bands (ev):

   -66.0340 -66.0340 -66.0339 -66.0339 -30.3712 -30.3712 -30.3712 -30.3712
   -30.3652 -30.3652 -30.3579 -30.3579 -30.2916 -30.2916 -30.2849 -30.2849
   -20.1892 -20.1892 -20.1892 -20.1892 -20.1764 -20.1764 -20.1763 -20.1763
   -20.1744 -20.1744 -20.1742 -20.1742 -20.1726 -20.1726 -20.1719 -20.1719
   -20.1680 -20.1680 -20.1678 -20.1678 -20.1650 -20.1650 -20.1649 -20.1649
   -20.1626 -20.1626 -20.1624 -20.1624  -9.2747  -9.2746  -9.1579  -9.1578
    -8.3587  -8.3585  -8.3380  -8.3379  -7.8816  -7.8815  -7.7456  -7.7455
     1.5419   1.5421   1.8480   1.8483   3.1057   3.1091   3.1293   3.1330
     3.4145   3.4154   3.4756   3.4760   4.3433   4.3610   4.7711   4.7982
     5.1285   5.1433   5.4071   5.4427   5.5448   5.5560   5.9647   5.9727
     6.5770   6.5796   6.8559   6.8643   6.9671   6.9691   7.1911   7.1932
     7.7139   7.7170   7.7324   7.7363  11.3560  11.3594  11.5259  11.5295
    12.2618  12.2746  12.5684  12.5827  13.3906  13.3992  13.6496  13.6591
    15.3028  15.3122  15.7969  15.8076  17.5720  17.5983  17.9010

          k = 0.4444 0.4444 0.0000 ( 31126 PWs)   bands (ev):

   -66.0343 -66.0342 -66.0337 -66.0337 -30.4065 -30.4064 -30.3728 -30.3706
   -30.3682 -30.3656 -30.3302 -30.3298 -30.2861 -30.2838 -30.2827 -30.2804
   -20.1892 -20.1892 -20.1891 -20.1891 -20.1777 -20.1777 -20.1763 -20.1762
   -20.1762 -20.1761 -20.1732 -20.1732 -20.1727 -20.1726 -20.1704 -20.1703
   -20.1683 -20.1683 -20.1673 -20.1673 -20.1657 -20.1656 -20.1645 -20.1644
   -20.1626 -20.1626 -20.1619 -20.1619  -9.6053  -9.5763  -9.1493  -9.1077
    -8.7430  -8.7270  -7.7666  -7.7492  -7.7155  -7.6901  -7.6098  -7.6012
     1.2967   1.3125   1.4354   1.4666   1.5447   1.5649   2.4575   2.4966
     4.2299   4.2464   4.6098   4.6862   4.8239   4.8537   4.8939   4.9645
     5.6040   5.6231   5.7116   5.7662   5.8975   6.0660   6.1600   6.2609
     6.4190   6.5541   6.5932   6.6163   6.6509   6.6737   6.7204   6.7939
     7.3071   7.3994   8.5114   8.5361   9.7552   9.9145  12.4571  12.4981
    12.5573  12.5903  12.6209  12.6621  13.3020  13.4050  14.1157  14.2355
    14.2790  14.3542  15.4794  15.6756  16.9466  17.1339  17.7523

          k = 0.4444 0.4444 0.1145 ( 31150 PWs)   bands (ev):

   -66.0342 -66.0342 -66.0337 -66.0337 -30.4015 -30.4014 -30.3725 -30.3704
   -30.3685 -30.3659 -30.3353 -30.3349 -30.2859 -30.2836 -30.2830 -30.2806
   -20.1892 -20.1892 -20.1891 -20.1891 -20.1773 -20.1773 -20.1763 -20.1762
   -20.1762 -20.1761 -20.1731 -20.1731 -20.1728 -20.1727 -20.1709 -20.1708
   -20.1682 -20.1682 -20.1674 -20.1674 -20.1656 -20.1656 -20.1646 -20.1645
   -20.1626 -20.1625 -20.1619 -20.1619  -9.5519  -9.5211  -9.1621  -9.1204
    -8.7090  -8.6946  -7.7694  -7.7649  -7.7293  -7.7138  -7.7039  -7.6918
     1.4078   1.4350   1.4900   1.5441   1.6334   1.6578   2.5324   2.5722
     3.9994   4.0190   4.6237   4.6849   4.8479   4.8878   4.8888   5.0283
     5.3123   5.3246   5.7427   5.8463   5.9036   6.0711   6.2380   6.3262
     6.3844   6.3921   6.5101   6.5763   6.6455   6.7906   6.8117   6.8731
     7.2288   7.2688   8.4205   8.4419  10.0002  10.1314  12.4390  12.4702
    12.4751  12.4965  12.5637  12.6025  13.3362  13.4387  14.1747  14.2517
    14.3547  14.4883  15.4499  15.6447  17.1471  17.3411  17.8060

          k = 0.4444 0.4444 0.2290 ( 31160 PWs)   bands (ev):

   -66.0341 -66.0341 -66.0338 -66.0338 -30.3878 -30.3875 -30.3717 -30.3697
   -30.3694 -30.3666 -30.3494 -30.3488 -30.2853 -30.2836 -30.2830 -30.2813
   -20.1892 -20.1892 -20.1892 -20.1891 -20.1764 -20.1764 -20.1762 -20.1762
   -20.1759 -20.1757 -20.1731 -20.1731 -20.1729 -20.1727 -20.1722 -20.1720
   -20.1681 -20.1680 -20.1675 -20.1675 -20.1654 -20.1654 -20.1648 -20.1648
   -20.1624 -20.1624 -20.1621 -20.1621  -9.4221  -9.3866  -9.2047  -9.1631
    -8.5895  -8.5796  -8.0287  -8.0224  -7.7600  -7.7447  -7.7092  -7.6965
     1.4274   1.4338   1.5338   1.5425   2.3516   2.3639   2.7525   2.7985
     3.5463   3.5682   4.4776   4.4886   4.6444   4.6835   4.8519   4.8817
     5.0817   5.2219   5.6687   5.7957   5.9177   6.0711   6.0914   6.1993
     6.3430   6.4287   6.4634   6.5585   6.7303   6.8718   7.0450   7.0977
     7.2167   7.2289   8.1500   8.1634  10.5930  10.6792  11.9715  12.0111
    12.4728  12.4905  12.5747  12.5933  13.4483  13.5476  13.9234  14.0076
    14.8079  14.9692  15.3519  15.5424  17.6344  17.9669  17.9820

          k = 0.4444 0.4444-0.3436 ( 31204 PWs)   bands (ev):

   -66.0340 -66.0340 -66.0339 -66.0339 -30.3712 -30.3712 -30.3705 -30.3705
   -30.3685 -30.3685 -30.3653 -30.3653 -30.2845 -30.2844 -30.2821 -30.2821
   -20.1892 -20.1892 -20.1892 -20.1892 -20.1763 -20.1763 -20.1762 -20.1762
   -20.1742 -20.1742 -20.1741 -20.1741 -20.1730 -20.1730 -20.1727 -20.1727
   -20.1678 -20.1678 -20.1678 -20.1677 -20.1651 -20.1651 -20.1650 -20.1650
   -20.1623 -20.1623 -20.1622 -20.1622  -9.2902  -9.2901  -9.2502  -9.2502
    -8.3527  -8.3527  -8.3467  -8.3467  -7.7531  -7.7531  -7.7029  -7.7029
     1.4316   1.4316   1.5396   1.5396   3.1019   3.1019   3.1131   3.1131
     3.3971   3.3971   3.4171   3.4172   4.6641   4.6641   4.8649   4.8649
     5.3763   5.3763   5.5153   5.5153   5.9521   5.9521   6.1133   6.1133
     6.3957   6.3957   6.5249   6.5249   6.8643   6.8643   6.9760   6.9760
     7.7219   7.7219   7.7286   7.7286  11.3071  11.3071  11.3636  11.3636
    12.4822  12.4822  12.5847  12.5847  13.6503  13.6503  13.7450  13.7450
    15.1537  15.1537  15.3351  15.3351  17.9077  17.9077  18.0731

     the Fermi energy is     9.7426 ev

!    total energy              =   -3130.18843761 Ry
     Harris-Foulkes estimate   =   -3130.18843761 Ry
     estimated scf accuracy    <          9.5E-10 Ry

     The total energy is the sum of the following terms:

     one-electron contribution =   -2368.39249116 Ry
     hartree contribution      =    1303.78123718 Ry
     xc contribution           =    -483.30527751 Ry
     ewald contribution        =   -1582.27188341 Ry
     smearing contrib. (-TS)   =      -0.00002270 Ry

     convergence has been achieved in  12 iterations

     Writing output data file chempot_8.save/
 
     init_run     :      5.71s CPU      6.17s WALL (       1 calls)
     electrons    :    253.53s CPU    258.74s WALL (       1 calls)

     Called by init_run:
     wfcinit      :      5.07s CPU      5.45s WALL (       1 calls)
     potinit      :      0.23s CPU      0.26s WALL (       1 calls)
     hinit0       :      0.31s CPU      0.34s WALL (       1 calls)

     Called by electrons:
     c_bands      :    213.94s CPU    218.76s WALL (      12 calls)
     sum_band     :     36.03s CPU     36.17s WALL (      12 calls)
     v_of_rho     :      0.55s CPU      0.58s WALL (      13 calls)
     mix_rho      :      0.95s CPU      1.06s WALL (      12 calls)

     Called by c_bands:
     init_us_2    :      1.64s CPU      1.76s WALL (      50 calls)
     cegterg      :    144.91s CPU    149.40s WALL (      24 calls)

     Called by sum_band:

     Called by *egterg:
     h_psi        :    123.58s CPU    125.69s WALL (      93 calls)
     g_psi        :      0.31s CPU      0.32s WALL (      67 calls)
     cdiaghg      :      1.64s CPU      1.66s WALL (      91 calls)

     Called by h_psi:
     h_psi:pot    :    123.03s CPU    123.68s WALL (      93 calls)
     h_psi:calbec :      8.06s CPU      8.22s WALL (      93 calls)
     vloc_psi     :    105.26s CPU    105.67s WALL (      93 calls)
     add_vuspsi   :      9.72s CPU      9.79s WALL (      93 calls)

     General routines
     calbec       :      8.06s CPU      8.22s WALL (      93 calls)
     fft          :      0.25s CPU      0.25s WALL (      39 calls)
     ffts         :      0.09s CPU      0.09s WALL (      12 calls)
     fftw         :    107.33s CPU    107.66s WALL (   15822 calls)
 
     Parallel routines
 
     PWSCF        :   4m21.66s CPU   4m27.72s WALL

 
   This run was terminated on:  21:54:18  16Dec2019            

=------------------------------------------------------------------------------=
   JOB DONE.
=------------------------------------------------------------------------------=
