
     Program PWSCF v.6.4.1 starts on 21Nov2019 at 16:11:11 

     This program is part of the open-source Quantum ESPRESSO suite
     for quantum simulation of materials; please cite
         "P. Giannozzi et al., J. Phys.:Condens. Matter 21 395502 (2009);
         "P. Giannozzi et al., J. Phys.:Condens. Matter 29 465901 (2017);
          URL http://www.quantum-espresso.org", 
     in publications or presentations arising from this work. More details at
     http://www.quantum-espresso.org/quote

     Parallel version (MPI), running on    40 processors

     MPI processes distributed on     4 nodes
     K-points division:     npool     =      40
     Reading input from scf.in

     Current dimensions of program PWSCF are:
     Max number of different atomic species (ntypx) = 10
     Max number of k-points (npk) =  40000
     Max angular momentum in pseudopotentials (lmaxx) =  3

     Subspace diagonalization in iterative solution of the eigenvalue problem:
     a serial algorithm will be used

     Message from routine setup:
     using ibrav=0 with symmetry is DISCOURAGED, use correct ibrav instead
 
     G-vector sticks info
     --------------------
     sticks:   dense  smooth     PW     G-vecs:    dense   smooth      PW
     Sum        3761    3761   1033               253309   253309   36117
 


     bravais-lattice index     =            0
     lattice parameter (alat)  =       9.9246  a.u.
     unit-cell volume          =    1425.4634 (a.u.)^3
     number of atoms/cell      =           16
     number of atomic types    =            2
     number of electrons       =       184.42
     number of Kohn-Sham states=          111
     kinetic-energy cutoff     =     120.0000  Ry
     charge density cutoff     =     480.0000  Ry
     convergence threshold     =      1.0E-08
     mixing beta               =       0.7000
     number of iterations used =            8  plain     mixing
     Exchange-correlation      = SLA PW NOGX NOGC ( 1  4  0  0 0 0)

     celldm(1)=   9.924574  celldm(2)=   0.000000  celldm(3)=   0.000000
     celldm(4)=   0.000000  celldm(5)=   0.000000  celldm(6)=   0.000000

     crystal axes: (cart. coord. in units of alat)
               a(1) = (   1.000000   0.000000   0.000000 )  
               a(2) = (   0.000000   1.000000   0.000000 )  
               a(3) = (   0.000000   0.000000   1.458211 )  

     reciprocal axes: (cart. coord. in units 2 pi/alat)
               b(1) = (  1.000000  0.000000  0.000000 )  
               b(2) = (  0.000000  1.000000  0.000000 )  
               b(3) = (  0.000000  0.000000  0.685772 )  


     PseudoPot. # 1 for W  read from file:
     /cluster/scratch/mnoe/QE/pps/W_ONCV_LDA-4.0.upf
     MD5 check sum: ba0307d5d4cd419d6f1d13dc49d7c13a
     Pseudo is Norm-conserving + core correction, Zval = 28.0
     Generated using ONCVPSP code by D. R. Hamann
     Using radial grid of 1380 points,  8 beta functions with: 
                l(1) =   0
                l(2) =   0
                l(3) =   1
                l(4) =   1
                l(5) =   2
                l(6) =   2
                l(7) =   3
                l(8) =   3

     PseudoPot. # 2 for O  read from file:
     /cluster/scratch/mnoe/QE/pps/O_ONCV_LDA-3.0.upf
     MD5 check sum: b55cdb4f45ae2203d24ad12cf8d61a31
     Pseudo is Norm-conserving + core correction, Zval =  6.0
     Generated using ONCVPSP code by D. R. Hamann
     Using radial grid of  926 points,  5 beta functions with: 
                l(1) =   0
                l(2) =   0
                l(3) =   1
                l(4) =   1
                l(5) =   2

     atomic species   valence    mass     pseudopotential
        W             28.00   183.84000     W ( 1.00)
        O              6.00    15.99940     O ( 1.00)

     16 Sym. Ops., with inversion, found (14 have fractional translation)



   Cartesian axes

     site n.     atom                  positions (alat units)
         1           W   tau(   1) = (   0.2500000   0.2500000   0.3071737  )
         2           W   tau(   2) = (   0.7500000   0.7500000   1.1510374  )
         3           W   tau(   3) = (   0.7500000   0.7500000   0.4219319  )
         4           W   tau(   4) = (   0.2500000   0.2500000   1.0362793  )
         5           O   tau(   5) = (   0.2500000   0.2500000   0.6963480  )
         6           O   tau(   6) = (   0.7500000   0.7500000   0.7618632  )
         7           O   tau(   7) = (   0.7500000   0.7500000   0.0327576  )
         8           O   tau(   8) = (   0.2500000   0.2500000   1.4254535  )
         9           O   tau(   9) = (   0.4880291   0.5119709   0.3645528  )
        10           O   tau(  10) = (   0.5119709   0.4880291   1.0936584  )
        11           O   tau(  11) = (   0.0119709   0.9880291   0.3645528  )
        12           O   tau(  12) = (   0.9880290   0.0119709   1.0936584  )
        13           O   tau(  13) = (   0.9880291   0.4880291   0.3645528  )
        14           O   tau(  14) = (   0.0119709   0.5119709   1.0936584  )
        15           O   tau(  15) = (   0.5119709   0.0119709   0.3645528  )
        16           O   tau(  16) = (   0.4880291   0.9880290   1.0936584  )

     number of k points=    40  gaussian smearing, width (Ry)=  0.0007
                       cart. coord. in units 2pi/alat
        k(    1) = (   0.0000000   0.0000000   0.0000000), wk =   0.0092593
        k(    2) = (   0.0000000   0.0000000   0.1142953), wk =   0.0185185
        k(    3) = (   0.0000000   0.0000000   0.2285906), wk =   0.0185185
        k(    4) = (   0.0000000   0.0000000  -0.3428859), wk =   0.0092593
        k(    5) = (   0.0000000   0.1666667   0.0000000), wk =   0.0370370
        k(    6) = (   0.0000000   0.1666667   0.1142953), wk =   0.0740741
        k(    7) = (   0.0000000   0.1666667   0.2285906), wk =   0.0740741
        k(    8) = (   0.0000000   0.1666667  -0.3428859), wk =   0.0370370
        k(    9) = (   0.0000000   0.3333333   0.0000000), wk =   0.0370370
        k(   10) = (   0.0000000   0.3333333   0.1142953), wk =   0.0740741
        k(   11) = (   0.0000000   0.3333333   0.2285906), wk =   0.0740741
        k(   12) = (   0.0000000   0.3333333  -0.3428859), wk =   0.0370370
        k(   13) = (   0.0000000  -0.5000000   0.0000000), wk =   0.0185185
        k(   14) = (   0.0000000  -0.5000000   0.1142953), wk =   0.0370370
        k(   15) = (   0.0000000  -0.5000000   0.2285906), wk =   0.0370370
        k(   16) = (   0.0000000  -0.5000000  -0.3428859), wk =   0.0185185
        k(   17) = (   0.1666667   0.1666667   0.0000000), wk =   0.0370370
        k(   18) = (   0.1666667   0.1666667   0.1142953), wk =   0.0740741
        k(   19) = (   0.1666667   0.1666667   0.2285906), wk =   0.0740741
        k(   20) = (   0.1666667   0.1666667  -0.3428859), wk =   0.0370370
        k(   21) = (   0.1666667   0.3333333   0.0000000), wk =   0.0740741
        k(   22) = (   0.1666667   0.3333333   0.1142953), wk =   0.1481481
        k(   23) = (   0.1666667   0.3333333   0.2285906), wk =   0.1481481
        k(   24) = (   0.1666667   0.3333333  -0.3428859), wk =   0.0740741
        k(   25) = (   0.1666667  -0.5000000   0.0000000), wk =   0.0370370
        k(   26) = (   0.1666667  -0.5000000   0.1142953), wk =   0.0740741
        k(   27) = (   0.1666667  -0.5000000   0.2285906), wk =   0.0740741
        k(   28) = (   0.1666667  -0.5000000  -0.3428859), wk =   0.0370370
        k(   29) = (   0.3333333   0.3333333   0.0000000), wk =   0.0370370
        k(   30) = (   0.3333333   0.3333333   0.1142953), wk =   0.0740741
        k(   31) = (   0.3333333   0.3333333   0.2285906), wk =   0.0740741
        k(   32) = (   0.3333333   0.3333333  -0.3428859), wk =   0.0370370
        k(   33) = (   0.3333333  -0.5000000   0.0000000), wk =   0.0370370
        k(   34) = (   0.3333333  -0.5000000   0.1142953), wk =   0.0740741
        k(   35) = (   0.3333333  -0.5000000   0.2285906), wk =   0.0740741
        k(   36) = (   0.3333333  -0.5000000  -0.3428859), wk =   0.0370370
        k(   37) = (  -0.5000000  -0.5000000   0.0000000), wk =   0.0092593
        k(   38) = (  -0.5000000  -0.5000000   0.1142953), wk =   0.0185185
        k(   39) = (  -0.5000000  -0.5000000   0.2285906), wk =   0.0185185
        k(   40) = (  -0.5000000  -0.5000000  -0.3428859), wk =   0.0092593

     Dense  grid:   253309 G-vectors     FFT dimensions: (  72,  72, 108)

     Estimated max dynamical RAM per process >     793.80 MB

     Estimated total dynamical RAM >      31.01 GB

     Initial potential from superposition of free atoms

     starting charge  183.99828, renormalised to  184.42000
     Starting wfcs are  116 randomized atomic wfcs

     total cpu time spent up to now is        6.3 secs

     Self-consistent Calculation

     iteration #  1     ecut=   120.00 Ry     beta= 0.70
     Davidson diagonalization with overlap
     ethr =  1.00E-02,  avg # of iterations =  4.6

     total cpu time spent up to now is       24.5 secs

     total energy              =   -3126.52154709 Ry
     Harris-Foulkes estimate   =   -3132.08908839 Ry
     estimated scf accuracy    <       6.99515364 Ry

     iteration #  2     ecut=   120.00 Ry     beta= 0.70
     Davidson diagonalization with overlap
     ethr =  3.79E-03,  avg # of iterations =  3.3

     total cpu time spent up to now is       42.5 secs

     total energy              =   -3125.00759559 Ry
     Harris-Foulkes estimate   =   -3135.18690377 Ry
     estimated scf accuracy    <      27.04828384 Ry

     iteration #  3     ecut=   120.00 Ry     beta= 0.70
     Davidson diagonalization with overlap
     ethr =  3.79E-03,  avg # of iterations =  3.2

     total cpu time spent up to now is       59.2 secs

     total energy              =   -3130.23573196 Ry
     Harris-Foulkes estimate   =   -3130.36764048 Ry
     estimated scf accuracy    <       0.45567694 Ry

     iteration #  4     ecut=   120.00 Ry     beta= 0.70
     Davidson diagonalization with overlap
     ethr =  2.47E-04,  avg # of iterations =  2.7

     total cpu time spent up to now is       73.5 secs

     total energy              =   -3130.21971537 Ry
     Harris-Foulkes estimate   =   -3130.26443234 Ry
     estimated scf accuracy    <       0.11819266 Ry

     iteration #  5     ecut=   120.00 Ry     beta= 0.70
     Davidson diagonalization with overlap
     ethr =  6.41E-05,  avg # of iterations =  3.9

     total cpu time spent up to now is       88.5 secs

     total energy              =   -3130.23078356 Ry
     Harris-Foulkes estimate   =   -3130.24205198 Ry
     estimated scf accuracy    <       0.02748225 Ry

     iteration #  6     ecut=   120.00 Ry     beta= 0.70
     Davidson diagonalization with overlap
     ethr =  1.49E-05,  avg # of iterations =  3.9

     total cpu time spent up to now is      103.4 secs

     total energy              =   -3130.23567711 Ry
     Harris-Foulkes estimate   =   -3130.23750309 Ry
     estimated scf accuracy    <       0.00444658 Ry

     iteration #  7     ecut=   120.00 Ry     beta= 0.70
     Davidson diagonalization with overlap
     ethr =  2.41E-06,  avg # of iterations =  4.0

     total cpu time spent up to now is      118.3 secs

     total energy              =   -3130.23641384 Ry
     Harris-Foulkes estimate   =   -3130.23642441 Ry
     estimated scf accuracy    <       0.00001700 Ry

     iteration #  8     ecut=   120.00 Ry     beta= 0.70
     Davidson diagonalization with overlap
     ethr =  9.22E-09,  avg # of iterations =  4.0

     total cpu time spent up to now is      139.6 secs

     total energy              =   -3130.23643089 Ry
     Harris-Foulkes estimate   =   -3130.23643756 Ry
     estimated scf accuracy    <       0.00003385 Ry

     iteration #  9     ecut=   120.00 Ry     beta= 0.70
     Davidson diagonalization with overlap
     ethr =  9.22E-09,  avg # of iterations =  2.0

     total cpu time spent up to now is      153.6 secs

     total energy              =   -3130.23642684 Ry
     Harris-Foulkes estimate   =   -3130.23643237 Ry
     estimated scf accuracy    <       0.00001504 Ry

     iteration # 10     ecut=   120.00 Ry     beta= 0.70
     Davidson diagonalization with overlap
     ethr =  8.16E-09,  avg # of iterations =  2.0

     total cpu time spent up to now is      167.2 secs

     total energy              =   -3130.23642887 Ry
     Harris-Foulkes estimate   =   -3130.23642909 Ry
     estimated scf accuracy    <       0.00000045 Ry

     iteration # 11     ecut=   120.00 Ry     beta= 0.70
     Davidson diagonalization with overlap
     ethr =  2.47E-10,  avg # of iterations =  2.7

     total cpu time spent up to now is      182.9 secs

     total energy              =   -3130.23642895 Ry
     Harris-Foulkes estimate   =   -3130.23642897 Ry
     estimated scf accuracy    <       0.00000003 Ry

     iteration # 12     ecut=   120.00 Ry     beta= 0.70
     Davidson diagonalization with overlap
     ethr =  1.79E-11,  avg # of iterations =  2.0

     total cpu time spent up to now is      198.6 secs

     End of self-consistent calculation

          k = 0.0000 0.0000 0.0000 ( 31655 PWs)   bands (ev):

   -66.2631 -66.2627 -66.2618 -66.2613 -30.6705 -30.6660 -30.5999 -30.5967
   -30.5957 -30.5957 -30.5917 -30.5917 -30.5149 -30.5149 -30.5116 -30.5116
   -20.4114 -20.4113 -20.4113 -20.4112 -20.4109 -20.4109 -20.4043 -20.4043
   -20.4002 -20.4002 -20.3988 -20.3988 -20.3986 -20.3985 -20.3985 -20.3984
   -20.3974 -20.3974 -20.3959 -20.3959 -20.3760 -20.3760 -20.3759 -20.3759
   -20.3734 -20.3734 -20.3734 -20.3734 -10.1686  -9.7767  -9.3991  -9.1402
    -9.1168  -9.0486  -8.0042  -7.8823  -7.8695  -7.8695  -7.8448  -7.8448
     0.9937   0.9940   1.0359   1.2438   1.3338   1.4390   2.3519   2.3519
     2.3729   2.4845   3.9579   3.9579   4.6345   4.6345   4.8620   5.4604
     5.4604   5.5262   5.5262   5.6898   5.6898   5.8029   5.8492   6.4787
     6.4787   6.7065   6.9882   7.0258   7.0667   7.0667   7.0813   7.0813
     8.1259   8.1259   8.2299   8.2381   8.8807   8.8858   9.4926   9.4926
    12.3322  12.3322  13.2193  13.2193  13.4470  13.6156  13.6254  14.0969
    14.0969  14.2572  14.2593  14.4897  15.4725  16.3634  16.9987

          k = 0.0000 0.0000 0.1143 ( 31675 PWs)   bands (ev):

   -66.2631 -66.2627 -66.2618 -66.2614 -30.6658 -30.6614 -30.6047 -30.6014
   -30.5954 -30.5954 -30.5919 -30.5919 -30.5146 -30.5146 -30.5118 -30.5118
   -20.4113 -20.4113 -20.4113 -20.4112 -20.4105 -20.4105 -20.4048 -20.4048
   -20.4001 -20.4001 -20.3989 -20.3989 -20.3986 -20.3985 -20.3985 -20.3984
   -20.3973 -20.3973 -20.3960 -20.3960 -20.3760 -20.3760 -20.3759 -20.3759
   -20.3734 -20.3734 -20.3734 -20.3734 -10.1289  -9.7919  -9.3178  -9.1387
    -9.1184  -9.0052  -8.1134  -8.0024  -7.8678  -7.8678  -7.8465  -7.8465
     0.9938   0.9940   1.2086   1.3332   1.4204   1.6121   2.3802   2.4233
     2.4233   2.4768   3.7725   3.7725   4.6166   4.6869   4.6869   5.3820
     5.3820   5.4683   5.4798   5.4798   5.8463   5.8798   5.8798   6.4894
     6.4894   6.7247   6.8320   6.9686   7.0662   7.0662   7.0777   7.0777
     8.0407   8.0407   8.2305   8.2378   8.8812   8.8858   9.7323   9.7323
    12.1628  12.1628  13.2494  13.2494  13.6163  13.6248  13.7224  14.0013
    14.0013  14.2576  14.2594  14.7205  15.8894  16.0323  17.0672

          k = 0.0000 0.0000 0.2286 ( 31670 PWs)   bands (ev):

   -66.2630 -66.2628 -66.2617 -66.2615 -30.6530 -30.6488 -30.6177 -30.6141
   -30.5947 -30.5947 -30.5927 -30.5927 -30.5140 -30.5140 -30.5124 -30.5124
   -20.4113 -20.4113 -20.4113 -20.4113 -20.4093 -20.4093 -20.4060 -20.4060
   -20.3998 -20.3998 -20.3992 -20.3992 -20.3986 -20.3985 -20.3985 -20.3984
   -20.3970 -20.3970 -20.3963 -20.3963 -20.3760 -20.3760 -20.3759 -20.3759
   -20.3734 -20.3734 -20.3734 -20.3734 -10.0308  -9.8393  -9.1344  -9.1227
    -9.0871  -8.8665  -8.3929  -8.2978  -7.8634  -7.8634  -7.8510  -7.8510
     0.9939   0.9940   1.3094   1.3309   2.0322   2.3270   2.4002   2.4560
     2.6324   2.6324   3.3731   3.3731   3.9170   4.5212   4.8492   4.8492
     5.2576   5.2576   5.5098   5.5098   5.7802   5.7802   5.9744   6.4787
     6.7748   6.8465   6.8465   6.9156   7.0655   7.0655   7.0766   7.0766
     7.7802   7.7802   8.2321   8.2364   8.8827   8.8853  10.3182  10.3182
    11.6933  11.6933  13.3498  13.3498  13.6181  13.6231  13.7743  13.7743
    14.2558  14.2584  14.2595  15.4097  15.4410  16.8687  16.9316

          k = 0.0000 0.0000-0.3429 ( 31746 PWs)   bands (ev):

   -66.2629 -66.2629 -66.2616 -66.2616 -30.6354 -30.6354 -30.6315 -30.6315
   -30.5937 -30.5937 -30.5937 -30.5937 -30.5132 -30.5132 -30.5132 -30.5132
   -20.4113 -20.4113 -20.4113 -20.4113 -20.4077 -20.4077 -20.4077 -20.4077
   -20.3995 -20.3995 -20.3995 -20.3995 -20.3985 -20.3985 -20.3984 -20.3984
   -20.3967 -20.3967 -20.3967 -20.3967 -20.3760 -20.3760 -20.3760 -20.3760
   -20.3734 -20.3734 -20.3734 -20.3734  -9.9220  -9.9220  -9.1285  -9.1285
    -8.7509  -8.7509  -8.6218  -8.6218  -7.8572  -7.8572  -7.8572  -7.8572
     0.9939   0.9940   1.3255   1.3255   2.4279   2.4279   2.9604   2.9604
     2.9621   2.9621   2.9621   2.9621   3.3759   3.3759   5.0745   5.0745
     5.0746   5.0746   5.5948   5.5948   5.5948   5.5948   6.1842   6.1842
     6.8445   6.8445   7.0636   7.0636   7.0636   7.0636   7.3631   7.3631
     7.3631   7.3631   8.2343   8.2343   8.8842   8.8842  11.0303  11.0303
    11.0303  11.0303  13.5312  13.5312  13.5313  13.5313  13.6206  13.6206
    14.2592  14.2592  14.8295  14.8295  16.2565  16.2565  17.4087

          k = 0.0000 0.1667 0.0000 ( 31679 PWs)   bands (ev):

   -66.2631 -66.2626 -66.2619 -66.2614 -30.6705 -30.6665 -30.6019 -30.5972
   -30.5903 -30.5882 -30.5863 -30.5861 -30.5203 -30.5201 -30.5170 -30.5169
   -20.4114 -20.4113 -20.4113 -20.4112 -20.4109 -20.4109 -20.4044 -20.4044
   -20.4004 -20.3999 -20.3995 -20.3989 -20.3987 -20.3985 -20.3981 -20.3978
   -20.3974 -20.3971 -20.3961 -20.3959 -20.3758 -20.3758 -20.3758 -20.3758
   -20.3736 -20.3736 -20.3736 -20.3736 -10.0867  -9.6721  -9.4185  -9.0702
    -9.0468  -9.0229  -8.0583  -8.0141  -7.9754  -7.9510  -7.9460  -7.8889
     1.0692   1.2265   1.2471   1.2498   1.6026   1.6771   2.4226   2.4310
     2.5465   2.6538   3.9083   3.9495   4.3055   4.3969   4.8488   5.1559
     5.1935   5.3371   5.4268   5.7011   5.7083   5.8734   6.1970   6.3291
     6.3366   6.4020   6.4276   6.6912   6.8521   6.9265   6.9958   7.0366
     8.0489   8.0905   8.1049   8.1134   9.5302   9.5463   9.8028   9.8946
    12.3889  12.4207  12.9553  12.9660  13.4617  13.4806  13.7403  13.9159
    13.9160  14.6918  14.7185  14.7343  15.4037  16.6922  16.9442

          k = 0.0000 0.1667 0.1143 ( 31656 PWs)   bands (ev):

   -66.2630 -66.2626 -66.2619 -66.2615 -30.6659 -30.6619 -30.6061 -30.6019
   -30.5901 -30.5885 -30.5866 -30.5864 -30.5201 -30.5199 -30.5172 -30.5171
   -20.4113 -20.4113 -20.4113 -20.4112 -20.4105 -20.4105 -20.4049 -20.4048
   -20.4003 -20.3998 -20.3995 -20.3989 -20.3987 -20.3986 -20.3981 -20.3978
   -20.3974 -20.3970 -20.3962 -20.3960 -20.3758 -20.3758 -20.3758 -20.3758
   -20.3736 -20.3736 -20.3736 -20.3736 -10.0441  -9.6874  -9.3374  -9.0687
    -9.0483  -8.9826  -8.1394  -8.0242  -8.0122  -7.9738  -7.9603  -7.9527
     1.2473   1.2496   1.2992   1.4499   1.6016   1.7416   2.4958   2.4985
     2.5563   2.6473   3.7510   3.7937   4.3593   4.4508   4.5994   5.1588
     5.1703   5.2122   5.2629   5.4792   5.7960   5.8519   6.2280   6.3565
     6.3833   6.3883   6.4074   6.7697   6.8053   6.9339   6.9963   7.0460
     7.9714   8.0050   8.1032   8.1165   9.5331   9.5424   9.9936  10.0752
    12.2241  12.2591  12.9926  12.9961  13.4564  13.4808  13.8160  13.8263
    14.0253  14.7188  14.7302  14.9002  15.8203  16.3161  17.0017

          k = 0.0000 0.1667 0.2286 ( 31653 PWs)   bands (ev):

   -66.2629 -66.2627 -66.2618 -66.2615 -30.6531 -30.6493 -30.6184 -30.6147
   -30.5893 -30.5885 -30.5873 -30.5870 -30.5195 -30.5193 -30.5178 -30.5177
   -20.4113 -20.4113 -20.4113 -20.4113 -20.4094 -20.4093 -20.4061 -20.4060
   -20.4001 -20.3996 -20.3996 -20.3989 -20.3988 -20.3987 -20.3981 -20.3979
   -20.3972 -20.3968 -20.3964 -20.3962 -20.3758 -20.3758 -20.3758 -20.3758
   -20.3736 -20.3736 -20.3736 -20.3736  -9.9386  -9.7360  -9.1073  -9.0644
    -9.0526  -8.8517  -8.4101  -8.3041  -8.0069  -7.9879  -7.9694  -7.9572
     1.2478   1.2492   1.5569   1.5979   2.0375   2.2939   2.5680   2.6234
     2.7113   2.7325   3.3814   3.4264   3.9091   4.5204   4.5410   4.6237
     5.0350   5.0805   5.2056   5.2356   5.5350   5.5648   6.3175   6.3769
     6.4049   6.6121   6.7944   6.8230   6.9055   6.9444   7.0091   7.0765
     7.7270   7.7578   8.1063   8.1147   9.5364   9.5396  10.4915  10.5577
    11.7688  11.8115  13.0985  13.1029  13.4233  13.4707  13.5909  13.6290
    14.5707  14.7194  14.7241  15.5672  15.7255  16.8556  17.0391

          k = 0.0000 0.1667-0.3429 ( 31644 PWs)   bands (ev):

   -66.2628 -66.2628 -66.2617 -66.2617 -30.6357 -30.6357 -30.6320 -30.6320
   -30.5883 -30.5883 -30.5879 -30.5879 -30.5187 -30.5187 -30.5185 -30.5185
   -20.4113 -20.4113 -20.4113 -20.4113 -20.4078 -20.4077 -20.4077 -20.4077
   -20.3998 -20.3998 -20.3992 -20.3992 -20.3988 -20.3988 -20.3980 -20.3980
   -20.3968 -20.3968 -20.3965 -20.3965 -20.3758 -20.3758 -20.3758 -20.3758
   -20.3736 -20.3736 -20.3736 -20.3736  -9.8225  -9.8225  -9.0585  -9.0585
    -8.7709  -8.7709  -8.6164  -8.6164  -7.9990  -7.9990  -7.9633  -7.9633
     1.2485   1.2485   1.5889   1.5889   2.5946   2.5946   2.9502   2.9502
     2.9738   2.9738   3.0318   3.0318   3.4166   3.4166   4.8078   4.8078
     4.8724   4.8724   5.2954   5.2954   5.3174   5.3174   6.3794   6.3794
     6.4722   6.4722   6.9370   6.9370   7.0146   7.0146   7.3265   7.3265
     7.3642   7.3642   8.1108   8.1108   9.5382   9.5383  11.1394  11.1394
    11.1927  11.1927  13.2630  13.2630  13.3058  13.3058  13.5266  13.5266
    14.7207  14.7207  15.1312  15.1312  16.4239  16.4239  17.4571

          k = 0.0000 0.3333 0.0000 ( 31674 PWs)   bands (ev):

   -66.2628 -66.2623 -66.2622 -66.2617 -30.6702 -30.6677 -30.6021 -30.5987
   -30.5756 -30.5730 -30.5718 -30.5712 -30.5352 -30.5343 -30.5317 -30.5314
   -20.4113 -20.4113 -20.4113 -20.4112 -20.4110 -20.4110 -20.4046 -20.4045
   -20.4005 -20.3998 -20.3996 -20.3993 -20.3992 -20.3979 -20.3979 -20.3974
   -20.3969 -20.3968 -20.3965 -20.3959 -20.3755 -20.3754 -20.3754 -20.3754
   -20.3742 -20.3742 -20.3741 -20.3741  -9.8754  -9.4880  -9.3741  -8.9284
    -8.8706  -8.8471  -8.4395  -8.3589  -8.2447  -8.2207  -7.9544  -7.9071
     1.1076   1.1868   1.9236   1.9472   2.2815   2.3027   2.6089   2.6431
     3.0748   3.1753   3.6564   3.6859   3.8382   3.9330   4.3979   4.4426
     4.8223   4.9089   5.2348   5.2452   5.2653   5.6959   5.7729   5.9199
     6.1026   6.1630   6.2093   6.5307   6.8532   7.0738   7.1464   7.3444
     7.7843   7.7899   7.8425   7.9638  10.5327  10.5950  10.6511  10.7519
    12.2828  12.3477  12.6289  12.7151  12.7729  12.7861  13.4753  13.5511
    14.3154  15.1921  15.3079  16.0190  16.0213  17.2145  17.2771

          k = 0.0000 0.3333 0.1143 ( 31640 PWs)   bands (ev):

   -66.2628 -66.2624 -66.2621 -66.2617 -30.6656 -30.6631 -30.6064 -30.6034
   -30.5754 -30.5731 -30.5720 -30.5714 -30.5350 -30.5341 -30.5320 -30.5316
   -20.4113 -20.4113 -20.4113 -20.4113 -20.4106 -20.4106 -20.4050 -20.4050
   -20.4004 -20.3998 -20.3996 -20.3993 -20.3991 -20.3980 -20.3978 -20.3974
   -20.3969 -20.3968 -20.3966 -20.3959 -20.3755 -20.3754 -20.3754 -20.3754
   -20.3742 -20.3742 -20.3741 -20.3741  -9.8225  -9.4091  -9.3900  -8.8984
    -8.8690  -8.8486  -8.4631  -8.3548  -8.2431  -8.2223  -8.0555  -8.0121
     1.3583   1.4365   1.9253   1.9458   2.2789   2.3132   2.6842   2.7064
     3.0798   3.1694   3.5863   3.6367   3.8894   3.9887   4.4106   4.4560
     4.5549   4.7317   4.9539   5.2266   5.2428   5.4636   5.5141   5.7386
     6.2669   6.3301   6.5363   6.6025   6.8612   7.0668   7.1578   7.3360
     7.7615   7.7789   7.8056   7.9083  10.5960  10.6128  10.6989  10.8471
    12.3214  12.3482  12.5175  12.5709  12.7747  12.7835  13.3612  13.4413
    14.6640  15.4414  15.6081  16.0191  16.0211  16.8979  17.2945

          k = 0.0000 0.3333 0.2286 ( 31609 PWs)   bands (ev):

   -66.2627 -66.2624 -66.2620 -66.2618 -30.6530 -30.6506 -30.6186 -30.6160
   -30.5747 -30.5731 -30.5727 -30.5720 -30.5343 -30.5337 -30.5326 -30.5322
   -20.4113 -20.4113 -20.4113 -20.4113 -20.4094 -20.4094 -20.4062 -20.4062
   -20.4003 -20.3999 -20.3995 -20.3993 -20.3989 -20.3983 -20.3976 -20.3973
   -20.3970 -20.3969 -20.3966 -20.3961 -20.3754 -20.3754 -20.3754 -20.3754
   -20.3742 -20.3742 -20.3741 -20.3741  -9.6898  -9.4428  -9.1871  -8.8648
    -8.8529  -8.7952  -8.5848  -8.3409  -8.3071  -8.2388  -8.2268  -8.2123
     1.9300   1.9419   2.0096   2.0563   2.2689   2.4121   2.8870   2.9188
     3.0890   3.1541   3.3576   3.4452   3.8936   4.0792   4.1620   4.3262
     4.4655   4.5072   4.6376   4.7506   4.9994   5.1517   5.2412   5.2514
     6.7403   6.7570   6.8107   6.8726   6.8781   7.0448   7.2059   7.3004
     7.5818   7.6629   7.7985   7.8224  10.6229  10.6251  11.0010  11.1605
    12.0167  12.1451  12.4806  12.5658  12.7800  12.7825  13.0921  13.1752
    15.3331  15.9762  16.0204  16.0206  16.3894  16.6124  17.2890

          k = 0.0000 0.3333-0.3429 ( 31610 PWs)   bands (ev):

   -66.2626 -66.2626 -66.2619 -66.2619 -30.6357 -30.6357 -30.6333 -30.6333
   -30.5737 -30.5737 -30.5727 -30.5727 -30.5335 -30.5335 -30.5329 -30.5329
   -20.4113 -20.4113 -20.4113 -20.4113 -20.4078 -20.4078 -20.4078 -20.4078
   -20.4001 -20.4001 -20.3994 -20.3994 -20.3986 -20.3986 -20.3972 -20.3972
   -20.3972 -20.3972 -20.3964 -20.3964 -20.3754 -20.3754 -20.3754 -20.3754
   -20.3742 -20.3742 -20.3741 -20.3741  -9.5446  -9.5446  -8.8737  -8.8737
    -8.8579  -8.8579  -8.5918  -8.5918  -8.3083  -8.3083  -8.2328  -8.2328
     1.9362   1.9362   2.2399   2.2399   2.8987   2.8987   2.9994   2.9994
     3.1320   3.1320   3.1771   3.1771   3.4748   3.4748   4.3566   4.3566
     4.4062   4.4062   4.6260   4.6260   4.7073   4.7073   5.2357   5.2357
     6.8446   6.8446   6.9887   6.9887   7.1871   7.1871   7.2543   7.2543
     7.3736   7.3736   7.8043   7.8043  10.6270  10.6270  11.4893  11.4893
    11.6374  11.6374  12.6485  12.6485  12.7938  12.7939  12.9237  12.9237
    15.8690  15.8690  16.0212  16.0212  16.8382  16.8382  17.3733

          k = 0.0000-0.5000 0.0000 ( 31670 PWs)   bands (ev):

   -66.2625 -66.2625 -66.2620 -66.2620 -30.6692 -30.6692 -30.6006 -30.6006
   -30.5554 -30.5554 -30.5536 -30.5535 -30.5518 -30.5518 -30.5512 -30.5512
   -20.4114 -20.4113 -20.4113 -20.4113 -20.4110 -20.4110 -20.4046 -20.4046
   -20.4002 -20.4002 -20.3997 -20.3997 -20.3985 -20.3985 -20.3972 -20.3972
   -20.3969 -20.3969 -20.3962 -20.3962 -20.3749 -20.3749 -20.3748 -20.3748
   -20.3748 -20.3748 -20.3747 -20.3747  -9.6403  -9.6403  -8.9324  -8.9324
    -8.7114  -8.7114  -8.5743  -8.5743  -8.5505  -8.5505  -7.9316  -7.9316
     1.1445   1.1445   2.6532   2.6532   2.7511   2.7511   2.8932   2.8932
     3.0738   3.0738   3.6879   3.6880   3.7657   3.7657   3.9832   3.9832
     4.0824   4.0825   4.8391   4.8391   5.4240   5.4240   5.8712   5.8712
     5.9992   5.9992   6.2723   6.2723   7.3862   7.3863   7.4062   7.4062
     7.4586   7.4586   7.7204   7.7204  11.3909  11.3909  11.5675  11.5675
    11.7849  11.7849  11.8066  11.8066  12.9883  12.9883  13.1082  13.1082
    14.8294  14.8294  16.2576  16.2576  17.4054  17.4054  17.6115

          k = 0.0000-0.5000 0.1143 ( 31624 PWs)   bands (ev):

   -66.2625 -66.2625 -66.2620 -66.2620 -30.6646 -30.6646 -30.6051 -30.6051
   -30.5552 -30.5552 -30.5535 -30.5535 -30.5520 -30.5520 -30.5514 -30.5514
   -20.4113 -20.4113 -20.4113 -20.4113 -20.4106 -20.4106 -20.4051 -20.4051
   -20.4002 -20.4002 -20.3997 -20.3997 -20.3984 -20.3984 -20.3973 -20.3973
   -20.3969 -20.3969 -20.3962 -20.3962 -20.3749 -20.3749 -20.3748 -20.3748
   -20.3748 -20.3748 -20.3747 -20.3747  -9.5713  -9.5713  -8.9500  -8.9500
    -8.6975  -8.6975  -8.5728  -8.5728  -8.5521  -8.5520  -8.0369  -8.0369
     1.3967   1.3967   2.6776   2.6776   2.7923   2.7923   2.8838   2.8838
     3.0579   3.0580   3.7360   3.7361   3.8045   3.8045   3.9800   3.9800
     4.0820   4.0820   4.5805   4.5805   5.0658   5.0658   5.5983   5.5983
     6.3561   6.3561   6.4317   6.4317   7.3767   7.3767   7.3919   7.3919
     7.4495   7.4495   7.6874   7.6874  11.4437  11.4437  11.6210  11.6210
    11.7996  11.7996  11.8211  11.8211  12.8523  12.8523  12.9776  12.9776
    15.2246  15.2246  16.3334  16.3334  17.2944  17.2944  17.6327

          k = 0.0000-0.5000 0.2286 ( 31604 PWs)   bands (ev):

   -66.2624 -66.2624 -66.2621 -66.2621 -30.6520 -30.6520 -30.6176 -30.6176
   -30.5545 -30.5545 -30.5532 -30.5532 -30.5527 -30.5527 -30.5520 -30.5520
   -20.4113 -20.4113 -20.4113 -20.4113 -20.4095 -20.4095 -20.4062 -20.4062
   -20.4001 -20.4001 -20.3998 -20.3998 -20.3982 -20.3982 -20.3975 -20.3975
   -20.3968 -20.3968 -20.3964 -20.3964 -20.3749 -20.3749 -20.3748 -20.3748
   -20.3748 -20.3748 -20.3747 -20.3747  -9.3871  -9.3871  -9.0157  -9.0157
    -8.6460  -8.6460  -8.5685  -8.5685  -8.5563  -8.5563  -8.2842  -8.2842
     2.0684   2.0684   2.7372   2.7372   2.8542   2.8542   2.9074   2.9075
     3.0007   3.0007   3.8617   3.8617   3.9012   3.9012   3.9277   3.9277
     4.0965   4.0965   4.1098   4.1098   4.5786   4.5787   4.8919   4.8919
     6.7982   6.7982   6.8285   6.8285   7.3066   7.3066   7.3338   7.3338
     7.4541   7.4541   7.5929   7.5929  11.5805  11.5805  11.6965  11.6965
    11.8922  11.8922  11.9267  11.9267  12.5133  12.5133  12.6458  12.6458
    16.1384  16.1384  16.5841  16.5841  17.0361  17.0361  17.6235

          k = 0.0000-0.5000-0.3429 ( 31672 PWs)   bands (ev):

   -66.2623 -66.2622 -66.2622 -66.2622 -30.6348 -30.6348 -30.6348 -30.6348
   -30.5536 -30.5536 -30.5536 -30.5536 -30.5527 -30.5527 -30.5527 -30.5527
   -20.4113 -20.4113 -20.4113 -20.4113 -20.4079 -20.4079 -20.4079 -20.4079
   -20.3999 -20.3999 -20.3999 -20.3999 -20.3979 -20.3978 -20.3978 -20.3978
   -20.3966 -20.3966 -20.3966 -20.3966 -20.3749 -20.3749 -20.3748 -20.3748
   -20.3748 -20.3748 -20.3747 -20.3747  -9.1662  -9.1662  -9.1662  -9.1662
    -8.5632  -8.5631  -8.5631  -8.5631  -8.5183  -8.5183  -8.5182  -8.5182
     2.7908   2.7908   2.7908   2.7908   2.8171   2.8171   2.8171   2.8171
     3.2035   3.2035   3.2035   3.2036   4.0201   4.0201   4.0201   4.0201
     4.1780   4.1780   4.1780   4.1780   4.3137   4.3137   4.3137   4.3137
     7.1102   7.1102   7.1102   7.1102   7.1776   7.1776   7.1776   7.1776
     7.4942   7.4942   7.4943   7.4943  11.6827  11.6827  11.6827  11.6827
    12.1272  12.1272  12.1273  12.1273  12.2530  12.2530  12.2530  12.2530
    16.7151  16.7151  16.7151  16.7151  17.3869  17.3869  17.3869

          k = 0.1667 0.1667 0.0000 ( 31647 PWs)   bands (ev):

   -66.2630 -66.2625 -66.2620 -66.2615 -30.6703 -30.6669 -30.6010 -30.5977
   -30.5969 -30.5929 -30.5731 -30.5703 -30.5358 -30.5327 -30.5138 -30.5105
   -20.4113 -20.4113 -20.4113 -20.4112 -20.4109 -20.4109 -20.4045 -20.4044
   -20.4002 -20.4000 -20.3994 -20.3992 -20.3989 -20.3988 -20.3978 -20.3975
   -20.3972 -20.3971 -20.3961 -20.3959 -20.3764 -20.3764 -20.3750 -20.3750
   -20.3746 -20.3745 -20.3730 -20.3730 -10.0316  -9.6140  -9.4413  -9.0731
    -8.9440  -8.9118  -8.3233  -8.2916  -7.9743  -7.8946  -7.8841  -7.8587
     1.0359   1.1242   1.2000   1.2162   2.1770   2.1882   2.3357   2.6297
     2.7151   2.8149   3.6965   3.7871   4.0195   4.4749   4.6360   4.8351
     5.1452   5.3235   5.4172   5.6570   5.7667   5.8866   6.0421   6.1607
     6.2801   6.3298   6.3692   6.5187   6.6535   6.7927   7.0191   7.2058
     7.8806   7.9468   7.9596   8.1222   9.5349  10.0377  10.0610  10.6155
    12.2418  12.4135  12.6423  13.2144  13.2694  13.2799  13.5187  13.7540
    14.0977  14.8732  14.8928  15.2473  15.3199  17.1584  17.1700

          k = 0.1667 0.1667 0.1143 ( 31654 PWs)   bands (ev):

   -66.2629 -66.2625 -66.2620 -66.2615 -30.6657 -30.6623 -30.6055 -30.6024
   -30.5966 -30.5931 -30.5731 -30.5706 -30.5356 -30.5329 -30.5136 -30.5108
   -20.4113 -20.4113 -20.4113 -20.4112 -20.4105 -20.4105 -20.4049 -20.4049
   -20.4001 -20.3999 -20.3994 -20.3992 -20.3989 -20.3989 -20.3978 -20.3974
   -20.3971 -20.3971 -20.3962 -20.3960 -20.3764 -20.3764 -20.3750 -20.3750
   -20.3746 -20.3745 -20.3730 -20.3730  -9.9875  -9.6286  -9.3610  -9.0488
    -8.9465  -8.8958  -8.3429  -8.2889  -8.0738  -8.0059  -7.8825  -7.8605
     1.1036   1.1241   1.3688   1.4852   2.1751   2.2016   2.4062   2.6844
     2.7350   2.8084   3.6224   3.7465   3.9321   4.4894   4.5784   4.6947
     4.8953   5.2916   5.3306   5.4988   5.5955   5.8682   6.1907   6.2534
     6.2594   6.3635   6.4780   6.5278   6.6530   6.8465   6.9036   7.2028
     7.8337   7.9421   7.9466   8.0434   9.7623  10.0395  10.0651  10.7271
    12.1448  12.3957  12.4889  13.2238  13.2636  13.2854  13.4300  13.9960
    14.0066  14.8611  15.0687  15.3116  15.7336  16.6579  17.1592

          k = 0.1667 0.1667 0.2286 ( 31671 PWs)   bands (ev):

   -66.2629 -66.2626 -66.2619 -66.2616 -30.6530 -30.6497 -30.6182 -30.6151
   -30.5959 -30.5939 -30.5727 -30.5712 -30.5351 -30.5335 -30.5130 -30.5114
   -20.4113 -20.4113 -20.4113 -20.4113 -20.4094 -20.4093 -20.4061 -20.4061
   -20.3998 -20.3998 -20.3995 -20.3992 -20.3990 -20.3990 -20.3977 -20.3974
   -20.3970 -20.3970 -20.3965 -20.3963 -20.3764 -20.3764 -20.3750 -20.3750
   -20.3746 -20.3745 -20.3730 -20.3730  -9.8788  -9.6755  -9.1339  -8.9986
    -8.9541  -8.8141  -8.4807  -8.3116  -8.2806  -8.2064  -7.8779  -7.8652
     1.1193   1.1236   2.0091   2.0599   2.1672   2.3742   2.6109   2.7280
     2.7943   2.9147   3.3704   3.3997   3.9026   4.0969   4.4122   4.5430
     4.7454   4.8608   5.0830   5.1918   5.3731   5.7267   6.2844   6.3392
     6.3618   6.5025   6.6371   6.6519   6.8272   6.8557   7.0240   7.1835
     7.6483   7.7457   7.9504   7.9724  10.0418  10.0430  10.3566  11.0560
    11.7013  12.0787  12.5264  13.0654  13.2892  13.2900  13.3827  13.7777
    14.4255  14.8163  15.3282  15.8364  16.1082  16.7480  17.2935

          k = 0.1667 0.1667-0.3429 ( 31642 PWs)   bands (ev):

   -66.2627 -66.2627 -66.2617 -66.2617 -30.6356 -30.6356 -30.6324 -30.6324
   -30.5949 -30.5949 -30.5720 -30.5720 -30.5343 -30.5343 -30.5122 -30.5122
   -20.4113 -20.4113 -20.4113 -20.4113 -20.4078 -20.4078 -20.4077 -20.4077
   -20.3996 -20.3996 -20.3995 -20.3995 -20.3990 -20.3990 -20.3976 -20.3976
   -20.3967 -20.3967 -20.3967 -20.3967 -20.3764 -20.3764 -20.3750 -20.3750
   -20.3746 -20.3746 -20.3730 -20.3730  -9.7611  -9.7611  -8.9687  -8.9687
    -8.8055  -8.8055  -8.6063  -8.6063  -8.2631  -8.2631  -7.8715  -7.8715
     1.1224   1.1224   2.1474   2.1474   2.7494   2.7494   2.9530   2.9530
     2.9610   2.9610   3.0636   3.0636   3.4377   3.4378   4.3888   4.3888
     4.6941   4.6941   5.0630   5.0630   5.4802   5.4802   6.3546   6.3546
     6.4280   6.4280   6.6203   6.6203   7.1104   7.1104   7.3238   7.3238
     7.3293   7.3293   7.9607   7.9607  10.0459  10.0459  11.0501  11.0501
    11.5478  11.5479  12.7699  12.7699  13.2920  13.2920  13.5406  13.5406
    14.6986  14.6986  15.6337  15.6337  16.6789  16.6789  17.5302

          k = 0.1667 0.3333 0.0000 ( 31639 PWs)   bands (ev):

   -66.2628 -66.2623 -66.2622 -66.2617 -30.6698 -30.6679 -30.6015 -30.5990
   -30.5910 -30.5883 -30.5564 -30.5534 -30.5526 -30.5496 -30.5183 -30.5151
   -20.4113 -20.4113 -20.4113 -20.4112 -20.4110 -20.4110 -20.4045 -20.4045
   -20.4003 -20.3998 -20.3996 -20.3994 -20.3993 -20.3983 -20.3978 -20.3973
   -20.3971 -20.3967 -20.3965 -20.3959 -20.3766 -20.3765 -20.3755 -20.3755
   -20.3741 -20.3741 -20.3729 -20.3729  -9.8791  -9.5216  -9.4327  -9.0240
    -8.7350  -8.6713  -8.6525  -8.6346  -8.0154  -8.0108  -7.9439  -7.9101
     1.1000   1.1872   1.3892   1.4268   2.3987   2.7007   2.7642   2.9690
     3.0497   3.2636   3.3090   3.7125   3.7658   3.9791   4.3690   4.8121
     4.8522   4.9504   5.1223   5.6343   5.6371   5.6384   5.7174   5.8387
     6.0928   6.1178   6.3512   6.5333   6.7244   6.8096   6.8672   7.5364
     7.5657   7.6028   7.6160   8.0702   9.8908  10.9786  11.0059  11.5086
    11.5120  12.4255  12.7389  12.7567  12.9403  13.0450  13.0804  13.9269
    14.0649  15.0582  15.4731  15.5670  16.3432  17.3397  17.3669

          k = 0.1667 0.3333 0.1143 ( 31631 PWs)   bands (ev):

   -66.2627 -66.2623 -66.2622 -66.2617 -30.6652 -30.6633 -30.6057 -30.6036
   -30.5912 -30.5885 -30.5562 -30.5537 -30.5524 -30.5498 -30.5181 -30.5153
   -20.4113 -20.4113 -20.4113 -20.4112 -20.4106 -20.4105 -20.4050 -20.4049
   -20.4003 -20.3997 -20.3996 -20.3993 -20.3993 -20.3984 -20.3977 -20.3973
   -20.3970 -20.3967 -20.3965 -20.3960 -20.3766 -20.3765 -20.3755 -20.3755
   -20.3741 -20.3741 -20.3729 -20.3729  -9.8290  -9.4464  -9.4458  -8.9946
    -8.7482  -8.6758  -8.6475  -8.6272  -8.0776  -8.0273  -8.0136  -7.9777
     1.2977   1.3888   1.4088   1.5180   2.4714   2.7305   2.8036   2.9566
     3.0410   3.2612   3.3063   3.7187   3.8115   3.8467   4.4296   4.5482
     4.8077   4.8439   4.8913   5.3127   5.5644   5.5852   5.6373   5.8263
     6.2589   6.3489   6.4240   6.5575   6.7296   6.7925   6.9021   7.5232
     7.5542   7.5858   7.5888   7.9908  10.0708  10.9793  11.0060  11.5699
    11.5909  12.2625  12.7317  12.7430  12.8903  12.9284  13.0323  13.8263
    14.3491  15.4473  15.5413  15.6251  16.4036  17.1371  17.3926

          k = 0.1667 0.3333 0.2286 ( 31627 PWs)   bands (ev):

   -66.2626 -66.2624 -66.2621 -66.2618 -30.6526 -30.6507 -30.6180 -30.6162
   -30.5910 -30.5892 -30.5558 -30.5543 -30.5520 -30.5504 -30.5175 -30.5159
   -20.4113 -20.4113 -20.4113 -20.4113 -20.4094 -20.4094 -20.4062 -20.4061
   -20.4001 -20.3997 -20.3996 -20.3994 -20.3991 -20.3986 -20.3975 -20.3972
   -20.3969 -20.3969 -20.3967 -20.3962 -20.3766 -20.3766 -20.3755 -20.3755
   -20.3741 -20.3741 -20.3729 -20.3729  -9.7061  -9.4904  -9.2390  -8.8980
    -8.8052  -8.6938  -8.6269  -8.5992  -8.3173  -8.2875  -8.0087  -7.9936
     1.3767   1.3875   2.0512   2.1628   2.6856   2.8139   2.8993   2.9268
     3.0054   3.2390   3.3002   3.4233   3.9136   3.9292   3.9675   4.1930
     4.5963   4.6832   4.7964   4.8587   4.8870   5.3962   5.6411   5.6872
     6.5395   6.6192   6.7060   6.7204   6.7906   6.8744   7.0496   7.4284
     7.4671   7.5303   7.5828   7.7716  10.5434  10.9801  11.0105  11.7446
    11.7963  11.8643  12.5159  12.5684  12.7501  12.7893  13.1275  13.5853
    14.8733  15.4495  16.0246  16.3819  16.6913  16.7606  17.4445

          k = 0.1667 0.3333-0.3429 ( 31634 PWs)   bands (ev):

   -66.2625 -66.2625 -66.2620 -66.2620 -30.6352 -30.6352 -30.6334 -30.6334
   -30.5901 -30.5901 -30.5551 -30.5551 -30.5512 -30.5512 -30.5167 -30.5167
   -20.4113 -20.4113 -20.4113 -20.4113 -20.4078 -20.4078 -20.4078 -20.4078
   -20.3999 -20.3999 -20.3995 -20.3995 -20.3989 -20.3989 -20.3972 -20.3972
   -20.3970 -20.3970 -20.3965 -20.3965 -20.3766 -20.3766 -20.3755 -20.3755
   -20.3741 -20.3741 -20.3729 -20.3729  -9.5773  -9.5772  -8.9757  -8.9754
    -8.7581  -8.7574  -8.5437  -8.5420  -8.5159  -8.5145  -8.0018  -8.0016
     1.3845   1.3849   2.7912   2.7934   2.8535   2.8554   2.9548   2.9690
     3.1017   3.1169   3.2718   3.2746   3.3409   3.3470   4.1985   4.2019
     4.2706   4.2707   4.7281   4.7819   5.0265   5.0772   5.6494   5.6520
     6.6386   6.6717   6.6837   6.7169   7.2061   7.2098   7.2268   7.2572
     7.2955   7.3131   7.6105   7.6169  10.9573  10.9703  11.2039  11.2257
    12.1079  12.1214  12.1679  12.1720  12.7442  12.7795  13.3122  13.3363
    15.2415  15.2519  16.3921  16.4007  17.2767  17.3196  17.3681

          k = 0.1667-0.5000 0.0000 ( 31634 PWs)   bands (ev):

   -66.2625 -66.2625 -66.2620 -66.2620 -30.6690 -30.6690 -30.6006 -30.6006
   -30.5764 -30.5764 -30.5738 -30.5738 -30.5326 -30.5326 -30.5294 -30.5294
   -20.4113 -20.4113 -20.4113 -20.4113 -20.4110 -20.4110 -20.4046 -20.4046
   -20.4002 -20.4002 -20.3996 -20.3996 -20.3985 -20.3985 -20.3975 -20.3975
   -20.3970 -20.3970 -20.3960 -20.3960 -20.3763 -20.3763 -20.3762 -20.3762
   -20.3733 -20.3733 -20.3733 -20.3733  -9.6801  -9.6801  -9.1289  -9.1289
    -8.8920  -8.8920  -8.3170  -8.3170  -8.3145  -8.3145  -7.9310  -7.9310
     1.1481   1.1481   2.0710   2.0710   2.0777   2.0777   2.6082   2.6082
     3.6699   3.6699   3.8738   3.8738   4.0526   4.0526   4.1710   4.1710
     4.6476   4.6476   4.9998   4.9998   5.4271   5.4271   5.7250   5.7250
     6.1589   6.1589   6.4064   6.4064   7.0854   7.0855   7.1025   7.1025
     7.1763   7.1763   7.9075   7.9076  10.6457  10.6457  11.9254  11.9254
    11.9544  11.9545  12.3609  12.3609  12.6580  12.6580  13.5226  13.5226
    14.6092  14.6092  16.3640  16.3641  16.7576  16.7576  17.5513

          k = 0.1667-0.5000 0.1143 ( 31634 PWs)   bands (ev):

   -66.2625 -66.2625 -66.2620 -66.2620 -30.6644 -30.6644 -30.6050 -30.6050
   -30.5764 -30.5764 -30.5740 -30.5740 -30.5324 -30.5324 -30.5296 -30.5296
   -20.4113 -20.4113 -20.4113 -20.4113 -20.4106 -20.4106 -20.4050 -20.4050
   -20.4001 -20.4001 -20.3996 -20.3996 -20.3984 -20.3984 -20.3975 -20.3975
   -20.3970 -20.3970 -20.3961 -20.3961 -20.3763 -20.3763 -20.3762 -20.3762
   -20.3733 -20.3733 -20.3733 -20.3733  -9.6175  -9.6175  -9.1415  -9.1415
    -8.8724  -8.8724  -8.3246  -8.3246  -8.3133  -8.3133  -8.0344  -8.0343
     1.3973   1.3973   2.0732   2.0732   2.0810   2.0810   2.6803   2.6803
     3.6131   3.6131   3.9171   3.9171   4.0696   4.0696   4.1233   4.1233
     4.6552   4.6552   4.7844   4.7844   5.1072   5.1072   5.6978   5.6978
     6.2327   6.2327   6.5834   6.5834   7.0790   7.0790   7.1013   7.1013
     7.1808   7.1808   7.8466   7.8466  10.7583  10.7583  11.9231  11.9231
    11.9534  11.9534  12.4070  12.4070  12.5092  12.5092  13.4061  13.4061
    14.9593  14.9593  16.4501  16.4501  16.7161  16.7161  17.5333

          k = 0.1667-0.5000 0.2286 ( 31644 PWs)   bands (ev):

   -66.2624 -66.2624 -66.2621 -66.2621 -30.6518 -30.6518 -30.6174 -30.6174
   -30.5762 -30.5762 -30.5747 -30.5747 -30.5318 -30.5318 -30.5302 -30.5302
   -20.4113 -20.4113 -20.4113 -20.4113 -20.4094 -20.4094 -20.4062 -20.4062
   -20.4000 -20.4000 -20.3997 -20.3997 -20.3983 -20.3983 -20.3977 -20.3977
   -20.3968 -20.3968 -20.3963 -20.3963 -20.3763 -20.3763 -20.3763 -20.3763
   -20.3733 -20.3733 -20.3733 -20.3733  -9.4580  -9.4580  -9.1866  -9.1866
    -8.7987  -8.7987  -8.3970  -8.3970  -8.3063  -8.3063  -8.2343  -8.2343
     1.9614   1.9614   2.0677   2.0677   2.2058   2.2058   2.8965   2.8965
     3.3909   3.3909   3.9676   3.9676   4.0052   4.0052   4.1978   4.1978
     4.2460   4.2460   4.6843   4.6843   4.7602   4.7602   5.1470   5.1470
     6.6767   6.6767   6.8522   6.8522   7.0467   7.0467   7.0965   7.0965
     7.2135   7.2135   7.6619   7.6619  11.0829  11.0829  11.9001  11.9001
    11.9478  11.9478  12.1386  12.1386  12.5519  12.5519  13.1209  13.1209
    15.6994  15.6994  16.5529  16.5529  16.7436  16.7436  17.3739

          k = 0.1667-0.5000-0.3429 ( 31652 PWs)   bands (ev):

   -66.2623 -66.2622 -66.2622 -66.2622 -30.6346 -30.6346 -30.6345 -30.6345
   -30.5755 -30.5755 -30.5755 -30.5755 -30.5310 -30.5310 -30.5310 -30.5310
   -20.4113 -20.4113 -20.4113 -20.4113 -20.4078 -20.4078 -20.4078 -20.4078
   -20.3998 -20.3998 -20.3998 -20.3998 -20.3980 -20.3980 -20.3980 -20.3980
   -20.3966 -20.3966 -20.3966 -20.3966 -20.3763 -20.3763 -20.3763 -20.3763
   -20.3733 -20.3733 -20.3733 -20.3733  -9.2889  -9.2889  -9.2888  -9.2888
    -8.6287  -8.6287  -8.6283  -8.6283  -8.2920  -8.2920  -8.2917  -8.2917
     2.0539   2.0539   2.0544   2.0544   2.9418   2.9418   2.9437   2.9437
     3.3316   3.3316   3.3407   3.3407   3.9880   3.9880   4.0206   4.0206
     4.5016   4.5016   4.5201   4.5201   4.7774   4.7774   4.7783   4.7783
     6.9455   6.9455   6.9553   6.9553   7.0334   7.0334   7.0598   7.0598
     7.3780   7.3780   7.3908   7.3908  11.5416  11.5416  11.5656  11.5657
    11.9404  11.9404  11.9866  11.9866  12.7914  12.7914  12.8115  12.8115
    16.2514  16.2514  16.2778  16.2778  17.0943  17.0943  17.1407

          k = 0.3333 0.3333 0.0000 ( 31608 PWs)   bands (ev):

   -66.2626 -66.2623 -66.2622 -66.2618 -30.6691 -30.6681 -30.5998 -30.5993
   -30.5993 -30.5952 -30.5774 -30.5749 -30.5315 -30.5283 -30.5116 -30.5084
   -20.4113 -20.4113 -20.4113 -20.4112 -20.4109 -20.4109 -20.4044 -20.4044
   -20.4002 -20.4000 -20.3993 -20.3992 -20.3990 -20.3988 -20.3978 -20.3974
   -20.3972 -20.3972 -20.3961 -20.3959 -20.3773 -20.3772 -20.3767 -20.3767
   -20.3729 -20.3728 -20.3721 -20.3721  -9.8534  -9.6240  -9.4540  -9.0860
    -9.0513  -8.8827  -8.3312  -8.3296  -7.9510  -7.9185  -7.9131  -7.8862
     1.0578   1.1306   1.1797   1.2363   2.0687   2.0703   2.3012   2.6086
     3.6194   3.7177   3.9038   3.9221   4.0288   4.5977   4.6575   4.8399
     4.8894   5.0134   5.2316   5.5274   5.5448   5.5735   5.8556   5.9226
     6.1819   6.1864   6.2843   6.2910   6.5029   6.6770   6.9967   7.0288
     7.0484   7.1372   7.8993   8.1159   9.5978  10.6543  11.6604  11.6893
    12.3399  12.3499  12.6041  12.6212  12.6907  13.1817  13.5255  13.8610
    14.0993  14.6590  15.2853  15.9521  16.8248  16.9359  17.5518

          k = 0.3333 0.3333 0.1143 ( 31628 PWs)   bands (ev):

   -66.2626 -66.2623 -66.2622 -66.2619 -30.6644 -30.6635 -30.6042 -30.6040
   -30.5990 -30.5955 -30.5775 -30.5752 -30.5313 -30.5285 -30.5114 -30.5087
   -20.4113 -20.4113 -20.4113 -20.4112 -20.4105 -20.4105 -20.4049 -20.4049
   -20.4001 -20.3999 -20.3993 -20.3992 -20.3990 -20.3989 -20.3978 -20.3973
   -20.3973 -20.3971 -20.3962 -20.3960 -20.3773 -20.3772 -20.3767 -20.3767
   -20.3729 -20.3728 -20.3721 -20.3721  -9.8057  -9.5600  -9.4653  -9.0970
    -9.0168  -8.8638  -8.3404  -8.3271  -8.0582  -8.0273  -7.9113  -7.8880
     1.1099   1.1305   1.4015   1.4732   2.0682   2.0764   2.3744   2.6834
     3.6118   3.7126   3.7879   3.8312   3.9892   4.6034   4.7083   4.7770
     4.8421   4.8568   4.9416   5.1738   5.7045   5.7358   5.8428   5.9150
     5.9362   6.2753   6.3198   6.4714   6.4963   6.7347   6.9119   7.0329
     7.0406   7.1357   7.8371   8.0280   9.8243  10.7704  11.6606  11.6880
    12.1845  12.3842  12.4882  12.6244  12.6533  13.2116  13.4102  14.0014
    14.1138  14.9999  15.2553  16.1030  16.7806  17.0284  17.5917

          k = 0.3333 0.3333 0.2286 ( 31643 PWs)   bands (ev):

   -66.2625 -66.2623 -66.2622 -66.2620 -30.6517 -30.6509 -30.6168 -30.6165
   -30.5983 -30.5963 -30.5773 -30.5758 -30.5307 -30.5291 -30.5108 -30.5092
   -20.4113 -20.4113 -20.4113 -20.4113 -20.4094 -20.4094 -20.4061 -20.4061
   -20.3999 -20.3998 -20.3994 -20.3992 -20.3991 -20.3990 -20.3977 -20.3974
   -20.3970 -20.3970 -20.3964 -20.3963 -20.3773 -20.3772 -20.3767 -20.3767
   -20.3729 -20.3728 -20.3721 -20.3721  -9.6917  -9.5030  -9.3979  -9.1368
    -8.8980  -8.7902  -8.4172  -8.3205  -8.3196  -8.2417  -7.9065  -7.8930
     1.1257   1.1302   1.9526   2.0617   2.1834   2.2040   2.5891   2.9092
     3.3526   3.4630   3.6709   3.6992   4.1759   4.1856   4.2359   4.6351
     4.7112   4.7956   4.8158   4.9633   5.1573   5.5580   5.9332   5.9396
     6.1243   6.2589   6.4027   6.6858   6.6950   6.8763   6.9263   7.0165
     7.0881   7.1528   7.6449   7.7721  10.3841  11.1005  11.6363  11.6846
    11.7552  12.0981  12.5278  12.6296  12.6402  13.1025  13.3344  13.7680
    14.5907  15.1543  15.7344  16.4929  16.6353  17.2859  17.3924

          k = 0.3333 0.3333-0.3429 ( 31636 PWs)   bands (ev):

   -66.2624 -66.2624 -66.2621 -66.2621 -30.6343 -30.6343 -30.6337 -30.6337
   -30.5973 -30.5973 -30.5766 -30.5766 -30.5299 -30.5299 -30.5100 -30.5100
   -20.4113 -20.4113 -20.4113 -20.4113 -20.4078 -20.4077 -20.4077 -20.4077
   -20.3996 -20.3996 -20.3995 -20.3995 -20.3991 -20.3991 -20.3976 -20.3976
   -20.3967 -20.3967 -20.3966 -20.3966 -20.3773 -20.3772 -20.3767 -20.3767
   -20.3729 -20.3728 -20.3721 -20.3721  -9.5774  -9.5774  -9.2311  -9.2311
    -8.6739  -8.6738  -8.6093  -8.6093  -8.3042  -8.3042  -7.8997  -7.8997
     1.1291   1.1291   2.0478   2.0478   2.9289   2.9289   2.9529   2.9529
     3.1712   3.1712   3.3685   3.3685   3.6817   3.6817   4.4708   4.4708
     4.7346   4.7346   4.8304   4.8304   5.2358   5.2358   5.9419   5.9419
     6.2178   6.2178   6.5313   6.5313   6.9374   6.9374   7.0359   7.0359
     7.3211   7.3212   7.4036   7.4036  11.0687  11.0687  11.5853  11.5853
    11.6818  11.6818  12.6335  12.6335  12.7813  12.7813  13.5179  13.5179
    14.9494  14.9494  16.3298  16.3298  16.9139  16.9139  17.6975

          k = 0.3333-0.5000 0.0000 ( 31620 PWs)   bands (ev):

   -66.2625 -66.2625 -66.2620 -66.2620 -30.6685 -30.6685 -30.6006 -30.6006
   -30.5924 -30.5924 -30.5903 -30.5903 -30.5165 -30.5165 -30.5133 -30.5133
   -20.4113 -20.4113 -20.4112 -20.4112 -20.4109 -20.4109 -20.4044 -20.4044
   -20.4002 -20.4002 -20.3992 -20.3992 -20.3985 -20.3985 -20.3980 -20.3980
   -20.3972 -20.3972 -20.3959 -20.3959 -20.3773 -20.3773 -20.3773 -20.3773
   -20.3721 -20.3721 -20.3721 -20.3721  -9.7593  -9.7593  -9.3392  -9.3392
    -9.0106  -9.0106  -8.0397  -8.0397  -8.0273  -8.0273  -7.9285  -7.9285
     1.1410   1.1410   1.3847   1.3847   1.4305   1.4305   2.3783   2.3783
     4.0358   4.0359   4.2860   4.2860   4.3340   4.3340   4.4476   4.4476
     5.3285   5.3285   5.4927   5.4927   5.5115   5.5115   5.6210   5.6210
     6.3609   6.3609   6.4519   6.4519   6.4998   6.4998   6.6104   6.6104
     6.8967   6.8967   8.0625   8.0625   9.9298   9.9298  12.2597  12.2597
    12.2800  12.2800  12.4266  12.4266  12.9527  12.9527  13.9300  13.9300
    14.1334  14.1334  15.7738  15.7738  16.6629  16.6629  17.4771

          k = 0.3333-0.5000 0.1143 ( 31656 PWs)   bands (ev):

   -66.2625 -66.2625 -66.2620 -66.2620 -30.6639 -30.6639 -30.6045 -30.6045
   -30.5930 -30.5930 -30.5906 -30.5906 -30.5163 -30.5163 -30.5135 -30.5135
   -20.4113 -20.4113 -20.4113 -20.4113 -20.4105 -20.4105 -20.4048 -20.4048
   -20.4001 -20.4001 -20.3993 -20.3993 -20.3985 -20.3985 -20.3981 -20.3981
   -20.3972 -20.3972 -20.3960 -20.3960 -20.3773 -20.3773 -20.3773 -20.3773
   -20.3721 -20.3721 -20.3721 -20.3721  -9.7074  -9.7074  -9.3499  -9.3499
    -8.9797  -8.9797  -8.0749  -8.0749  -8.0377  -8.0377  -7.9951  -7.9951
     1.3074   1.3074   1.3843   1.3843   1.5234   1.5234   2.4535   2.4535
     3.8419   3.8419   4.2887   4.2887   4.3150   4.3150   4.4944   4.4944
     5.0340   5.0340   5.4344   5.4344   5.4982   5.4982   5.7893   5.7893
     6.1837   6.1837   6.4934   6.4935   6.5986   6.5986   6.6489   6.6489
     6.8589   6.8589   7.9806   7.9806  10.1105  10.1105  12.2359  12.2359
    12.2705  12.2705  12.2977  12.2977  12.9875  12.9875  13.8257  13.8257
    14.4145  14.4145  15.7402  15.7402  16.7953  16.7953  17.5502

          k = 0.3333-0.5000 0.2286 ( 31662 PWs)   bands (ev):

   -66.2624 -66.2624 -66.2621 -66.2621 -30.6512 -30.6512 -30.6166 -30.6166
   -30.5929 -30.5929 -30.5913 -30.5913 -30.5157 -30.5157 -30.5141 -30.5141
   -20.4113 -20.4113 -20.4113 -20.4113 -20.4093 -20.4093 -20.4061 -20.4061
   -20.3999 -20.3999 -20.3994 -20.3994 -20.3984 -20.3984 -20.3982 -20.3982
   -20.3969 -20.3969 -20.3963 -20.3963 -20.3773 -20.3773 -20.3773 -20.3773
   -20.3721 -20.3721 -20.3721 -20.3721  -9.5828  -9.5828  -9.3861  -9.3861
    -8.8689  -8.8689  -8.3356  -8.3356  -8.0325  -8.0325  -8.0164  -8.0164
     1.3726   1.3726   1.3832   1.3832   2.1601   2.1601   2.6809   2.6809
     3.4092   3.4092   4.2318   4.2318   4.2923   4.2923   4.3180   4.3180
     4.6702   4.6702   5.2815   5.2815   5.5113   5.5113   5.6426   5.6426
     6.3082   6.3082   6.4731   6.4731   6.6704   6.6704   6.7938   6.7938
     6.9340   6.9340   7.7369   7.7369  10.5870  10.5870  11.8150  11.8150
    12.2676  12.2676  12.2801  12.2801  13.1011  13.1011  13.5754  13.5754
    14.9682  14.9682  15.6273  15.6273  17.1399  17.1399  17.6732

          k = 0.3333-0.5000-0.3429 ( 31668 PWs)   bands (ev):

   -66.2623 -66.2622 -66.2622 -66.2622 -30.6339 -30.6339 -30.6339 -30.6339
   -30.5922 -30.5922 -30.5922 -30.5922 -30.5149 -30.5149 -30.5149 -30.5149
   -20.4113 -20.4113 -20.4113 -20.4113 -20.4077 -20.4077 -20.4077 -20.4077
   -20.3996 -20.3996 -20.3996 -20.3996 -20.3983 -20.3983 -20.3983 -20.3983
   -20.3966 -20.3966 -20.3966 -20.3966 -20.3773 -20.3773 -20.3773 -20.3773
   -20.3721 -20.3721 -20.3721 -20.3721  -9.4610  -9.4610  -9.4609  -9.4609
    -8.6439  -8.6439  -8.6438  -8.6438  -8.0252  -8.0252  -8.0251  -8.0251
     1.3805   1.3805   1.3807   1.3807   2.9395   2.9395   2.9411   2.9411
     3.2291   3.2291   3.2304   3.2304   4.2969   4.2969   4.3104   4.3104
     4.9565   4.9565   4.9695   4.9695   5.5394   5.5394   5.5449   5.5449
     6.4222   6.4222   6.4266   6.4266   6.7365   6.7365   6.7395   6.7395
     7.3532   7.3532   7.3564   7.3564  11.2087  11.2087  11.2104  11.2104
    12.2692  12.2692  12.2779  12.2779  13.3015  13.3015  13.3076  13.3076
    15.3901  15.3901  15.3957  15.3957  17.4419  17.4448  17.4557

          k =-0.5000-0.5000 0.0000 ( 31560 PWs)   bands (ev):

   -66.2625 -66.2625 -66.2620 -66.2620 -30.6682 -30.6682 -30.6005 -30.6005
   -30.5983 -30.5983 -30.5964 -30.5964 -30.5106 -30.5106 -30.5074 -30.5074
   -20.4113 -20.4113 -20.4112 -20.4112 -20.4109 -20.4109 -20.4043 -20.4043
   -20.4002 -20.4002 -20.3988 -20.3988 -20.3986 -20.3986 -20.3984 -20.3984
   -20.3974 -20.3974 -20.3958 -20.3958 -20.3777 -20.3777 -20.3776 -20.3776
   -20.3717 -20.3717 -20.3717 -20.3717  -9.7980  -9.7980  -9.4160  -9.4160
    -9.0435  -9.0435  -7.9377  -7.9377  -7.9275  -7.9275  -7.8997  -7.8997
     1.0731   1.0731   1.1271   1.1271   1.2515   1.2515   2.2885   2.2885
     4.1216   4.1216   4.5165   4.5165   4.5757   4.5757   4.6466   4.6466
     5.3569   5.3569   5.3575   5.3575   5.8042   5.8042   5.8544   5.8544
     6.1543   6.1543   6.2543   6.2543   6.3201   6.3201   6.5052   6.5052
     7.0247   7.0247   8.1122   8.1122   9.6212   9.6212  12.3489  12.3489
    12.4002  12.4002  12.4227  12.4227  13.1799  13.1799  13.8828  13.8828
    14.1005  14.1005  15.3616  15.3616  16.8527  16.8527  17.4683

          k =-0.5000-0.5000 0.1143 ( 31588 PWs)   bands (ev):

   -66.2625 -66.2624 -66.2620 -66.2620 -30.6636 -30.6636 -30.6030 -30.6030
   -30.6002 -30.6002 -30.5967 -30.5967 -30.5104 -30.5104 -30.5076 -30.5076
   -20.4113 -20.4113 -20.4112 -20.4112 -20.4105 -20.4105 -20.4048 -20.4048
   -20.4001 -20.4001 -20.3989 -20.3989 -20.3985 -20.3985 -20.3984 -20.3984
   -20.3973 -20.3973 -20.3959 -20.3959 -20.3777 -20.3777 -20.3776 -20.3776
   -20.3717 -20.3717 -20.3717 -20.3717  -9.7503  -9.7503  -9.4263  -9.4263
    -9.0083  -9.0083  -8.0504  -8.0504  -7.9256  -7.9256  -7.9015  -7.9015
     1.1098   1.1098   1.1271   1.1271   1.4766   1.4766   2.3628   2.3628
     3.8591   3.8591   4.5204   4.5204   4.5714   4.5714   4.7114   4.7114
     5.0567   5.0567   5.5165   5.5165   5.7932   5.7932   5.8569   5.8569
     6.1368   6.1368   6.1807   6.1807   6.3480   6.3480   6.5928   6.5928
     6.9117   6.9117   8.0234   8.0234   9.8467   9.8467  12.1829  12.1829
    12.4033  12.4033  12.4217  12.4217  13.2124  13.2124  14.0007  14.0007
    14.1366  14.1366  15.3305  15.3305  17.0466  17.0466  17.5026

          k =-0.5000-0.5000 0.2286 ( 31696 PWs)   bands (ev):

   -66.2624 -66.2624 -66.2621 -66.2621 -30.6509 -30.6509 -30.6159 -30.6159
   -30.5995 -30.5995 -30.5974 -30.5974 -30.5098 -30.5098 -30.5082 -30.5082
   -20.4113 -20.4113 -20.4113 -20.4113 -20.4093 -20.4093 -20.4060 -20.4060
   -20.3999 -20.3999 -20.3992 -20.3992 -20.3985 -20.3985 -20.3985 -20.3985
   -20.3970 -20.3970 -20.3962 -20.3962 -20.3777 -20.3777 -20.3777 -20.3777
   -20.3717 -20.3717 -20.3717 -20.3717  -9.6378  -9.6378  -9.4604  -9.4604
    -8.8851  -8.8850  -8.3297  -8.3296  -7.9206  -7.9206  -7.9067  -7.9067
     1.1230   1.1230   1.1269   1.1269   2.1792   2.1792   2.5817   2.5817
     3.3815   3.3815   4.2347   4.2347   4.5313   4.5313   4.5619   4.5619
     4.8977   4.8977   5.4700   5.4700   5.8507   5.8507   5.8642   5.8642
     6.0724   6.0724   6.1359   6.1359   6.4284   6.4284   6.7173   6.7173
     6.9069   6.9069   7.7620   7.7620  10.4038  10.4038  11.7270  11.7270
    12.4089  12.4089  12.4187  12.4187  13.3176  13.3176  13.7623  13.7623
    14.6301  14.6301  15.2262  15.2262  17.5994  17.6543  17.6545

          k =-0.5000-0.5000-0.3429 ( 31664 PWs)   bands (ev):

   -66.2623 -66.2622 -66.2622 -66.2622 -30.6334 -30.6334 -30.6334 -30.6334
   -30.5985 -30.5985 -30.5985 -30.5985 -30.5090 -30.5090 -30.5090 -30.5090
   -20.4113 -20.4113 -20.4113 -20.4113 -20.4077 -20.4077 -20.4077 -20.4077
   -20.3995 -20.3995 -20.3995 -20.3995 -20.3985 -20.3985 -20.3985 -20.3985
   -20.3966 -20.3966 -20.3966 -20.3966 -20.3777 -20.3777 -20.3777 -20.3777
   -20.3717 -20.3717 -20.3717 -20.3717  -9.5288  -9.5288  -9.5288  -9.5288
    -8.6464  -8.6464  -8.6464  -8.6464  -7.9137  -7.9137  -7.9137  -7.9137
     1.1260   1.1260   1.1260   1.1260   2.9312   2.9312   2.9312   2.9312
     3.1769   3.1769   3.1769   3.1769   4.5462   4.5462   4.5462   4.5462
     5.1774   5.1774   5.1775   5.1775   5.8712   5.8712   5.8712   5.8712
     6.0994   6.0994   6.0994   6.0994   6.5532   6.5532   6.5532   6.5532
     7.3581   7.3581   7.3581   7.3581  11.0873  11.0873  11.0873  11.0873
    12.4142  12.4143  12.4143  12.4143  13.5072  13.5072  13.5072  13.5072
    15.0114  15.0114  15.0114  15.0114  17.7430  17.7430  17.7430

     the Fermi energy is     9.5399 ev

!    total energy              =   -3130.23642896 Ry
     Harris-Foulkes estimate   =   -3130.23642896 Ry
     estimated scf accuracy    <          1.2E-09 Ry

     The total energy is the sum of the following terms:

     one-electron contribution =   -2397.96574584 Ry
     hartree contribution      =    1316.88353614 Ry
     xc contribution           =    -483.31860232 Ry
     ewald contribution        =   -1565.83553493 Ry
     smearing contrib. (-TS)   =      -0.00008201 Ry

     convergence has been achieved in  12 iterations

     Writing output data file Landau_22.save/
 
     init_run     :      4.82s CPU      5.10s WALL (       1 calls)
     electrons    :    190.05s CPU    192.29s WALL (       1 calls)

     Called by init_run:
     wfcinit      :      3.90s CPU      4.09s WALL (       1 calls)
     potinit      :      0.35s CPU      0.37s WALL (       1 calls)
     hinit0       :      0.48s CPU      0.52s WALL (       1 calls)

     Called by electrons:
     c_bands      :    158.87s CPU    160.84s WALL (      12 calls)
     sum_band     :     27.05s CPU     27.12s WALL (      12 calls)
     v_of_rho     :      0.92s CPU      0.96s WALL (      13 calls)
     mix_rho      :      1.51s CPU      1.63s WALL (      12 calls)

     Called by c_bands:
     init_us_2    :      1.40s CPU      1.51s WALL (      25 calls)
     cegterg      :    112.11s CPU    114.04s WALL (      12 calls)

     Called by sum_band:

     Called by *egterg:
     h_psi        :     95.90s CPU     96.85s WALL (      47 calls)
     g_psi        :      0.46s CPU      0.46s WALL (      34 calls)
     cdiaghg      :      1.06s CPU      1.07s WALL (      46 calls)

     Called by h_psi:
     h_psi:pot    :     95.60s CPU     95.85s WALL (      47 calls)
     h_psi:calbec :      6.80s CPU      6.93s WALL (      47 calls)
     vloc_psi     :     81.15s CPU     81.25s WALL (      47 calls)
     add_vuspsi   :      7.65s CPU      7.67s WALL (      47 calls)

     General routines
     calbec       :      6.80s CPU      6.93s WALL (      47 calls)
     fft          :      0.36s CPU      0.38s WALL (      39 calls)
     ffts         :      0.12s CPU      0.12s WALL (      12 calls)
     fftw         :     81.86s CPU     81.91s WALL (    7998 calls)
 
     Parallel routines
 
     PWSCF        :   3m16.22s CPU   3m19.04s WALL

 
   This run was terminated on:  16:14:30  21Nov2019            

=------------------------------------------------------------------------------=
   JOB DONE.
=------------------------------------------------------------------------------=
