
     Program PWSCF v.6.2 (svn rev. 14038) starts on 20Mar2020 at 16:54:54 

     This program is part of the open-source Quantum ESPRESSO suite
     for quantum simulation of materials; please cite
         "P. Giannozzi et al., J. Phys.:Condens. Matter 21 395502 (2009);
         "P. Giannozzi et al., J. Phys.:Condens. Matter 29 465901 (2017);
          URL http://www.quantum-espresso.org", 
     in publications or presentations arising from this work. More details at
     http://www.quantum-espresso.org/quote

     Parallel version (MPI), running on    40 processors

     MPI processes distributed on     6 nodes
     K-points division:     npool     =      40
     Reading input from scf.in

     Current dimensions of program PWSCF are:
     Max number of different atomic species (ntypx) = 10
     Max number of k-points (npk) =  40000
     Max angular momentum in pseudopotentials (lmaxx) =  3

     Subspace diagonalization in iterative solution of the eigenvalue problem:
     a serial algorithm will be used

 
     G-vector sticks info
     --------------------
     sticks:   dense  smooth     PW     G-vecs:    dense   smooth      PW
     Sum        7753    7753   2077               511379   511379   70935
 


     bravais-lattice index     =            0
     lattice parameter (alat)  =      14.1707  a.u.
     unit-cell volume          =    2879.6545 (a.u.)^3
     number of atoms/cell      =           32
     number of atomic types    =            2
     number of electrons       =       368.20
     number of Kohn-Sham states=          221
     kinetic-energy cutoff     =     120.0000  Ry
     charge density cutoff     =     480.0000  Ry
     convergence threshold     =      1.0E-08
     mixing beta               =       0.7000
     number of iterations used =            8  plain     mixing
     Exchange-correlation      = SLA PW NOGX NOGC ( 1  4  0  0 0 0)

     celldm(1)=  14.170664  celldm(2)=   0.000000  celldm(3)=   0.000000
     celldm(4)=   0.000000  celldm(5)=   0.000000  celldm(6)=   0.000000

     crystal axes: (cart. coord. in units of alat)
               a(1) = (   1.000000   0.000000   0.000000 )  
               a(2) = (   0.000000   1.011106   0.000000 )  
               a(3) = (   0.000000   0.000000   1.000860 )  

     reciprocal axes: (cart. coord. in units 2 pi/alat)
               b(1) = (  1.000000  0.000000  0.000000 )  
               b(2) = (  0.000000  0.989016  0.000000 )  
               b(3) = (  0.000000  0.000000  0.999141 )  


     PseudoPot. # 1 for W  read from file:
     /cluster/scratch/mnoe/QE/pps/W_ONCV_LDA-4.0.upf
     MD5 check sum: ba0307d5d4cd419d6f1d13dc49d7c13a
     Pseudo is Norm-conserving + core correction, Zval = 28.0
     Generated using ONCVPSP code by D. R. Hamann
     Using radial grid of 1380 points,  8 beta functions with: 
                l(1) =   0
                l(2) =   0
                l(3) =   1
                l(4) =   1
                l(5) =   2
                l(6) =   2
                l(7) =   3
                l(8) =   3

     PseudoPot. # 2 for O  read from file:
     /cluster/scratch/mnoe/QE/pps/O_ONCV_LDA-3.0.upf
     MD5 check sum: a1bd6164e7280c17a38c229939bfbd54
     Pseudo is Norm-conserving + core correction, Zval =  6.0
     Generated using ONCVPSP code by D. R. Hamann
     Using radial grid of  926 points,  5 beta functions with: 
                l(1) =   0
                l(2) =   0
                l(3) =   1
                l(4) =   1
                l(5) =   2

     atomic species   valence    mass     pseudopotential
        W             28.00   183.84000     W ( 1.00)
        O              6.00    15.99940     O ( 1.00)

      8 Sym. Ops., with inversion, found ( 6 have fractional translation)



   Cartesian axes

     site n.     atom                  positions (alat units)
         1           W   tau(   1) = (   0.2416844   0.2706957   0.0078594  )
         2           W   tau(   2) = (   0.7583155   0.7404099  -0.0078593  )
         3           W   tau(   3) = (   0.2583156   0.2348571   0.5082893  )
         4           W   tau(   4) = (   0.7416844   0.7762487   0.4925706  )
         5           W   tau(   5) = (   0.7583155   0.2706957   0.4925706  )
         6           W   tau(   6) = (   0.2416844   0.7404099   0.5082893  )
         7           W   tau(   7) = (   0.7416844   0.2348571  -0.0078593  )
         8           W   tau(   8) = (   0.2583156   0.7762487   0.0078594  )
         9           O   tau(   9) = (   0.2346589   0.0045182   0.0024428  )
        10           O   tau(  10) = (   0.7653410  -0.0045182  -0.0024428  )
        11           O   tau(  11) = (   0.2653411   0.5010347   0.5028728  )
        12           O   tau(  12) = (   0.7346588   0.5100710   0.4979871  )
        13           O   tau(  13) = (   0.7653410   0.0045182   0.4979871  )
        14           O   tau(  14) = (   0.2346589  -0.0045182   0.5028728  )
        15           O   tau(  15) = (   0.7346588   0.5010347  -0.0024428  )
        16           O   tau(  16) = (   0.2653411   0.5100710   0.0024428  )
        17           O   tau(  17) = (   0.5022744   0.2368650   0.4845252  )
        18           O   tau(  18) = (   0.4977256   0.7742407   0.5163348  )
        19           O   tau(  19) = (  -0.0022744   0.2686878   0.9849552  )
        20           O   tau(  20) = (   0.0022744   0.7424179   0.0159046  )
        21           O   tau(  21) = (   0.4977256   0.2368650   0.0159046  )
        22           O   tau(  22) = (   0.5022744   0.7742407   0.9849552  )
        23           O   tau(  23) = (   0.0022744   0.2686878   0.5163348  )
        24           O   tau(  24) = (  -0.0022744   0.7424179   0.4845252  )
        25           O   tau(  25) = (   0.7341089   0.2493042   0.7471943  )
        26           O   tau(  26) = (   0.2658910   0.7618015   0.2536655  )
        27           O   tau(  27) = (   0.7658912   0.2562486   0.2467644  )
        28           O   tau(  28) = (   0.2341090   0.7548570   0.7540954  )
        29           O   tau(  29) = (   0.2658910   0.2493042   0.7540954  )
        30           O   tau(  30) = (   0.7341089   0.7618015   0.2467644  )
        31           O   tau(  31) = (   0.2341090   0.2562486   0.2536655  )
        32           O   tau(  32) = (   0.7658912   0.7548570   0.7471943  )

     number of k points=    64  gaussian smearing, width (Ry)=  0.0007
                       cart. coord. in units 2pi/alat
        k(    1) = (   0.0000000   0.0000000   0.0000000), wk =   0.0092593
        k(    2) = (   0.0000000   0.0000000   0.1665235), wk =   0.0185185
        k(    3) = (   0.0000000   0.0000000   0.3330470), wk =   0.0185185
        k(    4) = (   0.0000000   0.0000000  -0.4995704), wk =   0.0092593
        k(    5) = (   0.0000000   0.1648361   0.0000000), wk =   0.0185185
        k(    6) = (   0.0000000   0.1648361   0.1665235), wk =   0.0370370
        k(    7) = (   0.0000000   0.1648361   0.3330470), wk =   0.0370370
        k(    8) = (   0.0000000   0.1648361  -0.4995704), wk =   0.0185185
        k(    9) = (   0.0000000   0.3296721   0.0000000), wk =   0.0185185
        k(   10) = (   0.0000000   0.3296721   0.1665235), wk =   0.0370370
        k(   11) = (   0.0000000   0.3296721   0.3330470), wk =   0.0370370
        k(   12) = (   0.0000000   0.3296721  -0.4995704), wk =   0.0185185
        k(   13) = (   0.0000000  -0.4945082   0.0000000), wk =   0.0092593
        k(   14) = (   0.0000000  -0.4945082   0.1665235), wk =   0.0185185
        k(   15) = (   0.0000000  -0.4945082   0.3330470), wk =   0.0185185
        k(   16) = (   0.0000000  -0.4945082  -0.4995704), wk =   0.0092593
        k(   17) = (   0.1666667   0.0000000   0.0000000), wk =   0.0185185
        k(   18) = (   0.1666667   0.0000000   0.1665235), wk =   0.0370370
        k(   19) = (   0.1666667   0.0000000   0.3330470), wk =   0.0370370
        k(   20) = (   0.1666667   0.0000000  -0.4995704), wk =   0.0185185
        k(   21) = (   0.1666667   0.1648361   0.0000000), wk =   0.0370370
        k(   22) = (   0.1666667   0.1648361   0.1665235), wk =   0.0740741
        k(   23) = (   0.1666667   0.1648361   0.3330470), wk =   0.0740741
        k(   24) = (   0.1666667   0.1648361  -0.4995704), wk =   0.0370370
        k(   25) = (   0.1666667   0.3296721   0.0000000), wk =   0.0370370
        k(   26) = (   0.1666667   0.3296721   0.1665235), wk =   0.0740741
        k(   27) = (   0.1666667   0.3296721   0.3330470), wk =   0.0740741
        k(   28) = (   0.1666667   0.3296721  -0.4995704), wk =   0.0370370
        k(   29) = (   0.1666667  -0.4945082   0.0000000), wk =   0.0185185
        k(   30) = (   0.1666667  -0.4945082   0.1665235), wk =   0.0370370
        k(   31) = (   0.1666667  -0.4945082   0.3330470), wk =   0.0370370
        k(   32) = (   0.1666667  -0.4945082  -0.4995704), wk =   0.0185185
        k(   33) = (   0.3333333   0.0000000   0.0000000), wk =   0.0185185
        k(   34) = (   0.3333333   0.0000000   0.1665235), wk =   0.0370370
        k(   35) = (   0.3333333   0.0000000   0.3330470), wk =   0.0370370
        k(   36) = (   0.3333333   0.0000000  -0.4995704), wk =   0.0185185
        k(   37) = (   0.3333333   0.1648361   0.0000000), wk =   0.0370370
        k(   38) = (   0.3333333   0.1648361   0.1665235), wk =   0.0740741
        k(   39) = (   0.3333333   0.1648361   0.3330470), wk =   0.0740741
        k(   40) = (   0.3333333   0.1648361  -0.4995704), wk =   0.0370370
        k(   41) = (   0.3333333   0.3296721   0.0000000), wk =   0.0370370
        k(   42) = (   0.3333333   0.3296721   0.1665235), wk =   0.0740741
        k(   43) = (   0.3333333   0.3296721   0.3330470), wk =   0.0740741
        k(   44) = (   0.3333333   0.3296721  -0.4995704), wk =   0.0370370
        k(   45) = (   0.3333333  -0.4945082   0.0000000), wk =   0.0185185
        k(   46) = (   0.3333333  -0.4945082   0.1665235), wk =   0.0370370
        k(   47) = (   0.3333333  -0.4945082   0.3330470), wk =   0.0370370
        k(   48) = (   0.3333333  -0.4945082  -0.4995704), wk =   0.0185185
        k(   49) = (  -0.5000000   0.0000000   0.0000000), wk =   0.0092593
        k(   50) = (  -0.5000000   0.0000000   0.1665235), wk =   0.0185185
        k(   51) = (  -0.5000000   0.0000000   0.3330470), wk =   0.0185185
        k(   52) = (  -0.5000000   0.0000000  -0.4995704), wk =   0.0092593
        k(   53) = (  -0.5000000   0.1648361   0.0000000), wk =   0.0185185
        k(   54) = (  -0.5000000   0.1648361   0.1665235), wk =   0.0370370
        k(   55) = (  -0.5000000   0.1648361   0.3330470), wk =   0.0370370
        k(   56) = (  -0.5000000   0.1648361  -0.4995704), wk =   0.0185185
        k(   57) = (  -0.5000000   0.3296721   0.0000000), wk =   0.0185185
        k(   58) = (  -0.5000000   0.3296721   0.1665235), wk =   0.0370370
        k(   59) = (  -0.5000000   0.3296721   0.3330470), wk =   0.0370370
        k(   60) = (  -0.5000000   0.3296721  -0.4995704), wk =   0.0185185
        k(   61) = (  -0.5000000  -0.4945082   0.0000000), wk =   0.0092593
        k(   62) = (  -0.5000000  -0.4945082   0.1665235), wk =   0.0185185
        k(   63) = (  -0.5000000  -0.4945082   0.3330470), wk =   0.0185185
        k(   64) = (  -0.5000000  -0.4945082  -0.4995704), wk =   0.0092593

     Dense  grid:   511379 G-vectors     FFT dimensions: ( 100, 100, 100)

     Estimated max dynamical RAM per process >       3.20 GB

     Estimated total dynamical RAM >     128.08 GB

     Initial potential from superposition of free atoms

     starting charge  367.99656, renormalised to  368.20000
     Starting wfc are  232 randomized atomic wfcs

     total cpu time spent up to now is       36.5 secs

     Self-consistent Calculation

     iteration #  1     ecut=   120.00 Ry     beta= 0.70
     Davidson diagonalization with overlap
     ethr =  1.00E-02,  avg # of iterations =  5.1

     total cpu time spent up to now is      166.1 secs

     total energy              =   -6253.70883780 Ry
     Harris-Foulkes estimate   =   -6264.54373716 Ry
     estimated scf accuracy    <      13.69098262 Ry

     iteration #  2     ecut=   120.00 Ry     beta= 0.70
     Davidson diagonalization with overlap
     ethr =  3.72E-03,  avg # of iterations =  3.7

     total cpu time spent up to now is      288.2 secs

     total energy              =   -6250.53234905 Ry
     Harris-Foulkes estimate   =   -6270.85824428 Ry
     estimated scf accuracy    <      54.57346655 Ry

     iteration #  3     ecut=   120.00 Ry     beta= 0.70
     Davidson diagonalization with overlap
     ethr =  3.72E-03,  avg # of iterations =  3.6

     total cpu time spent up to now is      404.2 secs

     total energy              =   -6260.95398608 Ry
     Harris-Foulkes estimate   =   -6261.23514891 Ry
     estimated scf accuracy    <       0.95113972 Ry

     iteration #  4     ecut=   120.00 Ry     beta= 0.70
     Davidson diagonalization with overlap
     ethr =  2.58E-04,  avg # of iterations =  3.6

     total cpu time spent up to now is      502.4 secs

     total energy              =   -6260.91204732 Ry
     Harris-Foulkes estimate   =   -6261.01302708 Ry
     estimated scf accuracy    <       0.23428892 Ry

     iteration #  5     ecut=   120.00 Ry     beta= 0.70
     Davidson diagonalization with overlap
     ethr =  6.36E-05,  avg # of iterations =  4.9

     total cpu time spent up to now is      609.2 secs

     total energy              =   -6260.95418014 Ry
     Harris-Foulkes estimate   =   -6260.96706709 Ry
     estimated scf accuracy    <       0.03681040 Ry

     iteration #  6     ecut=   120.00 Ry     beta= 0.70
     Davidson diagonalization with overlap
     ethr =  1.00E-05,  avg # of iterations =  5.7

     total cpu time spent up to now is      722.6 secs

     total energy              =   -6260.95816231 Ry
     Harris-Foulkes estimate   =   -6260.96168394 Ry
     estimated scf accuracy    <       0.00942374 Ry

     iteration #  7     ecut=   120.00 Ry     beta= 0.70
     Davidson diagonalization with overlap
     ethr =  2.56E-06,  avg # of iterations =  5.5

     total cpu time spent up to now is      830.5 secs

     total energy              =   -6260.95943612 Ry
     Harris-Foulkes estimate   =   -6260.95951132 Ry
     estimated scf accuracy    <       0.00012347 Ry

     iteration #  8     ecut=   120.00 Ry     beta= 0.70
     Davidson diagonalization with overlap
     ethr =  3.35E-08,  avg # of iterations =  3.4

     total cpu time spent up to now is      957.2 secs

     total energy              =   -6260.95950236 Ry
     Harris-Foulkes estimate   =   -6260.95951721 Ry
     estimated scf accuracy    <       0.00007591 Ry

     iteration #  9     ecut=   120.00 Ry     beta= 0.70
     Davidson diagonalization with overlap
     ethr =  2.06E-08,  avg # of iterations =  1.9

     total cpu time spent up to now is     1050.7 secs

     total energy              =   -6260.95949944 Ry
     Harris-Foulkes estimate   =   -6260.95950789 Ry
     estimated scf accuracy    <       0.00004017 Ry

     iteration # 10     ecut=   120.00 Ry     beta= 0.70
     Davidson diagonalization with overlap
     ethr =  1.09E-08,  avg # of iterations =  1.0

     total cpu time spent up to now is     1141.8 secs

     total energy              =   -6260.95949588 Ry
     Harris-Foulkes estimate   =   -6260.95950172 Ry
     estimated scf accuracy    <       0.00001406 Ry

     iteration # 11     ecut=   120.00 Ry     beta= 0.70
     Davidson diagonalization with overlap
     ethr =  3.82E-09,  avg # of iterations =  3.0

     total cpu time spent up to now is     1242.8 secs

     total energy              =   -6260.95949869 Ry
     Harris-Foulkes estimate   =   -6260.95949879 Ry
     estimated scf accuracy    <       0.00000019 Ry

     iteration # 12     ecut=   120.00 Ry     beta= 0.70
     Davidson diagonalization with overlap
     ethr =  5.14E-11,  avg # of iterations =  2.0

     total cpu time spent up to now is     1364.1 secs

     total energy              =   -6260.95949871 Ry
     Harris-Foulkes estimate   =   -6260.95949874 Ry
     estimated scf accuracy    <       0.00000004 Ry

     iteration # 13     ecut=   120.00 Ry     beta= 0.70
     Davidson diagonalization with overlap
     ethr =  1.11E-11,  avg # of iterations =  2.7

     total cpu time spent up to now is     1483.6 secs

     End of self-consistent calculation

          k = 0.0000 0.0000 0.0000 ( 63897 PWs)   bands (ev):

   -66.6102 -66.6097 -66.6096 -66.6095 -66.6090 -66.6090 -66.6089 -66.6083
   -30.9692 -30.9646 -30.9631 -30.9585 -30.9508 -30.9508 -30.9464 -30.9446
   -30.9444 -30.9437 -30.9417 -30.9395 -30.8874 -30.8869 -30.8854 -30.8840
   -30.8652 -30.8626 -30.8626 -30.8619 -30.8600 -30.8598 -30.8547 -30.8537
   -20.7793 -20.7792 -20.7792 -20.7791 -20.7791 -20.7790 -20.7790 -20.7789
   -20.7555 -20.7552 -20.7546 -20.7544 -20.7541 -20.7539 -20.7536 -20.7532
   -20.7532 -20.7529 -20.7521 -20.7520 -20.7518 -20.7514 -20.7509 -20.7506
   -20.7503 -20.7500 -20.7499 -20.7497 -20.7493 -20.7493 -20.7491 -20.7488
   -20.7467 -20.7464 -20.7457 -20.7457 -20.7456 -20.7455 -20.7455 -20.7451
   -20.7445 -20.7444 -20.7440 -20.7440 -20.7425 -20.7425 -20.7411 -20.7411
   -20.7388 -20.7384 -20.7382 -20.7381 -20.7378 -20.7375 -20.7368 -20.7367
   -10.3165 -10.0029  -9.9763  -9.9722  -9.6761  -9.6701  -9.6235  -9.4338
    -9.4082  -9.3982  -9.3770  -9.3764  -8.1582  -8.1063  -8.1049  -8.1021
    -8.0945  -8.0678  -8.0586  -8.0545  -8.0498  -8.0461  -8.0184  -8.0085
     0.6780   0.6895   0.7229   0.7320   0.7484   0.8005   0.8246   0.9120
     1.0184   1.0394   1.0579   1.2764   2.1589   2.1748   2.1960   2.2702
     2.2828   2.3079   4.0390   4.0704   4.1186   4.1652   4.2343   4.2350
     4.2788   4.2874   4.2903   4.3310   4.3556   4.3658   4.7979   4.9101
     4.9186   5.2113   5.2388   5.2398   5.2469   5.2564   5.2608   5.2964
     5.3056   5.3861   5.6644   5.6706   5.7121   5.7140   5.7240   5.8486
     5.8538   5.9515   5.9626   6.1311   6.1397   6.3656   6.6113   6.6389
     6.6669   6.6783   6.6994   6.7211   6.7429   6.7442   6.7894   6.7941
     6.7957   6.8037   7.7877   7.7944   7.8532   7.8576   7.8612   7.8674
     8.7142   8.7638   8.9412   8.9495   9.0154   9.0178  12.0662  12.1258
    12.1811  12.1908  12.2099  12.2109  12.2110  12.2172  12.2969  12.4183
    12.4636  12.4979  13.2466  13.3888  13.4016  13.4896  13.6580  13.6797
    13.9768  14.0238  14.1971  14.2695  14.3068  14.4112  15.3658  15.4250
    15.4761  16.6603  16.6801  16.7438  16.7771

          k = 0.0000 0.0000 0.1665 ( 63881 PWs)   bands (ev):

   -66.6102 -66.6096 -66.6096 -66.6095 -66.6091 -66.6089 -66.6089 -66.6084
   -30.9689 -30.9649 -30.9628 -30.9588 -30.9497 -30.9487 -30.9447 -30.9440
   -30.9427 -30.9391 -30.9371 -30.9338 -30.8870 -30.8866 -30.8861 -30.8846
   -30.8681 -30.8660 -30.8659 -30.8649 -30.8642 -30.8598 -30.8587 -30.8550
   -20.7793 -20.7792 -20.7792 -20.7791 -20.7791 -20.7790 -20.7790 -20.7789
   -20.7555 -20.7552 -20.7546 -20.7543 -20.7542 -20.7538 -20.7536 -20.7532
   -20.7531 -20.7529 -20.7522 -20.7521 -20.7517 -20.7513 -20.7510 -20.7505
   -20.7503 -20.7500 -20.7499 -20.7496 -20.7493 -20.7492 -20.7491 -20.7488
   -20.7467 -20.7463 -20.7458 -20.7456 -20.7455 -20.7452 -20.7452 -20.7451
   -20.7441 -20.7440 -20.7440 -20.7440 -20.7424 -20.7424 -20.7412 -20.7412
   -20.7393 -20.7389 -20.7383 -20.7381 -20.7380 -20.7380 -20.7369 -20.7368
   -10.2756  -9.9873  -9.9518  -9.9180  -9.6775  -9.6306  -9.5859  -9.4088
    -9.3783  -9.3707  -9.3674  -9.3395  -8.2333  -8.2090  -8.1850  -8.1690
    -8.1306  -8.1053  -8.1028  -8.0810  -8.0648  -8.0580  -8.0490  -8.0218
     0.7298   0.7316   0.7704   0.8253   0.8367   0.8650   0.9110   1.0568
     1.0763   1.2059   1.2088   1.4055   2.1824   2.2410   2.2756   2.2782
     2.3510   2.3884   3.8830   3.9519   4.0056   4.0470   4.0608   4.1468
     4.1616   4.2309   4.2837   4.3105   4.3149   4.3844   4.7477   4.7843
     4.8939   4.9661   5.0398   5.1570   5.2058   5.2807   5.2843   5.3170
     5.3508   5.3897   5.5726   5.6525   5.6826   5.7200   5.7329   5.8824
     5.9424   6.0416   6.1943   6.2328   6.2960   6.4628   6.4660   6.4732
     6.5194   6.5398   6.5625   6.6021   6.6373   6.6492   6.7001   6.7026
     6.7333   6.7510   7.7841   7.7902   7.7974   7.8003   7.8085   7.8139
     8.9460   8.9895   9.1053   9.1215   9.2810   9.3376  12.0237  12.0248
    12.0879  12.1143  12.2081  12.2163  12.2303  12.2546  12.2664  12.3074
    12.3357  12.4760  13.2406  13.3465  13.4005  13.4953  13.5103  13.5397
    14.1042  14.1950  14.2143  14.4289  14.4437  14.5695  15.3366  15.4496
    15.8512  16.4368  16.7486  16.8645  16.9363

          k = 0.0000 0.0000 0.3330 ( 63924 PWs)   bands (ev):

   -66.6101 -66.6097 -66.6095 -66.6094 -66.6092 -66.6091 -66.6088 -66.6085
   -30.9680 -30.9657 -30.9620 -30.9596 -30.9482 -30.9472 -30.9456 -30.9448
   -30.9282 -30.9241 -30.9226 -30.9187 -30.8908 -30.8879 -30.8860 -30.8858
   -30.8811 -30.8798 -30.8780 -30.8775 -30.8641 -30.8617 -30.8590 -30.8566
   -20.7792 -20.7792 -20.7791 -20.7791 -20.7791 -20.7790 -20.7790 -20.7790
   -20.7554 -20.7553 -20.7545 -20.7542 -20.7542 -20.7538 -20.7536 -20.7531
   -20.7530 -20.7529 -20.7524 -20.7524 -20.7515 -20.7511 -20.7510 -20.7505
   -20.7503 -20.7500 -20.7498 -20.7495 -20.7494 -20.7492 -20.7492 -20.7489
   -20.7465 -20.7461 -20.7460 -20.7457 -20.7454 -20.7452 -20.7441 -20.7440
   -20.7440 -20.7440 -20.7429 -20.7429 -20.7422 -20.7421 -20.7415 -20.7414
   -20.7406 -20.7403 -20.7396 -20.7393 -20.7379 -20.7378 -20.7372 -20.7371
   -10.1806 -10.0222  -9.8413  -9.7995  -9.7017  -9.6541  -9.3987  -9.3837
    -9.3283  -9.2159  -9.2102  -9.1961  -8.5523  -8.5353  -8.5191  -8.5131
    -8.1367  -8.1141  -8.0935  -8.0776  -8.0676  -8.0568  -8.0559  -8.0310
     0.7310   0.7316   0.8202   0.8270   0.8936   0.9084   1.0092   1.0532
     1.8202   1.9029   1.9219   2.0276   2.2015   2.2571   2.4798   2.5156
     2.5889   2.6169   3.3745   3.4550   3.4876   3.5643   3.7712   3.9954
     4.0933   4.1585   4.1786   4.2470   4.2680   4.3353   4.5075   4.5448
     4.5503   4.6332   4.7268   4.8321   5.0111   5.0712   5.3515   5.3933
     5.4588   5.5225   5.6273   5.6863   5.7251   5.7676   5.7693   5.8706
     5.9149   5.9794   6.0476   6.0933   6.1103   6.1643   6.2852   6.3741
     6.4554   6.5618   6.6812   6.6942   6.7260   6.7466   6.7566   6.7793
     6.8229   6.8721   7.5816   7.6109   7.6153   7.6261   7.8018   7.8044
     8.9590   8.9917   9.8663   9.8809  10.0216  10.0590  11.4916  11.4969
    11.6395  11.6648  12.2057  12.2144  12.2305  12.3168  12.3951  12.4389
    12.4485  12.5484  13.0698  13.0730  13.1544  13.1896  13.3979  13.4165
    14.1603  14.1890  14.6836  14.7958  14.8428  15.2397  15.3097  15.3612
    15.8507  16.9189  16.9617  17.0072  17.4590

          k = 0.0000 0.0000-0.4996 ( 63974 PWs)   bands (ev):

   -66.6099 -66.6099 -66.6093 -66.6093 -66.6092 -66.6092 -66.6087 -66.6086
   -30.9669 -30.9669 -30.9608 -30.9608 -30.9468 -30.9468 -30.9460 -30.9460
   -30.9080 -30.9080 -30.9040 -30.9039 -30.9020 -30.9019 -30.8981 -30.8980
   -30.8843 -30.8843 -30.8842 -30.8841 -30.8630 -30.8630 -30.8579 -30.8578
   -20.7792 -20.7792 -20.7791 -20.7791 -20.7791 -20.7791 -20.7790 -20.7790
   -20.7554 -20.7553 -20.7544 -20.7543 -20.7540 -20.7539 -20.7534 -20.7534
   -20.7527 -20.7527 -20.7527 -20.7526 -20.7513 -20.7512 -20.7508 -20.7507
   -20.7501 -20.7501 -20.7496 -20.7496 -20.7493 -20.7493 -20.7491 -20.7490
   -20.7463 -20.7463 -20.7459 -20.7459 -20.7453 -20.7453 -20.7441 -20.7440
   -20.7424 -20.7424 -20.7423 -20.7423 -20.7418 -20.7418 -20.7417 -20.7417
   -20.7413 -20.7413 -20.7412 -20.7411 -20.7375 -20.7375 -20.7375 -20.7374
   -10.0865 -10.0865  -9.7513  -9.7513  -9.7043  -9.7043  -9.3910  -9.3910
    -8.9460  -8.9460  -8.9192  -8.9192  -8.9166  -8.9166  -8.9028  -8.9028
    -8.1258  -8.1258  -8.0806  -8.0806  -8.0675  -8.0674  -8.0435  -8.0435
     0.7310   0.7310   0.8277   0.8277   0.9044   0.9045   1.0438   1.0438
     2.2269   2.2269   2.7641   2.7641   2.7758   2.7758   2.8268   2.8268
     2.8662   2.8662   2.8896   2.8896   3.0979   3.0979   3.2502   3.2502
     3.2783   3.2783   4.1602   4.1602   4.2445   4.2445   4.6114   4.6114
     4.7041   4.7041   4.7732   4.7732   4.8413   4.8413   5.5049   5.5049
     5.5617   5.5617   5.6037   5.6037   5.6790   5.6790   5.8479   5.8479
     5.8647   5.8648   5.8681   5.8681   6.1370   6.1370   6.1757   6.1757
     6.4828   6.4828   6.6892   6.6892   6.7400   6.7401   7.2319   7.2319
     7.2588   7.2588   7.2852   7.2852   7.2969   7.2969   7.8043   7.8043
     8.9759   8.9760  10.7230  10.7231  10.7295  10.7295  10.8694  10.8694
    10.8941  10.8941  12.2043  12.2043  12.3040  12.3041  12.6959  12.6959
    12.7309  12.7309  12.7673  12.7673  12.7933  12.7933  13.3975  13.3976
    14.1785  14.1785  15.0410  15.0410  15.1777  15.1777  15.2747  15.2748
    16.2464  16.2465  17.3734  17.5456  17.5457

          k = 0.0000 0.1648 0.0000 ( 63890 PWs)   bands (ev):

   -66.6102 -66.6097 -66.6096 -66.6095 -66.6091 -66.6090 -66.6089 -66.6084
   -30.9649 -30.9603 -30.9583 -30.9536 -30.9507 -30.9503 -30.9466 -30.9444
   -30.9440 -30.9433 -30.9413 -30.9395 -30.8925 -30.8918 -30.8903 -30.8888
   -30.8649 -30.8625 -30.8625 -30.8618 -30.8606 -30.8600 -30.8548 -30.8542
   -20.7793 -20.7792 -20.7792 -20.7791 -20.7791 -20.7790 -20.7790 -20.7789
   -20.7554 -20.7550 -20.7545 -20.7544 -20.7540 -20.7539 -20.7536 -20.7529
   -20.7529 -20.7528 -20.7518 -20.7517 -20.7517 -20.7513 -20.7508 -20.7506
   -20.7502 -20.7501 -20.7499 -20.7496 -20.7494 -20.7492 -20.7492 -20.7488
   -20.7471 -20.7468 -20.7461 -20.7461 -20.7457 -20.7456 -20.7454 -20.7451
   -20.7445 -20.7444 -20.7442 -20.7442 -20.7425 -20.7425 -20.7411 -20.7411
   -20.7388 -20.7384 -20.7382 -20.7381 -20.7378 -20.7375 -20.7368 -20.7367
   -10.2801 -10.0137  -9.9306  -9.9273  -9.6829  -9.6774  -9.5376  -9.4320
    -9.4099  -9.3471  -9.3346  -9.3344  -8.2687  -8.2226  -8.2175  -8.1788
    -8.1107  -8.1026  -8.0706  -8.0632  -8.0566  -8.0474  -8.0213  -8.0138
     0.6787   0.6887   0.7724   0.7890   0.8013   0.8252   0.8756   1.0185
     1.1661   1.2587   1.2726   1.4348   2.1665   2.2434   2.2729   2.2763
     2.3603   2.3877   3.8315   3.8438   3.8703   3.8874   4.2247   4.2360
     4.2708   4.2798   4.2985   4.3613   4.3686   4.3972   4.6240   4.8688
     4.8864   4.9273   4.9822   5.2520   5.2571   5.2622   5.2668   5.2943
     5.3952   5.4610   5.4777   5.7155   5.7221   5.7923   5.8473   5.8474
     5.8685   5.9918   6.0407   6.1133   6.1391   6.3980   6.4870   6.5155
     6.5262   6.6027   6.6289   6.6329   6.6392   6.6697   6.7860   6.7915
     6.7969   6.8038   7.7363   7.7394   7.7907   7.7945   7.8587   7.8671
     8.7222   8.7659   9.2263   9.2456   9.2904   9.3106  11.9086  11.9702
    11.9885  12.0241  12.1924  12.2127  12.2130  12.2170  12.3458  12.4628
    12.4770  12.5202  13.2229  13.3825  13.3891  13.5265  13.5405  13.5538
    14.2351  14.2358  14.2687  14.3051  14.3547  14.5603  15.3990  15.4462
    15.7938  16.3503  16.7429  16.9189  16.9543

          k = 0.0000 0.1648 0.1665 ( 63914 PWs)   bands (ev):

   -66.6102 -66.6097 -66.6096 -66.6095 -66.6091 -66.6090 -66.6089 -66.6084
   -30.9646 -30.9606 -30.9579 -30.9539 -30.9489 -30.9489 -30.9443 -30.9436
   -30.9426 -30.9389 -30.9370 -30.9339 -30.8922 -30.8915 -30.8908 -30.8892
   -30.8682 -30.8660 -30.8659 -30.8647 -30.8643 -30.8603 -30.8586 -30.8556
   -20.7793 -20.7792 -20.7792 -20.7791 -20.7791 -20.7790 -20.7790 -20.7789
   -20.7553 -20.7550 -20.7545 -20.7543 -20.7540 -20.7538 -20.7537 -20.7530
   -20.7528 -20.7528 -20.7519 -20.7518 -20.7516 -20.7512 -20.7509 -20.7505
   -20.7503 -20.7500 -20.7499 -20.7496 -20.7493 -20.7493 -20.7492 -20.7489
   -20.7470 -20.7467 -20.7461 -20.7461 -20.7455 -20.7452 -20.7452 -20.7451
   -20.7443 -20.7442 -20.7441 -20.7440 -20.7424 -20.7424 -20.7412 -20.7412
   -20.7392 -20.7389 -20.7383 -20.7381 -20.7380 -20.7380 -20.7369 -20.7369
   -10.2375  -9.9627  -9.9415  -9.8670  -9.6849  -9.5927  -9.5447  -9.3971
    -9.3691  -9.3365  -9.3313  -9.3031  -8.2735  -8.2373  -8.2307  -8.2198
    -8.1958  -8.1826  -8.1795  -8.1368  -8.1047  -8.0678  -8.0602  -8.0247
     0.7664   0.7710   0.7892   0.8259   0.9835   1.0031   1.0772   1.1669
     1.2090   1.2714   1.3252   1.5122   2.2487   2.2597   2.3382   2.3595
     2.3599   2.4687   3.8236   3.8601   3.8608   3.8996   3.9696   4.0002
     4.0918   4.1363   4.2792   4.3010   4.3345   4.3658   4.6103   4.6995
     4.8623   4.8871   4.9802   4.9849   4.9993   5.2246   5.2579   5.3017
     5.3397   5.5037   5.5537   5.6688   5.7218   5.7791   5.7816   5.8826
     5.9498   6.0296   6.1313   6.2351   6.2933   6.3329   6.4191   6.4746
     6.5356   6.5356   6.5890   6.5968   6.6144   6.6224   6.6381   6.6508
     6.6804   6.6934   7.7359   7.7363   7.7401   7.7429   7.7996   7.8116
     9.0804   9.1235   9.2553   9.3105   9.4942   9.5511  11.9553  11.9656
    12.0136  12.0275  12.0449  12.0536  12.2411  12.2606  12.2686  12.3257
    12.3584  12.4822  13.2311  13.3164  13.3881  13.3886  13.4326  13.4976
    14.3019  14.3448  14.4279  14.5111  14.5212  14.6744  15.4198  15.7644
    15.8247  16.4991  16.5766  16.8257  17.0831

          k = 0.0000 0.1648 0.3330 ( 63939 PWs)   bands (ev):

   -66.6100 -66.6097 -66.6095 -66.6094 -66.6092 -66.6090 -66.6089 -66.6085
   -30.9637 -30.9614 -30.9570 -30.9547 -30.9476 -30.9472 -30.9452 -30.9445
   -30.9281 -30.9239 -30.9227 -30.9189 -30.8939 -30.8916 -30.8909 -30.8905
   -30.8815 -30.8813 -30.8790 -30.8777 -30.8639 -30.8614 -30.8595 -30.8572
   -20.7792 -20.7792 -20.7791 -20.7791 -20.7791 -20.7790 -20.7790 -20.7790
   -20.7553 -20.7551 -20.7544 -20.7542 -20.7541 -20.7538 -20.7536 -20.7532
   -20.7527 -20.7526 -20.7521 -20.7520 -20.7514 -20.7510 -20.7510 -20.7504
   -20.7503 -20.7500 -20.7498 -20.7495 -20.7494 -20.7492 -20.7492 -20.7490
   -20.7469 -20.7466 -20.7463 -20.7462 -20.7454 -20.7452 -20.7442 -20.7442
   -20.7441 -20.7440 -20.7429 -20.7429 -20.7422 -20.7421 -20.7415 -20.7414
   -20.7406 -20.7403 -20.7395 -20.7394 -20.7379 -20.7378 -20.7372 -20.7371
   -10.1387  -9.9765  -9.8516  -9.7316  -9.7096  -9.5688  -9.3621  -9.3422
    -9.3355  -9.2183  -9.1992  -9.1768  -8.5496  -8.5428  -8.5230  -8.5162
    -8.2502  -8.2292  -8.2028  -8.1818  -8.0961  -8.0699  -8.0589  -8.0339
     0.7897   0.7904   0.8206   0.8275   1.1454   1.1618   1.2168   1.2679
     1.8207   1.9091   1.9218   2.0413   2.2795   2.3332   2.4881   2.5834
     2.5992   2.6977   3.3803   3.4816   3.5069   3.6298   3.7272   3.8884
     3.8892   3.9311   4.1317   4.2234   4.2591   4.3306   4.3341   4.4255
     4.5362   4.5469   4.6130   4.7534   4.8047   5.0327   5.0893   5.3306
     5.3484   5.4559   5.5506   5.6858   5.7229   5.7398   5.7721   5.8463
     5.9131   6.0087   6.0946   6.1060   6.1852   6.3078   6.3665   6.4791
     6.5139   6.5390   6.5773   6.5813   6.6072   6.6569   6.7693   6.7886
     6.8615   6.8825   7.5604   7.5769   7.6027   7.6112   7.7435   7.7522
     9.2579   9.2911   9.8715   9.8834  10.1482  10.1910  11.4927  11.4973
    11.6856  11.7193  12.0222  12.0428  12.1498  12.2507  12.3506  12.3996
    12.4403  12.5297  12.9814  13.0217  13.0720  13.1309  13.3845  13.4049
    14.3178  14.3423  14.8346  14.9460  15.0448  15.3340  15.3857  15.6645
    15.9845  16.8855  16.9012  17.0445  17.0874

          k = 0.0000 0.1648-0.4996 ( 63942 PWs)   bands (ev):

   -66.6099 -66.6099 -66.6094 -66.6094 -66.6092 -66.6092 -66.6087 -66.6087
   -30.9626 -30.9625 -30.9559 -30.9558 -30.9464 -30.9463 -30.9458 -30.9458
   -30.9082 -30.9082 -30.9042 -30.9042 -30.9022 -30.9021 -30.8983 -30.8983
   -30.8891 -30.8890 -30.8884 -30.8884 -30.8628 -30.8627 -30.8584 -30.8584
   -20.7792 -20.7792 -20.7791 -20.7791 -20.7791 -20.7790 -20.7790 -20.7790
   -20.7552 -20.7552 -20.7542 -20.7542 -20.7540 -20.7540 -20.7534 -20.7534
   -20.7524 -20.7524 -20.7523 -20.7523 -20.7512 -20.7512 -20.7507 -20.7507
   -20.7502 -20.7502 -20.7496 -20.7496 -20.7493 -20.7493 -20.7491 -20.7491
   -20.7467 -20.7466 -20.7464 -20.7463 -20.7453 -20.7452 -20.7442 -20.7442
   -20.7424 -20.7424 -20.7423 -20.7423 -20.7418 -20.7418 -20.7417 -20.7417
   -20.7413 -20.7413 -20.7412 -20.7411 -20.7375 -20.7375 -20.7375 -20.7374
   -10.0417 -10.0417  -9.7603  -9.7603  -9.6229  -9.6229  -9.3505  -9.3505
    -8.9538  -8.9538  -8.9210  -8.9209  -8.9147  -8.9147  -8.8966  -8.8966
    -8.2407  -8.2407  -8.1932  -8.1932  -8.0831  -8.0831  -8.0465  -8.0465
     0.7914   0.7915   0.8282   0.8282   1.1617   1.1617   1.2584   1.2584
     2.3039   2.3039   2.7748   2.7748   2.7996   2.7996   2.8242   2.8242
     2.8625   2.8625   2.9262   2.9262   3.0913   3.0913   3.2955   3.2955
     3.3281   3.3281   3.9061   3.9061   4.2025   4.2025   4.4307   4.4307
     4.5420   4.5420   4.6820   4.6821   4.8489   4.8489   5.1687   5.1687
     5.4074   5.4074   5.5200   5.5200   5.7705   5.7705   5.8435   5.8435
     5.9340   5.9340   5.9664   5.9664   6.1688   6.1688   6.3787   6.3787
     6.5631   6.5631   6.5728   6.5728   6.6027   6.6027   7.2381   7.2381
     7.2527   7.2527   7.2761   7.2761   7.2858   7.2858   7.7476   7.7476
     9.2758   9.2759  10.7253  10.7253  10.7308  10.7308  10.9469  10.9469
    10.9768  10.9769  12.0209  12.0209  12.3320  12.3320  12.5737  12.5737
    12.6160  12.6160  12.7323  12.7323  12.7668  12.7668  13.3857  13.3857
    14.3324  14.3324  15.1574  15.1574  15.3983  15.3984  15.4651  15.4651
    16.3412  16.3412  17.2859  17.2860  17.4025

          k = 0.0000 0.3297 0.0000 ( 63928 PWs)   bands (ev):

   -66.6101 -66.6098 -66.6095 -66.6094 -66.6092 -66.6091 -66.6088 -66.6085
   -30.9559 -30.9514 -30.9508 -30.9490 -30.9470 -30.9466 -30.9451 -30.9437
   -30.9400 -30.9383 -30.9374 -30.9374 -30.9064 -30.9053 -30.9038 -30.9021
   -30.8642 -30.8622 -30.8621 -30.8618 -30.8617 -30.8607 -30.8551 -30.8549
   -20.7793 -20.7792 -20.7792 -20.7791 -20.7791 -20.7790 -20.7790 -20.7789
   -20.7550 -20.7546 -20.7545 -20.7543 -20.7540 -20.7538 -20.7536 -20.7531
   -20.7520 -20.7519 -20.7515 -20.7512 -20.7508 -20.7508 -20.7507 -20.7507
   -20.7502 -20.7501 -20.7500 -20.7496 -20.7495 -20.7493 -20.7491 -20.7490
   -20.7481 -20.7479 -20.7473 -20.7472 -20.7457 -20.7457 -20.7452 -20.7450
   -20.7446 -20.7445 -20.7445 -20.7444 -20.7425 -20.7425 -20.7411 -20.7411
   -20.7387 -20.7385 -20.7382 -20.7381 -20.7377 -20.7376 -20.7368 -20.7368
   -10.1950 -10.0476  -9.8318  -9.8304  -9.7052  -9.7009  -9.4274  -9.4146
    -9.2930  -9.1839  -9.1828  -9.1823  -8.5671  -8.5343  -8.5297  -8.5106
    -8.1052  -8.0969  -8.0774  -8.0710  -8.0500  -8.0407  -8.0291  -8.0217
     0.6806   0.6863   0.7998   0.8031   0.8212   0.8265   0.9852   1.0178
     1.8606   1.9570   1.9763   2.0856   2.1863   2.2393   2.4870   2.5227
     2.5856   2.6282   3.3193   3.3595   3.3819   3.4333   3.8049   4.0802
     4.1126   4.2317   4.2411   4.2653   4.2739   4.3451   4.5039   4.5428
     4.5847   4.6166   4.8169   4.8199   5.1070   5.1109   5.3286   5.3344
     5.5441   5.6585   5.6710   5.7352   5.7439   5.7501   5.7513   5.8305
     5.8377   5.9429   5.9993   6.0732   6.0994   6.1540   6.3699   6.4127
     6.4604   6.6089   6.7419   6.7524   6.7915   6.7931   6.7998   6.8050
     6.8237   6.8254   7.5460   7.5515   7.5780   7.5865   7.8603   7.8654
     8.7348   8.7600   9.8916   9.9404   9.9486   9.9911  11.4090  11.4644
    11.4733  11.5106  12.2019  12.2133  12.2159  12.2194  12.4986  12.5998
    12.6090  12.6519  13.0510  13.1706  13.2012  13.2483  13.4225  13.4675
    14.2684  14.2766  14.7147  14.7355  14.7867  15.2415  15.3078  15.3476
    15.7749  16.8564  16.8874  17.4922  17.5271

          k = 0.0000 0.3297 0.1665 ( 63915 PWs)   bands (ev):

   -66.6100 -66.6098 -66.6095 -66.6094 -66.6092 -66.6091 -66.6088 -66.6085
   -30.9556 -30.9517 -30.9497 -30.9461 -30.9454 -30.9451 -30.9424 -30.9400
   -30.9383 -30.9379 -30.9351 -30.9333 -30.9060 -30.9050 -30.9041 -30.9025
   -30.8680 -30.8666 -30.8655 -30.8645 -30.8639 -30.8615 -30.8583 -30.8567
   -20.7792 -20.7792 -20.7791 -20.7791 -20.7791 -20.7790 -20.7790 -20.7789
   -20.7550 -20.7546 -20.7545 -20.7542 -20.7539 -20.7539 -20.7537 -20.7531
   -20.7519 -20.7518 -20.7515 -20.7511 -20.7509 -20.7508 -20.7507 -20.7506
   -20.7501 -20.7501 -20.7500 -20.7496 -20.7494 -20.7493 -20.7492 -20.7490
   -20.7481 -20.7479 -20.7474 -20.7472 -20.7454 -20.7453 -20.7451 -20.7450
   -20.7446 -20.7445 -20.7441 -20.7440 -20.7424 -20.7424 -20.7412 -20.7412
   -20.7392 -20.7390 -20.7382 -20.7381 -20.7381 -20.7380 -20.7369 -20.7369
   -10.1485  -9.9969  -9.8419  -9.7554  -9.7090  -9.6157  -9.3881  -9.3740
    -9.3002  -9.1867  -9.1751  -9.1658  -8.5669  -8.5407  -8.5273  -8.5172
    -8.2237  -8.2030  -8.1760  -8.1565  -8.0978  -8.0760  -8.0536  -8.0325
     0.7726   0.7754   0.8217   0.8272   1.0688   1.0790   1.1661   1.2082
     1.8621   1.9572   1.9757   2.0930   2.2681   2.3196   2.4930   2.5802
     2.6091   2.7120   3.3598   3.3692   3.4268   3.4391   3.7949   3.9515
     3.9854   4.0816   4.1196   4.1929   4.3082   4.3206   4.3310   4.3589
     4.5355   4.6051   4.6445   4.8008   4.8599   5.0252   5.1219   5.2940
     5.3499   5.4544   5.5722   5.6929   5.7120   5.7385   5.7568   5.8291
     5.9208   6.0759   6.1020   6.1177   6.2154   6.3513   6.3661   6.5270
     6.5468   6.5741   6.5870   6.6135   6.6302   6.6528   6.7608   6.7819
     6.8317   6.8547   7.5452   7.5457   7.5496   7.5499   7.8020   7.8087
     9.0963   9.1186   9.9461   9.9879  10.0610  10.1164  11.4745  11.4844
    11.5079  11.5415  12.0299  12.0350  12.2517  12.2670  12.4155  12.4531
    12.5129  12.5992  13.0418  13.0702  13.0802  13.1677  13.3848  13.4263
    14.4078  14.4252  14.7689  14.8954  15.0894  15.3215  15.3304  15.7302
    15.9185  16.8199  16.9612  16.9914  17.0473

          k = 0.0000 0.3297 0.3330 ( 63948 PWs)   bands (ev):

   -66.6099 -66.6096 -66.6096 -66.6093 -66.6093 -66.6090 -66.6089 -66.6086
   -30.9548 -30.9525 -30.9486 -30.9462 -30.9437 -30.9426 -30.9404 -30.9387
   -30.9280 -30.9238 -30.9227 -30.9192 -30.9058 -30.9047 -30.9036 -30.9034
   -30.8829 -30.8819 -30.8796 -30.8783 -30.8631 -30.8607 -30.8607 -30.8584
   -20.7792 -20.7792 -20.7791 -20.7791 -20.7791 -20.7790 -20.7790 -20.7790
   -20.7549 -20.7547 -20.7543 -20.7541 -20.7540 -20.7538 -20.7537 -20.7533
   -20.7518 -20.7517 -20.7512 -20.7511 -20.7511 -20.7509 -20.7508 -20.7504
   -20.7503 -20.7501 -20.7498 -20.7495 -20.7495 -20.7493 -20.7492 -20.7491
   -20.7479 -20.7478 -20.7474 -20.7474 -20.7452 -20.7450 -20.7446 -20.7445
   -20.7441 -20.7440 -20.7429 -20.7429 -20.7422 -20.7421 -20.7415 -20.7415
   -20.7405 -20.7404 -20.7395 -20.7394 -20.7378 -20.7378 -20.7372 -20.7371
   -10.0416  -9.8848  -9.8755  -9.7356  -9.5668  -9.3611  -9.3268  -9.2787
    -9.2258  -9.1954  -9.1250  -9.0923  -8.6279  -8.6078  -8.5416  -8.5399
    -8.5192  -8.5078  -8.4685  -8.4286  -8.0892  -8.0672  -8.0632  -8.0419
     0.8180   0.8218   0.8231   0.8287   1.6986   1.7451   1.8213   1.8665
     1.9191   1.9731   2.0557   2.2175   2.5017   2.5065   2.5297   2.5988
     2.8522   2.9379   3.3143   3.4039   3.4535   3.4756   3.4887   3.5328
     3.7080   3.7709   3.8198   3.9494   4.0252   4.1400   4.1981   4.2628
     4.3643   4.4202   4.4876   4.5459   4.5459   4.6940   4.7591   4.9020
     4.9859   5.1562   5.1911   5.5782   5.7903   5.8231   5.8310   5.9262
     6.0284   6.0368   6.1370   6.1978   6.2381   6.3445   6.3537   6.3564
     6.5092   6.6947   6.7254   6.7272   6.7280   6.8056   6.8176   6.8539
     6.8985   6.9744   7.4265   7.4344   7.5051   7.5572   7.6156   7.6487
     9.8270   9.8802   9.9711  10.0014  10.5361  10.5865  11.4511  11.4763
    11.4942  11.5534  11.7272  11.7836  11.8978  11.9381  12.3940  12.4372
    12.5164  12.6076  12.6463  12.6778  13.0184  13.1254  13.1618  13.2369
    14.5953  14.7468  14.8054  15.2448  15.3954  15.7976  15.8336  16.3342
    16.3684  16.7135  16.7682  17.2236  17.2709

          k = 0.0000 0.3297-0.4996 ( 63962 PWs)   bands (ev):

   -66.6098 -66.6097 -66.6095 -66.6095 -66.6091 -66.6091 -66.6088 -66.6088
   -30.9537 -30.9536 -30.9474 -30.9473 -30.9425 -30.9425 -30.9399 -30.9399
   -30.9112 -30.9112 -30.9082 -30.9082 -30.9027 -30.9026 -30.8992 -30.8992
   -30.8988 -30.8988 -30.8973 -30.8973 -30.8620 -30.8620 -30.8596 -30.8596
   -20.7792 -20.7791 -20.7791 -20.7791 -20.7791 -20.7790 -20.7790 -20.7790
   -20.7548 -20.7548 -20.7542 -20.7541 -20.7540 -20.7539 -20.7535 -20.7535
   -20.7515 -20.7515 -20.7514 -20.7514 -20.7510 -20.7510 -20.7506 -20.7506
   -20.7502 -20.7502 -20.7496 -20.7496 -20.7493 -20.7493 -20.7493 -20.7493
   -20.7478 -20.7478 -20.7475 -20.7475 -20.7451 -20.7451 -20.7446 -20.7445
   -20.7424 -20.7424 -20.7423 -20.7423 -20.7418 -20.7418 -20.7417 -20.7417
   -20.7413 -20.7412 -20.7412 -20.7412 -20.7375 -20.7375 -20.7375 -20.7374
    -9.9403  -9.9403  -9.7897  -9.7897  -9.3982  -9.3982  -9.2141  -9.2140
    -8.9877  -8.9877  -8.9378  -8.9378  -8.8973  -8.8973  -8.8717  -8.8717
    -8.5327  -8.5327  -8.4980  -8.4979  -8.0763  -8.0763  -8.0546  -8.0546
     0.8238   0.8238   0.8293   0.8293   1.8570   1.8570   1.9547   1.9548
     2.5246   2.5246   2.8065   2.8065   2.8128   2.8128   2.8319   2.8319
     2.8504   2.8505   3.0168   3.0168   3.0680   3.0680   3.3876   3.3877
     3.4812   3.4812   3.5343   3.5343   3.7149   3.7149   3.9292   3.9292
     4.4297   4.4297   4.5377   4.5377   4.6046   4.6046   4.6618   4.6618
     4.9155   4.9155   5.3505   5.3505   5.8726   5.8726   5.8894   5.8895
     6.0532   6.0533   6.0765   6.0765   6.1572   6.1573   6.3361   6.3361
     6.6834   6.6834   6.7553   6.7553   6.8331   6.8332   7.1840   7.1840
     7.2162   7.2162   7.2242   7.2242   7.2993   7.2993   7.5713   7.5713
     9.9585   9.9585  10.7269  10.7269  10.7331  10.7331  11.1962  11.1962
    11.2397  11.2397  11.5193  11.5194  12.1227  12.1228  12.1831  12.1831
    12.5319  12.5320  12.7229  12.7230  12.7833  12.7833  13.1724  13.1725
    14.6961  14.6961  15.0895  15.0895  15.8396  15.8396  16.4275  16.4276
    16.7029  16.7030  16.8140  16.8140  17.4806

          k = 0.0000-0.4945 0.0000 ( 63914 PWs)   bands (ev):

   -66.6100 -66.6099 -66.6093 -66.6093 -66.6093 -66.6092 -66.6086 -66.6086
   -30.9518 -30.9517 -30.9475 -30.9475 -30.9470 -30.9469 -30.9432 -30.9432
   -30.9244 -30.9243 -30.9237 -30.9237 -30.9219 -30.9219 -30.9207 -30.9207
   -30.8631 -30.8631 -30.8618 -30.8617 -30.8615 -30.8615 -30.8552 -30.8552
   -20.7792 -20.7792 -20.7791 -20.7791 -20.7791 -20.7790 -20.7790 -20.7789
   -20.7548 -20.7547 -20.7542 -20.7542 -20.7541 -20.7541 -20.7533 -20.7533
   -20.7514 -20.7513 -20.7512 -20.7511 -20.7504 -20.7504 -20.7503 -20.7503
   -20.7499 -20.7499 -20.7496 -20.7496 -20.7493 -20.7493 -20.7491 -20.7491
   -20.7488 -20.7488 -20.7487 -20.7487 -20.7457 -20.7457 -20.7450 -20.7450
   -20.7448 -20.7447 -20.7445 -20.7444 -20.7425 -20.7425 -20.7411 -20.7411
   -20.7386 -20.7386 -20.7382 -20.7381 -20.7377 -20.7376 -20.7368 -20.7368
   -10.1087 -10.1086  -9.7507  -9.7507  -9.7484  -9.7484  -9.4210  -9.4210
    -8.9361  -8.9360  -8.8977  -8.8976  -8.8949  -8.8949  -8.8942  -8.8941
    -8.0967  -8.0967  -8.0789  -8.0789  -8.0397  -8.0396  -8.0313  -8.0313
     0.6833   0.6834   0.8042   0.8042   0.8269   0.8269   1.0119   1.0119
     2.2124   2.2124   2.7457   2.7458   2.8358   2.8358   2.8596   2.8597
     2.8618   2.8618   2.8924   2.8925   3.1115   3.1115   3.1303   3.1304
     3.2348   3.2348   4.2476   4.2476   4.2533   4.2533   4.6789   4.6790
     4.7017   4.7017   4.8443   4.8444   4.8693   4.8693   5.4816   5.4816
     5.4922   5.4922   5.7279   5.7279   5.7362   5.7363   5.7837   5.7837
     5.8501   5.8501   5.8906   5.8906   6.1912   6.1912   6.2234   6.2235
     6.5320   6.5321   6.7895   6.7896   6.7952   6.7952   7.2027   7.2028
     7.2157   7.2158   7.2240   7.2241   7.2330   7.2330   7.8628   7.8629
     8.7484   8.7484  10.6798  10.6799  10.7244  10.7245  10.7457  10.7458
    10.7933  10.7933  12.2096  12.2096  12.2186  12.2186  12.7530  12.7531
    12.8519  12.8519  12.8716  12.8717  12.9107  12.9107  13.4303  13.4304
    14.2704  14.2704  15.1088  15.1088  15.1469  15.1469  15.2036  15.2037
    16.1734  16.1734  17.3434  17.3435  17.6251

          k = 0.0000-0.4945 0.1665 ( 63990 PWs)   bands (ev):

   -66.6099 -66.6099 -66.6094 -66.6093 -66.6092 -66.6092 -66.6087 -66.6086
   -30.9513 -30.9513 -30.9473 -30.9472 -30.9425 -30.9425 -30.9382 -30.9382
   -30.9237 -30.9236 -30.9231 -30.9231 -30.9221 -30.9221 -30.9210 -30.9209
   -30.8673 -30.8673 -30.8650 -30.8650 -30.8628 -30.8628 -30.8577 -30.8577
   -20.7792 -20.7792 -20.7791 -20.7791 -20.7791 -20.7790 -20.7790 -20.7789
   -20.7547 -20.7547 -20.7542 -20.7542 -20.7541 -20.7540 -20.7534 -20.7533
   -20.7513 -20.7513 -20.7511 -20.7511 -20.7505 -20.7504 -20.7502 -20.7502
   -20.7500 -20.7500 -20.7495 -20.7495 -20.7494 -20.7494 -20.7491 -20.7491
   -20.7488 -20.7488 -20.7487 -20.7487 -20.7453 -20.7453 -20.7450 -20.7449
   -20.7448 -20.7447 -20.7441 -20.7440 -20.7424 -20.7424 -20.7412 -20.7412
   -20.7391 -20.7391 -20.7382 -20.7381 -20.7381 -20.7380 -20.7369 -20.7369
   -10.0591 -10.0591  -9.7577  -9.7576  -9.6645  -9.6645  -9.3807  -9.3807
    -8.9419  -8.9418  -8.9022  -8.9021  -8.8931  -8.8930  -8.8882  -8.8881
    -8.2139  -8.2138  -8.1668  -8.1668  -8.0871  -8.0871  -8.0432  -8.0431
     0.7747   0.7748   0.8275   0.8275   1.0793   1.0793   1.2012   1.2012
     2.2937   2.2937   2.7560   2.7561   2.8165   2.8166   2.8623   2.8624
     2.8905   2.8905   2.9343   2.9344   3.1061   3.1061   3.1824   3.1824
     3.2714   3.2714   3.9680   3.9680   4.2806   4.2806   4.4681   4.4682
     4.5977   4.5978   4.6857   4.6857   4.8740   4.8741   5.1559   5.1559
     5.4116   5.4116   5.4523   5.4523   5.7888   5.7888   5.8101   5.8101
     5.9602   5.9603   6.0977   6.0977   6.1878   6.1878   6.4529   6.4529
     6.5632   6.5632   6.6175   6.6175   6.6459   6.6459   7.1935   7.1936
     7.2073   7.2074   7.2251   7.2252   7.2280   7.2281   7.8054   7.8054
     9.1084   9.1084  10.7425  10.7426  10.7688  10.7689  10.8010  10.8010
    10.8463  10.8463  12.0329  12.0330  12.2617  12.2617  12.6890  12.6891
    12.7216  12.7216  12.7757  12.7757  12.8503  12.8503  13.3935  13.3935
    14.4203  14.4203  15.1222  15.1222  15.3578  15.3579  15.5158  15.5158
    16.2737  16.2737  17.3344  17.3345  17.3763

          k = 0.0000-0.4945 0.3330 ( 63988 PWs)   bands (ev):

   -66.6098 -66.6098 -66.6095 -66.6094 -66.6091 -66.6091 -66.6088 -66.6088
   -30.9504 -30.9503 -30.9481 -30.9481 -30.9309 -30.9309 -30.9279 -30.9278
   -30.9235 -30.9234 -30.9223 -30.9222 -30.9189 -30.9189 -30.9173 -30.9172
   -30.8826 -30.8826 -30.8791 -30.8790 -30.8620 -30.8620 -30.8596 -30.8596
   -20.7792 -20.7792 -20.7791 -20.7791 -20.7791 -20.7790 -20.7790 -20.7790
   -20.7546 -20.7546 -20.7543 -20.7543 -20.7539 -20.7539 -20.7535 -20.7535
   -20.7511 -20.7511 -20.7509 -20.7509 -20.7506 -20.7506 -20.7503 -20.7502
   -20.7500 -20.7500 -20.7496 -20.7495 -20.7493 -20.7493 -20.7491 -20.7491
   -20.7488 -20.7488 -20.7487 -20.7487 -20.7450 -20.7449 -20.7448 -20.7448
   -20.7440 -20.7440 -20.7429 -20.7429 -20.7422 -20.7421 -20.7415 -20.7415
   -20.7405 -20.7404 -20.7395 -20.7394 -20.7378 -20.7378 -20.7372 -20.7371
    -9.9473  -9.9473  -9.7875  -9.7875  -9.4251  -9.4250  -9.2403  -9.2403
    -8.9736  -8.9735  -8.9202  -8.9201  -8.8813  -8.8812  -8.8651  -8.8650
    -8.5272  -8.5271  -8.4915  -8.4914  -8.0783  -8.0783  -8.0527  -8.0526
     0.8224   0.8224   0.8290   0.8290   1.8145   1.8145   1.9019   1.9020
     2.5286   2.5286   2.7671   2.7671   2.8154   2.8155   2.8682   2.8683
     2.8840   2.8841   3.0386   3.0386   3.0871   3.0872   3.3434   3.3434
     3.3956   3.3956   3.4545   3.4545   3.8888   3.8888   4.0480   4.0481
     4.3960   4.3961   4.4850   4.4850   4.6118   4.6118   4.6716   4.6717
     4.9302   4.9303   5.3177   5.3178   5.8326   5.8326   5.9000   5.9000
     6.0779   6.0779   6.1251   6.1251   6.2058   6.2058   6.3397   6.3397
     6.6734   6.6734   6.7932   6.7933   6.8685   6.8686   7.1557   7.1558
     7.1620   7.1621   7.1945   7.1945   7.2541   7.2542   7.6248   7.6248
     9.8703   9.8703  10.7559  10.7559  10.7689  10.7689  11.1190  11.1190
    11.1684  11.1685  11.5056  11.5057  12.2174  12.2175  12.2575  12.2575
    12.4260  12.4261  12.7843  12.7844  12.8488  12.8489  13.1451  13.1452
    14.7390  14.7390  15.0662  15.0662  15.8231  15.8232  16.4706  16.4707
    16.6596  16.6596  16.8400  16.8400  17.4593

          k = 0.0000-0.4945-0.4996 ( 63936 PWs)   bands (ev):

   -66.6097 -66.6096 -66.6096 -66.6096 -66.6090 -66.6089 -66.6089 -66.6089
   -30.9492 -30.9492 -30.9492 -30.9492 -30.9255 -30.9255 -30.9255 -30.9255
   -30.9236 -30.9236 -30.9236 -30.9236 -30.9029 -30.9028 -30.9028 -30.9028
   -30.8993 -30.8993 -30.8992 -30.8992 -30.8609 -30.8609 -30.8609 -30.8609
   -20.7792 -20.7791 -20.7791 -20.7791 -20.7791 -20.7790 -20.7790 -20.7790
   -20.7545 -20.7544 -20.7544 -20.7544 -20.7537 -20.7537 -20.7537 -20.7537
   -20.7509 -20.7509 -20.7508 -20.7508 -20.7506 -20.7506 -20.7506 -20.7506
   -20.7498 -20.7498 -20.7498 -20.7497 -20.7492 -20.7492 -20.7492 -20.7491
   -20.7488 -20.7488 -20.7488 -20.7488 -20.7449 -20.7449 -20.7449 -20.7449
   -20.7424 -20.7423 -20.7423 -20.7423 -20.7418 -20.7417 -20.7417 -20.7417
   -20.7413 -20.7412 -20.7412 -20.7412 -20.7375 -20.7375 -20.7375 -20.7375
    -9.8473  -9.8472  -9.8472  -9.8472  -9.1215  -9.1215  -9.1214  -9.1214
    -9.0117  -9.0117  -9.0116  -9.0116  -8.8161  -8.8161  -8.8161  -8.8161
    -8.7790  -8.7790  -8.7790  -8.7790  -8.0656  -8.0656  -8.0656  -8.0655
     0.8295   0.8295   0.8295   0.8296   2.6696   2.6697   2.6697   2.6697
     2.7459   2.7460   2.7460   2.7460   2.8388   2.8388   2.8388   2.8388
     2.9332   2.9332   2.9333   2.9333   3.0714   3.0714   3.0714   3.0714
     3.1951   3.1951   3.1951   3.1952   3.8280   3.8280   3.8280   3.8280
     3.9082   3.9082   3.9082   3.9083   4.6249   4.6249   4.6249   4.6249
     5.0924   5.0924   5.0925   5.0925   5.9013   5.9013   5.9013   5.9013
     6.0933   6.0933   6.0933   6.0933   6.1707   6.1707   6.1707   6.1707
     7.0206   7.0206   7.0206   7.0206   7.0397   7.0397   7.0397   7.0397
     7.1091   7.1091   7.1091   7.1091   7.3650   7.3650   7.3650   7.3650
    10.6665  10.6665  10.6665  10.6665  10.8252  10.8252  10.8252  10.8252
    11.6341  11.6341  11.6341  11.6341  11.6817  11.6818  11.6818  11.6818
    12.6743  12.6743  12.6743  12.6744  12.8959  12.8959  12.8959  12.8960
    14.9511  14.9511  14.9511  14.9511  16.3371  16.3371  16.3372  16.3372
    17.3745  17.3745  17.3745  17.3745  17.4572

          k = 0.1667 0.0000 0.0000 ( 63893 PWs)   bands (ev):

   -66.6102 -66.6096 -66.6096 -66.6095 -66.6090 -66.6090 -66.6089 -66.6084
   -30.9685 -30.9639 -30.9635 -30.9588 -30.9495 -30.9473 -30.9450 -30.9419
   -30.9404 -30.9398 -30.9392 -30.9375 -30.8879 -30.8870 -30.8850 -30.8848
   -30.8709 -30.8679 -30.8651 -30.8648 -30.8623 -30.8595 -30.8563 -30.8554
   -20.7793 -20.7792 -20.7792 -20.7791 -20.7791 -20.7790 -20.7790 -20.7789
   -20.7555 -20.7551 -20.7547 -20.7543 -20.7542 -20.7539 -20.7535 -20.7532
   -20.7532 -20.7529 -20.7521 -20.7520 -20.7518 -20.7514 -20.7509 -20.7505
   -20.7503 -20.7501 -20.7499 -20.7493 -20.7492 -20.7490 -20.7488 -20.7484
   -20.7468 -20.7463 -20.7458 -20.7456 -20.7455 -20.7455 -20.7454 -20.7453
   -20.7446 -20.7445 -20.7442 -20.7441 -20.7423 -20.7423 -20.7409 -20.7409
   -20.7387 -20.7386 -20.7385 -20.7383 -20.7378 -20.7375 -20.7372 -20.7371
   -10.2755  -9.9835  -9.9530  -9.9225  -9.6835  -9.6310  -9.5804  -9.4125
    -9.3792  -9.3671  -9.3667  -9.3386  -8.2469  -8.2033  -8.1974  -8.1680
    -8.1318  -8.0996  -8.0980  -8.0886  -8.0556  -8.0535  -8.0493  -8.0119
     0.7228   0.7236   0.7552   0.8014   0.8399   0.8616   0.9112   1.0385
     1.0966   1.2208   1.2279   1.4135   2.2010   2.2418   2.2570   2.3001
     2.3521   2.3650   3.8975   3.9187   3.9955   4.0349   4.0539   4.1366
     4.1901   4.2003   4.2973   4.3299   4.3470   4.3677   4.7597   4.7681
     4.8894   4.9739   5.0292   5.2032   5.2034   5.2381   5.2983   5.3161
     5.3399   5.4171   5.5736   5.6965   5.6986   5.7016   5.7230   5.8873
     5.9530   6.0817   6.1470   6.1855   6.2559   6.4357   6.4970   6.5109
     6.5284   6.5357   6.6106   6.6219   6.6379   6.6532   6.6758   6.6847
     6.7214   6.7256   7.7312   7.7425   7.8006   7.8087   7.8616   7.8619
     8.9535   8.9912   9.0828   9.1260   9.2893   9.3340  11.9942  12.0148
    12.0216  12.1437  12.1686  12.1901  12.2496  12.2699  12.2835  12.3230
    12.4209  12.5033  13.2955  13.3078  13.3917  13.4201  13.6548  13.6778
    13.9754  13.9970  14.2938  14.4319  14.4549  14.5666  15.3322  15.4013
    15.8860  16.4167  16.7484  16.8614  16.9699

          k = 0.1667 0.0000 0.1665 ( 63870 PWs)   bands (ev):

   -66.6101 -66.6096 -66.6096 -66.6095 -66.6090 -66.6090 -66.6090 -66.6084
   -30.9682 -30.9642 -30.9632 -30.9591 -30.9453 -30.9450 -30.9407 -30.9396
   -30.9392 -30.9389 -30.9358 -30.9340 -30.8876 -30.8867 -30.8858 -30.8853
   -30.8708 -30.8689 -30.8685 -30.8667 -30.8652 -30.8647 -30.8605 -30.8589
   -20.7793 -20.7792 -20.7792 -20.7791 -20.7791 -20.7790 -20.7790 -20.7789
   -20.7554 -20.7551 -20.7547 -20.7543 -20.7542 -20.7538 -20.7536 -20.7531
   -20.7531 -20.7530 -20.7522 -20.7521 -20.7517 -20.7513 -20.7509 -20.7505
   -20.7504 -20.7500 -20.7499 -20.7492 -20.7492 -20.7490 -20.7488 -20.7484
   -20.7468 -20.7462 -20.7459 -20.7456 -20.7456 -20.7454 -20.7451 -20.7451
   -20.7443 -20.7442 -20.7441 -20.7440 -20.7422 -20.7422 -20.7410 -20.7410
   -20.7392 -20.7388 -20.7386 -20.7385 -20.7382 -20.7380 -20.7373 -20.7372
   -10.2325  -9.9336  -9.9293  -9.8956  -9.6382  -9.5933  -9.5879  -9.3712
    -9.3581  -9.3416  -9.3408  -9.3320  -8.2492  -8.2336  -8.2133  -8.2023
    -8.2000  -8.1864  -8.1707  -8.1360  -8.1240  -8.0916  -8.0841  -8.0523
     0.8191   0.8358   0.8385   0.9101   0.9495   0.9654   1.0774   1.0978
     1.2061   1.2264   1.3084   1.4977   2.2645   2.2823   2.3233   2.3558
     2.3856   2.4340   3.8650   3.9320   3.9612   3.9847   4.0270   4.0326
     4.0778   4.0812   4.1756   4.2173   4.2182   4.2539   4.6981   4.7500
     4.7545   4.9170   4.9556   5.0341   5.0461   5.1858   5.2302   5.3189
     5.3226   5.4633   5.4728   5.6741   5.7090   5.7185   5.7831   5.9938
     6.0151   6.1776   6.2252   6.2539   6.2710   6.3353   6.3436   6.4292
     6.4770   6.5102   6.5189   6.5347   6.5641   6.5868   6.6159   6.6538
     6.7125   6.7278   7.7315   7.7398   7.7536   7.7603   7.8007   7.8088
     9.2401   9.2950   9.3082   9.3174   9.3771   9.4286  12.0284  12.0546
    12.0735  12.0806  12.0849  12.1225  12.1611  12.2214  12.2416  12.2686
    12.3502  12.3603  13.2457  13.2496  13.3886  13.3926  13.5088  13.5371
    14.1189  14.2118  14.3049  14.6521  14.6552  14.6632  15.3068  15.8235
    15.8588  16.5680  16.5837  16.8285  17.0220

          k = 0.1667 0.0000 0.3330 ( 63926 PWs)   bands (ev):

   -66.6100 -66.6097 -66.6094 -66.6094 -66.6091 -66.6091 -66.6089 -66.6085
   -30.9673 -30.9650 -30.9623 -30.9600 -30.9433 -30.9420 -30.9402 -30.9392
   -30.9279 -30.9244 -30.9222 -30.9190 -30.8906 -30.8882 -30.8867 -30.8857
   -30.8809 -30.8805 -30.8782 -30.8780 -30.8697 -30.8670 -30.8640 -30.8614
   -20.7792 -20.7791 -20.7791 -20.7791 -20.7791 -20.7790 -20.7790 -20.7790
   -20.7554 -20.7552 -20.7546 -20.7543 -20.7541 -20.7537 -20.7537 -20.7532
   -20.7530 -20.7529 -20.7524 -20.7524 -20.7515 -20.7511 -20.7510 -20.7505
   -20.7503 -20.7500 -20.7497 -20.7494 -20.7492 -20.7490 -20.7487 -20.7485
   -20.7466 -20.7461 -20.7460 -20.7457 -20.7455 -20.7454 -20.7442 -20.7442
   -20.7440 -20.7439 -20.7430 -20.7429 -20.7420 -20.7419 -20.7413 -20.7413
   -20.7405 -20.7402 -20.7397 -20.7394 -20.7382 -20.7382 -20.7376 -20.7375
   -10.1326  -9.9688  -9.8104  -9.7684  -9.6623  -9.6127  -9.3610  -9.3461
    -9.3361  -9.2035  -9.1978  -9.1970  -8.5493  -8.5347  -8.5259  -8.5206
    -8.2307  -8.2052  -8.1901  -8.1661  -8.1209  -8.0999  -8.0810  -8.0602
     0.8329   0.8364   0.8923   0.9074   1.0876   1.1001   1.1738   1.2251
     1.8217   1.9036   1.9241   2.0361   2.2830   2.3363   2.5173   2.5707
     2.6141   2.6763   3.4162   3.4725   3.5543   3.5583   3.7525   3.9734
     3.9949   4.0335   4.0401   4.1641   4.1848   4.2997   4.3173   4.3775
     4.5062   4.5728   4.6720   4.7001   4.8124   5.0298   5.0788   5.2991
     5.3460   5.5283   5.5982   5.6063   5.6125   5.6701   5.7255   5.7525
     6.0203   6.0765   6.1209   6.1584   6.1969   6.2724   6.3281   6.5063
     6.5118   6.5161   6.5477   6.5601   6.6028   6.6874   6.7780   6.7902
     6.8538   6.9008   7.5702   7.5779   7.6057   7.6219   7.7495   7.7561
     9.2817   9.3144   9.9973  10.0200  10.0394  10.0841  11.5562  11.5594
    11.6444  11.6694  12.0961  12.1305  12.2544  12.2574  12.2689  12.2891
    12.4338  12.4720  12.9527  12.9744  13.1445  13.1696  13.3753  13.3904
    14.2389  14.3002  14.6745  14.9570  15.1674  15.2134  15.4177  15.7677
    15.9880  16.8889  16.9601  17.0564  17.0910

          k = 0.1667 0.0000-0.4996 ( 63930 PWs)   bands (ev):

   -66.6099 -66.6098 -66.6093 -66.6093 -66.6093 -66.6093 -66.6087 -66.6087
   -30.9662 -30.9661 -30.9612 -30.9611 -30.9420 -30.9420 -30.9402 -30.9402
   -30.9077 -30.9077 -30.9042 -30.9042 -30.9017 -30.9016 -30.8984 -30.8984
   -30.8853 -30.8853 -30.8839 -30.8838 -30.8686 -30.8685 -30.8629 -30.8629
   -20.7792 -20.7792 -20.7791 -20.7791 -20.7791 -20.7791 -20.7790 -20.7790
   -20.7553 -20.7553 -20.7544 -20.7544 -20.7539 -20.7539 -20.7534 -20.7534
   -20.7527 -20.7527 -20.7527 -20.7526 -20.7513 -20.7512 -20.7508 -20.7508
   -20.7501 -20.7501 -20.7495 -20.7495 -20.7491 -20.7491 -20.7487 -20.7486
   -20.7464 -20.7463 -20.7459 -20.7458 -20.7455 -20.7455 -20.7442 -20.7442
   -20.7423 -20.7423 -20.7422 -20.7422 -20.7416 -20.7416 -20.7415 -20.7415
   -20.7414 -20.7413 -20.7412 -20.7412 -20.7379 -20.7379 -20.7379 -20.7378
   -10.0346 -10.0346  -9.7138  -9.7138  -9.6660  -9.6660  -9.3535  -9.3535
    -8.9547  -8.9546  -8.9170  -8.9170  -8.9110  -8.9110  -8.9038  -8.9038
    -8.2185  -8.2184  -8.1786  -8.1786  -8.1108  -8.1108  -8.0708  -8.0708
     0.8347   0.8347   0.9032   0.9033   1.1015   1.1015   1.2171   1.2172
     2.3071   2.3072   2.7685   2.7685   2.7702   2.7702   2.8284   2.8284
     2.8457   2.8457   2.9889   2.9889   3.1616   3.1616   3.2448   3.2449
     3.3022   3.3022   3.9918   3.9919   4.1494   4.1494   4.4963   4.4964
     4.5643   4.5643   4.5892   4.5893   4.7933   4.7933   5.2115   5.2115
     5.4296   5.4296   5.4492   5.4492   5.6638   5.6638   5.7614   5.7614
     5.9569   5.9569   6.1100   6.1100   6.1378   6.1378   6.4416   6.4417
     6.5205   6.5205   6.5519   6.5519   6.6150   6.6150   7.2416   7.2416
     7.2530   7.2530   7.2798   7.2798   7.3032   7.3032   7.7529   7.7529
     9.2992   9.2992  10.8073  10.8074  10.8129  10.8130  10.8814  10.8814
    10.9051  10.9051  12.1314  12.1314  12.2601  12.2602  12.5603  12.5603
    12.5970  12.5970  12.7495  12.7496  12.7633  12.7633  13.3795  13.3796
    14.2813  14.2813  15.0214  15.0214  15.4188  15.4188  15.5616  15.5616
    16.3636  16.3636  17.3414  17.3415  17.3973

          k = 0.1667 0.1648 0.0000 ( 63926 PWs)   bands (ev):

   -66.6102 -66.6097 -66.6096 -66.6095 -66.6091 -66.6090 -66.6089 -66.6084
   -30.9640 -30.9593 -30.9586 -30.9538 -30.9493 -30.9473 -30.9447 -30.9422
   -30.9401 -30.9399 -30.9384 -30.9375 -30.8925 -30.8921 -30.8899 -30.8894
   -30.8706 -30.8677 -30.8658 -30.8649 -30.8622 -30.8598 -30.8566 -30.8556
   -20.7793 -20.7792 -20.7792 -20.7791 -20.7791 -20.7790 -20.7790 -20.7789
   -20.7553 -20.7549 -20.7546 -20.7544 -20.7540 -20.7539 -20.7536 -20.7530
   -20.7529 -20.7528 -20.7518 -20.7517 -20.7517 -20.7514 -20.7508 -20.7506
   -20.7503 -20.7501 -20.7499 -20.7493 -20.7492 -20.7490 -20.7488 -20.7485
   -20.7471 -20.7467 -20.7462 -20.7460 -20.7456 -20.7455 -20.7455 -20.7453
   -20.7446 -20.7446 -20.7443 -20.7443 -20.7423 -20.7423 -20.7409 -20.7409
   -20.7387 -20.7386 -20.7385 -20.7384 -20.7378 -20.7376 -20.7372 -20.7371
   -10.2375  -9.9637  -9.9385  -9.8709  -9.6904  -9.5877  -9.5451  -9.3993
    -9.3685  -9.3368  -9.3291  -9.3026  -8.2763  -8.2389  -8.2306  -8.2227
    -8.1963  -8.1948  -8.1793  -8.1428  -8.0969  -8.0607  -8.0510  -8.0172
     0.7545   0.7559   0.7731   0.8021   0.9933   1.0083   1.0965   1.1685
     1.2211   1.2590   1.3417   1.5163   2.2473   2.2837   2.3242   2.3550
     2.3826   2.4428   3.8043   3.8109   3.9108   3.9191   3.9723   3.9944
     4.0802   4.0823   4.2755   4.3354   4.3681   4.4070   4.5578   4.7079
     4.8465   4.9324   4.9464   4.9844   4.9960   5.2225   5.2600   5.3043
     5.3396   5.4953   5.6150   5.6377   5.7326   5.7586   5.8554   5.8811
     5.9751   5.9841   6.1136   6.1871   6.2689   6.3376   6.4102   6.4910
     6.5218   6.5234   6.5782   6.5933   6.6199   6.6339   6.6609   6.6770
     6.6845   6.7012   7.6896   7.6906   7.7863   7.7924   7.8002   7.8180
     9.0811   9.1138   9.2364   9.2855   9.5178   9.5657  11.8905  11.9791
    12.0080  12.0174  12.0385  12.0840  12.1926  12.2653  12.2710  12.3031
    12.4669  12.5201  13.2369  13.2725  13.3819  13.3987  13.5321  13.5536
    14.2249  14.2374  14.3995  14.5414  14.5642  14.6696  15.3724  15.7633
    15.8548  16.4936  16.5635  16.8258  17.1130

          k = 0.1667 0.1648 0.1665 ( 63925 PWs)   bands (ev):

   -66.6101 -66.6096 -66.6096 -66.6095 -66.6091 -66.6090 -66.6090 -66.6085
   -30.9636 -30.9596 -30.9583 -30.9541 -30.9450 -30.9449 -30.9409 -30.9392
   -30.9392 -30.9386 -30.9356 -30.9340 -30.8922 -30.8918 -30.8905 -30.8898
   -30.8705 -30.8687 -30.8685 -30.8668 -30.8657 -30.8651 -30.8606 -30.8595
   -20.7792 -20.7792 -20.7792 -20.7791 -20.7791 -20.7790 -20.7790 -20.7789
   -20.7553 -20.7550 -20.7545 -20.7543 -20.7541 -20.7539 -20.7536 -20.7530
   -20.7528 -20.7528 -20.7519 -20.7518 -20.7516 -20.7513 -20.7509 -20.7505
   -20.7503 -20.7500 -20.7500 -20.7493 -20.7492 -20.7490 -20.7488 -20.7485
   -20.7471 -20.7466 -20.7462 -20.7460 -20.7456 -20.7453 -20.7452 -20.7451
   -20.7444 -20.7444 -20.7441 -20.7441 -20.7422 -20.7422 -20.7410 -20.7410
   -20.7392 -20.7389 -20.7386 -20.7385 -20.7382 -20.7380 -20.7373 -20.7372
   -10.1923  -9.9064  -9.8820  -9.8783  -9.6004  -9.5953  -9.5524  -9.3566
    -9.3339  -9.3235  -9.3053  -9.3046  -8.2839  -8.2388  -8.2381  -8.2298
    -8.2273  -8.2127  -8.2091  -8.1816  -8.1781  -8.1658  -8.1480  -8.1331
     0.9494   0.9630   0.9839   0.9944   1.0167   1.0783   1.0978   1.1683
     1.3072   1.3257   1.3409   1.5799   2.3304   2.3428   2.3660   2.4193
     2.4421   2.4652   3.8154   3.8402   3.8752   3.9042   4.0134   4.0280
     4.0447   4.0594   4.0912   4.0981   4.1237   4.1715   4.5425   4.6502
     4.6927   4.8976   4.9272   4.9474   4.9731   5.0006   5.0093   5.2901
     5.3282   5.3430   5.6383   5.6570   5.7159   5.7828   5.8314   5.9816
     5.9933   6.1129   6.1246   6.2494   6.2654   6.2712   6.2991   6.3290
     6.3485   6.5532   6.5624   6.5849   6.6097   6.6302   6.6453   6.6571
     6.7130   6.7492   7.6855   7.6913   7.7343   7.7409   7.7495   7.7696
     9.3429   9.3783   9.4793   9.5168   9.5655   9.5827  11.9420  12.0087
    12.0408  12.0553  12.0585  12.0825  12.0948  12.1094  12.2067  12.2661
    12.3100  12.3344  13.2141  13.2347  13.3159  13.3587  13.3840  13.4200
    14.4349  14.5000  14.5416  14.6530  14.6616  14.7807  15.7314  15.7995
    15.8293  16.6111  16.6869  16.6960  16.9033

          k = 0.1667 0.1648 0.3330 ( 63916 PWs)   bands (ev):

   -66.6100 -66.6097 -66.6095 -66.6094 -66.6092 -66.6091 -66.6089 -66.6086
   -30.9627 -30.9604 -30.9574 -30.9550 -30.9427 -30.9423 -30.9395 -30.9395
   -30.9277 -30.9242 -30.9223 -30.9192 -30.8936 -30.8920 -30.8912 -30.8906
   -30.8817 -30.8811 -30.8794 -30.8783 -30.8694 -30.8667 -30.8648 -30.8622
   -20.7792 -20.7791 -20.7791 -20.7791 -20.7791 -20.7790 -20.7790 -20.7790
   -20.7552 -20.7550 -20.7544 -20.7542 -20.7541 -20.7538 -20.7537 -20.7532
   -20.7527 -20.7526 -20.7521 -20.7520 -20.7514 -20.7510 -20.7510 -20.7505
   -20.7503 -20.7500 -20.7498 -20.7494 -20.7491 -20.7490 -20.7488 -20.7486
   -20.7469 -20.7465 -20.7463 -20.7462 -20.7455 -20.7454 -20.7444 -20.7444
   -20.7440 -20.7439 -20.7430 -20.7429 -20.7420 -20.7419 -20.7413 -20.7413
   -20.7405 -20.7402 -20.7396 -20.7394 -20.7382 -20.7382 -20.7376 -20.7375
   -10.0873  -9.9176  -9.7790  -9.7428  -9.6208  -9.5772  -9.3435  -9.3257
    -9.3101  -9.1993  -9.1935  -9.1792  -8.5466  -8.5437  -8.5297  -8.5230
    -8.2539  -8.2376  -8.2185  -8.2151  -8.1951  -8.1938  -8.1748  -8.1536
     0.9943   1.0003   1.0874   1.0998   1.1465   1.1661   1.2656   1.3376
     1.8223   1.9098   1.9239   2.0491   2.3621   2.4147   2.5733   2.6083
     2.6704   2.6930   3.4305   3.5161   3.5436   3.6285   3.7120   3.8756
     3.9285   3.9645   4.0413   4.0642   4.0955   4.2474   4.2686   4.3358
     4.3820   4.4062   4.4922   4.6084   4.7624   4.8241   4.9905   5.0580
     5.3154   5.3660   5.4225   5.5247   5.5684   5.6555   5.7347   5.7943
     5.9586   6.0764   6.2220   6.2359   6.2770   6.3236   6.3294   6.3777
     6.5023   6.5663   6.6016   6.6146   6.6465   6.7337   6.7844   6.7884
     6.8694   6.9072   7.5539   7.5691   7.5778   7.5835   7.6979   7.7097
     9.5111   9.5472  10.0189  10.0369  10.1585  10.1940  11.5535  11.5641
    11.6928  11.7239  12.0614  12.0830  12.1191  12.1686  12.2216  12.2722
    12.2987  12.3722  12.9374  12.9648  13.0078  13.0438  13.3071  13.3233
    14.5129  14.5425  15.0386  15.0691  15.1630  15.4663  15.6385  15.7413
    16.0979  16.8586  16.9457  17.0247  17.1146

          k = 0.1667 0.1648-0.4996 ( 63956 PWs)   bands (ev):

   -66.6098 -66.6098 -66.6093 -66.6093 -66.6093 -66.6092 -66.6088 -66.6087
   -30.9616 -30.9616 -30.9562 -30.9561 -30.9417 -30.9416 -30.9402 -30.9401
   -30.9079 -30.9079 -30.9045 -30.9044 -30.9019 -30.9018 -30.8986 -30.8986
   -30.8896 -30.8896 -30.8883 -30.8883 -30.8683 -30.8683 -30.8636 -30.8636
   -20.7792 -20.7792 -20.7791 -20.7791 -20.7791 -20.7791 -20.7790 -20.7790
   -20.7551 -20.7551 -20.7543 -20.7543 -20.7540 -20.7539 -20.7535 -20.7534
   -20.7524 -20.7524 -20.7523 -20.7523 -20.7512 -20.7512 -20.7508 -20.7507
   -20.7502 -20.7501 -20.7496 -20.7496 -20.7491 -20.7491 -20.7487 -20.7487
   -20.7467 -20.7467 -20.7463 -20.7463 -20.7455 -20.7454 -20.7444 -20.7444
   -20.7423 -20.7423 -20.7422 -20.7422 -20.7416 -20.7416 -20.7415 -20.7415
   -20.7414 -20.7413 -20.7412 -20.7412 -20.7379 -20.7379 -20.7379 -20.7378
    -9.9851  -9.9851  -9.6753  -9.6753  -9.6326  -9.6326  -9.3176  -9.3175
    -8.9628  -8.9627  -8.9164  -8.9164  -8.9097  -8.9097  -8.8993  -8.8992
    -8.2459  -8.2459  -8.2077  -8.2077  -8.2060  -8.2060  -8.1648  -8.1647
     0.9970   0.9971   1.1011   1.1011   1.1635   1.1635   1.3258   1.3258
     2.3847   2.3848   2.7767   2.7767   2.8015   2.8015   2.8265   2.8266
     2.8486   2.8486   3.0163   3.0163   3.1577   3.1577   3.2978   3.2978
     3.3385   3.3385   3.9332   3.9333   4.0278   4.0278   4.3487   4.3487
     4.4552   4.4552   4.5172   4.5172   4.5894   4.5894   5.1206   5.1206
     5.2112   5.2112   5.3969   5.3969   5.4451   5.4451   5.7654   5.7654
     6.1109   6.1109   6.1814   6.1814   6.3006   6.3007   6.3770   6.3770
     6.4493   6.4493   6.6164   6.6164   6.6811   6.6811   7.2344   7.2344
     7.2458   7.2458   7.2747   7.2747   7.2892   7.2892   7.7023   7.7024
     9.5315   9.5315  10.8092  10.8092  10.8244  10.8244  10.9539  10.9539
    10.9826  10.9826  12.0754  12.0754  12.1772  12.1772  12.5331  12.5331
    12.5832  12.5832  12.6099  12.6099  12.6320  12.6320  13.3111  13.3111
    14.5326  14.5327  15.4244  15.4244  15.5282  15.5282  15.5536  15.5536
    16.4387  16.4387  17.2926  17.2926  17.3826

          k = 0.1667 0.3297 0.0000 ( 63915 PWs)   bands (ev):

   -66.6100 -66.6098 -66.6095 -66.6094 -66.6092 -66.6091 -66.6088 -66.6085
   -30.9533 -30.9488 -30.9487 -30.9475 -30.9469 -30.9441 -30.9433 -30.9406
   -30.9397 -30.9385 -30.9350 -30.9345 -30.9059 -30.9058 -30.9033 -30.9026
   -30.8699 -30.8676 -30.8667 -30.8654 -30.8619 -30.8604 -30.8569 -30.8561
   -20.7792 -20.7792 -20.7792 -20.7791 -20.7791 -20.7790 -20.7790 -20.7789
   -20.7550 -20.7545 -20.7545 -20.7543 -20.7540 -20.7538 -20.7537 -20.7531
   -20.7519 -20.7519 -20.7515 -20.7512 -20.7508 -20.7508 -20.7507 -20.7506
   -20.7502 -20.7501 -20.7501 -20.7494 -20.7493 -20.7491 -20.7488 -20.7487
   -20.7481 -20.7478 -20.7473 -20.7472 -20.7456 -20.7456 -20.7454 -20.7452
   -20.7448 -20.7447 -20.7445 -20.7445 -20.7423 -20.7423 -20.7409 -20.7409
   -20.7386 -20.7386 -20.7386 -20.7384 -20.7378 -20.7376 -20.7372 -20.7371
   -10.1488  -9.9977  -9.8412  -9.7569  -9.7133  -9.6120  -9.3887  -9.3736
    -9.3006  -9.1855  -9.1745  -9.1668  -8.5665  -8.5370  -8.5310  -8.5181
    -8.2306  -8.2084  -8.1835  -8.1622  -8.0896  -8.0691  -8.0443  -8.0252
     0.7580   0.7619   0.8006   0.8039   1.0867   1.0984   1.1781   1.2211
     1.8629   1.9560   1.9746   2.0893   2.2674   2.3198   2.5292   2.5770
     2.6224   2.6716   3.3163   3.3736   3.4169   3.4928   3.7891   3.9546
     3.9772   4.0458   4.1230   4.2575   4.2649   4.3556   4.3600   4.3614
     4.5005   4.5941   4.6256   4.8009   4.8521   5.0323   5.1252   5.2906
     5.3418   5.4527   5.5637   5.7006   5.7355   5.7623   5.7974   5.8472
     5.8751   6.0355   6.0710   6.0996   6.2453   6.3417   6.4006   6.5331
     6.5553   6.5716   6.5874   6.6146   6.6260   6.6494   6.7652   6.7842
     6.8333   6.8587   7.5168   7.5183   7.5803   7.5817   7.8027   7.8099
     9.0938   9.1153   9.8972   9.9403  10.1097  10.1521  11.4094  11.4590
    11.5483  11.5838  12.0159  12.0236  12.2680  12.2725  12.3532  12.4181
    12.6147  12.6488  12.9824  13.0299  13.2091  13.2395  13.3742  13.3852
    14.3893  14.4091  14.7373  14.8873  15.0929  15.2863  15.3259  15.7482
    15.9160  16.8222  16.9106  17.0372  17.0472

          k = 0.1667 0.3297 0.1665 ( 63944 PWs)   bands (ev):

   -66.6100 -66.6097 -66.6094 -66.6094 -66.6092 -66.6091 -66.6089 -66.6086
   -30.9529 -30.9490 -30.9459 -30.9449 -30.9439 -30.9413 -30.9406 -30.9400
   -30.9386 -30.9350 -30.9342 -30.9327 -30.9055 -30.9054 -30.9037 -30.9029
   -30.8698 -30.8685 -30.8682 -30.8670 -30.8667 -30.8657 -30.8609 -30.8605
   -20.7792 -20.7792 -20.7792 -20.7791 -20.7791 -20.7790 -20.7790 -20.7789
   -20.7550 -20.7546 -20.7544 -20.7543 -20.7540 -20.7538 -20.7537 -20.7532
   -20.7519 -20.7518 -20.7514 -20.7511 -20.7509 -20.7508 -20.7507 -20.7506
   -20.7501 -20.7501 -20.7501 -20.7494 -20.7493 -20.7490 -20.7488 -20.7487
   -20.7481 -20.7477 -20.7473 -20.7473 -20.7454 -20.7452 -20.7452 -20.7451
   -20.7448 -20.7447 -20.7441 -20.7441 -20.7422 -20.7422 -20.7410 -20.7410
   -20.7391 -20.7389 -20.7386 -20.7385 -20.7382 -20.7381 -20.7373 -20.7373
   -10.0985  -9.9411  -9.7678  -9.7660  -9.6240  -9.6202  -9.3518  -9.3387
    -9.3081  -9.1696  -9.1687  -9.1678  -8.5679  -8.5375  -8.5343  -8.5240
    -8.2295  -8.2254  -8.2053  -8.1990  -8.1974  -8.1791  -8.1609  -8.1421
     0.9524   0.9603   1.0694   1.0788   1.0891   1.1002   1.2469   1.3065
     1.8643   1.9573   1.9731   2.0957   2.3505   2.4027   2.5829   2.6153
     2.6664   2.7060   3.3643   3.4073   3.4296   3.4977   3.7801   3.9969
     4.0047   4.0231   4.0416   4.0803   4.1184   4.2144   4.3153   4.3339
     4.3622   4.3705   4.5726   4.6172   4.8630   4.8706   4.9706   5.0256
     5.3407   5.3496   5.4248   5.4451   5.5723   5.5843   5.9273   5.9361
     5.9771   6.1261   6.1266   6.2700   6.2857   6.3220   6.3295   6.3656
     6.5335   6.5550   6.6458   6.6628   6.6775   6.6926   6.7633   6.8085
     6.8497   6.8558   7.5095   7.5185   7.5472   7.5485   7.7514   7.7599
     9.3599   9.3817  10.0540  10.0909  10.1450  10.1492  11.4796  11.5275
    11.5623  11.5802  12.0637  12.0782  12.0866  12.0943  12.3633  12.4026
    12.4312  12.4575  12.9859  13.0199  13.0516  13.0767  13.2969  13.3099
    14.6455  14.6501  15.0004  15.0701  15.1023  15.3915  15.7024  15.7290
    16.0331  16.7902  16.9768  17.0163  17.1196

          k = 0.1667 0.3297 0.3330 ( 63948 PWs)   bands (ev):

   -66.6099 -66.6096 -66.6096 -66.6093 -66.6093 -66.6090 -66.6090 -66.6087
   -30.9520 -30.9498 -30.9442 -30.9431 -30.9420 -30.9408 -30.9387 -30.9357
   -30.9277 -30.9241 -30.9223 -30.9194 -30.9054 -30.9047 -30.9039 -30.9034
   -30.8827 -30.8817 -30.8801 -30.8788 -30.8687 -30.8662 -30.8660 -30.8636
   -20.7792 -20.7792 -20.7791 -20.7791 -20.7791 -20.7790 -20.7790 -20.7790
   -20.7549 -20.7546 -20.7543 -20.7542 -20.7540 -20.7538 -20.7538 -20.7533
   -20.7518 -20.7517 -20.7512 -20.7511 -20.7511 -20.7509 -20.7508 -20.7504
   -20.7503 -20.7501 -20.7498 -20.7495 -20.7492 -20.7490 -20.7488 -20.7488
   -20.7480 -20.7477 -20.7474 -20.7473 -20.7454 -20.7452 -20.7448 -20.7447
   -20.7440 -20.7439 -20.7430 -20.7430 -20.7420 -20.7420 -20.7413 -20.7413
   -20.7404 -20.7403 -20.7396 -20.7395 -20.7382 -20.7382 -20.7376 -20.7375
    -9.9819  -9.8135  -9.8026  -9.6477  -9.5785  -9.3699  -9.3356  -9.2472
    -9.2058  -9.1771  -9.1226  -9.0946  -8.6398  -8.6045  -8.5386  -8.5379
    -8.5253  -8.5142  -8.4662  -8.4315  -8.2170  -8.1950  -8.1910  -8.1699
     1.0831   1.0870   1.0927   1.1023   1.7005   1.7400   1.8227   1.8678
     1.9212   1.9704   2.0559   2.2147   2.5894   2.5925   2.6265   2.6818
     2.8566   2.9325   3.3638   3.4385   3.4516   3.5235   3.5388   3.5762
     3.7116   3.7590   3.8203   3.9371   4.0279   4.1222   4.1260   4.2134
     4.2525   4.2929   4.3398   4.4005   4.4301   4.4389   4.5442   4.8676
     4.8963   4.9177   4.9780   5.3049   5.3675   5.5750   5.6514   5.6889
     6.1514   6.1771   6.2777   6.3132   6.4074   6.4263   6.5209   6.5637
     6.5878   6.6947   6.7072   6.7330   6.7572   6.7992   6.8458   6.8816
     6.9220   6.9727   7.4163   7.4371   7.4773   7.5277   7.5843   7.6175
     9.9732  10.0306  10.1321  10.1633  10.5447  10.5854  11.5125  11.5414
    11.5549  11.6295  11.7322  11.7808  11.9034  11.9354  12.2183  12.2650
    12.3831  12.4272  12.6394  12.6631  12.9182  12.9713  13.0447  13.0977
    14.9380  15.0643  15.1479  15.4882  15.6372  15.8113  15.8333  16.4006
    16.4342  16.6828  16.7512  17.1635  17.2518

          k = 0.1667 0.3297-0.4996 ( 63906 PWs)   bands (ev):

   -66.6097 -66.6097 -66.6094 -66.6094 -66.6091 -66.6091 -66.6089 -66.6088
   -30.9509 -30.9508 -30.9429 -30.9428 -30.9419 -30.9419 -30.9370 -30.9370
   -30.9109 -30.9109 -30.9084 -30.9084 -30.9024 -30.9023 -30.8993 -30.8992
   -30.8992 -30.8991 -30.8975 -30.8974 -30.8676 -30.8675 -30.8651 -30.8650
   -20.7792 -20.7791 -20.7791 -20.7791 -20.7791 -20.7790 -20.7790 -20.7790
   -20.7548 -20.7547 -20.7541 -20.7541 -20.7540 -20.7540 -20.7536 -20.7535
   -20.7515 -20.7515 -20.7514 -20.7514 -20.7510 -20.7510 -20.7506 -20.7506
   -20.7502 -20.7502 -20.7496 -20.7496 -20.7491 -20.7490 -20.7489 -20.7488
   -20.7478 -20.7478 -20.7474 -20.7474 -20.7453 -20.7453 -20.7448 -20.7447
   -20.7423 -20.7423 -20.7422 -20.7422 -20.7416 -20.7416 -20.7416 -20.7415
   -20.7414 -20.7413 -20.7413 -20.7412 -20.7379 -20.7379 -20.7379 -20.7378
    -9.8716  -9.8716  -9.7059  -9.7059  -9.4090  -9.4089  -9.1924  -9.1924
    -8.9980  -8.9980  -8.9304  -8.9304  -8.8934  -8.8934  -8.8750  -8.8750
    -8.5301  -8.5301  -8.5032  -8.5032  -8.2045  -8.2045  -8.1828  -8.1828
     1.0921   1.0921   1.1032   1.1032   1.8591   1.8591   1.9510   1.9511
     2.6054   2.6054   2.8084   2.8084   2.8155   2.8155   2.8369   2.8369
     2.8604   2.8604   3.0849   3.0850   3.1412   3.1412   3.4250   3.4251
     3.4925   3.4925   3.5374   3.5374   3.7066   3.7066   3.9417   3.9417
     4.2541   4.2542   4.4123   4.4123   4.4812   4.4812   4.5755   4.5755
     4.6391   4.6391   5.0509   5.0509   5.4398   5.4398   5.5908   5.5908
     6.2564   6.2564   6.3107   6.3107   6.4148   6.4148   6.4744   6.4744
     6.6871   6.6871   6.7522   6.7522   6.8676   6.8677   7.1760   7.1760
     7.2097   7.2097   7.2302   7.2303   7.2921   7.2921   7.5424   7.5424
    10.1153  10.1153  10.8154  10.8154  10.8272  10.8272  11.2034  11.2034
    11.2429  11.2429  11.5852  11.5852  12.1149  12.1149  12.1766  12.1766
    12.3796  12.3796  12.5776  12.5776  12.6168  12.6168  13.0449  13.0449
    15.0308  15.0308  15.4757  15.4758  15.9172  15.9172  16.4145  16.4145
    16.7419  16.7419  16.8626  16.8626  17.4008

          k = 0.1667-0.4945 0.0000 ( 63990 PWs)   bands (ev):

   -66.6099 -66.6099 -66.6093 -66.6093 -66.6093 -66.6092 -66.6087 -66.6086
   -30.9480 -30.9480 -30.9460 -30.9460 -30.9435 -30.9435 -30.9420 -30.9420
   -30.9241 -30.9241 -30.9235 -30.9235 -30.9211 -30.9211 -30.9209 -30.9209
   -30.8688 -30.8688 -30.8661 -30.8661 -30.8612 -30.8612 -30.8567 -30.8566
   -20.7792 -20.7792 -20.7792 -20.7791 -20.7791 -20.7790 -20.7790 -20.7789
   -20.7547 -20.7547 -20.7542 -20.7542 -20.7541 -20.7541 -20.7534 -20.7533
   -20.7514 -20.7513 -20.7512 -20.7511 -20.7504 -20.7504 -20.7502 -20.7502
   -20.7499 -20.7499 -20.7496 -20.7496 -20.7493 -20.7493 -20.7489 -20.7489
   -20.7485 -20.7485 -20.7485 -20.7484 -20.7457 -20.7456 -20.7452 -20.7451
   -20.7450 -20.7449 -20.7445 -20.7445 -20.7423 -20.7423 -20.7409 -20.7409
   -20.7386 -20.7386 -20.7385 -20.7385 -20.7377 -20.7377 -20.7372 -20.7372
   -10.0596 -10.0596  -9.7598  -9.7598  -9.6630  -9.6630  -9.3807  -9.3806
    -8.9426  -8.9425  -8.9017  -8.9016  -8.8920  -8.8919  -8.8892  -8.8892
    -8.2200  -8.2200  -8.1735  -8.1734  -8.0795  -8.0795  -8.0349  -8.0349
     0.7606   0.7606   0.8050   0.8050   1.0984   1.0984   1.2140   1.2140
     2.2933   2.2933   2.7516   2.7517   2.8303   2.8303   2.8359   2.8359
     2.8966   2.8967   2.9460   2.9461   3.1263   3.1264   3.1671   3.1672
     3.2675   3.2675   3.9687   3.9688   4.2692   4.2692   4.4798   4.4798
     4.6009   4.6009   4.6770   4.6771   4.8653   4.8654   5.1585   5.1585
     5.4061   5.4061   5.4485   5.4485   5.8025   5.8025   5.8193   5.8193
     5.9743   5.9743   6.0619   6.0619   6.2131   6.2131   6.4361   6.4362
     6.5794   6.5795   6.6188   6.6188   6.6425   6.6425   7.1919   7.1919
     7.2043   7.2044   7.2221   7.2221   7.2412   7.2412   7.8062   7.8062
     9.1057   9.1057  10.6847  10.6847  10.7214  10.7214  10.8494  10.8494
    10.8935  10.8935  12.0214  12.0214  12.2711  12.2711  12.6283  12.6283
    12.6925  12.6925  12.8770  12.8770  12.9057  12.9057  13.3721  13.3722
    14.4064  14.4065  15.0978  15.0979  15.3534  15.3535  15.5189  15.5190
    16.2692  16.2692  17.3411  17.3411  17.3853

          k = 0.1667-0.4945 0.1665 ( 63926 PWs)   bands (ev):

   -66.6099 -66.6098 -66.6093 -66.6093 -66.6093 -66.6092 -66.6087 -66.6087
   -30.9463 -30.9463 -30.9427 -30.9424 -30.9422 -30.9419 -30.9385 -30.9384
   -30.9235 -30.9234 -30.9229 -30.9229 -30.9214 -30.9214 -30.9211 -30.9210
   -30.8689 -30.8688 -30.8679 -30.8678 -30.8663 -30.8663 -30.8610 -30.8609
   -20.7792 -20.7792 -20.7791 -20.7791 -20.7791 -20.7790 -20.7790 -20.7790
   -20.7547 -20.7546 -20.7542 -20.7542 -20.7541 -20.7541 -20.7534 -20.7534
   -20.7513 -20.7513 -20.7511 -20.7511 -20.7505 -20.7504 -20.7501 -20.7501
   -20.7500 -20.7500 -20.7495 -20.7495 -20.7494 -20.7493 -20.7490 -20.7489
   -20.7485 -20.7485 -20.7485 -20.7484 -20.7453 -20.7452 -20.7451 -20.7450
   -20.7450 -20.7449 -20.7441 -20.7441 -20.7422 -20.7422 -20.7410 -20.7410
   -20.7391 -20.7390 -20.7386 -20.7385 -20.7381 -20.7381 -20.7373 -20.7373
   -10.0050 -10.0050  -9.6743  -9.6739  -9.6723  -9.6720  -9.3452  -9.3452
    -8.9494  -8.9494  -8.8976  -8.8971  -8.8947  -8.8941  -8.8869  -8.8866
    -8.2232  -8.2231  -8.2061  -8.2058  -8.1910  -8.1906  -8.1517  -8.1516
     0.9559   0.9563   1.0797   1.0797   1.1001   1.1005   1.2964   1.2967
     2.3753   2.3756   2.7615   2.7633   2.8173   2.8184   2.8596   2.8611
     2.8910   2.8966   2.9941   2.9988   3.1568   3.1684   3.1803   3.1839
     3.2914   3.2946   4.0127   4.0196   4.0237   4.0340   4.3961   4.4199
     4.4708   4.4876   4.5908   4.6021   4.6165   4.6262   5.0941   5.1075
     5.1628   5.1700   5.3941   5.4024   5.4191   5.4218   5.9548   5.9570
[...]
    10.8526  10.8526  10.8526  10.8526  11.0413  11.0413  11.0413  11.0413
    11.5906  11.5906  11.5906  11.5906  11.6258  11.6258  11.6258  11.6258
    12.5150  12.5150  12.5151  12.5151  12.6793  12.6793  12.6793  12.6793
    15.2304  15.2304  15.2304  15.2304  16.3849  16.3849  16.3850  16.3850
    17.3791  17.3791  17.3792  17.3792  17.5486

          k =-0.5000 0.3297 0.0000 ( 63940 PWs)   bands (ev):

   -66.6098 -66.6098 -66.6095 -66.6095 -66.6091 -66.6091 -66.6088 -66.6088
   -30.9491 -30.9491 -30.9461 -30.9461 -30.9426 -30.9426 -30.9410 -30.9410
   -30.9139 -30.9139 -30.9109 -30.9109 -30.9047 -30.9047 -30.9028 -30.9028
   -30.8972 -30.8972 -30.8955 -30.8955 -30.8600 -30.8600 -30.8585 -30.8585
   -20.7792 -20.7792 -20.7792 -20.7791 -20.7790 -20.7790 -20.7790 -20.7790
   -20.7547 -20.7547 -20.7542 -20.7542 -20.7541 -20.7541 -20.7534 -20.7534
   -20.7519 -20.7519 -20.7514 -20.7514 -20.7508 -20.7508 -20.7505 -20.7505
   -20.7504 -20.7504 -20.7498 -20.7498 -20.7485 -20.7485 -20.7477 -20.7477
   -20.7468 -20.7468 -20.7467 -20.7467 -20.7462 -20.7461 -20.7461 -20.7461
   -20.7451 -20.7451 -20.7450 -20.7450 -20.7409 -20.7409 -20.7408 -20.7408
   -20.7394 -20.7394 -20.7394 -20.7393 -20.7382 -20.7382 -20.7380 -20.7380
    -9.9405  -9.9405  -9.7937  -9.7937  -9.4020  -9.4019  -9.2158  -9.2158
    -8.9883  -8.9882  -8.9392  -8.9391  -8.8951  -8.8949  -8.8725  -8.8724
    -8.5302  -8.5302  -8.4998  -8.4998  -8.0673  -8.0673  -8.0476  -8.0476
     0.8037   0.8037   0.8072   0.8072   1.8620   1.8620   1.9446   1.9446
     2.5655   2.5655   2.7742   2.7743   2.7966   2.7966   2.8441   2.8441
     2.8774   2.8774   3.0393   3.0394   3.0442   3.0443   3.3575   3.3575
     3.4555   3.4555   3.4910   3.4910   3.7931   3.7931   3.9861   3.9861
     4.4362   4.4362   4.4723   4.4723   4.6011   4.6011   4.6669   4.6670
     4.9140   4.9140   5.3531   5.3532   5.8722   5.8722   5.9521   5.9521
     6.0114   6.0114   6.0702   6.0702   6.1577   6.1577   6.3766   6.3766
     6.6856   6.6856   6.7503   6.7503   6.8317   6.8317   7.1706   7.1707
     7.2020   7.2021   7.2324   7.2325   7.2993   7.2993   7.6018   7.6018
     9.9105   9.9105  10.7157  10.7157  10.7189  10.7189  11.2040  11.2040
    11.2302  11.2303  11.4916  11.4916  12.1674  12.1674  12.2016  12.2016
    12.6116  12.6116  12.7332  12.7332  12.7659  12.7659  13.2416  13.2416
    14.6609  14.6609  15.0493  15.0493  15.8367  15.8367  16.4007  16.4007
    16.6144  16.6144  16.8609  16.8609  17.4672

          k =-0.5000 0.3297 0.1665 ( 63894 PWs)   bands (ev):

   -66.6097 -66.6097 -66.6094 -66.6094 -66.6091 -66.6091 -66.6089 -66.6089
   -30.9479 -30.9478 -30.9429 -30.9429 -30.9407 -30.9406 -30.9365 -30.9365
   -30.9136 -30.9136 -30.9111 -30.9111 -30.9045 -30.9045 -30.9031 -30.9031
   -30.8969 -30.8969 -30.8960 -30.8960 -30.8655 -30.8655 -30.8641 -30.8641
   -20.7792 -20.7792 -20.7791 -20.7791 -20.7790 -20.7790 -20.7790 -20.7790
   -20.7546 -20.7546 -20.7542 -20.7542 -20.7541 -20.7541 -20.7535 -20.7535
   -20.7519 -20.7519 -20.7513 -20.7513 -20.7509 -20.7509 -20.7504 -20.7504
   -20.7504 -20.7504 -20.7498 -20.7498 -20.7485 -20.7485 -20.7477 -20.7477
   -20.7468 -20.7468 -20.7467 -20.7467 -20.7462 -20.7461 -20.7461 -20.7461
   -20.7447 -20.7447 -20.7446 -20.7446 -20.7408 -20.7408 -20.7407 -20.7407
   -20.7395 -20.7395 -20.7394 -20.7394 -20.7387 -20.7386 -20.7385 -20.7385
    -9.8715  -9.8714  -9.7095  -9.7094  -9.4122  -9.4122  -9.1943  -9.1943
    -8.9984  -8.9983  -8.9317  -8.9316  -8.8913  -8.8912  -8.8758  -8.8757
    -8.5281  -8.5281  -8.5044  -8.5044  -8.1972  -8.1972  -8.1772  -8.1771
     1.0745   1.0745   1.0839   1.0839   1.8637   1.8637   1.9435   1.9435
     2.6450   2.6450   2.7803   2.7804   2.7990   2.7991   2.8506   2.8507
     2.8790   2.8790   3.1089   3.1089   3.1163   3.1163   3.3950   3.3950
     3.4650   3.4651   3.4991   3.4992   3.7895   3.7895   3.9919   3.9919
     4.2427   4.2427   4.3969   4.3969   4.4654   4.4654   4.5732   4.5732
     4.6320   4.6321   5.0558   5.0558   5.4424   5.4424   5.5960   5.5960
     6.2623   6.2623   6.3184   6.3185   6.4240   6.4241   6.4893   6.4893
     6.6854   6.6854   6.7478   6.7478   6.8649   6.8650   7.1628   7.1629
     7.2012   7.2013   7.2319   7.2319   7.2902   7.2903   7.5689   7.5689
    10.0743  10.0743  10.8018  10.8018  10.8162  10.8162  11.2117  11.2117
    11.2407  11.2407  11.5541  11.5541  12.1665  12.1665  12.1936  12.1936
    12.4235  12.4235  12.5900  12.5900  12.6064  12.6064  13.0811  13.0811
    15.0265  15.0265  15.4540  15.4540  15.9144  15.9144  16.3917  16.3917
    16.6593  16.6593  16.9042  16.9042  17.3845

          k =-0.5000 0.3297 0.3330 ( 63926 PWs)   bands (ev):

   -66.6096 -66.6096 -66.6093 -66.6093 -66.6093 -66.6093 -66.6090 -66.6090
   -30.9463 -30.9463 -30.9438 -30.9438 -30.9260 -30.9260 -30.9226 -30.9226
   -30.9128 -30.9128 -30.9115 -30.9115 -30.9039 -30.9039 -30.9036 -30.9036
   -30.8979 -30.8978 -30.8958 -30.8958 -30.8797 -30.8797 -30.8792 -30.8792
   -20.7792 -20.7792 -20.7791 -20.7791 -20.7791 -20.7791 -20.7790 -20.7790
   -20.7545 -20.7545 -20.7542 -20.7542 -20.7540 -20.7540 -20.7536 -20.7536
   -20.7517 -20.7517 -20.7511 -20.7511 -20.7511 -20.7511 -20.7506 -20.7506
   -20.7502 -20.7502 -20.7499 -20.7499 -20.7483 -20.7483 -20.7479 -20.7479
   -20.7468 -20.7468 -20.7467 -20.7467 -20.7461 -20.7461 -20.7461 -20.7461
   -20.7435 -20.7435 -20.7435 -20.7435 -20.7406 -20.7406 -20.7406 -20.7406
   -20.7399 -20.7399 -20.7398 -20.7398 -20.7397 -20.7397 -20.7397 -20.7397
    -9.7002  -9.7001  -9.4775  -9.4775  -9.4487  -9.4486  -9.1101  -9.1101
    -9.0407  -9.0406  -8.9054  -8.9053  -8.8851  -8.8850  -8.8776  -8.8775
    -8.5611  -8.5611  -8.5161  -8.5161  -8.5113  -8.5113  -8.4491  -8.4491
     1.7135   1.7135   1.8231   1.8231   1.8675   1.8675   2.0254   2.0254
     2.7817   2.7818   2.7952   2.7952   2.8246   2.8246   2.8599   2.8600
     2.9340   2.9340   3.3111   3.3112   3.3182   3.3182   3.4271   3.4271
     3.4715   3.4715   3.5656   3.5656   3.7392   3.7392   3.7740   3.7741
     3.8794   3.8794   4.0761   4.0761   4.1122   4.1122   4.3985   4.3985
     4.4553   4.4553   4.5734   4.5734   4.5870   4.5871   4.9689   4.9690
     6.5623   6.5623   6.6150   6.6150   6.6746   6.6746   6.7042   6.7042
     6.7497   6.7498   6.8118   6.8119   6.9811   6.9811   7.1342   7.1343
     7.1724   7.1725   7.2477   7.2478   7.2539   7.2540   7.4675   7.4675
    10.5324  10.5324  11.0613  11.0613  11.1053  11.1053  11.2214  11.2214
    11.2897  11.2897  11.7622  11.7622  11.8971  11.8971  12.0861  12.0861
    12.1662  12.1662  12.2164  12.2164  12.2656  12.2656  12.6796  12.6796
    15.8158  15.8158  16.1477  16.1478  16.3295  16.3295  16.4557  16.4557
    16.8530  16.8530  16.9943  16.9944  17.0498

          k =-0.5000 0.3297-0.4996 ( 63960 PWs)   bands (ev):

   -66.6095 -66.6094 -66.6094 -66.6094 -66.6092 -66.6091 -66.6091 -66.6091
   -30.9450 -30.9450 -30.9450 -30.9449 -30.9128 -30.9127 -30.9127 -30.9127
   -30.9077 -30.9077 -30.9076 -30.9076 -30.9060 -30.9060 -30.9059 -30.9059
   -30.8979 -30.8979 -30.8979 -30.8979 -30.8925 -30.8925 -30.8925 -30.8925
   -20.7792 -20.7791 -20.7791 -20.7791 -20.7791 -20.7791 -20.7791 -20.7790
   -20.7544 -20.7544 -20.7543 -20.7543 -20.7539 -20.7538 -20.7538 -20.7538
   -20.7515 -20.7514 -20.7514 -20.7514 -20.7509 -20.7508 -20.7508 -20.7508
   -20.7500 -20.7500 -20.7500 -20.7499 -20.7482 -20.7481 -20.7481 -20.7481
   -20.7468 -20.7468 -20.7467 -20.7467 -20.7461 -20.7461 -20.7461 -20.7460
   -20.7419 -20.7419 -20.7418 -20.7418 -20.7418 -20.7418 -20.7417 -20.7417
   -20.7401 -20.7401 -20.7401 -20.7401 -20.7400 -20.7400 -20.7400 -20.7400
    -9.5355  -9.5355  -9.5355  -9.5355  -9.1910  -9.1910  -9.1909  -9.1909
    -8.9431  -8.9431  -8.9430  -8.9430  -8.8156  -8.8156  -8.8155  -8.8155
    -8.7980  -8.7980  -8.7979  -8.7979  -8.5044  -8.5044  -8.5044  -8.5044
     1.8626   1.8626   1.8627   1.8627   2.6808   2.6808   2.6809   2.6809
     2.7317   2.7317   2.7318   2.7318   2.8727   2.8727   2.8728   2.8728
     2.9625   2.9625   2.9626   2.9626   3.4226   3.4226   3.4226   3.4226
     3.4938   3.4938   3.4938   3.4938   3.6758   3.6759   3.6759   3.6759
     3.8308   3.8308   3.8308   3.8308   3.9087   3.9087   3.9088   3.9088
     4.2665   4.2665   4.2666   4.2666   4.6465   4.6465   4.6465   4.6465
     6.6602   6.6602   6.6603   6.6603   6.6947   6.6947   6.6947   6.6947
     7.0187   7.0188   7.0188   7.0188   7.0554   7.0554   7.0554   7.0554
     7.1597   7.1597   7.1597   7.1597   7.3234   7.3234   7.3234   7.3234
    11.0937  11.0937  11.0937  11.0937  11.3070  11.3071  11.3071  11.3071
    11.5882  11.5882  11.5882  11.5882  11.6355  11.6355  11.6355  11.6355
    12.1188  12.1188  12.1188  12.1188  12.2803  12.2803  12.2803  12.2803
    16.2207  16.2207  16.2208  16.2208  16.5724  16.5725  16.5725  16.5725
    17.1297  17.1297  17.1298  17.1298  17.5551

          k =-0.5000-0.4945 0.0000 ( 63928 PWs)   bands (ev):

   -66.6096 -66.6096 -66.6096 -66.6096 -66.6090 -66.6090 -66.6089 -66.6089
   -30.9455 -30.9455 -30.9455 -30.9455 -30.9283 -30.9283 -30.9274 -30.9274
   -30.9254 -30.9254 -30.9242 -30.9242 -30.9042 -30.9042 -30.9030 -30.9030
   -30.9007 -30.9007 -30.8998 -30.8998 -30.8593 -30.8593 -30.8593 -30.8593
   -20.7792 -20.7792 -20.7792 -20.7792 -20.7790 -20.7790 -20.7790 -20.7790
   -20.7544 -20.7544 -20.7544 -20.7544 -20.7538 -20.7538 -20.7537 -20.7537
   -20.7513 -20.7513 -20.7512 -20.7512 -20.7502 -20.7502 -20.7502 -20.7502
   -20.7499 -20.7499 -20.7498 -20.7498 -20.7491 -20.7491 -20.7490 -20.7490
   -20.7466 -20.7466 -20.7465 -20.7465 -20.7465 -20.7465 -20.7464 -20.7464
   -20.7451 -20.7451 -20.7450 -20.7450 -20.7409 -20.7409 -20.7408 -20.7408
   -20.7394 -20.7394 -20.7394 -20.7394 -20.7381 -20.7381 -20.7381 -20.7381
    -9.8506  -9.8505  -9.8485  -9.8485  -9.1300  -9.1299  -9.1187  -9.1187
    -9.0180  -9.0179  -9.0088  -9.0088  -8.8208  -8.8208  -8.8062  -8.8061
    -8.7868  -8.7867  -8.7719  -8.7718  -8.0576  -8.0576  -8.0576  -8.0575
     0.8072   0.8072   0.8089   0.8089   2.6422   2.6422   2.6987   2.6987
     2.7124   2.7124   2.7773   2.7773   2.8267   2.8267   2.9052   2.9052
     2.9245   2.9246   2.9799   2.9799   2.9896   2.9896   3.0669   3.0669
     3.1214   3.1214   3.3106   3.3107   3.7772   3.7772   3.8608   3.8609
     3.8619   3.8619   3.9348   3.9349   4.6118   4.6118   4.6340   4.6341
     5.0656   5.0657   5.1146   5.1146   5.8995   5.8995   5.9021   5.9021
     6.1095   6.1095   6.1258   6.1258   6.1653   6.1653   6.1895   6.1895
     6.9720   6.9721   7.0157   7.0157   7.0375   7.0375   7.0797   7.0797
     7.0813   7.0814   7.1465   7.1466   7.3644   7.3644   7.3769   7.3770
    10.6114  10.6114  10.6631  10.6631  10.7543  10.7543  10.8123  10.8123
    11.6225  11.6226  11.6727  11.6727  11.7010  11.7010  11.7378  11.7379
    12.7048  12.7048  12.7189  12.7189  12.9093  12.9093  12.9364  12.9364
    14.9220  14.9220  14.9221  14.9222  16.3050  16.3051  16.3497  16.3497
    17.3548  17.3548  17.3586  17.3588  17.4389

          k =-0.5000-0.4945 0.1665 ( 63948 PWs)   bands (ev):

   -66.6096 -66.6096 -66.6096 -66.6095 -66.6090 -66.6090 -66.6090 -66.6090
   -30.9404 -30.9404 -30.9404 -30.9404 -30.9277 -30.9277 -30.9268 -30.9268
   -30.9256 -30.9256 -30.9245 -30.9245 -30.9039 -30.9038 -30.9027 -30.9027
   -30.9011 -30.9011 -30.9001 -30.9001 -30.8649 -30.8649 -30.8649 -30.8649
   -20.7792 -20.7792 -20.7792 -20.7791 -20.7790 -20.7790 -20.7790 -20.7790
   -20.7544 -20.7544 -20.7543 -20.7543 -20.7538 -20.7538 -20.7537 -20.7537
   -20.7512 -20.7512 -20.7512 -20.7512 -20.7503 -20.7503 -20.7502 -20.7502
   -20.7498 -20.7498 -20.7498 -20.7497 -20.7492 -20.7492 -20.7491 -20.7491
   -20.7466 -20.7466 -20.7466 -20.7465 -20.7465 -20.7465 -20.7464 -20.7464
   -20.7447 -20.7447 -20.7446 -20.7446 -20.7408 -20.7408 -20.7407 -20.7407
   -20.7395 -20.7395 -20.7395 -20.7395 -20.7386 -20.7386 -20.7386 -20.7386
    -9.7709  -9.7709  -9.7686  -9.7686  -9.1419  -9.1417  -9.1307  -9.1307
    -9.0057  -9.0056  -8.9964  -8.9964  -8.8188  -8.8188  -8.8041  -8.8040
    -8.7888  -8.7888  -8.7741  -8.7740  -8.1876  -8.1876  -8.1876  -8.1876
     1.0832   1.0832   1.0853   1.0853   2.6467   2.6468   2.6953   2.6953
     2.7271   2.7271   2.7770   2.7771   2.8295   2.8295   2.8794   2.8795
     2.9594   2.9595   3.0243   3.0243   3.0832   3.0832   3.1177   3.1177
     3.1770   3.1770   3.3450   3.3450   3.7793   3.7793   3.8531   3.8531
     3.8656   3.8656   3.9287   3.9287   4.3691   4.3691   4.4020   4.4021
     4.7682   4.7682   4.8147   4.8147   5.4731   5.4731   5.4774   5.4774
     6.3475   6.3475   6.3717   6.3717   6.4138   6.4138   6.4317   6.4317
     6.9635   6.9635   7.0112   7.0112   7.0515   7.0516   7.0696   7.0697
     7.0818   7.0819   7.1513   7.1513   7.3453   7.3453   7.3677   7.3677
    10.7037  10.7037  10.7522  10.7523  10.8598  10.8598  10.9182  10.9183
    11.6259  11.6259  11.6709  11.6709  11.7090  11.7090  11.7312  11.7312
    12.5278  12.5278  12.5800  12.5800  12.7258  12.7258  12.7736  12.7736
    15.3199  15.3199  15.3266  15.3266  16.3771  16.3772  16.4184  16.4185
    17.3068  17.3068  17.3517  17.3519  17.4160

          k =-0.5000-0.4945 0.3330 ( 63900 PWs)   bands (ev):

   -66.6095 -66.6095 -66.6094 -66.6094 -66.6091 -66.6091 -66.6091 -66.6091
   -30.9305 -30.9305 -30.9300 -30.9300 -30.9265 -30.9265 -30.9254 -30.9254
   -30.9222 -30.9221 -30.9216 -30.9216 -30.9031 -30.9031 -30.9022 -30.9022
   -30.9017 -30.9017 -30.9006 -30.9006 -30.8798 -30.8798 -30.8797 -30.8797
   -20.7792 -20.7791 -20.7791 -20.7791 -20.7791 -20.7790 -20.7790 -20.7790
   -20.7543 -20.7543 -20.7542 -20.7542 -20.7539 -20.7539 -20.7539 -20.7538
   -20.7510 -20.7510 -20.7510 -20.7510 -20.7504 -20.7504 -20.7504 -20.7504
   -20.7497 -20.7497 -20.7496 -20.7496 -20.7493 -20.7493 -20.7492 -20.7492
   -20.7466 -20.7466 -20.7466 -20.7465 -20.7465 -20.7464 -20.7464 -20.7464
   -20.7435 -20.7435 -20.7435 -20.7435 -20.7406 -20.7406 -20.7406 -20.7406
   -20.7399 -20.7399 -20.7399 -20.7398 -20.7397 -20.7397 -20.7397 -20.7397
    -9.5581  -9.5581  -9.5544  -9.5544  -9.1879  -9.1877  -9.1774  -9.1774
    -8.9563  -8.9562  -8.9476  -8.9476  -8.8132  -8.8132  -8.7998  -8.7998
    -8.7927  -8.7926  -8.7803  -8.7802  -8.4997  -8.4997  -8.4992  -8.4992
     1.8160   1.8160   1.8208   1.8208   2.6569   2.6570   2.6826   2.6826
     2.7458   2.7458   2.7722   2.7722   2.8340   2.8340   2.8869   2.8869
     3.0164   3.0164   3.0330   3.0330   3.2675   3.2675   3.3276   3.3276
     3.3729   3.3729   3.4874   3.4875   3.7518   3.7518   3.7945   3.7945
     3.8553   3.8553   3.8689   3.8689   3.9462   3.9463   3.9664   3.9664
     4.2598   4.2598   4.3062   4.3062   4.6249   4.6249   4.6287   4.6287
     6.6694   6.6694   6.7345   6.7346   6.7378   6.7379   6.7526   6.7526
     6.9369   6.9369   7.0075   7.0075   7.0315   7.0316   7.0435   7.0435
     7.1238   7.1238   7.1698   7.1699   7.2965   7.2965   7.3247   7.3247
    10.9968  10.9968  11.0322  11.0322  11.1743  11.1743  11.2340  11.2340
    11.6157  11.6157  11.6765  11.6765  11.7042  11.7042  11.7359  11.7359
    12.0870  12.0870  12.1816  12.1816  12.2667  12.2667  12.3333  12.3333
    16.2686  16.2687  16.3029  16.3029  16.6071  16.6072  16.6248  16.6248
    17.1090  17.1090  17.1560  17.1561  17.4130

          k =-0.5000-0.4945-0.4996 ( 63896 PWs)   bands (ev):

   -66.6093 -66.6093 -66.6093 -66.6093 -66.6093 -66.6093 -66.6093 -66.6092
   -30.9278 -30.9278 -30.9277 -30.9277 -30.9268 -30.9268 -30.9268 -30.9268
   -30.9077 -30.9076 -30.9076 -30.9076 -30.9060 -30.9059 -30.9059 -30.9059
   -30.8977 -30.8977 -30.8977 -30.8976 -30.8960 -30.8960 -30.8960 -30.8960
   -20.7792 -20.7791 -20.7791 -20.7791 -20.7791 -20.7791 -20.7791 -20.7790
   -20.7541 -20.7541 -20.7541 -20.7541 -20.7540 -20.7540 -20.7540 -20.7540
   -20.7508 -20.7508 -20.7507 -20.7507 -20.7507 -20.7507 -20.7507 -20.7506
   -20.7495 -20.7495 -20.7495 -20.7495 -20.7494 -20.7494 -20.7494 -20.7494
   -20.7466 -20.7466 -20.7466 -20.7466 -20.7465 -20.7464 -20.7464 -20.7464
   -20.7419 -20.7418 -20.7418 -20.7418 -20.7418 -20.7418 -20.7418 -20.7418
   -20.7401 -20.7401 -20.7401 -20.7401 -20.7400 -20.7400 -20.7400 -20.7400
    -9.3175  -9.3174  -9.3174  -9.3174  -9.3094  -9.3093  -9.3093  -9.3093
    -8.8181  -8.8181  -8.8181  -8.8181  -8.8033  -8.8033  -8.8033  -8.8033
    -8.7964  -8.7964  -8.7964  -8.7964  -8.7846  -8.7846  -8.7845  -8.7845
     2.6230   2.6230   2.6230   2.6231   2.6927   2.6927   2.6927   2.6927
     2.7319   2.7319   2.7320   2.7320   2.7938   2.7938   2.7939   2.7939
     2.9960   2.9960   2.9960   2.9960   3.1030   3.1030   3.1031   3.1031
     3.7472   3.7472   3.7472   3.7472   3.7779   3.7779   3.7779   3.7779
     3.8126   3.8127   3.8127   3.8127   3.8553   3.8553   3.8553   3.8553
     3.9387   3.9387   3.9387   3.9387   3.9987   3.9987   3.9988   3.9988
     6.8503   6.8503   6.8503   6.8503   6.9238   6.9239   6.9239   6.9239
     6.9433   6.9434   6.9434   6.9434   6.9903   6.9903   6.9904   6.9904
     7.2094   7.2094   7.2094   7.2095   7.2409   7.2409   7.2410   7.2410
    11.4078  11.4078  11.4078  11.4078  11.4536  11.4536  11.4536  11.4536
    11.6593  11.6593  11.6593  11.6593  11.7462  11.7462  11.7462  11.7463
    11.7770  11.7771  11.7771  11.7771  11.8422  11.8422  11.8422  11.8422
    16.7903  16.7903  16.7904  16.7904  16.8390  16.8390  16.8390  16.8390
    17.3975  17.3976  17.3976  17.3977  17.4153

     the Fermi energy is     8.9679 ev

!    total energy              =   -6260.95949872 Ry
     Harris-Foulkes estimate   =   -6260.95949872 Ry
     estimated scf accuracy    <          1.9E-09 Ry

     The total energy is the sum of the following terms:

     one-electron contribution =   -4836.66095925 Ry
     hartree contribution      =    2649.61038114 Ry
     xc contribution           =    -965.89866933 Ry
     ewald contribution        =   -3108.01024207 Ry
     smearing contrib. (-TS)   =      -0.00000921 Ry

     convergence has been achieved in  13 iterations

     Writing output data file Landau_18.save
 
     init_run     :     28.27s CPU     30.19s WALL (       1 calls)
     electrons    :   1409.98s CPU   1447.18s WALL (       1 calls)

     Called by init_run:
     wfcinit      :     25.53s CPU     27.29s WALL (       1 calls)
     potinit      :      1.16s CPU      1.20s WALL (       1 calls)

     Called by electrons:
     c_bands      :   1232.00s CPU   1266.74s WALL (      13 calls)
     sum_band     :    165.91s CPU    167.47s WALL (      13 calls)
     v_of_rho     :      1.15s CPU      1.19s WALL (      14 calls)
     mix_rho      :      2.10s CPU      2.74s WALL (      13 calls)

     Called by c_bands:
     init_us_2    :      7.99s CPU      8.70s WALL (      54 calls)
     cegterg      :    807.16s CPU    839.49s WALL (      26 calls)

     Called by sum_band:

     Called by *egterg:
     h_psi        :    645.30s CPU    650.45s WALL (     111 calls)
     g_psi        :      1.49s CPU      1.52s WALL (      83 calls)
     cdiaghg      :     11.89s CPU     11.95s WALL (     109 calls)

     Called by h_psi:
     h_psi:pot    :    640.79s CPU    645.66s WALL (     111 calls)
     h_psi:calbec :     66.65s CPU     69.11s WALL (     111 calls)
     vloc_psi     :    501.77s CPU    503.76s WALL (     111 calls)
     add_vuspsi   :     72.37s CPU     72.79s WALL (     111 calls)

     General routines
     calbec       :     66.64s CPU     69.11s WALL (     111 calls)
     fft          :      0.84s CPU      0.86s WALL (      56 calls)
     fftw         :    519.55s CPU    521.12s WALL (   33894 calls)
 
     Parallel routines
 
     PWSCF        : 24m 6.31s CPU    24m46.84s WALL

 
   This run was terminated on:  17:19:40  20Mar2020            

=------------------------------------------------------------------------------=
   JOB DONE.
=------------------------------------------------------------------------------=
